 Entering Gaussian System, Link 0=g09
 AtFile(1): 6ZaPa-NR.gbs
 Initial command:
 /share/apps/gaussian/g09root/g09/l1.exe /localscratch/935830/Gau-8206.inp -scrdir=/localscratch/935830/
 Entering Link 1 = /share/apps/gaussian/g09root/g09/l1.exe PID=      8207.
  
 Copyright (c) 1988,1990,1992,1993,1995,1998,2003,2009, Gaussian, Inc.
                  All Rights Reserved.
  
 This is part of the Gaussian(R) 09 program.  It is based on
 the Gaussian(R) 03 system (copyright 2003, Gaussian, Inc.),
 the Gaussian(R) 98 system (copyright 1998, Gaussian, Inc.),
 the Gaussian(R) 94 system (copyright 1995, Gaussian, Inc.),
 the Gaussian 92(TM) system (copyright 1992, Gaussian, Inc.),
 the Gaussian 90(TM) system (copyright 1990, Gaussian, Inc.),
 the Gaussian 88(TM) system (copyright 1988, Gaussian, Inc.),
 the Gaussian 86(TM) system (copyright 1986, Carnegie Mellon
 University), and the Gaussian 82(TM) system (copyright 1983,
 Carnegie Mellon University). Gaussian is a federally registered
 trademark of Gaussian, Inc.
  
 This software contains proprietary and confidential information,
 including trade secrets, belonging to Gaussian, Inc.
  
 This software is provided under written license and may be
 used, copied, transmitted, or stored only in accord with that
 written license.
  
 The following legend is applicable only to US Government
 contracts under FAR:
  
                    RESTRICTED RIGHTS LEGEND
  
 Use, reproduction and disclosure by the US Government is
 subject to restrictions as set forth in subparagraphs (a)
 and (c) of the Commercial Computer Software - Restricted
 Rights clause in FAR 52.227-19.
  
 Gaussian, Inc.
 340 Quinnipiac St., Bldg. 40, Wallingford CT 06492
  
  
 ---------------------------------------------------------------
 Warning -- This program may not be used in any manner that
 competes with the business of Gaussian, Inc. or will provide
 assistance to any competitor of Gaussian, Inc.  The licensee
 of this program is prohibited from giving any competitor of
 Gaussian, Inc. access to this program.  By using this program,
 the user acknowledges that Gaussian, Inc. is engaged in the
 business of creating and licensing software in the field of
 computational chemistry and represents and warrants to the
 licensee that it is not a competitor of Gaussian, Inc. and that
 it will not use this program in any manner prohibited above.
 ---------------------------------------------------------------
  

 Cite this work as:
 Gaussian 09, Revision A.02,
 M. J. Frisch, G. W. Trucks, H. B. Schlegel, G. E. Scuseria, 
 M. A. Robb, J. R. Cheeseman, G. Scalmani, V. Barone, B. Mennucci, 
 G. A. Petersson, H. Nakatsuji, M. Caricato, X. Li, H. P. Hratchian, 
 A. F. Izmaylov, J. Bloino, G. Zheng, J. L. Sonnenberg, M. Hada, 
 M. Ehara, K. Toyota, R. Fukuda, J. Hasegawa, M. Ishida, T. Nakajima, 
 Y. Honda, O. Kitao, H. Nakai, T. Vreven, J. A. Montgomery, Jr., 
 J. E. Peralta, F. Ogliaro, M. Bearpark, J. J. Heyd, E. Brothers, 
 K. N. Kudin, V. N. Staroverov, R. Kobayashi, J. Normand, 
 K. Raghavachari, A. Rendell, J. C. Burant, S. S. Iyengar, J. Tomasi, 
 M. Cossi, N. Rega, J. M. Millam, M. Klene, J. E. Knox, J. B. Cross, 
 V. Bakken, C. Adamo, J. Jaramillo, R. Gomperts, R. E. Stratmann, 
 O. Yazyev, A. J. Austin, R. Cammi, C. Pomelli, J. W. Ochterski, 
 R. L. Martin, K. Morokuma, V. G. Zakrzewski, G. A. Voth, 
 P. Salvador, J. J. Dannenberg, S. Dapprich, A. D. Daniels, 
 O. Farkas, J. B. Foresman, J. V. Ortiz, J. Cioslowski, 
 and D. J. Fox, Gaussian, Inc., Wallingford CT, 2009.
 
 ******************************************
 Gaussian 09:  EM64L-G09RevA.02 11-Jun-2009
                 3-Jun-2013 
 ******************************************
 % Mem=6GB
 % Nproc=8
 Will use up to    8 processors via shared memory.
 ----------------------------------------------------------------------
 # ROMP2(RW) Gen GFinput Int=NoBasisTransform Int(Grid=Ultrafine) IOp(3
 /32=2,5/6=10,8/11=1,9/33=1) Maxdisk=128GB CBSextrapolate(Nmin=20,MinPo
 p)
 ----------------------------------------------------------------------
 1/38=1/1;
 2/12=2,17=6,18=5,40=1/2;
 3/5=7,11=2,16=1,24=10,25=1,30=1,32=2,60=-1,75=-5,116=101/1,2,3;
 4//1;
 5/5=2,6=10,38=5/2;
 8/5=-1,10=91,11=1/1;
 9/16=-3,33=1,75=2,81=20,83=4/6,4;
 6/7=2,8=2,9=2,10=2/1;
 99/5=1,9=1/99;
 ---
 As2
 ---
 Symbolic Z-matrix:
 Charge =  0 Multiplicity = 1
 As
 As                   1     2.1026 
 
                          Input orientation:                          
 ---------------------------------------------------------------------
 Center     Atomic      Atomic             Coordinates (Angstroms)
 Number     Number       Type             X           Y           Z
 ---------------------------------------------------------------------
      1         33           0        0.000000    0.000000    0.000000
      2         33           0        0.000000    0.000000    2.102600
 ---------------------------------------------------------------------
 Stoichiometry    As2
 Framework group  D*H[C*(As.As)]
 Deg. of freedom     1
 Full point group                 D*H     NOp   8
 Largest Abelian subgroup         D2H     NOp   8
 Largest concise Abelian subgroup C2      NOp   2
                         Standard orientation:                         
 ---------------------------------------------------------------------
 Center     Atomic      Atomic             Coordinates (Angstroms)
 Number     Number       Type             X           Y           Z
 ---------------------------------------------------------------------
      1         33           0        0.000000    0.000000    1.051300
      2         33           0        0.000000    0.000000   -1.051300
 ---------------------------------------------------------------------
 Rotational constants (GHZ):      0.0000000      3.0515947      3.0515947
 General basis read from cards:  (5D, 7F)
 AO basis set in the form of general basis input (Overlap normalization):
      1 0
 S  17 1.00       0.000000000000
      0.4792162140D+08  0.6831573087D-06
      0.9239816590D+07  0.4107303095D-05
      0.2137477930D+07  0.2332770232D-04
      0.5779892840D+06  0.1066942340D-03
      0.1784821700D+06  0.4178273651D-03
      0.6164823010D+05  0.1428294608D-02
      0.2338411030D+05  0.4363111554D-02
      0.9584343190D+04  0.1208905056D-01
      0.4184736780D+04  0.3063459842D-01
      0.1922341710D+04  0.7061297947D-01
      0.9190191480D+03  0.1445541298D+00
      0.4529190370D+03  0.2481389729D+00
      0.2281907030D+03  0.3173968120D+00
      0.1166696560D+03  0.2401801553D+00
      0.6013631700D+02  0.7351793718D-01
      0.3106127100D+02  0.5078828624D-02
      0.1598641300D+02  0.9000274483D-03
 S  13 1.00       0.000000000000
      0.9584343190D+04 -0.4224081340D-04
      0.4184736780D+04 -0.2388641229D-03
      0.1922341710D+04 -0.1304331616D-02
      0.9190191480D+03 -0.5880084955D-02
      0.4529190370D+03 -0.2138559639D-01
      0.2281907030D+03 -0.6013363205D-01
      0.1166696560D+03 -0.9178636714D-01
      0.6013631700D+02  0.2152010883D-01
      0.3106127100D+02  0.3771683350D+00
      0.1598641300D+02  0.5175624324D+00
      0.8153662000D+01  0.1911846011D+00
      0.4098570000D+01  0.1493497307D-01
      0.2018826000D+01  0.1818510103D-02
 P  14 1.00       0.000000000000
      0.6579976500D+05  0.9287019711D-05
      0.1726342740D+05  0.7538223048D-04
      0.5486395040D+04  0.4831183844D-03
      0.2031470970D+04  0.2331666356D-02
      0.8474631190D+03  0.9003235722D-02
      0.3870449540D+03  0.2854239232D-01
      0.1888862780D+03  0.7574267658D-01
      0.9652361500D+02  0.1642418759D+00
      0.5079115400D+02  0.2776040273D+00
      0.2714726100D+02  0.3331949758D+00
      0.1457632600D+02  0.2250028160D+00
      0.7792863000D+01  0.6455152183D-01
      0.4118713000D+01  0.6292047549D-02
      0.2139337000D+01  0.4475679871D-03
 S  11 1.00       0.000000000000
      0.2281907030D+03  0.8064983212D-03
      0.1166696560D+03  0.2534467483D-02
      0.6013631700D+02  0.1631866862D-02
      0.3106127100D+02 -0.5428071505D-01
      0.1598641300D+02 -0.2034528570D+00
      0.8153662000D+01 -0.6158505433D-01
      0.4098570000D+01  0.4611513863D+00
      0.2018826000D+01  0.5856391227D+00
      0.9684460000D+00  0.1561000314D+00
      0.4493770000D+00  0.5846950661D-03
      0.2001690000D+00  0.2305510087D-02
 P  12 1.00       0.000000000000
      0.3870449540D+03 -0.2054390329D-03
      0.1888862780D+03 -0.1113414279D-02
      0.9652361500D+02 -0.5003724621D-02
      0.5079115400D+02 -0.1341480247D-01
      0.2714726100D+02 -0.2358670688D-01
      0.1457632600D+02  0.2614401031D-01
      0.7792863000D+01  0.2031264782D+00
      0.4118713000D+01  0.3840219493D+00
      0.2139337000D+01  0.3613144536D+00
      0.1086528000D+01  0.1380566397D+00
      0.5370240000D+00  0.1320061715D-01
      0.2570670000D+00  0.1266070008D-02
 D  14 1.00       0.000000000000
      0.2658069280D+04  0.1641554111D-04
      0.8061035810D+03  0.1715684512D-03
      0.3117499280D+03  0.1082725500D-02
      0.1402528180D+03  0.4856881290D-02
      0.6896770300D+02  0.1687293868D-01
      0.3565975400D+02  0.4652152866D-01
      0.1898012200D+02  0.1064129340D+00
      0.1029929200D+02  0.1895098449D+00
      0.5674177000D+01  0.2524617682D+00
      0.3159183000D+01  0.2678725853D+00
      0.1757891000D+01  0.2289291139D+00
      0.9547560000D+00  0.1435177306D+00
      0.4852590000D+00  0.5054363326D-01
      0.2159140000D+00  0.6023559366D-02
 S   8 1.00       0.000000000000
      0.1598641300D+02  0.3204505697D-02
      0.8153662000D+01 -0.1881014542D-02
      0.4098570000D+01 -0.1601749614D-01
      0.2018826000D+01 -0.1428407572D+00
      0.9684460000D+00 -0.1425156504D+00
      0.4493770000D+00  0.3380337521D+00
      0.2001690000D+00  0.6252754483D+00
      0.8485500000D-01  0.2482820837D+00
 S   1 1.00       0.000000000000
      0.2970072670D-01  0.1000000000D+01
 P   9 1.00       0.000000000000
      0.1457632600D+02 -0.5495978780D-03
      0.7792863000D+01 -0.4070273554D-02
      0.4118713000D+01 -0.8602193835D-02
      0.2139337000D+01 -0.2511202943D-01
      0.1086528000D+01  0.4215050491D-02
      0.5370240000D+00  0.1946113591D+00
      0.2570670000D+00  0.4171330189D+00
      0.1185400000D+00  0.3960755177D+00
      0.5232300000D-01  0.1192746505D+00
 P   1 1.00       0.000000000000
      0.5846000000D-01  0.1000000000D+01
 P   1 1.00       0.000000000000
      0.2187800000D-01  0.1000000000D+01
 S   1 1.00       0.000000000000
      0.9904680000D+00  0.1000000000D+01
 S   1 1.00       0.000000000000
      0.5347470000D+00  0.1000000000D+01
 S   1 1.00       0.000000000000
      0.2887060000D+00  0.1000000000D+01
 S   1 1.00       0.000000000000
      0.1558700000D+00  0.1000000000D+01
 S   1 1.00       0.000000000000
      0.8415300000D-01  0.1000000000D+01
 P   1 1.00       0.000000000000
      0.1803660000D+01  0.1000000000D+01
 P   1 1.00       0.000000000000
      0.1015177000D+01  0.1000000000D+01
 P   1 1.00       0.000000000000
      0.5713860000D+00  0.1000000000D+01
 P   1 1.00       0.000000000000
      0.3216000000D+00  0.1000000000D+01
 P   1 1.00       0.000000000000
      0.1810110000D+00  0.1000000000D+01
 D   1 1.00       0.000000000000
      0.1374663000D+01  0.1000000000D+01
 D   1 1.00       0.000000000000
      0.7946810000D+00  0.1000000000D+01
 D   1 1.00       0.000000000000
      0.4108430000D+00  0.1000000000D+01
 D   1 1.00       0.000000000000
      0.2078950000D+00  0.1000000000D+01
 D   1 1.00       0.000000000000
      0.1204360000D+00  0.1000000000D+01
 D   1 1.00       0.000000000000
      0.6976990000D-01  0.1000000000D+01
 F   1 1.00       0.000000000000
      0.8086940000D+00  0.1000000000D+01
 F   1 1.00       0.000000000000
      0.5078340000D+00  0.1000000000D+01
 F   1 1.00       0.000000000000
      0.3189030000D+00  0.1000000000D+01
 F   1 1.00       0.000000000000
      0.2002610000D+00  0.1000000000D+01
 F   1 1.00       0.000000000000
      0.1257570000D+00  0.1000000000D+01
 G   1 1.00       0.000000000000
      0.9912480000D+00  0.1000000000D+01
 G   1 1.00       0.000000000000
      0.5473690000D+00  0.1000000000D+01
 G   1 1.00       0.000000000000
      0.3022580000D+00  0.1000000000D+01
 G   1 1.00       0.000000000000
      0.1669070000D+00  0.1000000000D+01
 H   1 1.00       0.000000000000
      0.9436080000D+00  0.1000000000D+01
 H   1 1.00       0.000000000000
      0.4568400000D+00  0.1000000000D+01
 H   1 1.00       0.000000000000
      0.2211753000D+00  0.1000000000D+01
 I   1 1.00       0.000000000000
      0.7808775938D+00  0.1000000000D+01
 ****
      2 0
 S  17 1.00       0.000000000000
      0.4792162140D+08  0.6831573087D-06
      0.9239816590D+07  0.4107303095D-05
      0.2137477930D+07  0.2332770232D-04
      0.5779892840D+06  0.1066942340D-03
      0.1784821700D+06  0.4178273651D-03
      0.6164823010D+05  0.1428294608D-02
      0.2338411030D+05  0.4363111554D-02
      0.9584343190D+04  0.1208905056D-01
      0.4184736780D+04  0.3063459842D-01
      0.1922341710D+04  0.7061297947D-01
      0.9190191480D+03  0.1445541298D+00
      0.4529190370D+03  0.2481389729D+00
      0.2281907030D+03  0.3173968120D+00
      0.1166696560D+03  0.2401801553D+00
      0.6013631700D+02  0.7351793718D-01
      0.3106127100D+02  0.5078828624D-02
      0.1598641300D+02  0.9000274483D-03
 S  13 1.00       0.000000000000
      0.9584343190D+04 -0.4224081340D-04
      0.4184736780D+04 -0.2388641229D-03
      0.1922341710D+04 -0.1304331616D-02
      0.9190191480D+03 -0.5880084955D-02
      0.4529190370D+03 -0.2138559639D-01
      0.2281907030D+03 -0.6013363205D-01
      0.1166696560D+03 -0.9178636714D-01
      0.6013631700D+02  0.2152010883D-01
      0.3106127100D+02  0.3771683350D+00
      0.1598641300D+02  0.5175624324D+00
      0.8153662000D+01  0.1911846011D+00
      0.4098570000D+01  0.1493497307D-01
      0.2018826000D+01  0.1818510103D-02
 P  14 1.00       0.000000000000
      0.6579976500D+05  0.9287019711D-05
      0.1726342740D+05  0.7538223048D-04
      0.5486395040D+04  0.4831183844D-03
      0.2031470970D+04  0.2331666356D-02
      0.8474631190D+03  0.9003235722D-02
      0.3870449540D+03  0.2854239232D-01
      0.1888862780D+03  0.7574267658D-01
      0.9652361500D+02  0.1642418759D+00
      0.5079115400D+02  0.2776040273D+00
      0.2714726100D+02  0.3331949758D+00
      0.1457632600D+02  0.2250028160D+00
      0.7792863000D+01  0.6455152183D-01
      0.4118713000D+01  0.6292047549D-02
      0.2139337000D+01  0.4475679871D-03
 S  11 1.00       0.000000000000
      0.2281907030D+03  0.8064983212D-03
      0.1166696560D+03  0.2534467483D-02
      0.6013631700D+02  0.1631866862D-02
      0.3106127100D+02 -0.5428071505D-01
      0.1598641300D+02 -0.2034528570D+00
      0.8153662000D+01 -0.6158505433D-01
      0.4098570000D+01  0.4611513863D+00
      0.2018826000D+01  0.5856391227D+00
      0.9684460000D+00  0.1561000314D+00
      0.4493770000D+00  0.5846950661D-03
      0.2001690000D+00  0.2305510087D-02
 P  12 1.00       0.000000000000
      0.3870449540D+03 -0.2054390329D-03
      0.1888862780D+03 -0.1113414279D-02
      0.9652361500D+02 -0.5003724621D-02
      0.5079115400D+02 -0.1341480247D-01
      0.2714726100D+02 -0.2358670688D-01
      0.1457632600D+02  0.2614401031D-01
      0.7792863000D+01  0.2031264782D+00
      0.4118713000D+01  0.3840219493D+00
      0.2139337000D+01  0.3613144536D+00
      0.1086528000D+01  0.1380566397D+00
      0.5370240000D+00  0.1320061715D-01
      0.2570670000D+00  0.1266070008D-02
 D  14 1.00       0.000000000000
      0.2658069280D+04  0.1641554111D-04
      0.8061035810D+03  0.1715684512D-03
      0.3117499280D+03  0.1082725500D-02
      0.1402528180D+03  0.4856881290D-02
      0.6896770300D+02  0.1687293868D-01
      0.3565975400D+02  0.4652152866D-01
      0.1898012200D+02  0.1064129340D+00
      0.1029929200D+02  0.1895098449D+00
      0.5674177000D+01  0.2524617682D+00
      0.3159183000D+01  0.2678725853D+00
      0.1757891000D+01  0.2289291139D+00
      0.9547560000D+00  0.1435177306D+00
      0.4852590000D+00  0.5054363326D-01
      0.2159140000D+00  0.6023559366D-02
 S   8 1.00       0.000000000000
      0.1598641300D+02  0.3204505697D-02
      0.8153662000D+01 -0.1881014542D-02
      0.4098570000D+01 -0.1601749614D-01
      0.2018826000D+01 -0.1428407572D+00
      0.9684460000D+00 -0.1425156504D+00
      0.4493770000D+00  0.3380337521D+00
      0.2001690000D+00  0.6252754483D+00
      0.8485500000D-01  0.2482820837D+00
 S   1 1.00       0.000000000000
      0.2970072670D-01  0.1000000000D+01
 P   9 1.00       0.000000000000
      0.1457632600D+02 -0.5495978780D-03
      0.7792863000D+01 -0.4070273554D-02
      0.4118713000D+01 -0.8602193835D-02
      0.2139337000D+01 -0.2511202943D-01
      0.1086528000D+01  0.4215050491D-02
      0.5370240000D+00  0.1946113591D+00
      0.2570670000D+00  0.4171330189D+00
      0.1185400000D+00  0.3960755177D+00
      0.5232300000D-01  0.1192746505D+00
 P   1 1.00       0.000000000000
      0.5846000000D-01  0.1000000000D+01
 P   1 1.00       0.000000000000
      0.2187800000D-01  0.1000000000D+01
 S   1 1.00       0.000000000000
      0.9904680000D+00  0.1000000000D+01
 S   1 1.00       0.000000000000
      0.5347470000D+00  0.1000000000D+01
 S   1 1.00       0.000000000000
      0.2887060000D+00  0.1000000000D+01
 S   1 1.00       0.000000000000
      0.1558700000D+00  0.1000000000D+01
 S   1 1.00       0.000000000000
      0.8415300000D-01  0.1000000000D+01
 P   1 1.00       0.000000000000
      0.1803660000D+01  0.1000000000D+01
 P   1 1.00       0.000000000000
      0.1015177000D+01  0.1000000000D+01
 P   1 1.00       0.000000000000
      0.5713860000D+00  0.1000000000D+01
 P   1 1.00       0.000000000000
      0.3216000000D+00  0.1000000000D+01
 P   1 1.00       0.000000000000
      0.1810110000D+00  0.1000000000D+01
 D   1 1.00       0.000000000000
      0.1374663000D+01  0.1000000000D+01
 D   1 1.00       0.000000000000
      0.7946810000D+00  0.1000000000D+01
 D   1 1.00       0.000000000000
      0.4108430000D+00  0.1000000000D+01
 D   1 1.00       0.000000000000
      0.2078950000D+00  0.1000000000D+01
 D   1 1.00       0.000000000000
      0.1204360000D+00  0.1000000000D+01
 D   1 1.00       0.000000000000
      0.6976990000D-01  0.1000000000D+01
 F   1 1.00       0.000000000000
      0.8086940000D+00  0.1000000000D+01
 F   1 1.00       0.000000000000
      0.5078340000D+00  0.1000000000D+01
 F   1 1.00       0.000000000000
      0.3189030000D+00  0.1000000000D+01
 F   1 1.00       0.000000000000
      0.2002610000D+00  0.1000000000D+01
 F   1 1.00       0.000000000000
      0.1257570000D+00  0.1000000000D+01
 G   1 1.00       0.000000000000
      0.9912480000D+00  0.1000000000D+01
 G   1 1.00       0.000000000000
      0.5473690000D+00  0.1000000000D+01
 G   1 1.00       0.000000000000
      0.3022580000D+00  0.1000000000D+01
 G   1 1.00       0.000000000000
      0.1669070000D+00  0.1000000000D+01
 H   1 1.00       0.000000000000
      0.9436080000D+00  0.1000000000D+01
 H   1 1.00       0.000000000000
      0.4568400000D+00  0.1000000000D+01
 H   1 1.00       0.000000000000
      0.2211753000D+00  0.1000000000D+01
 I   1 1.00       0.000000000000
      0.7808775938D+00  0.1000000000D+01
 ****

 There are    69 symmetry adapted basis functions of AG  symmetry.
 There are    29 symmetry adapted basis functions of B1G symmetry.
 There are    47 symmetry adapted basis functions of B2G symmetry.
 There are    47 symmetry adapted basis functions of B3G symmetry.
 There are    29 symmetry adapted basis functions of AU  symmetry.
 There are    69 symmetry adapted basis functions of B1U symmetry.
 There are    47 symmetry adapted basis functions of B2U symmetry.
 There are    47 symmetry adapted basis functions of B3U symmetry.
 Integral buffers will be    131072 words long.
 Raffenetti 2 integral format.
 Two-electron integral symmetry is turned on.
   384 basis functions,  1004 primitive gaussians,   566 cartesian basis functions
    33 alpha electrons       33 beta electrons
       nuclear repulsion energy       274.0768477858 Hartrees.
 NAtoms=    2 NActive=    2 NUniq=    1 SFac= 3.00D+00 NAtFMM=   80 NAOKFM=F Big=F
 One-electron integrals computed using PRISM.
 NBasis=   384 RedAO= F  NBF=    69    29    47    47    29    69    47    47
 NBsUse=   384 1.00D-04 NBFU=    69    29    47    47    29    69    47    47
 Harris functional with IExCor=  205 diagonalized for initial guess.
 ExpMin= 2.19D-02 ExpMax= 4.79D+07 ExpMxC= 9.58D+03 IAcc=3 IRadAn=         5 AccDes= 0.00D+00
 HarFok:  IExCor=  205 AccDes= 0.00D+00 IRadAn=         5 IDoV= 1
 ScaDFX=  1.000000  1.000000  1.000000  1.000000
 FoFCou: FMM=F IPFlag=           0 FMFlag=      100000 FMFlg1=           0
         NFxFlg=           0 DoJE=T BraDBF=F KetDBF=T FulRan=T
         Omega=  0.000000  0.000000  1.000000  0.000000  0.000000 ICntrl=     500 IOpCl=  0
         NMat0=    1 NMatS0=    1 NMatT0=    0 NMatD0=    1 NMtDS0=    0 NMtDT0=    0
         I1Cent=           4 NGrid=           0.
 Petite list used in FoFCou.
 Initial guess orbital symmetries:
       Occupied  (SGU) (SGG) (SGU) (SGG) (SGU) (SGG) (PIG) (PIG)
                 (PIU) (PIU) (SGG) (SGU) (SGG) (SGU) (PIU) (PIU)
                 (PIG) (PIG) (SGG) (PIU) (PIU) (PIG) (PIG) (SGU)
                 (DLTG) (DLTG) (DLTU) (DLTU) (SGG) (SGU) (SGG)
                 (PIU) (PIU)
       Virtual   (PIG) (PIG) (SGU) (SGG) (DLTG) (DLTG) (PIU) (PIU)
                 (SGG) (SGU) (PIG) (PIG) (PIU) (PIU) (SGU) (SGG)
                 (DLTU) (DLTU) (PIU) (PIU) (SGG) (PIG) (PIG) (SGU)
                 (SGU) (DLTG) (DLTG) (PIG) (PIG) (SGG) (PIU) (PIU)
                 (PHIU) (PHIU) (DLTU) (DLTU) (SGG) (DLTG) (DLTG)
                 (PHIG) (PHIG) (PIG) (PIG) (SGU) (SGG) (PIU) (PIU)
                 (SGU) (PIU) (PIU) (DLTU) (DLTU) (PIG) (PIG) (SGU)
                 (?A) (?A) (SGG) (PHIU) (PHIU) (PIU) (PIU) (DLTG)
                 (DLTG) (SGG) (?B) (?B) (PIG) (PIG) (PHIU) (PHIU)
                 (DLTG) (DLTG) (DLTU) (DLTU) (SGG) (PHIG) (PHIG)
                 (SGU) (PIG) (PIG) (DLTG) (DLTG) (PHIG) (PHIG)
                 (PIU) (PIU) (SGU) (DLTU) (DLTU) (SGG) (SGU) (PIU)
                 (PIU) (PIG) (PIG) (DLTU) (DLTU) (?C) (?C) (SGU)
                 (?A) (?A) (PIU) (PIU) (?D) (?D) (SGG) (PHIU) (PHIU)
                 (PIG) (PIG) (PIU) (PIU) (DLTG) (DLTG) (SGU) (?B)
                 (?B) (SGG) (PHIU) (PHIU) (?A) (?A) (DLTU) (DLTU)
                 (PHIU) (PHIU) (PHIG) (PHIG) (PIG) (PIG) (?B) (?B)
                 (DLTG) (DLTG) (SGG) (PIU) (PIU) (SGG) (PHIG) (PHIG)
                 (DLTU) (DLTU) (SGU) (DLTG) (DLTG) (PIG) (PIG)
                 (DLTG) (DLTG) (PHIG) (PHIG) (PIU) (PIU) (PIG)
                 (PIG) (DLTU) (DLTU) (SGG) (SGU) (SGU) (PIU) (PIU)
                 (SGU) (DLTU) (DLTU) (SGG) (SGU) (PIG) (PIG) (PIU)
                 (PIU) (PIG) (PIG) (PHIU) (PHIU) (SGG) (?A) (?A)
                 (PIU) (PIU) (DLTG) (DLTG) (?C) (?C) (PHIU) (PHIU)
                 (?D) (?D) (PHIG) (PHIG) (SGG) (DLTG) (DLTG) (DLTU)
                 (DLTU) (?B) (?B) (SGG) (SGU) (PIG) (PIG) (?A)
                 (?A) (PHIU) (PHIU) (?B) (?B) (PIG) (PIG) (SGU)
                 (PIU) (PIU) (PHIG) (PHIG) (PHIG) (PHIG) (DLTG)
                 (DLTG) (SGG) (DLTU) (DLTU) (DLTU) (DLTU) (DLTG)
                 (DLTG) (SGU) (PIU) (PIU) (PIG) (PIG) (PIU) (PIU)
                 (SGU) (SGG) (DLTU) (DLTU) (SGG) (PIG) (PIG) (SGU)
                 (DLTG) (DLTG) (PHIU) (PHIU) (PIG) (PIG) (PHIG)
                 (PHIG) (?A) (?A) (PHIU) (PHIU) (SGU) (DLTU) (DLTU)
                 (PIU) (PIU) (?C) (?C) (SGG) (?E) (?E) (?F) (?F)
                 (?D) (?D) (PIG) (PIG) (DLTG) (DLTG) (SGG) (PIU)
                 (PIU) (?B) (?B) (PIU) (PIU) (PIG) (PIG) (SGG)
                 (SGU) (PHIG) (PHIG) (PHIU) (PHIU) (?A) (?A) (?B)
                 (?B) (DLTG) (DLTG) (DLTU) (DLTU) (?A) (?A) (?C)
                 (?C) (?D) (?D) (PHIG) (PHIG) (SGU) (PHIU) (PHIU)
                 (PIG) (PIG) (?B) (?B) (SGG) (PIU) (PIU) (PHIG)
                 (PHIG) (DLTG) (DLTG) (DLTU) (DLTU) (SGU) (SGG)
                 (PIG) (PIG) (SGU) (SGU) (DLTU) (DLTU) (PIU) (PIU)
                 (SGG) (DLTG) (DLTG) (PIG) (PIG) (DLTU) (DLTU)
                 (PIU) (PIU) (SGU) (PIG) (PIG) (SGG) (SGU) (PIU)
                 (PIU) (PIG) (PIG) (SGG) (SGU) (SGG) (SGU)
 The electronic state of the initial guess is 1-SGG.
 Requested convergence on RMS density matrix=1.00D-10 within 128 cycles.
 Requested convergence on MAX density matrix=1.00D-08.
 Requested convergence on             energy=1.00D-08.
 No special actions if energy rises.
 Initial convergence to 1.0D-05 achieved.  Increase integral accuracy.
 SCF Done:  E(ROHF) =  -4468.49895262     A.U. after   15 cycles
             Convg  =    0.4237D-10             -V/T =  2.0000
 <Sx>= 0.0000 <Sy>= 0.0000 <Sz>= 0.0000 <S**2>= 0.0000 S= 0.0000
 <L.S>= 0.000000000000E+00
 Annihilation of the first spin contaminant:
 S**2 before annihilation     0.0000,   after     0.0000
 GenMOA:  NOpAll=  8 NOp2=8 NOpUse=  8 JSym2X=1
 <Sx>= 0.0000 <Sy>= 0.0000 <Sz>= 0.0000 <S**2>= 0.0000 S= 0.0000
 Range of M.O.s used for correlation:    29   384
 NBasis=   384 NAE=    33 NBE=    33 NFC=    28 NFV=     0
 NROrb=    356 NOA=     5 NOB=     5 NVA=   351 NVB=   351

 **** Warning!!: The largest alpha MO coefficient is  0.83043798D+03


 **** Warning!!: The largest beta MO coefficient is  0.83043798D+03

 Singles contribution to E2=   -0.2973992949D-14
 Disk-based method using OVN memory for  5 occupieds at a time.
 Permanent disk used for amplitudes and <ij||ab> integrals=     8617050 words.
 Estimated scratch disk usage=   371409565 words.
 IUseRI=2 ITolRI= 6 IR12RI=0
 Actual    scratch disk usage=   369167517 words.
 GetIJB would need an additional   841185831 words of memory to use all   8 processors.
 JobTyp=2 Pass  1:  I=   1 to   5 NPSUse=  1 ParTrn=F ParDer=F DoDerP=F.
 (rs|ai) integrals will be sorted in core.
 T,EIJ(AA): I=   1 J=   2      0.3269815E-03     -0.8373937E-03
 T,EIJ(AA): I=   1 J=   3      0.3022422E-03     -0.8252497E-03
 T,EIJ(AA): I=   1 J=   4      0.7506890E-03     -0.1748984E-02
 T,EIJ(AA): I=   1 J=   5      0.7506890E-03     -0.1748984E-02
 T,EIJ(AA): I=   2 J=   3      0.1004194E-02     -0.1916305E-02
 T,EIJ(AA): I=   2 J=   4      0.1934288E-02     -0.3104102E-02
 T,EIJ(AA): I=   2 J=   5      0.1934288E-02     -0.3104102E-02
 T,EIJ(AA): I=   3 J=   4      0.4214057E-02     -0.5788092E-02
 T,EIJ(AA): I=   3 J=   5      0.4214057E-02     -0.5788092E-02
 T,EIJ(AA): I=   4 J=   5      0.7715949E-02     -0.7855345E-02
 T,EIJ(AB): I=   1 J=   1      0.2676852E-02     -0.8915787E-02
 T,EIJ(AB): I=   1 J=   2      0.1323296E-02     -0.4086225E-02
 T,EIJ(AB): I=   1 J=   3      0.1943065E-02     -0.5726227E-02
 T,EIJ(AB): I=   1 J=   4      0.2345091E-02     -0.6048939E-02
 T,EIJ(AB): I=   1 J=   5      0.2345091E-02     -0.6048939E-02
 T,EIJ(AB): I=   2 J=   1      0.1323296E-02     -0.4086225E-02
 T,EIJ(AB): I=   2 J=   2      0.6136198E-02     -0.1228625E-01
 T,EIJ(AB): I=   2 J=   3      0.4450608E-02     -0.9582051E-02
 T,EIJ(AB): I=   2 J=   4      0.3481962E-02     -0.6635070E-02
 T,EIJ(AB): I=   2 J=   5      0.3481962E-02     -0.6635070E-02
 T,EIJ(AB): I=   3 J=   1      0.1943065E-02     -0.5726227E-02
 T,EIJ(AB): I=   3 J=   2      0.4450608E-02     -0.9582051E-02
 T,EIJ(AB): I=   3 J=   3      0.8478217E-02     -0.1526131E-01
 T,EIJ(AB): I=   3 J=   4      0.4897963E-02     -0.7618339E-02
 T,EIJ(AB): I=   3 J=   5      0.4897963E-02     -0.7618339E-02
 T,EIJ(AB): I=   4 J=   1      0.2345091E-02     -0.6048939E-02
 T,EIJ(AB): I=   4 J=   2      0.3481962E-02     -0.6635070E-02
 T,EIJ(AB): I=   4 J=   3      0.4897963E-02     -0.7618339E-02
 T,EIJ(AB): I=   4 J=   4      0.1910858E-01     -0.2146042E-01
 T,EIJ(AB): I=   4 J=   5      0.1073373E-01     -0.1133381E-01
 T,EIJ(AB): I=   5 J=   1      0.2345091E-02     -0.6048939E-02
 T,EIJ(AB): I=   5 J=   2      0.3481962E-02     -0.6635070E-02
 T,EIJ(AB): I=   5 J=   3      0.4897963E-02     -0.7618339E-02
 T,EIJ(AB): I=   5 J=   4      0.1073373E-01     -0.1133381E-01
 T,EIJ(AB): I=   5 J=   5      0.1910858E-01     -0.2146042E-01
 Actual    scratch disk usage=   369167517 words.
 GetIJB would need an additional   841185831 words of memory to use all   8 processors.
 JobTyp=3 Pass  1:  I=   1 to   5 NPSUse=  1 ParTrn=F ParDer=F DoDerP=F.
 (rs|ai) integrals will be sorted in core.
 T,EIJ(BB): I=   1 J=   2      0.3269815E-03     -0.8373937E-03
 T,EIJ(BB): I=   1 J=   3      0.3022422E-03     -0.8252497E-03
 T,EIJ(BB): I=   1 J=   4      0.7506890E-03     -0.1748984E-02
 T,EIJ(BB): I=   1 J=   5      0.7506890E-03     -0.1748984E-02
 T,EIJ(BB): I=   2 J=   3      0.1004194E-02     -0.1916305E-02
 T,EIJ(BB): I=   2 J=   4      0.1934288E-02     -0.3104102E-02
 T,EIJ(BB): I=   2 J=   5      0.1934288E-02     -0.3104102E-02
 T,EIJ(BB): I=   3 J=   4      0.4214057E-02     -0.5788092E-02
 T,EIJ(BB): I=   3 J=   5      0.4214057E-02     -0.5788092E-02
 T,EIJ(BB): I=   4 J=   5      0.7715949E-02     -0.7855345E-02
 Spin components of T(2) and E(2):
     alpha-alpha T2 =       0.2314743352D-01 E2=     -0.3271664869D-01
     alpha-beta  T2 =       0.1353098746D+00 E2=     -0.2220501995D+00
     beta-beta   T2 =       0.2314743352D-01 E2=     -0.3271664869D-01
 ANorm=    0.1087016440D+01
 E2 =    -0.2874834968D+00 EUMP2 =    -0.44687864361134D+04

 Complete Basis Set (CBS) Extrapolation:
 M. R. Nyden and G. A. Petersson, JCP 75, 1843 (1981)
 G. A. Petersson and M. A. Al-Laham, JCP 94, 6081 (1991)
 G. A. Petersson, T. Tensfeldt, and J. A. Montgomery, JCP 94, 6091 (1991)
 J. A. Montgomery, J. W. Ochterski, and G. A. Petersson, JCP 101, 5900 (1994)
 
 Minimum Number of PNO for Extrapolation =  20
 Absolute Overlaps: IRadAn =         5
 LocTrn: ILocal=3 LocCor=F DoCore=F.
 Entering OneElI...
 Overlap between basis sets.
 Requested accuracy = 0.1000D-12
 PrsmSu:  NPrtUS=   1 ThrOK=F IAlg=1
 PRISM was handed   804661911 working-precision words and   136 shell-pairs
 IPart=  0 NShTot=         136 NBatch=          15 AvBLen=         9.1
 CnvPC2: ToCart=F DoDens=F IPureD=0 IPureF=0.
 Transformed matrix in CnvPC2: 
                 1             2             3             4             5 
      1   0.100000D+01  0.403730D+00  0.000000D+00  0.000000D+00  0.000000D+00
      2   0.403730D+00  0.100000D+01  0.000000D+00  0.000000D+00  0.000000D+00
      3   0.000000D+00  0.000000D+00  0.100000D+01  0.000000D+00  0.000000D+00
      4   0.000000D+00  0.000000D+00  0.000000D+00  0.100000D+01  0.000000D+00
      5   0.000000D+00  0.000000D+00  0.000000D+00  0.000000D+00  0.100000D+01
      6   0.292129D-01  0.339068D+00  0.000000D+00  0.000000D+00  0.000000D+00
      7   0.000000D+00  0.000000D+00  0.351981D+00  0.000000D+00  0.000000D+00
      8   0.000000D+00  0.000000D+00  0.000000D+00  0.351981D+00  0.000000D+00
      9   0.000000D+00  0.000000D+00  0.000000D+00  0.000000D+00  0.351981D+00
     10   0.000000D+00  0.000000D+00  0.000000D+00  0.000000D+00  0.000000D+00
     11   0.000000D+00  0.000000D+00  0.000000D+00  0.000000D+00  0.000000D+00
     12   0.000000D+00  0.000000D+00  0.000000D+00  0.000000D+00  0.000000D+00
     13   0.000000D+00  0.000000D+00  0.000000D+00  0.000000D+00  0.000000D+00
     14   0.000000D+00  0.000000D+00  0.000000D+00  0.000000D+00  0.000000D+00
     15  -0.382798D-03  0.488481D-02  0.000000D+00  0.000000D+00  0.000000D+00
     16   0.000000D+00  0.000000D+00  0.130758D-01  0.000000D+00  0.000000D+00
     17   0.000000D+00  0.000000D+00  0.000000D+00  0.130758D-01  0.000000D+00
     18   0.000000D+00  0.000000D+00  0.000000D+00  0.000000D+00  0.130758D-01
     19   0.000000D+00  0.000000D+00  0.000000D+00  0.000000D+00  0.000000D+00
     20   0.000000D+00  0.000000D+00  0.000000D+00  0.000000D+00  0.000000D+00
     21   0.000000D+00  0.000000D+00  0.000000D+00  0.000000D+00  0.000000D+00
     22   0.000000D+00  0.000000D+00  0.000000D+00  0.000000D+00  0.000000D+00
     23   0.000000D+00  0.000000D+00  0.000000D+00  0.000000D+00  0.000000D+00
     24   0.000000D+00  0.000000D+00  0.000000D+00  0.000000D+00  0.000000D+00
     25   0.000000D+00  0.000000D+00  0.000000D+00  0.000000D+00  0.000000D+00
     26   0.000000D+00  0.000000D+00  0.000000D+00  0.000000D+00  0.000000D+00
     27   0.000000D+00  0.000000D+00  0.000000D+00  0.000000D+00  0.000000D+00
     28   0.000000D+00  0.000000D+00  0.000000D+00  0.000000D+00  0.000000D+00
     29   0.000000D+00  0.000000D+00  0.000000D+00  0.000000D+00  0.000000D+00
     30   0.000000D+00  0.000000D+00  0.000000D+00  0.000000D+00  0.000000D+00
     31   0.000000D+00  0.000000D+00  0.000000D+00  0.000000D+00  0.000000D+00
     32   0.000000D+00  0.000000D+00  0.000000D+00  0.000000D+00  0.000000D+00
     33   0.000000D+00  0.000000D+00  0.000000D+00  0.000000D+00  0.000000D+00
     34   0.000000D+00  0.000000D+00  0.000000D+00  0.000000D+00  0.000000D+00
     35   0.000000D+00  0.000000D+00  0.000000D+00  0.000000D+00  0.000000D+00
     36   0.000000D+00  0.000000D+00  0.000000D+00  0.000000D+00  0.000000D+00
     37   0.000000D+00  0.000000D+00  0.000000D+00  0.000000D+00  0.000000D+00
     38   0.966542D-03  0.597590D-02  0.000000D+00  0.000000D+00 -0.141759D-02
     39   0.000000D+00  0.000000D+00  0.442174D-03  0.000000D+00  0.000000D+00
     40   0.000000D+00  0.000000D+00  0.000000D+00  0.442174D-03  0.000000D+00
     41   0.170910D-02  0.105293D-01  0.000000D+00  0.000000D+00 -0.229626D-02
     42   0.595892D-02  0.360957D-01  0.000000D+00  0.000000D+00 -0.503754D-02
     43   0.000000D+00  0.000000D+00  0.262970D-02  0.000000D+00  0.000000D+00
     44   0.000000D+00  0.000000D+00  0.000000D+00  0.262970D-02  0.000000D+00
     45   0.000000D+00  0.000000D+00  0.000000D+00  0.000000D+00  0.000000D+00
     46   0.000000D+00  0.000000D+00  0.000000D+00  0.000000D+00  0.000000D+00
                 6             7             8             9            10 
      1   0.292129D-01  0.000000D+00  0.000000D+00  0.000000D+00  0.000000D+00
      2   0.339068D+00  0.000000D+00  0.000000D+00  0.000000D+00  0.000000D+00
      3   0.000000D+00  0.351981D+00  0.000000D+00  0.000000D+00  0.000000D+00
      4   0.000000D+00  0.000000D+00  0.351981D+00  0.000000D+00  0.000000D+00
      5   0.000000D+00  0.000000D+00  0.000000D+00  0.351981D+00  0.000000D+00
      6   0.100000D+01  0.000000D+00  0.000000D+00  0.000000D+00  0.000000D+00
      7   0.000000D+00  0.100000D+01  0.000000D+00  0.000000D+00  0.000000D+00
      8   0.000000D+00  0.000000D+00  0.100000D+01  0.000000D+00  0.000000D+00
      9   0.000000D+00  0.000000D+00  0.000000D+00  0.100000D+01  0.000000D+00
     10   0.000000D+00  0.000000D+00  0.000000D+00  0.000000D+00  0.100000D+01
     11   0.000000D+00  0.000000D+00  0.000000D+00  0.000000D+00  0.000000D+00
     12   0.000000D+00  0.000000D+00  0.000000D+00  0.000000D+00  0.000000D+00
     13   0.000000D+00  0.000000D+00  0.000000D+00  0.000000D+00  0.000000D+00
     14   0.000000D+00  0.000000D+00  0.000000D+00  0.000000D+00  0.000000D+00
     15   0.195676D+00  0.000000D+00  0.000000D+00  0.000000D+00  0.000000D+00
     16   0.000000D+00  0.212222D+00  0.000000D+00  0.000000D+00  0.000000D+00
     17   0.000000D+00  0.000000D+00  0.212222D+00  0.000000D+00  0.000000D+00
     18   0.000000D+00  0.000000D+00  0.000000D+00  0.212222D+00  0.000000D+00
     19   0.000000D+00  0.000000D+00  0.000000D+00  0.000000D+00  0.556204D-01
     20   0.000000D+00  0.000000D+00  0.000000D+00  0.000000D+00  0.000000D+00
     21   0.000000D+00  0.000000D+00  0.000000D+00  0.000000D+00  0.000000D+00
     22   0.000000D+00  0.000000D+00  0.000000D+00  0.000000D+00  0.000000D+00
     23   0.000000D+00  0.000000D+00  0.000000D+00  0.000000D+00  0.000000D+00
     24   0.000000D+00  0.000000D+00  0.000000D+00  0.000000D+00  0.000000D+00
     25   0.000000D+00  0.000000D+00  0.000000D+00  0.000000D+00  0.000000D+00
     26   0.000000D+00  0.000000D+00  0.000000D+00  0.000000D+00  0.000000D+00
     27   0.000000D+00  0.000000D+00  0.000000D+00  0.000000D+00  0.000000D+00
     28   0.000000D+00  0.000000D+00  0.000000D+00  0.000000D+00  0.000000D+00
     29   0.000000D+00  0.000000D+00  0.000000D+00  0.000000D+00  0.177066D-05
     30   0.000000D+00  0.000000D+00  0.000000D+00  0.000000D+00  0.000000D+00
     31   0.000000D+00  0.000000D+00  0.000000D+00  0.000000D+00  0.000000D+00
     32   0.000000D+00  0.000000D+00  0.000000D+00 -0.265173D-05  0.475441D-05
     33   0.177066D-05  0.000000D+00  0.000000D+00 -0.475441D-05  0.823601D-05
     34   0.000000D+00  0.000000D+00  0.000000D+00  0.000000D+00  0.000000D+00
     35   0.000000D+00  0.000000D+00  0.000000D+00  0.000000D+00  0.000000D+00
     36   0.000000D+00  0.000000D+00  0.000000D+00  0.000000D+00  0.000000D+00
     37   0.000000D+00  0.000000D+00  0.000000D+00  0.000000D+00  0.000000D+00
     38   0.350599D-01  0.000000D+00  0.000000D+00 -0.227132D-01  0.805145D-02
     39   0.000000D+00  0.741876D-02  0.000000D+00  0.000000D+00  0.000000D+00
     40   0.000000D+00  0.000000D+00  0.741876D-02  0.000000D+00  0.000000D+00
     41   0.602565D-01  0.000000D+00  0.000000D+00 -0.367223D-01  0.133334D-01
     42   0.179228D+00  0.000000D+00  0.000000D+00 -0.675680D-01  0.121959D-01
     43   0.000000D+00  0.390950D-01  0.000000D+00  0.000000D+00  0.000000D+00
     44   0.000000D+00  0.000000D+00  0.390950D-01  0.000000D+00  0.000000D+00
     45   0.000000D+00  0.000000D+00  0.000000D+00  0.000000D+00  0.000000D+00
     46   0.000000D+00  0.000000D+00  0.000000D+00  0.000000D+00  0.000000D+00
                11            12            13            14            15 
      1   0.000000D+00  0.000000D+00  0.000000D+00  0.000000D+00 -0.382798D-03
      2   0.000000D+00  0.000000D+00  0.000000D+00  0.000000D+00  0.488481D-02
      3   0.000000D+00  0.000000D+00  0.000000D+00  0.000000D+00  0.000000D+00
      4   0.000000D+00  0.000000D+00  0.000000D+00  0.000000D+00  0.000000D+00
      5   0.000000D+00  0.000000D+00  0.000000D+00  0.000000D+00  0.000000D+00
      6   0.000000D+00  0.000000D+00  0.000000D+00  0.000000D+00  0.195676D+00
      7   0.000000D+00  0.000000D+00  0.000000D+00  0.000000D+00  0.000000D+00
      8   0.000000D+00  0.000000D+00  0.000000D+00  0.000000D+00  0.000000D+00
      9   0.000000D+00  0.000000D+00  0.000000D+00  0.000000D+00  0.000000D+00
     10   0.000000D+00  0.000000D+00  0.000000D+00  0.000000D+00  0.000000D+00
     11   0.100000D+01  0.000000D+00  0.000000D+00  0.000000D+00  0.000000D+00
     12   0.000000D+00  0.100000D+01  0.000000D+00  0.000000D+00  0.000000D+00
     13   0.000000D+00  0.000000D+00  0.100000D+01  0.000000D+00  0.000000D+00
     14   0.000000D+00  0.000000D+00  0.000000D+00  0.100000D+01  0.000000D+00
     15   0.000000D+00  0.000000D+00  0.000000D+00  0.000000D+00  0.100000D+01
     16   0.000000D+00  0.000000D+00  0.000000D+00  0.000000D+00  0.000000D+00
     17   0.000000D+00  0.000000D+00  0.000000D+00  0.000000D+00  0.000000D+00
     18   0.000000D+00  0.000000D+00  0.000000D+00  0.000000D+00  0.000000D+00
     19   0.000000D+00  0.000000D+00  0.000000D+00  0.000000D+00  0.000000D+00
     20   0.556204D-01  0.000000D+00  0.000000D+00  0.000000D+00  0.000000D+00
     21   0.000000D+00  0.556204D-01  0.000000D+00  0.000000D+00  0.000000D+00
     22   0.000000D+00  0.000000D+00  0.556204D-01  0.000000D+00  0.000000D+00
     23   0.000000D+00  0.000000D+00  0.000000D+00  0.556204D-01  0.000000D+00
     24   0.000000D+00  0.000000D+00  0.000000D+00  0.000000D+00  0.966542D-03
     25   0.000000D+00  0.000000D+00  0.000000D+00  0.000000D+00  0.597590D-02
     26   0.000000D+00  0.000000D+00  0.000000D+00  0.000000D+00  0.000000D+00
     27   0.000000D+00  0.000000D+00  0.000000D+00  0.000000D+00  0.000000D+00
     28   0.000000D+00  0.000000D+00  0.000000D+00  0.000000D+00  0.141759D-02
     29   0.000000D+00  0.000000D+00  0.000000D+00  0.000000D+00  0.350599D-01
     30   0.000000D+00  0.000000D+00  0.000000D+00  0.000000D+00  0.000000D+00
     31   0.000000D+00  0.000000D+00  0.000000D+00  0.000000D+00  0.000000D+00
     32   0.000000D+00  0.000000D+00  0.000000D+00  0.000000D+00  0.227132D-01
     33   0.000000D+00  0.000000D+00  0.000000D+00  0.000000D+00  0.805145D-02
     34   0.000000D+00  0.000000D+00  0.000000D+00  0.000000D+00  0.000000D+00
     35   0.000000D+00  0.000000D+00  0.000000D+00  0.000000D+00  0.000000D+00
     36   0.000000D+00  0.000000D+00  0.000000D+00  0.000000D+00  0.000000D+00
     37   0.000000D+00  0.000000D+00  0.000000D+00  0.000000D+00  0.000000D+00
     38   0.000000D+00  0.000000D+00  0.000000D+00  0.000000D+00  0.278173D+00
     39  -0.510919D-02  0.000000D+00  0.000000D+00  0.000000D+00  0.000000D+00
     40   0.000000D+00 -0.510919D-02  0.000000D+00  0.000000D+00  0.000000D+00
     41   0.000000D+00  0.000000D+00  0.000000D+00  0.000000D+00  0.342512D+00
     42   0.000000D+00  0.000000D+00  0.000000D+00  0.000000D+00  0.395731D+00
     43  -0.181926D-01  0.000000D+00  0.000000D+00  0.000000D+00  0.000000D+00
     44   0.000000D+00 -0.181926D-01  0.000000D+00  0.000000D+00  0.000000D+00
     45   0.000000D+00  0.000000D+00  0.454010D-02  0.000000D+00  0.000000D+00
     46   0.000000D+00  0.000000D+00  0.000000D+00  0.454010D-02  0.000000D+00
                16            17            18            19            20 
      1   0.000000D+00  0.000000D+00  0.000000D+00  0.000000D+00  0.000000D+00
      2   0.000000D+00  0.000000D+00  0.000000D+00  0.000000D+00  0.000000D+00
      3   0.130758D-01  0.000000D+00  0.000000D+00  0.000000D+00  0.000000D+00
      4   0.000000D+00  0.130758D-01  0.000000D+00  0.000000D+00  0.000000D+00
      5   0.000000D+00  0.000000D+00  0.130758D-01  0.000000D+00  0.000000D+00
      6   0.000000D+00  0.000000D+00  0.000000D+00  0.000000D+00  0.000000D+00
      7   0.212222D+00  0.000000D+00  0.000000D+00  0.000000D+00  0.000000D+00
      8   0.000000D+00  0.212222D+00  0.000000D+00  0.000000D+00  0.000000D+00
      9   0.000000D+00  0.000000D+00  0.212222D+00  0.000000D+00  0.000000D+00
     10   0.000000D+00  0.000000D+00  0.000000D+00  0.556204D-01  0.000000D+00
     11   0.000000D+00  0.000000D+00  0.000000D+00  0.000000D+00  0.556204D-01
     12   0.000000D+00  0.000000D+00  0.000000D+00  0.000000D+00  0.000000D+00
     13   0.000000D+00  0.000000D+00  0.000000D+00  0.000000D+00  0.000000D+00
     14   0.000000D+00  0.000000D+00  0.000000D+00  0.000000D+00  0.000000D+00
     15   0.000000D+00  0.000000D+00  0.000000D+00  0.000000D+00  0.000000D+00
     16   0.100000D+01  0.000000D+00  0.000000D+00  0.000000D+00  0.000000D+00
     17   0.000000D+00  0.100000D+01  0.000000D+00  0.000000D+00  0.000000D+00
     18   0.000000D+00  0.000000D+00  0.100000D+01  0.000000D+00  0.000000D+00
     19   0.000000D+00  0.000000D+00  0.000000D+00  0.100000D+01  0.000000D+00
     20   0.000000D+00  0.000000D+00  0.000000D+00  0.000000D+00  0.100000D+01
     21   0.000000D+00  0.000000D+00  0.000000D+00  0.000000D+00  0.000000D+00
     22   0.000000D+00  0.000000D+00  0.000000D+00  0.000000D+00  0.000000D+00
     23   0.000000D+00  0.000000D+00  0.000000D+00  0.000000D+00  0.000000D+00
     24   0.000000D+00  0.000000D+00 -0.170910D-02  0.595892D-02  0.000000D+00
     25   0.000000D+00  0.000000D+00 -0.105293D-01  0.360957D-01  0.000000D+00
     26   0.442174D-03  0.000000D+00  0.000000D+00  0.000000D+00 -0.262970D-02
     27   0.000000D+00  0.442174D-03  0.000000D+00  0.000000D+00  0.000000D+00
     28   0.000000D+00  0.000000D+00 -0.229626D-02  0.503754D-02  0.000000D+00
     29   0.000000D+00  0.000000D+00 -0.602565D-01  0.179228D+00  0.000000D+00
     30   0.741876D-02  0.000000D+00  0.000000D+00  0.000000D+00 -0.390950D-01
     31   0.000000D+00  0.741876D-02  0.000000D+00  0.000000D+00  0.000000D+00
     32   0.000000D+00  0.000000D+00 -0.367223D-01  0.675680D-01  0.000000D+00
     33   0.000000D+00  0.000000D+00 -0.133334D-01  0.121959D-01  0.000000D+00
     34   0.510919D-02  0.000000D+00  0.000000D+00  0.000000D+00 -0.181926D-01
     35   0.000000D+00  0.510919D-02  0.000000D+00  0.000000D+00  0.000000D+00
     36   0.000000D+00  0.000000D+00  0.000000D+00  0.000000D+00  0.000000D+00
     37   0.000000D+00  0.000000D+00  0.000000D+00  0.000000D+00  0.000000D+00
     38   0.000000D+00  0.000000D+00 -0.342512D+00  0.395731D+00  0.000000D+00
     39   0.151165D+00  0.000000D+00  0.000000D+00  0.000000D+00 -0.377201D+00
     40   0.000000D+00  0.151165D+00  0.000000D+00  0.000000D+00  0.000000D+00
     41   0.000000D+00  0.000000D+00 -0.389259D+00  0.245787D+00  0.000000D+00
     42   0.000000D+00  0.000000D+00 -0.245787D+00 -0.463736D-01  0.000000D+00
     43   0.377201D+00  0.000000D+00  0.000000D+00  0.000000D+00 -0.440061D+00
     44   0.000000D+00  0.377201D+00  0.000000D+00  0.000000D+00  0.000000D+00
     45   0.000000D+00  0.000000D+00  0.000000D+00  0.000000D+00  0.000000D+00
     46   0.000000D+00  0.000000D+00  0.000000D+00  0.000000D+00  0.000000D+00
                21            22            23            24            25 
      1   0.000000D+00  0.000000D+00  0.000000D+00  0.000000D+00  0.000000D+00
      2   0.000000D+00  0.000000D+00  0.000000D+00  0.000000D+00  0.000000D+00
      3   0.000000D+00  0.000000D+00  0.000000D+00  0.000000D+00  0.000000D+00
      4   0.000000D+00  0.000000D+00  0.000000D+00  0.000000D+00  0.000000D+00
      5   0.000000D+00  0.000000D+00  0.000000D+00  0.000000D+00  0.000000D+00
      6   0.000000D+00  0.000000D+00  0.000000D+00  0.000000D+00  0.000000D+00
      7   0.000000D+00  0.000000D+00  0.000000D+00  0.000000D+00  0.000000D+00
      8   0.000000D+00  0.000000D+00  0.000000D+00  0.000000D+00  0.000000D+00
      9   0.000000D+00  0.000000D+00  0.000000D+00  0.000000D+00  0.000000D+00
     10   0.000000D+00  0.000000D+00  0.000000D+00  0.000000D+00  0.000000D+00
     11   0.000000D+00  0.000000D+00  0.000000D+00  0.000000D+00  0.000000D+00
     12   0.556204D-01  0.000000D+00  0.000000D+00  0.000000D+00  0.000000D+00
     13   0.000000D+00  0.556204D-01  0.000000D+00  0.000000D+00  0.000000D+00
     14   0.000000D+00  0.000000D+00  0.556204D-01  0.000000D+00  0.000000D+00
     15   0.000000D+00  0.000000D+00  0.000000D+00  0.966542D-03  0.597590D-02
     16   0.000000D+00  0.000000D+00  0.000000D+00  0.000000D+00  0.000000D+00
     17   0.000000D+00  0.000000D+00  0.000000D+00  0.000000D+00  0.000000D+00
     18   0.000000D+00  0.000000D+00  0.000000D+00 -0.170910D-02 -0.105293D-01
     19   0.000000D+00  0.000000D+00  0.000000D+00  0.595892D-02  0.360957D-01
     20   0.000000D+00  0.000000D+00  0.000000D+00  0.000000D+00  0.000000D+00
     21   0.100000D+01  0.000000D+00  0.000000D+00  0.000000D+00  0.000000D+00
     22   0.000000D+00  0.100000D+01  0.000000D+00  0.000000D+00  0.000000D+00
     23   0.000000D+00  0.000000D+00  0.100000D+01  0.000000D+00  0.000000D+00
     24   0.000000D+00  0.000000D+00  0.000000D+00  0.100000D+01  0.403730D+00
     25   0.000000D+00  0.000000D+00  0.000000D+00  0.403730D+00  0.100000D+01
     26   0.000000D+00  0.000000D+00  0.000000D+00  0.000000D+00  0.000000D+00
     27  -0.262970D-02  0.000000D+00  0.000000D+00  0.000000D+00  0.000000D+00
     28   0.000000D+00  0.000000D+00  0.000000D+00  0.000000D+00  0.000000D+00
     29   0.000000D+00  0.000000D+00  0.000000D+00  0.292129D-01  0.339068D+00
     30   0.000000D+00  0.000000D+00  0.000000D+00  0.000000D+00  0.000000D+00
     31  -0.390950D-01  0.000000D+00  0.000000D+00  0.000000D+00  0.000000D+00
     32   0.000000D+00  0.000000D+00  0.000000D+00  0.000000D+00  0.000000D+00
     33   0.000000D+00  0.000000D+00  0.000000D+00  0.000000D+00  0.000000D+00
     34   0.000000D+00  0.000000D+00  0.000000D+00  0.000000D+00  0.000000D+00
     35  -0.181926D-01  0.000000D+00  0.000000D+00  0.000000D+00  0.000000D+00
     36   0.000000D+00  0.454010D-02  0.000000D+00  0.000000D+00  0.000000D+00
     37   0.000000D+00  0.000000D+00  0.454010D-02  0.000000D+00  0.000000D+00
     38   0.000000D+00  0.000000D+00  0.000000D+00 -0.382798D-03  0.488481D-02
     39   0.000000D+00  0.000000D+00  0.000000D+00  0.000000D+00  0.000000D+00
     40  -0.377201D+00  0.000000D+00  0.000000D+00  0.000000D+00  0.000000D+00
     41   0.000000D+00  0.000000D+00  0.000000D+00  0.000000D+00  0.000000D+00
     42   0.000000D+00  0.000000D+00  0.000000D+00  0.000000D+00  0.000000D+00
     43   0.000000D+00  0.000000D+00  0.000000D+00  0.000000D+00  0.000000D+00
     44  -0.440061D+00  0.000000D+00  0.000000D+00  0.000000D+00  0.000000D+00
     45   0.000000D+00  0.261341D+00  0.000000D+00  0.000000D+00  0.000000D+00
     46   0.000000D+00  0.000000D+00  0.261341D+00  0.000000D+00  0.000000D+00
                26            27            28            29            30 
      1   0.000000D+00  0.000000D+00  0.000000D+00  0.000000D+00  0.000000D+00
      2   0.000000D+00  0.000000D+00  0.000000D+00  0.000000D+00  0.000000D+00
      3   0.000000D+00  0.000000D+00  0.000000D+00  0.000000D+00  0.000000D+00
      4   0.000000D+00  0.000000D+00  0.000000D+00  0.000000D+00  0.000000D+00
      5   0.000000D+00  0.000000D+00  0.000000D+00  0.000000D+00  0.000000D+00
      6   0.000000D+00  0.000000D+00  0.000000D+00  0.000000D+00  0.000000D+00
      7   0.000000D+00  0.000000D+00  0.000000D+00  0.000000D+00  0.000000D+00
      8   0.000000D+00  0.000000D+00  0.000000D+00  0.000000D+00  0.000000D+00
      9   0.000000D+00  0.000000D+00  0.000000D+00  0.000000D+00  0.000000D+00
     10   0.000000D+00  0.000000D+00  0.000000D+00  0.177066D-05  0.000000D+00
     11   0.000000D+00  0.000000D+00  0.000000D+00  0.000000D+00  0.000000D+00
     12   0.000000D+00  0.000000D+00  0.000000D+00  0.000000D+00  0.000000D+00
     13   0.000000D+00  0.000000D+00  0.000000D+00  0.000000D+00  0.000000D+00
     14   0.000000D+00  0.000000D+00  0.000000D+00  0.000000D+00  0.000000D+00
     15   0.000000D+00  0.000000D+00  0.141759D-02  0.350599D-01  0.000000D+00
     16   0.442174D-03  0.000000D+00  0.000000D+00  0.000000D+00  0.741876D-02
     17   0.000000D+00  0.442174D-03  0.000000D+00  0.000000D+00  0.000000D+00
     18   0.000000D+00  0.000000D+00 -0.229626D-02 -0.602565D-01  0.000000D+00
     19   0.000000D+00  0.000000D+00  0.503754D-02  0.179228D+00  0.000000D+00
     20  -0.262970D-02  0.000000D+00  0.000000D+00  0.000000D+00 -0.390950D-01
     21   0.000000D+00 -0.262970D-02  0.000000D+00  0.000000D+00  0.000000D+00
     22   0.000000D+00  0.000000D+00  0.000000D+00  0.000000D+00  0.000000D+00
     23   0.000000D+00  0.000000D+00  0.000000D+00  0.000000D+00  0.000000D+00
     24   0.000000D+00  0.000000D+00  0.000000D+00  0.292129D-01  0.000000D+00
     25   0.000000D+00  0.000000D+00  0.000000D+00  0.339068D+00  0.000000D+00
     26   0.100000D+01  0.000000D+00  0.000000D+00  0.000000D+00  0.351981D+00
     27   0.000000D+00  0.100000D+01  0.000000D+00  0.000000D+00  0.000000D+00
     28   0.000000D+00  0.000000D+00  0.100000D+01  0.000000D+00  0.000000D+00
     29   0.000000D+00  0.000000D+00  0.000000D+00  0.100000D+01  0.000000D+00
     30   0.351981D+00  0.000000D+00  0.000000D+00  0.000000D+00  0.100000D+01
     31   0.000000D+00  0.351981D+00  0.000000D+00  0.000000D+00  0.000000D+00
     32   0.000000D+00  0.000000D+00  0.351981D+00  0.000000D+00  0.000000D+00
     33   0.000000D+00  0.000000D+00  0.000000D+00  0.000000D+00  0.000000D+00
     34   0.000000D+00  0.000000D+00  0.000000D+00  0.000000D+00  0.000000D+00
     35   0.000000D+00  0.000000D+00  0.000000D+00  0.000000D+00  0.000000D+00
     36   0.000000D+00  0.000000D+00  0.000000D+00  0.000000D+00  0.000000D+00
     37   0.000000D+00  0.000000D+00  0.000000D+00  0.000000D+00  0.000000D+00
     38   0.000000D+00  0.000000D+00  0.000000D+00  0.195676D+00  0.000000D+00
     39   0.130758D-01  0.000000D+00  0.000000D+00  0.000000D+00  0.212222D+00
     40   0.000000D+00  0.130758D-01  0.000000D+00  0.000000D+00  0.000000D+00
     41   0.000000D+00  0.000000D+00  0.130758D-01  0.000000D+00  0.000000D+00
     42   0.000000D+00  0.000000D+00  0.000000D+00  0.000000D+00  0.000000D+00
     43   0.000000D+00  0.000000D+00  0.000000D+00  0.000000D+00  0.000000D+00
     44   0.000000D+00  0.000000D+00  0.000000D+00  0.000000D+00  0.000000D+00
     45   0.000000D+00  0.000000D+00  0.000000D+00  0.000000D+00  0.000000D+00
     46   0.000000D+00  0.000000D+00  0.000000D+00  0.000000D+00  0.000000D+00
                31            32            33            34            35 
      1   0.000000D+00  0.000000D+00  0.000000D+00  0.000000D+00  0.000000D+00
      2   0.000000D+00  0.000000D+00  0.000000D+00  0.000000D+00  0.000000D+00
      3   0.000000D+00  0.000000D+00  0.000000D+00  0.000000D+00  0.000000D+00
      4   0.000000D+00  0.000000D+00  0.000000D+00  0.000000D+00  0.000000D+00
      5   0.000000D+00  0.000000D+00  0.000000D+00  0.000000D+00  0.000000D+00
      6   0.000000D+00  0.000000D+00  0.177066D-05  0.000000D+00  0.000000D+00
      7   0.000000D+00  0.000000D+00  0.000000D+00  0.000000D+00  0.000000D+00
      8   0.000000D+00  0.000000D+00  0.000000D+00  0.000000D+00  0.000000D+00
      9   0.000000D+00 -0.265173D-05 -0.475441D-05  0.000000D+00  0.000000D+00
     10   0.000000D+00  0.475441D-05  0.823601D-05  0.000000D+00  0.000000D+00
     11   0.000000D+00  0.000000D+00  0.000000D+00  0.000000D+00  0.000000D+00
     12   0.000000D+00  0.000000D+00  0.000000D+00  0.000000D+00  0.000000D+00
     13   0.000000D+00  0.000000D+00  0.000000D+00  0.000000D+00  0.000000D+00
     14   0.000000D+00  0.000000D+00  0.000000D+00  0.000000D+00  0.000000D+00
     15   0.000000D+00  0.227132D-01  0.805145D-02  0.000000D+00  0.000000D+00
     16   0.000000D+00  0.000000D+00  0.000000D+00  0.510919D-02  0.000000D+00
     17   0.741876D-02  0.000000D+00  0.000000D+00  0.000000D+00  0.510919D-02
     18   0.000000D+00 -0.367223D-01 -0.133334D-01  0.000000D+00  0.000000D+00
     19   0.000000D+00  0.675680D-01  0.121959D-01  0.000000D+00  0.000000D+00
     20   0.000000D+00  0.000000D+00  0.000000D+00 -0.181926D-01  0.000000D+00
     21  -0.390950D-01  0.000000D+00  0.000000D+00  0.000000D+00 -0.181926D-01
     22   0.000000D+00  0.000000D+00  0.000000D+00  0.000000D+00  0.000000D+00
     23   0.000000D+00  0.000000D+00  0.000000D+00  0.000000D+00  0.000000D+00
     24   0.000000D+00  0.000000D+00  0.000000D+00  0.000000D+00  0.000000D+00
     25   0.000000D+00  0.000000D+00  0.000000D+00  0.000000D+00  0.000000D+00
     26   0.000000D+00  0.000000D+00  0.000000D+00  0.000000D+00  0.000000D+00
     27   0.351981D+00  0.000000D+00  0.000000D+00  0.000000D+00  0.000000D+00
     28   0.000000D+00  0.351981D+00  0.000000D+00  0.000000D+00  0.000000D+00
     29   0.000000D+00  0.000000D+00  0.000000D+00  0.000000D+00  0.000000D+00
     30   0.000000D+00  0.000000D+00  0.000000D+00  0.000000D+00  0.000000D+00
     31   0.100000D+01  0.000000D+00  0.000000D+00  0.000000D+00  0.000000D+00
     32   0.000000D+00  0.100000D+01  0.000000D+00  0.000000D+00  0.000000D+00
     33   0.000000D+00  0.000000D+00  0.100000D+01  0.000000D+00  0.000000D+00
     34   0.000000D+00  0.000000D+00  0.000000D+00  0.100000D+01  0.000000D+00
     35   0.000000D+00  0.000000D+00  0.000000D+00  0.000000D+00  0.100000D+01
     36   0.000000D+00  0.000000D+00  0.000000D+00  0.000000D+00  0.000000D+00
     37   0.000000D+00  0.000000D+00  0.000000D+00  0.000000D+00  0.000000D+00
     38   0.000000D+00  0.000000D+00  0.000000D+00  0.000000D+00  0.000000D+00
     39   0.000000D+00  0.000000D+00  0.000000D+00  0.000000D+00  0.000000D+00
     40   0.212222D+00  0.000000D+00  0.000000D+00  0.000000D+00  0.000000D+00
     41   0.000000D+00  0.212222D+00  0.000000D+00  0.000000D+00  0.000000D+00
     42   0.000000D+00  0.000000D+00  0.556204D-01  0.000000D+00  0.000000D+00
     43   0.000000D+00  0.000000D+00  0.000000D+00  0.556204D-01  0.000000D+00
     44   0.000000D+00  0.000000D+00  0.000000D+00  0.000000D+00  0.556204D-01
     45   0.000000D+00  0.000000D+00  0.000000D+00  0.000000D+00  0.000000D+00
     46   0.000000D+00  0.000000D+00  0.000000D+00  0.000000D+00  0.000000D+00
                36            37            38            39            40 
      1   0.000000D+00  0.000000D+00  0.966542D-03  0.000000D+00  0.000000D+00
      2   0.000000D+00  0.000000D+00  0.597590D-02  0.000000D+00  0.000000D+00
      3   0.000000D+00  0.000000D+00  0.000000D+00  0.442174D-03  0.000000D+00
      4   0.000000D+00  0.000000D+00  0.000000D+00  0.000000D+00  0.442174D-03
      5   0.000000D+00  0.000000D+00 -0.141759D-02  0.000000D+00  0.000000D+00
      6   0.000000D+00  0.000000D+00  0.350599D-01  0.000000D+00  0.000000D+00
      7   0.000000D+00  0.000000D+00  0.000000D+00  0.741876D-02  0.000000D+00
      8   0.000000D+00  0.000000D+00  0.000000D+00  0.000000D+00  0.741876D-02
      9   0.000000D+00  0.000000D+00 -0.227132D-01  0.000000D+00  0.000000D+00
     10   0.000000D+00  0.000000D+00  0.805145D-02  0.000000D+00  0.000000D+00
     11   0.000000D+00  0.000000D+00  0.000000D+00 -0.510919D-02  0.000000D+00
     12   0.000000D+00  0.000000D+00  0.000000D+00  0.000000D+00 -0.510919D-02
     13   0.000000D+00  0.000000D+00  0.000000D+00  0.000000D+00  0.000000D+00
     14   0.000000D+00  0.000000D+00  0.000000D+00  0.000000D+00  0.000000D+00
     15   0.000000D+00  0.000000D+00  0.278173D+00  0.000000D+00  0.000000D+00
     16   0.000000D+00  0.000000D+00  0.000000D+00  0.151165D+00  0.000000D+00
     17   0.000000D+00  0.000000D+00  0.000000D+00  0.000000D+00  0.151165D+00
     18   0.000000D+00  0.000000D+00 -0.342512D+00  0.000000D+00  0.000000D+00
     19   0.000000D+00  0.000000D+00  0.395731D+00  0.000000D+00  0.000000D+00
     20   0.000000D+00  0.000000D+00  0.000000D+00 -0.377201D+00  0.000000D+00
     21   0.000000D+00  0.000000D+00  0.000000D+00  0.000000D+00 -0.377201D+00
     22   0.454010D-02  0.000000D+00  0.000000D+00  0.000000D+00  0.000000D+00
     23   0.000000D+00  0.454010D-02  0.000000D+00  0.000000D+00  0.000000D+00
     24   0.000000D+00  0.000000D+00 -0.382798D-03  0.000000D+00  0.000000D+00
     25   0.000000D+00  0.000000D+00  0.488481D-02  0.000000D+00  0.000000D+00
     26   0.000000D+00  0.000000D+00  0.000000D+00  0.130758D-01  0.000000D+00
     27   0.000000D+00  0.000000D+00  0.000000D+00  0.000000D+00  0.130758D-01
     28   0.000000D+00  0.000000D+00  0.000000D+00  0.000000D+00  0.000000D+00
     29   0.000000D+00  0.000000D+00  0.195676D+00  0.000000D+00  0.000000D+00
     30   0.000000D+00  0.000000D+00  0.000000D+00  0.212222D+00  0.000000D+00
     31   0.000000D+00  0.000000D+00  0.000000D+00  0.000000D+00  0.212222D+00
     32   0.000000D+00  0.000000D+00  0.000000D+00  0.000000D+00  0.000000D+00
     33   0.000000D+00  0.000000D+00  0.000000D+00  0.000000D+00  0.000000D+00
     34   0.000000D+00  0.000000D+00  0.000000D+00  0.000000D+00  0.000000D+00
     35   0.000000D+00  0.000000D+00  0.000000D+00  0.000000D+00  0.000000D+00
     36   0.100000D+01  0.000000D+00  0.000000D+00  0.000000D+00  0.000000D+00
     37   0.000000D+00  0.100000D+01  0.000000D+00  0.000000D+00  0.000000D+00
     38   0.000000D+00  0.000000D+00  0.100000D+01  0.000000D+00  0.000000D+00
     39   0.000000D+00  0.000000D+00  0.000000D+00  0.100000D+01  0.000000D+00
     40   0.000000D+00  0.000000D+00  0.000000D+00  0.000000D+00  0.100000D+01
     41   0.000000D+00  0.000000D+00  0.000000D+00  0.000000D+00  0.000000D+00
     42   0.000000D+00  0.000000D+00  0.000000D+00  0.000000D+00  0.000000D+00
     43   0.000000D+00  0.000000D+00  0.000000D+00  0.000000D+00  0.000000D+00
     44   0.000000D+00  0.000000D+00  0.000000D+00  0.000000D+00  0.000000D+00
     45   0.556204D-01  0.000000D+00  0.000000D+00  0.000000D+00  0.000000D+00
     46   0.000000D+00  0.556204D-01  0.000000D+00  0.000000D+00  0.000000D+00
                41            42            43            44            45 
      1   0.170910D-02  0.595892D-02  0.000000D+00  0.000000D+00  0.000000D+00
      2   0.105293D-01  0.360957D-01  0.000000D+00  0.000000D+00  0.000000D+00
      3   0.000000D+00  0.000000D+00  0.262970D-02  0.000000D+00  0.000000D+00
      4   0.000000D+00  0.000000D+00  0.000000D+00  0.262970D-02  0.000000D+00
      5  -0.229626D-02 -0.503754D-02  0.000000D+00  0.000000D+00  0.000000D+00
      6   0.602565D-01  0.179228D+00  0.000000D+00  0.000000D+00  0.000000D+00
      7   0.000000D+00  0.000000D+00  0.390950D-01  0.000000D+00  0.000000D+00
      8   0.000000D+00  0.000000D+00  0.000000D+00  0.390950D-01  0.000000D+00
      9  -0.367223D-01 -0.675680D-01  0.000000D+00  0.000000D+00  0.000000D+00
     10   0.133334D-01  0.121959D-01  0.000000D+00  0.000000D+00  0.000000D+00
     11   0.000000D+00  0.000000D+00 -0.181926D-01  0.000000D+00  0.000000D+00
     12   0.000000D+00  0.000000D+00  0.000000D+00 -0.181926D-01  0.000000D+00
     13   0.000000D+00  0.000000D+00  0.000000D+00  0.000000D+00  0.454010D-02
     14   0.000000D+00  0.000000D+00  0.000000D+00  0.000000D+00  0.000000D+00
     15   0.342512D+00  0.395731D+00  0.000000D+00  0.000000D+00  0.000000D+00
     16   0.000000D+00  0.000000D+00  0.377201D+00  0.000000D+00  0.000000D+00
     17   0.000000D+00  0.000000D+00  0.000000D+00  0.377201D+00  0.000000D+00
     18  -0.389259D+00 -0.245787D+00  0.000000D+00  0.000000D+00  0.000000D+00
     19   0.245787D+00 -0.463736D-01  0.000000D+00  0.000000D+00  0.000000D+00
     20   0.000000D+00  0.000000D+00 -0.440061D+00  0.000000D+00  0.000000D+00
     21   0.000000D+00  0.000000D+00  0.000000D+00 -0.440061D+00  0.000000D+00
     22   0.000000D+00  0.000000D+00  0.000000D+00  0.000000D+00  0.261341D+00
     23   0.000000D+00  0.000000D+00  0.000000D+00  0.000000D+00  0.000000D+00
     24   0.000000D+00  0.000000D+00  0.000000D+00  0.000000D+00  0.000000D+00
     25   0.000000D+00  0.000000D+00  0.000000D+00  0.000000D+00  0.000000D+00
     26   0.000000D+00  0.000000D+00  0.000000D+00  0.000000D+00  0.000000D+00
     27   0.000000D+00  0.000000D+00  0.000000D+00  0.000000D+00  0.000000D+00
     28   0.130758D-01  0.000000D+00  0.000000D+00  0.000000D+00  0.000000D+00
     29   0.000000D+00  0.000000D+00  0.000000D+00  0.000000D+00  0.000000D+00
     30   0.000000D+00  0.000000D+00  0.000000D+00  0.000000D+00  0.000000D+00
     31   0.000000D+00  0.000000D+00  0.000000D+00  0.000000D+00  0.000000D+00
     32   0.212222D+00  0.000000D+00  0.000000D+00  0.000000D+00  0.000000D+00
     33   0.000000D+00  0.556204D-01  0.000000D+00  0.000000D+00  0.000000D+00
     34   0.000000D+00  0.000000D+00  0.556204D-01  0.000000D+00  0.000000D+00
     35   0.000000D+00  0.000000D+00  0.000000D+00  0.556204D-01  0.000000D+00
     36   0.000000D+00  0.000000D+00  0.000000D+00  0.000000D+00  0.556204D-01
     37   0.000000D+00  0.000000D+00  0.000000D+00  0.000000D+00  0.000000D+00
     38   0.000000D+00  0.000000D+00  0.000000D+00  0.000000D+00  0.000000D+00
     39   0.000000D+00  0.000000D+00  0.000000D+00  0.000000D+00  0.000000D+00
     40   0.000000D+00  0.000000D+00  0.000000D+00  0.000000D+00  0.000000D+00
     41   0.100000D+01  0.000000D+00  0.000000D+00  0.000000D+00  0.000000D+00
     42   0.000000D+00  0.100000D+01  0.000000D+00  0.000000D+00  0.000000D+00
     43   0.000000D+00  0.000000D+00  0.100000D+01  0.000000D+00  0.000000D+00
     44   0.000000D+00  0.000000D+00  0.000000D+00  0.100000D+01  0.000000D+00
     45   0.000000D+00  0.000000D+00  0.000000D+00  0.000000D+00  0.100000D+01
     46   0.000000D+00  0.000000D+00  0.000000D+00  0.000000D+00  0.000000D+00
                46 
      1   0.000000D+00
      2   0.000000D+00
      3   0.000000D+00
      4   0.000000D+00
      5   0.000000D+00
      6   0.000000D+00
      7   0.000000D+00
      8   0.000000D+00
      9   0.000000D+00
     10   0.000000D+00
     11   0.000000D+00
     12   0.000000D+00
     13   0.000000D+00
     14   0.454010D-02
     15   0.000000D+00
     16   0.000000D+00
     17   0.000000D+00
     18   0.000000D+00
     19   0.000000D+00
     20   0.000000D+00
     21   0.000000D+00
     22   0.000000D+00
     23   0.261341D+00
     24   0.000000D+00
     25   0.000000D+00
     26   0.000000D+00
     27   0.000000D+00
     28   0.000000D+00
     29   0.000000D+00
     30   0.000000D+00
     31   0.000000D+00
     32   0.000000D+00
     33   0.000000D+00
     34   0.000000D+00
     35   0.000000D+00
     36   0.000000D+00
     37   0.556204D-01
     38   0.000000D+00
     39   0.000000D+00
     40   0.000000D+00
     41   0.000000D+00
     42   0.000000D+00
     43   0.000000D+00
     44   0.000000D+00
     45   0.000000D+00
     46   0.100000D+01
 Entering OneElI...
 Overlap between basis sets.
 Requested accuracy = 0.1000D-12
 PrsmSu:  NPrtUS=   1 ThrOK=F IAlg=1
 PRISM was handed   804133381 working-precision words and   956 shell-pairs
 IPart=  0 NShTot=         956 NBatch=          85 AvBLen=        11.2
 CnvPC2: ToCart=F DoDens=F IPureD=0 IPureF=0.
 Transformed matrix in CnvPC2: 
                 1             2             3             4             5 
      1   0.999793D+00  0.412056D+00  0.000000D+00  0.000000D+00  0.000000D+00
      2   0.290164D+00  0.988436D+00  0.000000D+00  0.000000D+00  0.000000D+00
      3   0.000000D+00  0.000000D+00  0.999260D+00  0.000000D+00  0.000000D+00
      4   0.000000D+00  0.000000D+00  0.000000D+00  0.999260D+00  0.000000D+00
      5   0.000000D+00  0.000000D+00  0.000000D+00  0.000000D+00  0.999260D+00
      6   0.133994D-01  0.324743D+00  0.000000D+00  0.000000D+00  0.000000D+00
      7   0.000000D+00  0.000000D+00  0.350255D+00  0.000000D+00  0.000000D+00
      8   0.000000D+00  0.000000D+00  0.000000D+00  0.350255D+00  0.000000D+00
      9   0.000000D+00  0.000000D+00  0.000000D+00  0.000000D+00  0.350255D+00
     10   0.000000D+00  0.000000D+00  0.000000D+00  0.000000D+00  0.000000D+00
     11   0.000000D+00  0.000000D+00  0.000000D+00  0.000000D+00  0.000000D+00
     12   0.000000D+00  0.000000D+00  0.000000D+00  0.000000D+00  0.000000D+00
     13   0.000000D+00  0.000000D+00  0.000000D+00  0.000000D+00  0.000000D+00
     14   0.000000D+00  0.000000D+00  0.000000D+00  0.000000D+00  0.000000D+00
     15   0.256990D-03  0.130754D-01  0.000000D+00  0.000000D+00  0.000000D+00
     16   0.380629D-02  0.231756D-01  0.000000D+00  0.000000D+00  0.000000D+00
     17   0.000000D+00  0.000000D+00  0.900556D-02  0.000000D+00  0.000000D+00
     18   0.000000D+00  0.000000D+00  0.000000D+00  0.900556D-02  0.000000D+00
     19   0.000000D+00  0.000000D+00  0.000000D+00  0.000000D+00  0.900556D-02
     20   0.000000D+00  0.000000D+00  0.309360D-02  0.000000D+00  0.000000D+00
     21   0.000000D+00  0.000000D+00  0.000000D+00  0.309360D-02  0.000000D+00
     22   0.000000D+00  0.000000D+00  0.000000D+00  0.000000D+00  0.309360D-02
     23   0.000000D+00  0.000000D+00  0.910089D-03  0.000000D+00  0.000000D+00
     24   0.000000D+00  0.000000D+00  0.000000D+00  0.910089D-03  0.000000D+00
     25   0.000000D+00  0.000000D+00  0.000000D+00  0.000000D+00  0.910089D-03
     26   0.523268D-01  0.295759D+00  0.000000D+00  0.000000D+00  0.000000D+00
     27   0.331044D-01  0.193700D+00  0.000000D+00  0.000000D+00  0.000000D+00
     28   0.209008D-01  0.124665D+00  0.000000D+00  0.000000D+00  0.000000D+00
     29   0.131813D-01  0.794523D-01  0.000000D+00  0.000000D+00  0.000000D+00
     30   0.830799D-02  0.503650D-01  0.000000D+00  0.000000D+00  0.000000D+00
     31   0.000000D+00  0.000000D+00  0.179889D+00  0.000000D+00  0.000000D+00
     32   0.000000D+00  0.000000D+00  0.000000D+00  0.179889D+00  0.000000D+00
     33   0.000000D+00  0.000000D+00  0.000000D+00  0.000000D+00  0.179889D+00
     34   0.000000D+00  0.000000D+00  0.966510D-01  0.000000D+00  0.000000D+00
     35   0.000000D+00  0.000000D+00  0.000000D+00  0.966510D-01  0.000000D+00
     36   0.000000D+00  0.000000D+00  0.000000D+00  0.000000D+00  0.966510D-01
     37   0.000000D+00  0.000000D+00  0.499015D-01  0.000000D+00  0.000000D+00
     38   0.000000D+00  0.000000D+00  0.000000D+00  0.499015D-01  0.000000D+00
     39   0.000000D+00  0.000000D+00  0.000000D+00  0.000000D+00  0.499015D-01
     40   0.000000D+00  0.000000D+00  0.251489D-01  0.000000D+00  0.000000D+00
     41   0.000000D+00  0.000000D+00  0.000000D+00  0.251489D-01  0.000000D+00
     42   0.000000D+00  0.000000D+00  0.000000D+00  0.000000D+00  0.251489D-01
     43   0.000000D+00  0.000000D+00  0.124955D-01  0.000000D+00  0.000000D+00
     44   0.000000D+00  0.000000D+00  0.000000D+00  0.124955D-01  0.000000D+00
     45   0.000000D+00  0.000000D+00  0.000000D+00  0.000000D+00  0.124955D-01
     46   0.000000D+00  0.000000D+00  0.000000D+00  0.000000D+00  0.000000D+00
     47   0.000000D+00  0.000000D+00  0.000000D+00  0.000000D+00  0.000000D+00
     48   0.000000D+00  0.000000D+00  0.000000D+00  0.000000D+00  0.000000D+00
     49   0.000000D+00  0.000000D+00  0.000000D+00  0.000000D+00  0.000000D+00
     50   0.000000D+00  0.000000D+00  0.000000D+00  0.000000D+00  0.000000D+00
     51   0.000000D+00  0.000000D+00  0.000000D+00  0.000000D+00  0.000000D+00
     52   0.000000D+00  0.000000D+00  0.000000D+00  0.000000D+00  0.000000D+00
     53   0.000000D+00  0.000000D+00  0.000000D+00  0.000000D+00  0.000000D+00
     54   0.000000D+00  0.000000D+00  0.000000D+00  0.000000D+00  0.000000D+00
     55   0.000000D+00  0.000000D+00  0.000000D+00  0.000000D+00  0.000000D+00
     56   0.000000D+00  0.000000D+00  0.000000D+00  0.000000D+00  0.000000D+00
     57   0.000000D+00  0.000000D+00  0.000000D+00  0.000000D+00  0.000000D+00
     58   0.000000D+00  0.000000D+00  0.000000D+00  0.000000D+00  0.000000D+00
     59   0.000000D+00  0.000000D+00  0.000000D+00  0.000000D+00  0.000000D+00
     60   0.000000D+00  0.000000D+00  0.000000D+00  0.000000D+00  0.000000D+00
     61   0.000000D+00  0.000000D+00  0.000000D+00  0.000000D+00  0.000000D+00
     62   0.000000D+00  0.000000D+00  0.000000D+00  0.000000D+00  0.000000D+00
     63   0.000000D+00  0.000000D+00  0.000000D+00  0.000000D+00  0.000000D+00
     64   0.000000D+00  0.000000D+00  0.000000D+00  0.000000D+00  0.000000D+00
     65   0.000000D+00  0.000000D+00  0.000000D+00  0.000000D+00  0.000000D+00
     66   0.000000D+00  0.000000D+00  0.000000D+00  0.000000D+00  0.000000D+00
     67   0.000000D+00  0.000000D+00  0.000000D+00  0.000000D+00  0.000000D+00
     68   0.000000D+00  0.000000D+00  0.000000D+00  0.000000D+00  0.000000D+00
     69   0.000000D+00  0.000000D+00  0.000000D+00  0.000000D+00  0.000000D+00
     70   0.000000D+00  0.000000D+00  0.000000D+00  0.000000D+00  0.000000D+00
     71   0.000000D+00  0.000000D+00  0.000000D+00  0.000000D+00  0.000000D+00
     72   0.000000D+00  0.000000D+00  0.000000D+00  0.000000D+00  0.000000D+00
     73   0.000000D+00  0.000000D+00  0.000000D+00  0.000000D+00  0.000000D+00
     74   0.000000D+00  0.000000D+00  0.000000D+00  0.000000D+00  0.000000D+00
     75   0.000000D+00  0.000000D+00  0.000000D+00  0.000000D+00  0.000000D+00
     76   0.000000D+00  0.000000D+00  0.000000D+00  0.000000D+00  0.000000D+00
     77   0.000000D+00  0.000000D+00  0.000000D+00  0.000000D+00  0.000000D+00
     78   0.000000D+00  0.000000D+00  0.000000D+00  0.000000D+00  0.000000D+00
     79   0.000000D+00  0.000000D+00  0.000000D+00  0.000000D+00  0.000000D+00
     80   0.000000D+00  0.000000D+00  0.000000D+00  0.000000D+00  0.000000D+00
     81   0.000000D+00  0.000000D+00  0.000000D+00  0.000000D+00  0.000000D+00
     82   0.000000D+00  0.000000D+00  0.000000D+00  0.000000D+00  0.000000D+00
     83   0.000000D+00  0.000000D+00  0.000000D+00  0.000000D+00  0.000000D+00
     84   0.000000D+00  0.000000D+00  0.000000D+00  0.000000D+00  0.000000D+00
     85   0.000000D+00  0.000000D+00  0.000000D+00  0.000000D+00  0.000000D+00
     86   0.000000D+00  0.000000D+00  0.000000D+00  0.000000D+00  0.000000D+00
     87   0.000000D+00  0.000000D+00  0.000000D+00  0.000000D+00  0.000000D+00
     88   0.000000D+00  0.000000D+00  0.000000D+00  0.000000D+00  0.000000D+00
     89   0.000000D+00  0.000000D+00  0.000000D+00  0.000000D+00  0.000000D+00
     90   0.000000D+00  0.000000D+00  0.000000D+00  0.000000D+00  0.000000D+00
     91   0.000000D+00  0.000000D+00  0.000000D+00  0.000000D+00  0.000000D+00
     92   0.000000D+00  0.000000D+00  0.000000D+00  0.000000D+00  0.000000D+00
     93   0.000000D+00  0.000000D+00  0.000000D+00  0.000000D+00  0.000000D+00
     94   0.000000D+00  0.000000D+00  0.000000D+00  0.000000D+00  0.000000D+00
     95   0.000000D+00  0.000000D+00  0.000000D+00  0.000000D+00  0.000000D+00
     96   0.000000D+00  0.000000D+00  0.000000D+00  0.000000D+00  0.000000D+00
     97   0.000000D+00  0.000000D+00  0.000000D+00  0.000000D+00  0.000000D+00
     98   0.000000D+00  0.000000D+00  0.000000D+00  0.000000D+00  0.000000D+00
     99   0.000000D+00  0.000000D+00  0.000000D+00  0.000000D+00  0.000000D+00
    100   0.000000D+00  0.000000D+00  0.000000D+00  0.000000D+00  0.000000D+00
    101   0.000000D+00  0.000000D+00  0.000000D+00  0.000000D+00  0.000000D+00
    102   0.000000D+00  0.000000D+00  0.000000D+00  0.000000D+00  0.000000D+00
    103   0.000000D+00  0.000000D+00  0.000000D+00  0.000000D+00  0.000000D+00
    104   0.000000D+00  0.000000D+00  0.000000D+00  0.000000D+00  0.000000D+00
    105   0.000000D+00  0.000000D+00  0.000000D+00  0.000000D+00  0.000000D+00
    106   0.000000D+00  0.000000D+00  0.000000D+00  0.000000D+00  0.000000D+00
    107   0.000000D+00  0.000000D+00  0.000000D+00  0.000000D+00  0.000000D+00
    108   0.000000D+00  0.000000D+00  0.000000D+00  0.000000D+00  0.000000D+00
    109   0.000000D+00  0.000000D+00  0.000000D+00  0.000000D+00  0.000000D+00
    110   0.000000D+00  0.000000D+00  0.000000D+00  0.000000D+00  0.000000D+00
    111   0.000000D+00  0.000000D+00  0.000000D+00  0.000000D+00  0.000000D+00
    112   0.000000D+00  0.000000D+00  0.000000D+00  0.000000D+00  0.000000D+00
    113   0.000000D+00  0.000000D+00  0.000000D+00  0.000000D+00  0.000000D+00
    114   0.000000D+00  0.000000D+00  0.000000D+00  0.000000D+00  0.000000D+00
    115   0.000000D+00  0.000000D+00  0.000000D+00  0.000000D+00  0.000000D+00
    116   0.000000D+00  0.000000D+00  0.000000D+00  0.000000D+00  0.000000D+00
    117   0.000000D+00  0.000000D+00  0.000000D+00  0.000000D+00  0.000000D+00
    118   0.000000D+00  0.000000D+00  0.000000D+00  0.000000D+00  0.000000D+00
    119   0.000000D+00  0.000000D+00  0.000000D+00  0.000000D+00  0.000000D+00
    120   0.000000D+00  0.000000D+00  0.000000D+00  0.000000D+00  0.000000D+00
    121   0.000000D+00  0.000000D+00  0.000000D+00  0.000000D+00  0.000000D+00
    122   0.000000D+00  0.000000D+00  0.000000D+00  0.000000D+00  0.000000D+00
    123   0.000000D+00  0.000000D+00  0.000000D+00  0.000000D+00  0.000000D+00
    124   0.000000D+00  0.000000D+00  0.000000D+00  0.000000D+00  0.000000D+00
    125   0.000000D+00  0.000000D+00  0.000000D+00  0.000000D+00  0.000000D+00
    126   0.000000D+00  0.000000D+00  0.000000D+00  0.000000D+00  0.000000D+00
    127   0.000000D+00  0.000000D+00  0.000000D+00  0.000000D+00  0.000000D+00
    128   0.000000D+00  0.000000D+00  0.000000D+00  0.000000D+00  0.000000D+00
    129   0.000000D+00  0.000000D+00  0.000000D+00  0.000000D+00  0.000000D+00
    130   0.000000D+00  0.000000D+00  0.000000D+00  0.000000D+00  0.000000D+00
    131   0.000000D+00  0.000000D+00  0.000000D+00  0.000000D+00  0.000000D+00
    132   0.000000D+00  0.000000D+00  0.000000D+00  0.000000D+00  0.000000D+00
    133   0.000000D+00  0.000000D+00  0.000000D+00  0.000000D+00  0.000000D+00
    134   0.000000D+00  0.000000D+00  0.000000D+00  0.000000D+00  0.000000D+00
    135   0.000000D+00  0.000000D+00  0.000000D+00  0.000000D+00  0.000000D+00
    136   0.000000D+00  0.000000D+00  0.000000D+00  0.000000D+00  0.000000D+00
    137   0.000000D+00  0.000000D+00  0.000000D+00  0.000000D+00  0.000000D+00
    138   0.000000D+00  0.000000D+00  0.000000D+00  0.000000D+00  0.000000D+00
    139   0.000000D+00  0.000000D+00  0.000000D+00  0.000000D+00  0.000000D+00
    140   0.000000D+00  0.000000D+00  0.000000D+00  0.000000D+00  0.000000D+00
    141   0.000000D+00  0.000000D+00  0.000000D+00  0.000000D+00  0.000000D+00
    142   0.000000D+00  0.000000D+00  0.000000D+00  0.000000D+00  0.000000D+00
    143   0.000000D+00  0.000000D+00  0.000000D+00  0.000000D+00  0.000000D+00
    144   0.000000D+00  0.000000D+00  0.000000D+00  0.000000D+00  0.000000D+00
    145   0.000000D+00  0.000000D+00  0.000000D+00  0.000000D+00  0.000000D+00
    146   0.000000D+00  0.000000D+00  0.000000D+00  0.000000D+00  0.000000D+00
    147   0.000000D+00  0.000000D+00  0.000000D+00  0.000000D+00  0.000000D+00
    148   0.000000D+00  0.000000D+00  0.000000D+00  0.000000D+00  0.000000D+00
    149   0.000000D+00  0.000000D+00  0.000000D+00  0.000000D+00  0.000000D+00
    150   0.000000D+00  0.000000D+00  0.000000D+00  0.000000D+00  0.000000D+00
    151   0.000000D+00  0.000000D+00  0.000000D+00  0.000000D+00  0.000000D+00
    152   0.000000D+00  0.000000D+00  0.000000D+00  0.000000D+00  0.000000D+00
    153   0.000000D+00  0.000000D+00  0.000000D+00  0.000000D+00  0.000000D+00
    154   0.000000D+00  0.000000D+00  0.000000D+00  0.000000D+00  0.000000D+00
    155   0.000000D+00  0.000000D+00  0.000000D+00  0.000000D+00  0.000000D+00
    156   0.000000D+00  0.000000D+00  0.000000D+00  0.000000D+00  0.000000D+00
    157   0.000000D+00  0.000000D+00  0.000000D+00  0.000000D+00  0.000000D+00
    158   0.000000D+00  0.000000D+00  0.000000D+00  0.000000D+00  0.000000D+00
    159   0.000000D+00  0.000000D+00  0.000000D+00  0.000000D+00  0.000000D+00
    160   0.000000D+00  0.000000D+00  0.000000D+00  0.000000D+00  0.000000D+00
    161   0.000000D+00  0.000000D+00  0.000000D+00  0.000000D+00  0.000000D+00
    162   0.000000D+00  0.000000D+00  0.000000D+00  0.000000D+00  0.000000D+00
    163   0.000000D+00  0.000000D+00  0.000000D+00  0.000000D+00  0.000000D+00
    164   0.000000D+00  0.000000D+00  0.000000D+00  0.000000D+00  0.000000D+00
    165   0.000000D+00  0.000000D+00  0.000000D+00  0.000000D+00  0.000000D+00
    166   0.000000D+00  0.000000D+00  0.000000D+00  0.000000D+00  0.000000D+00
    167   0.000000D+00  0.000000D+00  0.000000D+00  0.000000D+00  0.000000D+00
    168   0.000000D+00  0.000000D+00  0.000000D+00  0.000000D+00  0.000000D+00
    169   0.000000D+00  0.000000D+00  0.000000D+00  0.000000D+00  0.000000D+00
    170   0.000000D+00  0.000000D+00  0.000000D+00  0.000000D+00  0.000000D+00
    171   0.000000D+00  0.000000D+00  0.000000D+00  0.000000D+00  0.000000D+00
    172   0.000000D+00  0.000000D+00  0.000000D+00  0.000000D+00  0.000000D+00
    173   0.000000D+00  0.000000D+00  0.000000D+00  0.000000D+00  0.000000D+00
    174   0.000000D+00  0.000000D+00  0.000000D+00  0.000000D+00  0.000000D+00
    175   0.000000D+00  0.000000D+00  0.000000D+00  0.000000D+00  0.000000D+00
    176   0.000000D+00  0.000000D+00  0.000000D+00  0.000000D+00  0.000000D+00
    177   0.000000D+00  0.000000D+00  0.000000D+00  0.000000D+00  0.000000D+00
    178   0.000000D+00  0.000000D+00  0.000000D+00  0.000000D+00  0.000000D+00
    179   0.000000D+00  0.000000D+00  0.000000D+00  0.000000D+00  0.000000D+00
    180   0.000000D+00  0.000000D+00  0.000000D+00  0.000000D+00  0.000000D+00
    181   0.000000D+00  0.000000D+00  0.000000D+00  0.000000D+00  0.000000D+00
    182   0.000000D+00  0.000000D+00  0.000000D+00  0.000000D+00  0.000000D+00
    183   0.000000D+00  0.000000D+00  0.000000D+00  0.000000D+00  0.000000D+00
    184   0.000000D+00  0.000000D+00  0.000000D+00  0.000000D+00  0.000000D+00
    185   0.000000D+00  0.000000D+00  0.000000D+00  0.000000D+00  0.000000D+00
    186   0.000000D+00  0.000000D+00  0.000000D+00  0.000000D+00  0.000000D+00
    187   0.000000D+00  0.000000D+00  0.000000D+00  0.000000D+00  0.000000D+00
    188   0.000000D+00  0.000000D+00  0.000000D+00  0.000000D+00  0.000000D+00
[...]
   31    |      20        20         0        20        20
         |
   32    |      20        21        20        20        20
   32    |      20        21        20         0        20
         |
   33    |      20        20        20        20        20
   33    |      20        20        20        20         0
         |

                   MP2(N) Pair Energies
                   --------------------

 AB - AA |     29        30        31        32        33
 BA - BB |     29        30        31        32        33
------------------------------------------------------------
   29    | -0.019697 -0.002289 -0.007629 -0.002289 -0.005858
   29    |  0.000000 -0.002289 -0.007629 -0.002289 -0.005858
         |
   30    | -0.004946 -0.017340 -0.002335 -0.000041 -0.001797
   30    | -0.004946  0.000000 -0.002335 -0.000041 -0.001797
         |
   31    | -0.010501 -0.004994 -0.019841 -0.002335 -0.006010
   31    | -0.010501 -0.004994  0.000000 -0.002335 -0.006010
         |
   32    | -0.004946 -0.000137 -0.004994 -0.017340 -0.001797
   32    | -0.004946 -0.000137 -0.004994  0.000000 -0.001797
         |
   33    | -0.008643 -0.004430 -0.008874 -0.004430 -0.016869
   33    | -0.008643 -0.004430 -0.008874 -0.004430  0.000000
         |

                     Delta Factors
                     -------------

 AB - AA |     29        30        31        32        33
 BA - BB |     29        30        31        32        33
------------------------------------------------------------
   29    |  1.219695  2.098447  0.589417  2.098447  0.858500
   29    |  0.000000  2.098447  0.589417  2.098447  0.858500
         |
   30    |  1.558590  1.489632  2.066263  3.454492  2.524005
   30    |  1.558590  0.000000  2.066263  3.454492  2.524005
         |
   31    |  0.728181  1.550007  1.205055  2.066263  0.830324
   31    |  0.728181  1.550007  0.000000  2.066263  0.830324
         |
   32    |  1.558590  0.784799  1.550007  1.489632  2.524005
   32    |  1.558590  0.784799  1.550007  0.000000  2.524005
         |
   33    |  1.105516  1.693903  1.095847  1.693903  1.551758
   33    |  1.105516  1.693903  1.095847  1.693903  0.000000
         |

                   MP2(CBS) Pair Energies
                   ----------------------

 AB - AA |     29        30        31        32        33
 BA - BB |     29        30        31        32        33
------------------------------------------------------------
   29    | -0.021998 -0.002379 -0.007738 -0.002379 -0.005964
   29    |  0.000000 -0.002379 -0.007738 -0.002379 -0.005964
         |
   30    | -0.005612 -0.019613 -0.002426 -0.000044 -0.001882
   30    | -0.005612  0.000000 -0.002426 -0.000044 -0.001882
         |
   31    | -0.011456 -0.005664 -0.022144 -0.002426 -0.006116
   31    | -0.011456 -0.005664  0.000000 -0.002426 -0.006116
         |
   32    | -0.005612 -0.000149 -0.005664 -0.019613 -0.001882
   32    | -0.005612 -0.000149 -0.005664  0.000000 -0.001882
         |
   33    | -0.009600 -0.005058 -0.009852 -0.005058 -0.019135
   33    | -0.009600 -0.005058 -0.009852 -0.005058  0.000000
         |

                     Sum of ab pair energies =    -0.166229 A.U.
                     Sum of ba pair energies =    -0.063728 A.U.
                     Sum of aa pair energies =    -0.033235 A.U.
                     Sum of bb pair energies =    -0.033235 A.U.

           Sum of intraorbital pair energies =    -0.102502 A.U.
           Sum of interorbital pair energies =    -0.193926 A.U.
                                                  ----------
                         Total pair energies =    -0.296428 A.U.

                         Single Excitations  =     0.000000 A.U.

                          Total second order =    -0.296428 A.U.



            MP2(CBS) (With Interference Correction) 
            ---------------------------------------

 AB - AA |     29        30        31        32        33
 BA - BB |     29        30        31        32        33
------------------------------------------------------------
   29    | -0.021416 -0.002366 -0.007724 -0.002366 -0.005952
   29    |  0.000000 -0.002366 -0.007724 -0.002366 -0.005952
         |
   30    | -0.005523 -0.019120 -0.002412 -0.000044 -0.001871
   30    | -0.005523  0.000000 -0.002412 -0.000044 -0.001871
         |
   31    | -0.011284 -0.005574 -0.021585 -0.002412 -0.006104
   31    | -0.011284 -0.005574  0.000000 -0.002412 -0.006104
         |
   32    | -0.005523 -0.000149 -0.005574 -0.019120 -0.001871
   32    | -0.005523 -0.000149 -0.005574  0.000000 -0.001871
         |
   33    | -0.009436 -0.004981 -0.009682 -0.004981 -0.018596
   33    | -0.009436 -0.004981 -0.009682 -0.004981  0.000000
         |

                     Sum of ab pair energies =    -0.162540 A.U.
                     Sum of ba pair energies =    -0.062704 A.U.
                     Sum of aa pair energies =    -0.033122 A.U.
                     Sum of bb pair energies =    -0.033122 A.U.

           Sum of intraorbital pair energies =    -0.099836 A.U.
           Sum of interorbital pair energies =    -0.191652 A.U.
                                                  ----------
                         Total pair energies =    -0.291488 A.U.

                         Single Excitations  =     0.000000 A.U.

                          Total second order =    -0.291488 A.U.

                         E2(CBS) - E2(Dir) =      -0.008945 A.U.

 E2(CBS)=      -0.296428 CBS-Int=       0.004940 OIii=       1.381840

 **********************************************************************

            Population analysis using the SCF density.

 **********************************************************************

 Orbital symmetries:
       Occupied  (SGG) (SGU) (SGG) (SGU) (PIG) (PIG) (PIU) (PIU)
                 (SGU) (SGG) (SGG) (SGU) (PIU) (PIU) (PIG) (PIG)
                 (SGG) (SGU) (SGG) (DLTG) (DLTG) (DLTU) (DLTU)
                 (PIU) (PIU) (PIG) (PIG) (SGU) (SGG) (SGU) (SGG)
                 (PIU) (PIU)
       Virtual   (PIG) (PIG) (SGU) (SGG) (PIU) (PIU) (SGG) (PIG)
                 (PIG) (SGU) (DLTG) (DLTG) (SGU) (PIU) (PIU) (SGG)
                 (DLTU) (DLTU) (SGG) (PIU) (PIU) (PIG) (PIG) (SGU)
                 (PIG) (PIG) (SGU) (SGG) (DLTG) (DLTG) (PHIU) (PHIU)
                 (PIU) (PIU) (DLTG) (DLTG) (SGG) (PHIG) (PHIG)
                 (DLTU) (DLTU) (SGU) (PIG) (PIG) (PIU) (PIU) (SGG)
                 (SGU) (DLTU) (DLTU) (PIG) (PIG) (PIU) (PIU) (SGU)
                 (?A) (?A) (PHIU) (PHIU) (SGG) (PIU) (PIU) (?B)
                 (?B) (DLTG) (DLTG) (PIG) (PIG) (PHIU) (PHIU) (SGG)
                 (DLTU) (DLTU) (SGG) (DLTG) (DLTG) (SGU) (PHIG)
                 (PHIG) (DLTG) (DLTG) (PHIG) (PHIG) (PIG) (PIG)
                 (SGU) (PIU) (PIU) (DLTU) (DLTU) (SGG) (PIU) (PIU)
                 (SGU) (DLTU) (DLTU) (?C) (?C) (PIG) (PIG) (?A)
                 (?A) (SGU) (PIU) (PIU) (?D) (?D) (PHIU) (PHIU)
                 (PIG) (PIG) (SGG) (SGU) (?B) (?B) (PIU) (PIU)
                 (DLTG) (DLTG) (PIG) (PIG) (SGG) (PHIU) (PHIU)
                 (?A) (?A) (DLTU) (DLTU) (PHIU) (PHIU) (PHIG) (PHIG)
                 (SGG) (PHIG) (PHIG) (?B) (?B) (SGG) (DLTG) (DLTG)
                 (PIU) (PIU) (SGU) (DLTG) (DLTG) (DLTU) (DLTU)
                 (PIG) (PIG) (DLTG) (DLTG) (PIU) (PIU) (PHIG) (PHIG)
                 (DLTU) (DLTU) (SGG) (PIG) (PIG) (SGU) (SGU) (SGU)
                 (PIU) (PIU) (DLTU) (DLTU) (SGU) (SGG) (PIG) (PIG)
                 (PIG) (PIG) (PIU) (PIU) (?A) (?A) (PHIU) (PHIU)
                 (SGG) (PIU) (PIU) (DLTG) (DLTG) (?C) (?C) (PHIU)
                 (PHIU) (?D) (?D) (PHIG) (PHIG) (SGG) (DLTU) (DLTU)
                 (DLTG) (DLTG) (?B) (?B) (SGG) (PIG) (PIG) (SGU)
                 (?A) (?A) (PHIU) (PHIU) (?B) (?B) (PIG) (PIG)
                 (SGU) (PIU) (PIU) (PHIG) (PHIG) (PHIG) (PHIG)
                 (DLTG) (DLTG) (SGG) (DLTU) (DLTU) (DLTU) (DLTU)
                 (DLTG) (DLTG) (SGU) (PIG) (PIG) (PIU) (PIU) (SGU)
                 (PIU) (PIU) (SGG) (DLTU) (DLTU) (SGG) (PIG) (PIG)
                 (SGU) (PIG) (PIG) (PHIU) (PHIU) (DLTG) (DLTG)
                 (?A) (?A) (PHIG) (PHIG) (PHIU) (PHIU) (SGU) (DLTU)
                 (DLTU) (?C) (?C) (PIU) (PIU) (?E) (?E) (?F) (?F)
                 (SGG) (?D) (?D) (PIG) (PIG) (DLTG) (DLTG) (?B)
                 (?B) (SGG) (PIU) (PIU) (PIU) (PIU) (PIG) (PIG)
                 (SGG) (PHIG) (PHIG) (SGU) (?A) (?A) (PHIU) (PHIU)
                 (?B) (?B) (?C) (?C) (?A) (?A) (DLTG) (DLTG) (?D)
                 (?D) (DLTU) (DLTU) (PHIU) (PHIU) (PHIG) (PHIG)
                 (?B) (?B) (SGU) (PIG) (PIG) (PIU) (PIU) (SGG)
                 (PHIG) (PHIG) (DLTG) (DLTG) (DLTU) (DLTU) (SGU)
                 (PIG) (PIG) (SGG) (SGU) (PIU) (PIU) (DLTU) (DLTU)
                 (SGU) (SGG) (DLTG) (DLTG) (PIG) (PIG) (DLTU) (DLTU)
                 (PIU) (PIU) (SGU) (PIG) (PIG) (SGG) (SGU) (PIU)
                 (PIU) (PIG) (PIG) (SGG) (SGU) (SGG) (SGU)
 The electronic state is 1-SGG.
 Alpha  occ. eigenvalues -- -432.59871-432.59871 -56.32225 -56.32224 -50.16688
 Alpha  occ. eigenvalues --  -50.16688 -50.16688 -50.16688 -50.16559 -50.16559
 Alpha  occ. eigenvalues --   -8.04295  -8.04269  -5.89583  -5.89583  -5.89564
 Alpha  occ. eigenvalues --   -5.89564  -5.89330  -5.89189  -2.13210  -2.13020
 Alpha  occ. eigenvalues --   -2.13020  -2.12918  -2.12918  -2.12807  -2.12807
 Alpha  occ. eigenvalues --   -2.12220  -2.12220  -2.11753  -0.86055  -0.60904
 Alpha  occ. eigenvalues --   -0.38007  -0.34181  -0.34181
 Alpha virt. eigenvalues --    0.00136   0.00136   0.03344   0.04577   0.05101
 Alpha virt. eigenvalues --    0.05101   0.06633   0.07243   0.07243   0.10636
 Alpha virt. eigenvalues --    0.14596   0.14596   0.15449   0.19129   0.19129
 Alpha virt. eigenvalues --    0.19200   0.21251   0.21251   0.22464   0.22826
 Alpha virt. eigenvalues --    0.22826   0.24578   0.24578   0.27272   0.27871
 Alpha virt. eigenvalues --    0.27871   0.29066   0.33317   0.36990   0.36990
 Alpha virt. eigenvalues --    0.37474   0.37474   0.40267   0.40267   0.45072
 Alpha virt. eigenvalues --    0.45072   0.45886   0.46573   0.46573   0.46793
 Alpha virt. eigenvalues --    0.46793   0.54695   0.55848   0.55848   0.55973
 Alpha virt. eigenvalues --    0.55973   0.56538   0.57151   0.58016   0.58016
 Alpha virt. eigenvalues --    0.60931   0.60931   0.62331   0.62331   0.64148
 Alpha virt. eigenvalues --    0.71852   0.71852   0.78412   0.78412   0.80636
 Alpha virt. eigenvalues --    0.82401   0.82401   0.83257   0.83257   0.83586
 Alpha virt. eigenvalues --    0.83586   0.84916   0.84916   0.89676   0.89676
 Alpha virt. eigenvalues --    0.89897   0.91777   0.91777   0.92865   0.93884
 Alpha virt. eigenvalues --    0.93884   0.95180   0.97759   0.97759   0.99167
 Alpha virt. eigenvalues --    0.99167   1.00177   1.00177   1.02150   1.02150
 Alpha virt. eigenvalues --    1.04415   1.05214   1.05214   1.06595   1.06595
 Alpha virt. eigenvalues --    1.13570   1.21392   1.21392   1.22200   1.23197
 Alpha virt. eigenvalues --    1.23197   1.24123   1.24123   1.25774   1.25774
 Alpha virt. eigenvalues --    1.29862   1.29862   1.31636   1.36376   1.36376
 Alpha virt. eigenvalues --    1.37132   1.37132   1.50172   1.50172   1.51414
 Alpha virt. eigenvalues --    1.51414   1.54473   1.56160   1.56311   1.56311
 Alpha virt. eigenvalues --    1.58587   1.58587   1.61111   1.61111   1.69207
 Alpha virt. eigenvalues --    1.69207   1.69233   1.70349   1.70349   1.71190
 Alpha virt. eigenvalues --    1.71190   1.72684   1.72684   1.74604   1.74604
 Alpha virt. eigenvalues --    1.75904   1.75904   1.76202   1.80241   1.80241
 Alpha virt. eigenvalues --    1.81405   1.81405   1.83925   1.84175   1.84175
 Alpha virt. eigenvalues --    1.85976   1.85976   1.86079   1.86658   1.86658
 Alpha virt. eigenvalues --    1.90010   1.90010   1.94644   1.94644   1.94983
 Alpha virt. eigenvalues --    1.94983   2.00775   2.00775   2.03905   2.03905
 Alpha virt. eigenvalues --    2.07898   2.07898   2.10550   2.11244   2.11244
 Alpha virt. eigenvalues --    2.20966   2.39622   2.45850   2.50604   2.50604
 Alpha virt. eigenvalues --    2.57094   2.57094   2.61947   2.67207   2.83682
 Alpha virt. eigenvalues --    2.83682   2.86646   2.86646   2.89172   2.89172
 Alpha virt. eigenvalues --    2.99673   2.99673   3.01655   3.01655   3.02867
 Alpha virt. eigenvalues --    3.04623   3.04623   3.05052   3.05052   3.05409
 Alpha virt. eigenvalues --    3.05409   3.12283   3.12283   3.13509   3.13509
 Alpha virt. eigenvalues --    3.17436   3.17436   3.18922   3.28214   3.28214
 Alpha virt. eigenvalues --    3.29355   3.29355   3.30874   3.30874   3.34511
 Alpha virt. eigenvalues --    3.38785   3.38785   3.42676   3.45842   3.45842
 Alpha virt. eigenvalues --    3.51406   3.51406   3.52825   3.52825   3.57177
 Alpha virt. eigenvalues --    3.57177   3.59133   3.59543   3.59543   3.64510
 Alpha virt. eigenvalues --    3.64510   3.69043   3.69043   3.73470   3.73470
 Alpha virt. eigenvalues --    3.77460   3.82765   3.82765   3.84743   3.84743
 Alpha virt. eigenvalues --    3.92556   3.92556   4.00050   4.08053   4.08053
 Alpha virt. eigenvalues --    4.11460   4.11460   4.13486   4.14523   4.14523
 Alpha virt. eigenvalues --    4.36693   4.39283   4.39283   4.50822   4.51613
 Alpha virt. eigenvalues --    4.51613   4.87649   5.12110   5.12110   5.14654
 Alpha virt. eigenvalues --    5.14654   5.16853   5.16853   5.21614   5.21614
 Alpha virt. eigenvalues --    5.21798   5.21798   5.31822   5.31822   5.32364
 Alpha virt. eigenvalues --    5.34471   5.34471   5.34884   5.34884   5.35626
 Alpha virt. eigenvalues --    5.35626   5.41940   5.41940   5.43879   5.43879
 Alpha virt. eigenvalues --    5.47317   5.53153   5.53153   5.65953   5.65953
 Alpha virt. eigenvalues --    5.70573   5.70573   5.83574   5.83574   5.86255
 Alpha virt. eigenvalues --    5.87083   5.87083   6.01814   6.01814   6.14002
 Alpha virt. eigenvalues --    6.14002   6.29926   6.37231   6.37231   6.44250
 Alpha virt. eigenvalues --    6.53158   6.53158   6.55084   6.55084   6.58243
 Alpha virt. eigenvalues --    6.58243   6.63083   6.63083   6.64125   6.64125
 Alpha virt. eigenvalues --    6.66916   6.66916   6.67875   6.67875   6.68626
 Alpha virt. eigenvalues --    6.68626   6.75632   6.75632   6.75878   6.75878
 Alpha virt. eigenvalues --    6.78941   6.78941   6.81125   6.82871   6.82871
 Alpha virt. eigenvalues --    6.94787   6.94787   6.97996   7.02024   7.02024
 Alpha virt. eigenvalues --    7.09709   7.09709   7.10669   7.10669   7.14884
 Alpha virt. eigenvalues --    7.23234   7.23234   7.32267   7.32912   7.60988
 Alpha virt. eigenvalues --    7.60988   7.61986   7.61986   7.62347   7.73273
 Alpha virt. eigenvalues --    8.22863   8.22863   8.27285   8.27285   8.52341
 Alpha virt. eigenvalues --    8.52341   8.63003   8.63003   8.63162   9.70098
 Alpha virt. eigenvalues --    9.70098  10.12610  11.23397  14.13955  14.13955
 Alpha virt. eigenvalues --   14.35700  14.35700  14.64417  15.62638  62.34037
 Alpha virt. eigenvalues --   71.22472
          Condensed to atoms (all electrons):
              1          2
     1  As  32.159673   0.840327
     2  As   0.840327  32.159673
 Mulliken atomic charges:
              1
     1  As   0.000000
     2  As   0.000000
 Sum of Mulliken atomic charges =   0.00000
 Mulliken charges with hydrogens summed into heavy atoms:
              1
     1  As   0.000000
     2  As   0.000000
 Sum of Mulliken charges with hydrogens summed into heavy atoms =   0.00000
          Atomic-Atomic Spin Densities.
              1          2
     1  As   0.000000   0.000000
     2  As   0.000000   0.000000
 Mulliken atomic spin densities:
              1
     1  As   0.000000
     2  As   0.000000
 Sum of Mulliken atomic spin densities =   0.00000
 Electronic spatial extent (au):  <R**2>=            340.9668
 Charge=              0.0000 electrons
 Dipole moment (field-independent basis, Debye):
    X=              0.0000    Y=              0.0000    Z=              0.0000  Tot=              0.0000
 Quadrupole moment (field-independent basis, Debye-Ang):
   XX=            -36.7316   YY=            -36.7316   ZZ=            -34.7777
   XY=              0.0000   XZ=              0.0000   YZ=              0.0000
 Traceless Quadrupole moment (field-independent basis, Debye-Ang):
   XX=             -0.6513   YY=             -0.6513   ZZ=              1.3026
   XY=              0.0000   XZ=              0.0000   YZ=              0.0000
 Octapole moment (field-independent basis, Debye-Ang**2):
  XXX=              0.0000  YYY=              0.0000  ZZZ=              0.0000  XYY=              0.0000
  XXY=              0.0000  XXZ=              0.0000  XZZ=              0.0000  YZZ=              0.0000
  YYZ=              0.0000  XYZ=              0.0000
 Hexadecapole moment (field-independent basis, Debye-Ang**3):
 XXXX=            -58.8210 YYYY=            -58.8210 ZZZZ=           -293.7349 XXXY=              0.0000
 XXXZ=              0.0000 YYYX=              0.0000 YYYZ=              0.0000 ZZZX=              0.0000
 ZZZY=              0.0000 XXYY=            -19.6070 XXZZ=            -55.4871 YYZZ=            -55.4871
 XXYZ=              0.0000 YYXZ=              0.0000 ZZXY=              0.0000
 N-N= 2.740768477858D+02 E-N=-1.686803191575D+04  KE= 6.702594227381D+03
                          Isotropic Fermi Contact Couplings
        Atom                 a.u.       MegaHertz       Gauss      10(-4) cm-1
     1  As(75)             0.00000       0.00000       0.00000       0.00000
     2  As(75)             0.00000       0.00000       0.00000       0.00000
 --------------------------------------------------------
       Center         ----  Spin Dipole Couplings  ----
                      3XX-RR        3YY-RR        3ZZ-RR
 --------------------------------------------------------
     1   Atom        0.000000      0.000000      0.000000
     2   Atom        0.000000      0.000000      0.000000
 --------------------------------------------------------
                        XY            XZ            YZ
 --------------------------------------------------------
     1   Atom        0.000000      0.000000      0.000000
     2   Atom        0.000000      0.000000      0.000000
 --------------------------------------------------------


 ---------------------------------------------------------------------------------
              Anisotropic Spin Dipole Couplings in Principal Axis System
 ---------------------------------------------------------------------------------

       Atom             a.u.   MegaHertz   Gauss  10(-4) cm-1        Axes

              Baa     0.0000     0.000     0.000     0.000  1.0000  0.0000  0.0000
     1 As(75) Bbb     0.0000     0.000     0.000     0.000  0.0000  1.0000  0.0000
              Bcc     0.0000     0.000     0.000     0.000  0.0000  0.0000  1.0000
 
              Baa     0.0000     0.000     0.000     0.000  1.0000  0.0000  0.0000
     2 As(75) Bbb     0.0000     0.000     0.000     0.000  0.0000  1.0000  0.0000
              Bcc     0.0000     0.000     0.000     0.000  0.0000  0.0000  1.0000
 

 ---------------------------------------------------------------------------------


 Test job not archived.
 1\1\GINC-C24\SP\ROMP2-RW\Gen\As2\GPETERSSON\03-Jun-2013\0\\# ROMP2(RW)
  Gen GFinput Int=NoBasisTransform Int(Grid=Ultrafine) IOp(3/32=2,5/6=1
 0,8/11=1,9/33=1) Maxdisk=128GB CBSextrapolate(Nmin=20,MinPop)\\As2\\0,
 1\As\As,1,2.1026\\Version=EM64L-G09RevA.02\State=1-SGG\HF=-4468.498952
 6\MP2=-4468.7864361\E2(CBS)=-0.2964281\CBS-Int=-0.2914883\OIii=1.38183
 97\RMSD=4.237e-11\PG=D*H [C*(As1.As1)]\\@


 TIME GOES, YOU SAY?  AH NO!
 ALAS, TIME STAYS, WE GO.
    -- A. DOBSON (1840-1921)
 Job cpu time:  0 days 16 hours 35 minutes 30.0 seconds.
 File lengths (MBytes):  RWF=   2930 Int=      0 D2E=      0 Chk=     12 Scr=      1
 Normal termination of Gaussian 09 at Mon Jun  3 13:55:16 2013.
