 Entering Gaussian System, Link 0=g09
 AtFile(1): 7ZaP-NR.gbs
 Initial command:
 /share/apps/gaussian/g09root/g09/l1.exe /localscratch/737481/Gau-2062.inp -scrdir=/localscratch/737481/
 Entering Link 1 = /share/apps/gaussian/g09root/g09/l1.exe PID=      2063.
  
 Copyright (c) 1988,1990,1992,1993,1995,1998,2003,2009, Gaussian, Inc.
                  All Rights Reserved.
  
 This is part of the Gaussian(R) 09 program.  It is based on
 the Gaussian(R) 03 system (copyright 2003, Gaussian, Inc.),
 the Gaussian(R) 98 system (copyright 1998, Gaussian, Inc.),
 the Gaussian(R) 94 system (copyright 1995, Gaussian, Inc.),
 the Gaussian 92(TM) system (copyright 1992, Gaussian, Inc.),
 the Gaussian 90(TM) system (copyright 1990, Gaussian, Inc.),
 the Gaussian 88(TM) system (copyright 1988, Gaussian, Inc.),
 the Gaussian 86(TM) system (copyright 1986, Carnegie Mellon
 University), and the Gaussian 82(TM) system (copyright 1983,
 Carnegie Mellon University). Gaussian is a federally registered
 trademark of Gaussian, Inc.
  
 This software contains proprietary and confidential information,
 including trade secrets, belonging to Gaussian, Inc.
  
 This software is provided under written license and may be
 used, copied, transmitted, or stored only in accord with that
 written license.
  
 The following legend is applicable only to US Government
 contracts under FAR:
  
                    RESTRICTED RIGHTS LEGEND
  
 Use, reproduction and disclosure by the US Government is
 subject to restrictions as set forth in subparagraphs (a)
 and (c) of the Commercial Computer Software - Restricted
 Rights clause in FAR 52.227-19.
  
 Gaussian, Inc.
 340 Quinnipiac St., Bldg. 40, Wallingford CT 06492
  
  
 ---------------------------------------------------------------
 Warning -- This program may not be used in any manner that
 competes with the business of Gaussian, Inc. or will provide
 assistance to any competitor of Gaussian, Inc.  The licensee
 of this program is prohibited from giving any competitor of
 Gaussian, Inc. access to this program.  By using this program,
 the user acknowledges that Gaussian, Inc. is engaged in the
 business of creating and licensing software in the field of
 computational chemistry and represents and warrants to the
 licensee that it is not a competitor of Gaussian, Inc. and that
 it will not use this program in any manner prohibited above.
 ---------------------------------------------------------------
  

 Cite this work as:
 Gaussian 09, Revision A.02,
 M. J. Frisch, G. W. Trucks, H. B. Schlegel, G. E. Scuseria, 
 M. A. Robb, J. R. Cheeseman, G. Scalmani, V. Barone, B. Mennucci, 
 G. A. Petersson, H. Nakatsuji, M. Caricato, X. Li, H. P. Hratchian, 
 A. F. Izmaylov, J. Bloino, G. Zheng, J. L. Sonnenberg, M. Hada, 
 M. Ehara, K. Toyota, R. Fukuda, J. Hasegawa, M. Ishida, T. Nakajima, 
 Y. Honda, O. Kitao, H. Nakai, T. Vreven, J. A. Montgomery, Jr., 
 J. E. Peralta, F. Ogliaro, M. Bearpark, J. J. Heyd, E. Brothers, 
 K. N. Kudin, V. N. Staroverov, R. Kobayashi, J. Normand, 
 K. Raghavachari, A. Rendell, J. C. Burant, S. S. Iyengar, J. Tomasi, 
 M. Cossi, N. Rega, J. M. Millam, M. Klene, J. E. Knox, J. B. Cross, 
 V. Bakken, C. Adamo, J. Jaramillo, R. Gomperts, R. E. Stratmann, 
 O. Yazyev, A. J. Austin, R. Cammi, C. Pomelli, J. W. Ochterski, 
 R. L. Martin, K. Morokuma, V. G. Zakrzewski, G. A. Voth, 
 P. Salvador, J. J. Dannenberg, S. Dapprich, A. D. Daniels, 
 O. Farkas, J. B. Foresman, J. V. Ortiz, J. Cioslowski, 
 and D. J. Fox, Gaussian, Inc., Wallingford CT, 2009.
 
 ******************************************
 Gaussian 09:  EM64L-G09RevA.02 11-Jun-2009
                21-Aug-2012 
 ******************************************
 % Mem=12GB
 % Nproc=8
 Will use up to    8 processors via shared memory.
 ----------------------------------------------------------------------
 # ROMP2(RW) Gen GFinput Int=NoBasisTransform Int(Grid=Ultrafine) IOp(3
 /32=2,5/6=10,8/11=1,9/33=1) Maxdisk=128GB CBSextrapolate(Nmin=25,MinPo
 p)
 ----------------------------------------------------------------------
 1/38=1/1;
 2/12=2,17=6,18=5,40=1/2;
 3/5=7,11=2,16=1,24=10,25=1,30=1,32=2,60=-1,75=-5,116=101/1,2,3;
 4//1;
 5/5=2,6=10,38=5/2;
 8/5=-1,10=91,11=1/1;
 9/16=-3,33=1,75=2,81=25,83=4/6,4;
 6/7=2,8=2,9=2,10=2/1;
 99/5=1,9=1/99;
 ---
 As2
 ---
 Symbolic Z-matrix:
 Charge =  0 Multiplicity = 1
 As
 As                   1     2.1026 
 
                          Input orientation:                          
 ---------------------------------------------------------------------
 Center     Atomic      Atomic             Coordinates (Angstroms)
 Number     Number       Type             X           Y           Z
 ---------------------------------------------------------------------
      1         33           0        0.000000    0.000000    0.000000
      2         33           0        0.000000    0.000000    2.102600
 ---------------------------------------------------------------------
 Stoichiometry    As2
 Framework group  D*H[C*(As.As)]
 Deg. of freedom     1
 Full point group                 D*H     NOp   8
 Largest Abelian subgroup         D2H     NOp   8
 Largest concise Abelian subgroup C2      NOp   2
                         Standard orientation:                         
 ---------------------------------------------------------------------
 Center     Atomic      Atomic             Coordinates (Angstroms)
 Number     Number       Type             X           Y           Z
 ---------------------------------------------------------------------
      1         33           0        0.000000    0.000000    1.051300
      2         33           0        0.000000    0.000000   -1.051300
 ---------------------------------------------------------------------
 Rotational constants (GHZ):      0.0000000      3.0515947      3.0515947
 General basis read from cards:  (5D, 7F)
 AO basis set in the form of general basis input (Overlap normalization):
      1 0
 S  19 1.00       0.000000000000
      0.8650451530D+08  0.3300655124D-06
      0.1628168380D+08  0.2044443866D-05
      0.3747703670D+07  0.1154070357D-04
      0.1021359720D+07  0.5186212928D-04
      0.3203359010D+06  0.1980363441D-03
      0.1128004270D+06  0.6592990918D-03
      0.4365492760D+05  0.1967820252D-02
      0.1823316230D+05  0.5373513002D-02
      0.8093021230D+04  0.1361405918D-01
      0.3768715480D+04  0.3218167547D-01
      0.1821795630D+04  0.7046321339D-01
      0.9062961930D+03  0.1393760946D+00
      0.4607567010D+03  0.2356460856D+00
      0.2380523900D+03  0.3052203077D+00
      0.1244279870D+03  0.2463339057D+00
      0.6555498500D+02  0.8883839465D-01
      0.3470247800D+02  0.8436057777D-02
      0.1840391500D+02  0.8969998273D-03
      0.9749020000D+01 -0.1634633792D-04
 S  15 1.00       0.000000000000
      0.1823316230D+05 -0.1075407502D-04
      0.8093021230D+04 -0.5163809444D-04
      0.3768715480D+04 -0.3116450839D-03
      0.1821795630D+04 -0.1392899174D-02
      0.9062961930D+03 -0.5826934199D-02
      0.4607567010D+03 -0.2005173173D-01
      0.2380523900D+03 -0.5519948761D-01
      0.1244279870D+03 -0.8931625917D-01
      0.6555498500D+02 -0.7681709220D-02
      0.3470247800D+02  0.2994520646D+00
      0.1840391500D+02  0.5139876625D+00
      0.9749020000D+01  0.2694413671D+00
      0.5141291000D+01  0.3732476805D-01
      0.2688638000D+01  0.2126411459D-02
      0.1387503000D+01 -0.4374603707D-03
 P  17 1.00       0.000000000000
      0.1270486630D+06  0.2908665223D-05
      0.3383589630D+05  0.2308522329D-04
      0.1079826630D+05  0.1487140281D-03
      0.3990275130D+04  0.7333736933D-03
      0.1657360270D+04  0.2944593625D-02
      0.7542497550D+03  0.9896016561D-02
      0.3680268710D+03  0.2845947159D-01
      0.1890566260D+03  0.7062396426D-01
      0.1007096710D+03  0.1477086082D+00
      0.5494271700D+02  0.2487758530D+00
      0.3038872200D+02  0.3147722141D+00
      0.1690166700D+02  0.2489544237D+00
      0.9390696000D+01  0.9772138151D-01
      0.5184120000D+01  0.1548410760D-01
      0.2830598000D+01  0.1350578766D-02
      0.1522368000D+01  0.2302604066D-03
      0.8032380000D+00  0.1566076893D-04
 S  11 1.00       0.000000000000
      0.2380523900D+03  0.6267477406D-03
      0.1244279870D+03  0.2438415568D-02
      0.6555498500D+02  0.2123420768D-02
      0.3470247800D+02 -0.3360031026D-01
      0.1840391500D+02 -0.1702762447D+00
      0.9749020000D+01 -0.1407439079D+00
      0.5141291000D+01  0.2662757245D+00
      0.2688638000D+01  0.5844492732D+00
      0.1387503000D+01  0.3405739287D+00
      0.7023420000D+00  0.3721768841D-01
      0.3461010000D+00  0.1820752711D-02
 P  14 1.00       0.000000000000
      0.7542497550D+03 -0.3479424059D-04
      0.3680268710D+03 -0.2215335236D-03
      0.1890566260D+03 -0.1180225478D-02
      0.1007096710D+03 -0.4452205246D-02
      0.5494271700D+02 -0.1178521590D-01
      0.3038872200D+02 -0.2198598209D-01
      0.1690166700D+02  0.2208057327D-02
      0.9390696000D+01  0.1327932072D+00
      0.5184120000D+01  0.3112525746D+00
      0.2830598000D+01  0.3783531746D+00
      0.1522368000D+01  0.2368181203D+00
      0.8032380000D+00  0.5628763891D-01
      0.4139680000D+00  0.4181683333D-02
      0.2073520000D+00  0.4945473986D-03
 D  16 1.00       0.000000000000
      0.3935057380D+04  0.6658747933D-05
      0.1231408950D+04  0.6620479445D-04
      0.4868924300D+03  0.4088972204D-03
      0.2242100730D+03  0.1802995078D-02
      0.1133345490D+03  0.6440508421D-02
      0.6039109000D+02  0.1912265063D-01
      0.3307289700D+02  0.4806286143D-01
      0.1835928800D+02  0.1043746713D+00
      0.1027002900D+02  0.1818481736D+00
      0.5780470000D+01  0.2434629020D+00
      0.3271235000D+01  0.2609256884D+00
      0.1854725000D+01  0.2262380742D+00
      0.1043163000D+01  0.1466007219D+00
      0.5705330000D+00  0.6184849393D-01
      0.2934450000D+00  0.1265731408D-01
      0.1349280000D+00  0.9703401441D-03
 S  10 1.00       0.000000000000
      0.3470247800D+02  0.1511943432D-03
      0.1840391500D+02  0.2606893701D-02
      0.9749020000D+01  0.2382588455D-02
      0.5141291000D+01 -0.1010241098D-01
      0.2688638000D+01 -0.6873666774D-01
      0.1387503000D+01 -0.1896156945D+00
      0.7023420000D+00  0.2529798556D-01
      0.3461010000D+00  0.4476449179D+00
      0.1644960000D+00  0.5350838366D+00
      0.7455300000D-01  0.1637862519D+00
 S   1 1.00       0.000000000000
      0.3584180297D-01  0.1000000000D+01
 P  11 1.00       0.000000000000
      0.3038872200D+02  0.9689603129D-04
      0.1690166700D+02 -0.3491934347D-03
      0.9390696000D+01 -0.2763946553D-02
      0.5184120000D+01 -0.7042864955D-02
      0.2830598000D+01 -0.1609648048D-01
      0.1522368000D+01 -0.2477584807D-01
      0.8032380000D+00  0.6264801904D-01
      0.4139680000D+00  0.2634837480D+00
      0.2073520000D+00  0.4127647139D+00
      0.1003300000D+00  0.3233714430D+00
      0.4654600000D-01  0.7992207825D-01
 P   1 1.00       0.000000000000
      0.2662990033D-01  0.1000000000D+01
 S   1 1.00       0.000000000000
      0.4130607000D+01  0.1000000000D+01
 S   1 1.00       0.000000000000
      0.2248043000D+01  0.1000000000D+01
 S   1 1.00       0.000000000000
      0.1223476000D+01  0.1000000000D+01
 S   1 1.00       0.000000000000
      0.6658650000D+00  0.1000000000D+01
 S   1 1.00       0.000000000000
      0.3623910000D+00  0.1000000000D+01
 S   1 1.00       0.000000000000
      0.1972280000D+00  0.1000000000D+01
 P   1 1.00       0.000000000000
      0.2061443000D+01  0.1000000000D+01
 P   1 1.00       0.000000000000
      0.1240995000D+01  0.1000000000D+01
 P   1 1.00       0.000000000000
      0.7470830000D+00  0.1000000000D+01
 P   1 1.00       0.000000000000
      0.4497470000D+00  0.1000000000D+01
 P   1 1.00       0.000000000000
      0.2707490000D+00  0.1000000000D+01
 P   1 1.00       0.000000000000
      0.1629920000D+00  0.1000000000D+01
 D   1 1.00       0.000000000000
      0.2172717000D+01  0.1000000000D+01
 D   1 1.00       0.000000000000
      0.1200925000D+01  0.1000000000D+01
 D   1 1.00       0.000000000000
      0.6637870000D+00  0.1000000000D+01
 D   1 1.00       0.000000000000
      0.3668950000D+00  0.1000000000D+01
 D   1 1.00       0.000000000000
      0.2027940000D+00  0.1000000000D+01
 D   1 1.00       0.000000000000
      0.1120900000D+00  0.1000000000D+01
 F   1 1.00       0.000000000000
      0.2434959000D+01  0.1000000000D+01
 F   1 1.00       0.000000000000
      0.1305072000D+01  0.1000000000D+01
 F   1 1.00       0.000000000000
      0.6994830000D+00  0.1000000000D+01
 F   1 1.00       0.000000000000
      0.3749040000D+00  0.1000000000D+01
 F   1 1.00       0.000000000000
      0.2009380000D+00  0.1000000000D+01
 G   1 1.00       0.000000000000
      0.1148666000D+01  0.1000000000D+01
 G   1 1.00       0.000000000000
      0.7139930000D+00  0.1000000000D+01
 G   1 1.00       0.000000000000
      0.4438070000D+00  0.1000000000D+01
 G   1 1.00       0.000000000000
      0.2758630000D+00  0.1000000000D+01
 H   1 1.00       0.000000000000
      0.1101614000D+01  0.1000000000D+01
 H   1 1.00       0.000000000000
      0.6542220000D+00  0.1000000000D+01
 H   1 1.00       0.000000000000
      0.3885260000D+00  0.1000000000D+01
 I   1 1.00       0.000000000000
      0.1063087000D+01  0.1000000000D+01
 I   1 1.00       0.000000000000
      0.5892140000D+00  0.1000000000D+01
 J   1 1.00       0.000000000000
      0.8915241263D+00  0.1000000000D+01
 ****
      2 0
 S  19 1.00       0.000000000000
      0.8650451530D+08  0.3300655124D-06
      0.1628168380D+08  0.2044443866D-05
      0.3747703670D+07  0.1154070357D-04
      0.1021359720D+07  0.5186212928D-04
      0.3203359010D+06  0.1980363441D-03
      0.1128004270D+06  0.6592990918D-03
      0.4365492760D+05  0.1967820252D-02
      0.1823316230D+05  0.5373513002D-02
      0.8093021230D+04  0.1361405918D-01
      0.3768715480D+04  0.3218167547D-01
      0.1821795630D+04  0.7046321339D-01
      0.9062961930D+03  0.1393760946D+00
      0.4607567010D+03  0.2356460856D+00
      0.2380523900D+03  0.3052203077D+00
      0.1244279870D+03  0.2463339057D+00
      0.6555498500D+02  0.8883839465D-01
      0.3470247800D+02  0.8436057777D-02
      0.1840391500D+02  0.8969998273D-03
      0.9749020000D+01 -0.1634633792D-04
 S  15 1.00       0.000000000000
      0.1823316230D+05 -0.1075407502D-04
      0.8093021230D+04 -0.5163809444D-04
      0.3768715480D+04 -0.3116450839D-03
      0.1821795630D+04 -0.1392899174D-02
      0.9062961930D+03 -0.5826934199D-02
      0.4607567010D+03 -0.2005173173D-01
      0.2380523900D+03 -0.5519948761D-01
      0.1244279870D+03 -0.8931625917D-01
      0.6555498500D+02 -0.7681709220D-02
      0.3470247800D+02  0.2994520646D+00
      0.1840391500D+02  0.5139876625D+00
      0.9749020000D+01  0.2694413671D+00
      0.5141291000D+01  0.3732476805D-01
      0.2688638000D+01  0.2126411459D-02
      0.1387503000D+01 -0.4374603707D-03
 P  17 1.00       0.000000000000
      0.1270486630D+06  0.2908665223D-05
      0.3383589630D+05  0.2308522329D-04
      0.1079826630D+05  0.1487140281D-03
      0.3990275130D+04  0.7333736933D-03
      0.1657360270D+04  0.2944593625D-02
      0.7542497550D+03  0.9896016561D-02
      0.3680268710D+03  0.2845947159D-01
      0.1890566260D+03  0.7062396426D-01
      0.1007096710D+03  0.1477086082D+00
      0.5494271700D+02  0.2487758530D+00
      0.3038872200D+02  0.3147722141D+00
      0.1690166700D+02  0.2489544237D+00
      0.9390696000D+01  0.9772138151D-01
      0.5184120000D+01  0.1548410760D-01
      0.2830598000D+01  0.1350578766D-02
      0.1522368000D+01  0.2302604066D-03
      0.8032380000D+00  0.1566076893D-04
 S  11 1.00       0.000000000000
      0.2380523900D+03  0.6267477406D-03
      0.1244279870D+03  0.2438415568D-02
      0.6555498500D+02  0.2123420768D-02
      0.3470247800D+02 -0.3360031026D-01
      0.1840391500D+02 -0.1702762447D+00
      0.9749020000D+01 -0.1407439079D+00
      0.5141291000D+01  0.2662757245D+00
      0.2688638000D+01  0.5844492732D+00
      0.1387503000D+01  0.3405739287D+00
      0.7023420000D+00  0.3721768841D-01
      0.3461010000D+00  0.1820752711D-02
 P  14 1.00       0.000000000000
      0.7542497550D+03 -0.3479424059D-04
      0.3680268710D+03 -0.2215335236D-03
      0.1890566260D+03 -0.1180225478D-02
      0.1007096710D+03 -0.4452205246D-02
      0.5494271700D+02 -0.1178521590D-01
      0.3038872200D+02 -0.2198598209D-01
      0.1690166700D+02  0.2208057327D-02
      0.9390696000D+01  0.1327932072D+00
      0.5184120000D+01  0.3112525746D+00
      0.2830598000D+01  0.3783531746D+00
      0.1522368000D+01  0.2368181203D+00
      0.8032380000D+00  0.5628763891D-01
      0.4139680000D+00  0.4181683333D-02
      0.2073520000D+00  0.4945473986D-03
 D  16 1.00       0.000000000000
      0.3935057380D+04  0.6658747933D-05
      0.1231408950D+04  0.6620479445D-04
      0.4868924300D+03  0.4088972204D-03
      0.2242100730D+03  0.1802995078D-02
      0.1133345490D+03  0.6440508421D-02
      0.6039109000D+02  0.1912265063D-01
      0.3307289700D+02  0.4806286143D-01
      0.1835928800D+02  0.1043746713D+00
      0.1027002900D+02  0.1818481736D+00
      0.5780470000D+01  0.2434629020D+00
      0.3271235000D+01  0.2609256884D+00
      0.1854725000D+01  0.2262380742D+00
      0.1043163000D+01  0.1466007219D+00
      0.5705330000D+00  0.6184849393D-01
      0.2934450000D+00  0.1265731408D-01
      0.1349280000D+00  0.9703401441D-03
 S  10 1.00       0.000000000000
      0.3470247800D+02  0.1511943432D-03
      0.1840391500D+02  0.2606893701D-02
      0.9749020000D+01  0.2382588455D-02
      0.5141291000D+01 -0.1010241098D-01
      0.2688638000D+01 -0.6873666774D-01
      0.1387503000D+01 -0.1896156945D+00
      0.7023420000D+00  0.2529798556D-01
      0.3461010000D+00  0.4476449179D+00
      0.1644960000D+00  0.5350838366D+00
      0.7455300000D-01  0.1637862519D+00
 S   1 1.00       0.000000000000
      0.3584180297D-01  0.1000000000D+01
 P  11 1.00       0.000000000000
      0.3038872200D+02  0.9689603129D-04
      0.1690166700D+02 -0.3491934347D-03
      0.9390696000D+01 -0.2763946553D-02
      0.5184120000D+01 -0.7042864955D-02
      0.2830598000D+01 -0.1609648048D-01
      0.1522368000D+01 -0.2477584807D-01
      0.8032380000D+00  0.6264801904D-01
      0.4139680000D+00  0.2634837480D+00
      0.2073520000D+00  0.4127647139D+00
      0.1003300000D+00  0.3233714430D+00
      0.4654600000D-01  0.7992207825D-01
 P   1 1.00       0.000000000000
      0.2662990033D-01  0.1000000000D+01
 S   1 1.00       0.000000000000
      0.4130607000D+01  0.1000000000D+01
 S   1 1.00       0.000000000000
      0.2248043000D+01  0.1000000000D+01
 S   1 1.00       0.000000000000
      0.1223476000D+01  0.1000000000D+01
 S   1 1.00       0.000000000000
      0.6658650000D+00  0.1000000000D+01
 S   1 1.00       0.000000000000
      0.3623910000D+00  0.1000000000D+01
 S   1 1.00       0.000000000000
      0.1972280000D+00  0.1000000000D+01
 P   1 1.00       0.000000000000
      0.2061443000D+01  0.1000000000D+01
 P   1 1.00       0.000000000000
      0.1240995000D+01  0.1000000000D+01
 P   1 1.00       0.000000000000
      0.7470830000D+00  0.1000000000D+01
 P   1 1.00       0.000000000000
      0.4497470000D+00  0.1000000000D+01
 P   1 1.00       0.000000000000
      0.2707490000D+00  0.1000000000D+01
 P   1 1.00       0.000000000000
      0.1629920000D+00  0.1000000000D+01
 D   1 1.00       0.000000000000
      0.2172717000D+01  0.1000000000D+01
 D   1 1.00       0.000000000000
      0.1200925000D+01  0.1000000000D+01
 D   1 1.00       0.000000000000
      0.6637870000D+00  0.1000000000D+01
 D   1 1.00       0.000000000000
      0.3668950000D+00  0.1000000000D+01
 D   1 1.00       0.000000000000
      0.2027940000D+00  0.1000000000D+01
 D   1 1.00       0.000000000000
      0.1120900000D+00  0.1000000000D+01
 F   1 1.00       0.000000000000
      0.2434959000D+01  0.1000000000D+01
 F   1 1.00       0.000000000000
      0.1305072000D+01  0.1000000000D+01
 F   1 1.00       0.000000000000
      0.6994830000D+00  0.1000000000D+01
 F   1 1.00       0.000000000000
      0.3749040000D+00  0.1000000000D+01
 F   1 1.00       0.000000000000
      0.2009380000D+00  0.1000000000D+01
 G   1 1.00       0.000000000000
      0.1148666000D+01  0.1000000000D+01
 G   1 1.00       0.000000000000
      0.7139930000D+00  0.1000000000D+01
 G   1 1.00       0.000000000000
      0.4438070000D+00  0.1000000000D+01
 G   1 1.00       0.000000000000
      0.2758630000D+00  0.1000000000D+01
 H   1 1.00       0.000000000000
      0.1101614000D+01  0.1000000000D+01
 H   1 1.00       0.000000000000
      0.6542220000D+00  0.1000000000D+01
 H   1 1.00       0.000000000000
      0.3885260000D+00  0.1000000000D+01
 I   1 1.00       0.000000000000
      0.1063087000D+01  0.1000000000D+01
 I   1 1.00       0.000000000000
      0.5892140000D+00  0.1000000000D+01
 J   1 1.00       0.000000000000
      0.8915241263D+00  0.1000000000D+01
 ****

 There are    78 symmetry adapted basis functions of AG  symmetry.
 There are    35 symmetry adapted basis functions of B1G symmetry.
 There are    54 symmetry adapted basis functions of B2G symmetry.
 There are    54 symmetry adapted basis functions of B3G symmetry.
 There are    35 symmetry adapted basis functions of AU  symmetry.
 There are    78 symmetry adapted basis functions of B1U symmetry.
 There are    54 symmetry adapted basis functions of B2U symmetry.
 There are    54 symmetry adapted basis functions of B3U symmetry.
 Integral buffers will be    131072 words long.
 Raffenetti 2 integral format.
 Two-electron integral symmetry is turned on.
   442 basis functions,  1212 primitive gaussians,   696 cartesian basis functions
    33 alpha electrons       33 beta electrons
       nuclear repulsion energy       274.0768477858 Hartrees.
 NAtoms=    2 NActive=    2 NUniq=    1 SFac= 3.00D+00 NAtFMM=   80 NAOKFM=F Big=F
 One-electron integrals computed using PRISM.
 NBasis=   442 RedAO= F  NBF=    78    35    54    54    35    78    54    54
 NBsUse=   442 1.00D-04 NBFU=    78    35    54    54    35    78    54    54
 Harris functional with IExCor=  205 diagonalized for initial guess.
 ExpMin= 2.66D-02 ExpMax= 8.65D+07 ExpMxC= 8.09D+03 IAcc=3 IRadAn=         5 AccDes= 0.00D+00
 HarFok:  IExCor=  205 AccDes= 0.00D+00 IRadAn=         5 IDoV= 1
 ScaDFX=  1.000000  1.000000  1.000000  1.000000
 FoFCou: FMM=F IPFlag=           0 FMFlag=      100000 FMFlg1=           0
         NFxFlg=           0 DoJE=T BraDBF=F KetDBF=T FulRan=T
         Omega=  0.000000  0.000000  1.000000  0.000000  0.000000 ICntrl=     500 IOpCl=  0
         NMat0=    1 NMatS0=    1 NMatT0=    0 NMatD0=    1 NMtDS0=    0 NMtDT0=    0
         I1Cent=           4 NGrid=           0.
 Petite list used in FoFCou.
 Initial guess orbital symmetries:
       Occupied  (SGU) (SGG) (SGU) (SGG) (SGU) (SGG) (PIG) (PIG)
                 (PIU) (PIU) (SGG) (SGU) (SGG) (SGU) (PIU) (PIU)
                 (PIG) (PIG) (SGG) (PIU) (PIU) (PIG) (PIG) (SGU)
                 (DLTG) (DLTG) (DLTU) (DLTU) (SGG) (SGU) (SGG)
                 (PIU) (PIU)
       Virtual   (PIG) (PIG) (SGU) (SGG) (PIU) (PIU) (SGG) (DLTG)
                 (DLTG) (SGU) (PIG) (PIG) (PIU) (PIU) (SGU) (SGG)
                 (DLTU) (DLTU) (PIU) (PIU) (SGG) (PIG) (PIG) (SGU)
                 (SGU) (SGG) (PIG) (PIG) (DLTG) (DLTG) (PIU) (PIU)
                 (PHIU) (PHIU) (SGG) (DLTG) (DLTG) (SGU) (DLTU)
                 (DLTU) (PHIG) (PHIG) (PIG) (PIG) (PIU) (PIU) (SGG)
                 (PIU) (PIU) (SGU) (DLTU) (DLTU) (PIG) (PIG) (SGG)
                 (SGU) (?A) (?A) (PHIU) (PHIU) (PIG) (PIG) (SGU)
                 (SGG) (?B) (?B) (PIU) (PIU) (DLTG) (DLTG) (SGG)
                 (PHIG) (PHIG) (DLTG) (DLTG) (DLTU) (DLTU) (PHIU)
                 (PHIU) (PIG) (PIG) (DLTG) (DLTG) (SGU) (PHIG)
                 (PHIG) (PIU) (PIU) (SGU) (DLTU) (DLTU) (SGG) (PIG)
                 (PIG) (DLTU) (DLTU) (PIU) (PIU) (SGU) (PIU) (PIU)
                 (SGG) (?A) (?A) (PIG) (PIG) (?C) (?C) (SGU) (SGG)
                 (PHIU) (PHIU) (?D) (?D) (PIG) (PIG) (DLTG) (DLTG)
                 (?B) (?B) (SGG) (PIU) (PIU) (?A) (?A) (PHIU) (PHIU)
                 (?B) (?B) (SGU) (PHIG) (PHIG) (PIG) (PIG) (SGG)
                 (DLTG) (DLTG) (PHIG) (PHIG) (DLTU) (DLTU) (SGU)
                 (PIU) (PIU) (DLTU) (DLTU) (SGU) (PIG) (PIG) (DLTG)
                 (DLTG) (PHIU) (PHIU) (PIU) (PIU) (DLTG) (DLTG)
                 (DLTU) (DLTU) (PHIG) (PHIG) (SGG) (SGU) (PIU)
                 (PIU) (SGG) (PIG) (PIG) (DLTU) (DLTU) (SGU) (?A)
                 (?A) (?C) (?C) (?E) (?E) (SGG) (PHIU) (PHIU) (?F)
                 (?F) (PIU) (PIU) (PIG) (PIG) (?D) (?D) (DLTG)
                 (DLTG) (SGU) (SGG) (PIU) (PIU) (PIG) (PIG) (?B)
                 (?B) (?A) (?A) (?C) (?C) (?D) (?D) (PHIU) (PHIU)
                 (?B) (?B) (PHIG) (PHIG) (?A) (?A) (PHIU) (PHIU)
                 (SGG) (PIG) (PIG) (SGU) (?B) (?B) (DLTU) (DLTU)
                 (DLTG) (DLTG) (PHIG) (PHIG) (SGG) (PIU) (PIU)
                 (DLTG) (DLTG) (DLTU) (DLTU) (SGG) (PHIG) (PHIG)
                 (SGU) (PIG) (PIG) (PIU) (PIU) (SGU) (DLTU) (DLTU)
                 (SGU) (PIG) (PIG) (PHIU) (PHIU) (DLTG) (DLTG)
                 (PHIG) (PHIG) (DLTG) (DLTG) (DLTU) (DLTU) (PIU)
                 (PIU) (SGG) (SGU) (?A) (?A) (PIU) (PIU) (DLTU)
                 (DLTU) (PIG) (PIG) (?C) (?C) (PHIU) (PHIU) (?E)
                 (?E) (?G) (?G) (?H) (?H) (?F) (?F) (DLTG) (DLTG)
                 (SGG) (?D) (?D) (PIG) (PIG) (SGU) (PIU) (PIU)
                 (?B) (?B) (SGG) (PIU) (PIU) (SGG) (PIG) (PIG)
                 (SGU) (DLTU) (DLTU) (?A) (?A) (PHIG) (PHIG) (PHIU)
                 (PHIU) (SGG) (?B) (?B) (DLTG) (DLTG) (PIU) (PIU)
                 (SGU) (PHIG) (PHIG) (?A) (?A) (?C) (?C) (PIG)
                 (PIG) (?C) (?C) (?E) (?E) (PHIU) (PHIU) (?D) (?D)
                 (?A) (?A) (?F) (?F) (?B) (?B) (?D) (?D) (SGG)
                 (DLTU) (DLTU) (PHIU) (PHIU) (?B) (?B) (DLTG) (DLTG)
                 (PHIG) (PHIG) (SGU) (PIG) (PIG) (PIU) (PIU) (PIG)
                 (PIG) (SGG) (DLTU) (DLTU) (PHIG) (PHIG) (DLTG)
                 (DLTG) (SGU) (PIU) (PIU) (SGU) (SGU) (DLTU) (DLTU)
                 (PIG) (PIG) (SGG) (PHIU) (PHIU) (PHIG) (PHIG)
                 (DLTG) (DLTG) (DLTU) (DLTU) (SGG) (PIU) (PIU)
                 (SGU) (PIG) (PIG) (DLTG) (DLTG) (DLTU) (DLTU)
                 (PIU) (PIU) (PIG) (PIG) (SGG) (SGU) (PIU) (PIU)
                 (PIG) (PIG) (SGU) (SGG) (SGG) (SGU) (SGG) (SGU)
 The electronic state of the initial guess is 1-SGG.
 Requested convergence on RMS density matrix=1.00D-10 within 128 cycles.
 Requested convergence on MAX density matrix=1.00D-08.
 Requested convergence on             energy=1.00D-08.
 No special actions if energy rises.
 Initial convergence to 1.0D-05 achieved.  Increase integral accuracy.
 SCF Done:  E(ROHF) =  -4468.49905812     A.U. after   16 cycles
             Convg  =    0.4899D-11             -V/T =  2.0000
 <Sx>= 0.0000 <Sy>= 0.0000 <Sz>= 0.0000 <S**2>= 0.0000 S= 0.0000
 <L.S>= 0.000000000000E+00
 Annihilation of the first spin contaminant:
 S**2 before annihilation     0.0000,   after     0.0000
 GenMOA:  NOpAll=  8 NOp2=8 NOpUse=  8 JSym2X=1
 <Sx>= 0.0000 <Sy>= 0.0000 <Sz>= 0.0000 <S**2>= 0.0000 S= 0.0000
 Range of M.O.s used for correlation:    29   442
 NBasis=   442 NAE=    33 NBE=    33 NFC=    28 NFV=     0
 NROrb=    414 NOA=     5 NOB=     5 NVA=   409 NVB=   409

 **** Warning!!: The largest alpha MO coefficient is  0.32288677D+03


 **** Warning!!: The largest beta MO coefficient is  0.32288677D+03

 Singles contribution to E2=   -0.1127518255D-13
 Disk-based method using OVN memory for  5 occupieds at a time.
 Permanent disk used for amplitudes and <ij||ab> integrals=    11701490 words.
 Estimated scratch disk usage=   651755355 words.
 IUseRI=2 ITolRI= 6 IR12RI=0
 Actual    scratch disk usage=   650975067 words.
 GetIJB would need an additional  1683244768 words of memory to use all   8 processors.
 JobTyp=2 Pass  1:  I=   1 to   5 NPSUse=  1 ParTrn=F ParDer=F DoDerP=F.
 (rs|ai) integrals will be sorted in core.
 T,EIJ(AA): I=   1 J=   2      0.3268401E-03     -0.8395860E-03
 T,EIJ(AA): I=   1 J=   3      0.3023925E-03     -0.8286116E-03
 T,EIJ(AA): I=   1 J=   4      0.7502254E-03     -0.1753862E-02
 T,EIJ(AA): I=   1 J=   5      0.7502254E-03     -0.1753862E-02
 T,EIJ(AA): I=   2 J=   3      0.1003686E-02     -0.1918512E-02
 T,EIJ(AA): I=   2 J=   4      0.1932626E-02     -0.3106229E-02
 T,EIJ(AA): I=   2 J=   5      0.1932626E-02     -0.3106229E-02
 T,EIJ(AA): I=   3 J=   4      0.4212930E-02     -0.5792832E-02
 T,EIJ(AA): I=   3 J=   5      0.4212930E-02     -0.5792832E-02
 T,EIJ(AA): I=   4 J=   5      0.7711399E-02     -0.7858483E-02
 T,EIJ(AB): I=   1 J=   1      0.2683215E-02     -0.9050304E-02
 T,EIJ(AB): I=   1 J=   2      0.1325015E-02     -0.4132047E-02
 T,EIJ(AB): I=   1 J=   3      0.1948473E-02     -0.5825781E-02
 T,EIJ(AB): I=   1 J=   4      0.2350149E-02     -0.6134647E-02
 T,EIJ(AB): I=   1 J=   5      0.2350149E-02     -0.6134647E-02
 T,EIJ(AB): I=   2 J=   1      0.1325015E-02     -0.4132047E-02
 T,EIJ(AB): I=   2 J=   2      0.6138380E-02     -0.1237420E-01
 T,EIJ(AB): I=   2 J=   3      0.4452011E-02     -0.9662103E-02
 T,EIJ(AB): I=   2 J=   4      0.3482191E-02     -0.6684743E-02
 T,EIJ(AB): I=   2 J=   5      0.3482191E-02     -0.6684743E-02
 T,EIJ(AB): I=   3 J=   1      0.1948473E-02     -0.5825781E-02
 T,EIJ(AB): I=   3 J=   2      0.4452011E-02     -0.9662103E-02
 T,EIJ(AB): I=   3 J=   3      0.8476858E-02     -0.1538183E-01
 T,EIJ(AB): I=   3 J=   4      0.4899465E-02     -0.7668778E-02
 T,EIJ(AB): I=   3 J=   5      0.4899465E-02     -0.7668778E-02
 T,EIJ(AB): I=   4 J=   1      0.2350149E-02     -0.6134647E-02
 T,EIJ(AB): I=   4 J=   2      0.3482191E-02     -0.6684743E-02
 T,EIJ(AB): I=   4 J=   3      0.4899465E-02     -0.7668778E-02
 T,EIJ(AB): I=   4 J=   4      0.1909638E-01     -0.2156023E-01
 T,EIJ(AB): I=   4 J=   5      0.1072718E-01     -0.1137745E-01
 T,EIJ(AB): I=   5 J=   1      0.2350149E-02     -0.6134647E-02
 T,EIJ(AB): I=   5 J=   2      0.3482191E-02     -0.6684743E-02
 T,EIJ(AB): I=   5 J=   3      0.4899465E-02     -0.7668778E-02
 T,EIJ(AB): I=   5 J=   4      0.1072718E-01     -0.1137745E-01
 T,EIJ(AB): I=   5 J=   5      0.1909638E-01     -0.2156023E-01
 Actual    scratch disk usage=   650975067 words.
 GetIJB would need an additional  1683244768 words of memory to use all   8 processors.
 JobTyp=3 Pass  1:  I=   1 to   5 NPSUse=  1 ParTrn=F ParDer=F DoDerP=F.
 (rs|ai) integrals will be sorted in core.
 T,EIJ(BB): I=   1 J=   2      0.3268401E-03     -0.8395860E-03
 T,EIJ(BB): I=   1 J=   3      0.3023925E-03     -0.8286116E-03
 T,EIJ(BB): I=   1 J=   4      0.7502254E-03     -0.1753862E-02
 T,EIJ(BB): I=   1 J=   5      0.7502254E-03     -0.1753862E-02
 T,EIJ(BB): I=   2 J=   3      0.1003686E-02     -0.1918512E-02
 T,EIJ(BB): I=   2 J=   4      0.1932626E-02     -0.3106229E-02
 T,EIJ(BB): I=   2 J=   5      0.1932626E-02     -0.3106229E-02
 T,EIJ(BB): I=   3 J=   4      0.4212930E-02     -0.5792832E-02
 T,EIJ(BB): I=   3 J=   5      0.4212930E-02     -0.5792832E-02
 T,EIJ(BB): I=   4 J=   5      0.7711399E-02     -0.7858483E-02
 Spin components of T(2) and E(2):
     alpha-alpha T2 =       0.2313588001D-01 E2=     -0.3275103870D-01
     alpha-beta  T2 =       0.1353237877D+00 E2=     -0.2238742407D+00
     beta-beta   T2 =       0.2313588001D-01 E2=     -0.3275103870D-01
 ANorm=    0.1087012211D+01
 E2 =    -0.2893763181D+00 EUMP2 =    -0.44687884344394D+04

 Complete Basis Set (CBS) Extrapolation:
 M. R. Nyden and G. A. Petersson, JCP 75, 1843 (1981)
 G. A. Petersson and M. A. Al-Laham, JCP 94, 6081 (1991)
 G. A. Petersson, T. Tensfeldt, and J. A. Montgomery, JCP 94, 6091 (1991)
 J. A. Montgomery, J. W. Ochterski, and G. A. Petersson, JCP 101, 5900 (1994)
 
 Minimum Number of PNO for Extrapolation =  25
 Absolute Overlaps: IRadAn =         5
 LocTrn: ILocal=3 LocCor=F DoCore=F.
 Entering OneElI...
 Overlap between basis sets.
 Requested accuracy = 0.1000D-12
 PrsmSu:  NPrtUS=   1 ThrOK=F IAlg=1
 PRISM was handed  1609708345 working-precision words and   136 shell-pairs
 IPart=  0 NShTot=         136 NBatch=          15 AvBLen=         9.1
 CnvPC2: ToCart=F DoDens=F IPureD=0 IPureF=0.
 Transformed matrix in CnvPC2: 
                 1             2             3             4             5 
      1   0.100000D+01  0.403730D+00  0.000000D+00  0.000000D+00  0.000000D+00
      2   0.403730D+00  0.100000D+01  0.000000D+00  0.000000D+00  0.000000D+00
      3   0.000000D+00  0.000000D+00  0.100000D+01  0.000000D+00  0.000000D+00
      4   0.000000D+00  0.000000D+00  0.000000D+00  0.100000D+01  0.000000D+00
      5   0.000000D+00  0.000000D+00  0.000000D+00  0.000000D+00  0.100000D+01
      6   0.292129D-01  0.339068D+00  0.000000D+00  0.000000D+00  0.000000D+00
      7   0.000000D+00  0.000000D+00  0.351981D+00  0.000000D+00  0.000000D+00
      8   0.000000D+00  0.000000D+00  0.000000D+00  0.351981D+00  0.000000D+00
      9   0.000000D+00  0.000000D+00  0.000000D+00  0.000000D+00  0.351981D+00
     10   0.000000D+00  0.000000D+00  0.000000D+00  0.000000D+00  0.000000D+00
     11   0.000000D+00  0.000000D+00  0.000000D+00  0.000000D+00  0.000000D+00
     12   0.000000D+00  0.000000D+00  0.000000D+00  0.000000D+00  0.000000D+00
     13   0.000000D+00  0.000000D+00  0.000000D+00  0.000000D+00  0.000000D+00
     14   0.000000D+00  0.000000D+00  0.000000D+00  0.000000D+00  0.000000D+00
     15  -0.382798D-03  0.488481D-02  0.000000D+00  0.000000D+00  0.000000D+00
     16   0.000000D+00  0.000000D+00  0.130758D-01  0.000000D+00  0.000000D+00
     17   0.000000D+00  0.000000D+00  0.000000D+00  0.130758D-01  0.000000D+00
     18   0.000000D+00  0.000000D+00  0.000000D+00  0.000000D+00  0.130758D-01
     19   0.000000D+00  0.000000D+00  0.000000D+00  0.000000D+00  0.000000D+00
     20   0.000000D+00  0.000000D+00  0.000000D+00  0.000000D+00  0.000000D+00
     21   0.000000D+00  0.000000D+00  0.000000D+00  0.000000D+00  0.000000D+00
     22   0.000000D+00  0.000000D+00  0.000000D+00  0.000000D+00  0.000000D+00
     23   0.000000D+00  0.000000D+00  0.000000D+00  0.000000D+00  0.000000D+00
     24   0.000000D+00  0.000000D+00  0.000000D+00  0.000000D+00  0.000000D+00
     25   0.000000D+00  0.000000D+00  0.000000D+00  0.000000D+00  0.000000D+00
     26   0.000000D+00  0.000000D+00  0.000000D+00  0.000000D+00  0.000000D+00
     27   0.000000D+00  0.000000D+00  0.000000D+00  0.000000D+00  0.000000D+00
     28   0.000000D+00  0.000000D+00  0.000000D+00  0.000000D+00  0.000000D+00
     29   0.000000D+00  0.000000D+00  0.000000D+00  0.000000D+00  0.000000D+00
     30   0.000000D+00  0.000000D+00  0.000000D+00  0.000000D+00  0.000000D+00
     31   0.000000D+00  0.000000D+00  0.000000D+00  0.000000D+00  0.000000D+00
     32   0.000000D+00  0.000000D+00  0.000000D+00  0.000000D+00  0.000000D+00
     33   0.000000D+00  0.000000D+00  0.000000D+00  0.000000D+00  0.000000D+00
     34   0.000000D+00  0.000000D+00  0.000000D+00  0.000000D+00  0.000000D+00
     35   0.000000D+00  0.000000D+00  0.000000D+00  0.000000D+00  0.000000D+00
     36   0.000000D+00  0.000000D+00  0.000000D+00  0.000000D+00  0.000000D+00
     37   0.000000D+00  0.000000D+00  0.000000D+00  0.000000D+00  0.000000D+00
     38   0.966542D-03  0.597590D-02  0.000000D+00  0.000000D+00 -0.141759D-02
     39   0.000000D+00  0.000000D+00  0.442174D-03  0.000000D+00  0.000000D+00
     40   0.000000D+00  0.000000D+00  0.000000D+00  0.442174D-03  0.000000D+00
     41   0.170910D-02  0.105293D-01  0.000000D+00  0.000000D+00 -0.229626D-02
     42   0.595892D-02  0.360957D-01  0.000000D+00  0.000000D+00 -0.503754D-02
     43   0.000000D+00  0.000000D+00  0.262970D-02  0.000000D+00  0.000000D+00
     44   0.000000D+00  0.000000D+00  0.000000D+00  0.262970D-02  0.000000D+00
     45   0.000000D+00  0.000000D+00  0.000000D+00  0.000000D+00  0.000000D+00
     46   0.000000D+00  0.000000D+00  0.000000D+00  0.000000D+00  0.000000D+00
                 6             7             8             9            10 
      1   0.292129D-01  0.000000D+00  0.000000D+00  0.000000D+00  0.000000D+00
      2   0.339068D+00  0.000000D+00  0.000000D+00  0.000000D+00  0.000000D+00
      3   0.000000D+00  0.351981D+00  0.000000D+00  0.000000D+00  0.000000D+00
      4   0.000000D+00  0.000000D+00  0.351981D+00  0.000000D+00  0.000000D+00
      5   0.000000D+00  0.000000D+00  0.000000D+00  0.351981D+00  0.000000D+00
      6   0.100000D+01  0.000000D+00  0.000000D+00  0.000000D+00  0.000000D+00
      7   0.000000D+00  0.100000D+01  0.000000D+00  0.000000D+00  0.000000D+00
      8   0.000000D+00  0.000000D+00  0.100000D+01  0.000000D+00  0.000000D+00
      9   0.000000D+00  0.000000D+00  0.000000D+00  0.100000D+01  0.000000D+00
     10   0.000000D+00  0.000000D+00  0.000000D+00  0.000000D+00  0.100000D+01
     11   0.000000D+00  0.000000D+00  0.000000D+00  0.000000D+00  0.000000D+00
     12   0.000000D+00  0.000000D+00  0.000000D+00  0.000000D+00  0.000000D+00
     13   0.000000D+00  0.000000D+00  0.000000D+00  0.000000D+00  0.000000D+00
     14   0.000000D+00  0.000000D+00  0.000000D+00  0.000000D+00  0.000000D+00
     15   0.195676D+00  0.000000D+00  0.000000D+00  0.000000D+00  0.000000D+00
     16   0.000000D+00  0.212222D+00  0.000000D+00  0.000000D+00  0.000000D+00
     17   0.000000D+00  0.000000D+00  0.212222D+00  0.000000D+00  0.000000D+00
     18   0.000000D+00  0.000000D+00  0.000000D+00  0.212222D+00  0.000000D+00
     19   0.000000D+00  0.000000D+00  0.000000D+00  0.000000D+00  0.556204D-01
     20   0.000000D+00  0.000000D+00  0.000000D+00  0.000000D+00  0.000000D+00
     21   0.000000D+00  0.000000D+00  0.000000D+00  0.000000D+00  0.000000D+00
     22   0.000000D+00  0.000000D+00  0.000000D+00  0.000000D+00  0.000000D+00
     23   0.000000D+00  0.000000D+00  0.000000D+00  0.000000D+00  0.000000D+00
     24   0.000000D+00  0.000000D+00  0.000000D+00  0.000000D+00  0.000000D+00
     25   0.000000D+00  0.000000D+00  0.000000D+00  0.000000D+00  0.000000D+00
     26   0.000000D+00  0.000000D+00  0.000000D+00  0.000000D+00  0.000000D+00
     27   0.000000D+00  0.000000D+00  0.000000D+00  0.000000D+00  0.000000D+00
     28   0.000000D+00  0.000000D+00  0.000000D+00  0.000000D+00  0.000000D+00
     29   0.000000D+00  0.000000D+00  0.000000D+00  0.000000D+00  0.177066D-05
     30   0.000000D+00  0.000000D+00  0.000000D+00  0.000000D+00  0.000000D+00
     31   0.000000D+00  0.000000D+00  0.000000D+00  0.000000D+00  0.000000D+00
     32   0.000000D+00  0.000000D+00  0.000000D+00 -0.265173D-05  0.475441D-05
     33   0.177066D-05  0.000000D+00  0.000000D+00 -0.475441D-05  0.823601D-05
     34   0.000000D+00  0.000000D+00  0.000000D+00  0.000000D+00  0.000000D+00
     35   0.000000D+00  0.000000D+00  0.000000D+00  0.000000D+00  0.000000D+00
     36   0.000000D+00  0.000000D+00  0.000000D+00  0.000000D+00  0.000000D+00
     37   0.000000D+00  0.000000D+00  0.000000D+00  0.000000D+00  0.000000D+00
     38   0.350599D-01  0.000000D+00  0.000000D+00 -0.227132D-01  0.805145D-02
     39   0.000000D+00  0.741876D-02  0.000000D+00  0.000000D+00  0.000000D+00
     40   0.000000D+00  0.000000D+00  0.741876D-02  0.000000D+00  0.000000D+00
     41   0.602565D-01  0.000000D+00  0.000000D+00 -0.367223D-01  0.133334D-01
     42   0.179228D+00  0.000000D+00  0.000000D+00 -0.675680D-01  0.121959D-01
     43   0.000000D+00  0.390950D-01  0.000000D+00  0.000000D+00  0.000000D+00
     44   0.000000D+00  0.000000D+00  0.390950D-01  0.000000D+00  0.000000D+00
     45   0.000000D+00  0.000000D+00  0.000000D+00  0.000000D+00  0.000000D+00
     46   0.000000D+00  0.000000D+00  0.000000D+00  0.000000D+00  0.000000D+00
                11            12            13            14            15 
      1   0.000000D+00  0.000000D+00  0.000000D+00  0.000000D+00 -0.382798D-03
      2   0.000000D+00  0.000000D+00  0.000000D+00  0.000000D+00  0.488481D-02
      3   0.000000D+00  0.000000D+00  0.000000D+00  0.000000D+00  0.000000D+00
      4   0.000000D+00  0.000000D+00  0.000000D+00  0.000000D+00  0.000000D+00
      5   0.000000D+00  0.000000D+00  0.000000D+00  0.000000D+00  0.000000D+00
      6   0.000000D+00  0.000000D+00  0.000000D+00  0.000000D+00  0.195676D+00
      7   0.000000D+00  0.000000D+00  0.000000D+00  0.000000D+00  0.000000D+00
      8   0.000000D+00  0.000000D+00  0.000000D+00  0.000000D+00  0.000000D+00
      9   0.000000D+00  0.000000D+00  0.000000D+00  0.000000D+00  0.000000D+00
     10   0.000000D+00  0.000000D+00  0.000000D+00  0.000000D+00  0.000000D+00
     11   0.100000D+01  0.000000D+00  0.000000D+00  0.000000D+00  0.000000D+00
     12   0.000000D+00  0.100000D+01  0.000000D+00  0.000000D+00  0.000000D+00
     13   0.000000D+00  0.000000D+00  0.100000D+01  0.000000D+00  0.000000D+00
     14   0.000000D+00  0.000000D+00  0.000000D+00  0.100000D+01  0.000000D+00
     15   0.000000D+00  0.000000D+00  0.000000D+00  0.000000D+00  0.100000D+01
     16   0.000000D+00  0.000000D+00  0.000000D+00  0.000000D+00  0.000000D+00
     17   0.000000D+00  0.000000D+00  0.000000D+00  0.000000D+00  0.000000D+00
     18   0.000000D+00  0.000000D+00  0.000000D+00  0.000000D+00  0.000000D+00
     19   0.000000D+00  0.000000D+00  0.000000D+00  0.000000D+00  0.000000D+00
     20   0.556204D-01  0.000000D+00  0.000000D+00  0.000000D+00  0.000000D+00
     21   0.000000D+00  0.556204D-01  0.000000D+00  0.000000D+00  0.000000D+00
     22   0.000000D+00  0.000000D+00  0.556204D-01  0.000000D+00  0.000000D+00
     23   0.000000D+00  0.000000D+00  0.000000D+00  0.556204D-01  0.000000D+00
     24   0.000000D+00  0.000000D+00  0.000000D+00  0.000000D+00  0.966542D-03
     25   0.000000D+00  0.000000D+00  0.000000D+00  0.000000D+00  0.597590D-02
     26   0.000000D+00  0.000000D+00  0.000000D+00  0.000000D+00  0.000000D+00
     27   0.000000D+00  0.000000D+00  0.000000D+00  0.000000D+00  0.000000D+00
     28   0.000000D+00  0.000000D+00  0.000000D+00  0.000000D+00  0.141759D-02
     29   0.000000D+00  0.000000D+00  0.000000D+00  0.000000D+00  0.350599D-01
     30   0.000000D+00  0.000000D+00  0.000000D+00  0.000000D+00  0.000000D+00
     31   0.000000D+00  0.000000D+00  0.000000D+00  0.000000D+00  0.000000D+00
     32   0.000000D+00  0.000000D+00  0.000000D+00  0.000000D+00  0.227132D-01
     33   0.000000D+00  0.000000D+00  0.000000D+00  0.000000D+00  0.805145D-02
     34   0.000000D+00  0.000000D+00  0.000000D+00  0.000000D+00  0.000000D+00
     35   0.000000D+00  0.000000D+00  0.000000D+00  0.000000D+00  0.000000D+00
     36   0.000000D+00  0.000000D+00  0.000000D+00  0.000000D+00  0.000000D+00
     37   0.000000D+00  0.000000D+00  0.000000D+00  0.000000D+00  0.000000D+00
     38   0.000000D+00  0.000000D+00  0.000000D+00  0.000000D+00  0.278173D+00
     39  -0.510919D-02  0.000000D+00  0.000000D+00  0.000000D+00  0.000000D+00
     40   0.000000D+00 -0.510919D-02  0.000000D+00  0.000000D+00  0.000000D+00
     41   0.000000D+00  0.000000D+00  0.000000D+00  0.000000D+00  0.342512D+00
     42   0.000000D+00  0.000000D+00  0.000000D+00  0.000000D+00  0.395731D+00
     43  -0.181926D-01  0.000000D+00  0.000000D+00  0.000000D+00  0.000000D+00
     44   0.000000D+00 -0.181926D-01  0.000000D+00  0.000000D+00  0.000000D+00
     45   0.000000D+00  0.000000D+00  0.454010D-02  0.000000D+00  0.000000D+00
     46   0.000000D+00  0.000000D+00  0.000000D+00  0.454010D-02  0.000000D+00
                16            17            18            19            20 
      1   0.000000D+00  0.000000D+00  0.000000D+00  0.000000D+00  0.000000D+00
      2   0.000000D+00  0.000000D+00  0.000000D+00  0.000000D+00  0.000000D+00
      3   0.130758D-01  0.000000D+00  0.000000D+00  0.000000D+00  0.000000D+00
      4   0.000000D+00  0.130758D-01  0.000000D+00  0.000000D+00  0.000000D+00
      5   0.000000D+00  0.000000D+00  0.130758D-01  0.000000D+00  0.000000D+00
      6   0.000000D+00  0.000000D+00  0.000000D+00  0.000000D+00  0.000000D+00
      7   0.212222D+00  0.000000D+00  0.000000D+00  0.000000D+00  0.000000D+00
      8   0.000000D+00  0.212222D+00  0.000000D+00  0.000000D+00  0.000000D+00
      9   0.000000D+00  0.000000D+00  0.212222D+00  0.000000D+00  0.000000D+00
     10   0.000000D+00  0.000000D+00  0.000000D+00  0.556204D-01  0.000000D+00
     11   0.000000D+00  0.000000D+00  0.000000D+00  0.000000D+00  0.556204D-01
     12   0.000000D+00  0.000000D+00  0.000000D+00  0.000000D+00  0.000000D+00
     13   0.000000D+00  0.000000D+00  0.000000D+00  0.000000D+00  0.000000D+00
     14   0.000000D+00  0.000000D+00  0.000000D+00  0.000000D+00  0.000000D+00
     15   0.000000D+00  0.000000D+00  0.000000D+00  0.000000D+00  0.000000D+00
     16   0.100000D+01  0.000000D+00  0.000000D+00  0.000000D+00  0.000000D+00
     17   0.000000D+00  0.100000D+01  0.000000D+00  0.000000D+00  0.000000D+00
     18   0.000000D+00  0.000000D+00  0.100000D+01  0.000000D+00  0.000000D+00
     19   0.000000D+00  0.000000D+00  0.000000D+00  0.100000D+01  0.000000D+00
     20   0.000000D+00  0.000000D+00  0.000000D+00  0.000000D+00  0.100000D+01
     21   0.000000D+00  0.000000D+00  0.000000D+00  0.000000D+00  0.000000D+00
     22   0.000000D+00  0.000000D+00  0.000000D+00  0.000000D+00  0.000000D+00
     23   0.000000D+00  0.000000D+00  0.000000D+00  0.000000D+00  0.000000D+00
     24   0.000000D+00  0.000000D+00 -0.170910D-02  0.595892D-02  0.000000D+00
     25   0.000000D+00  0.000000D+00 -0.105293D-01  0.360957D-01  0.000000D+00
     26   0.442174D-03  0.000000D+00  0.000000D+00  0.000000D+00 -0.262970D-02
     27   0.000000D+00  0.442174D-03  0.000000D+00  0.000000D+00  0.000000D+00
     28   0.000000D+00  0.000000D+00 -0.229626D-02  0.503754D-02  0.000000D+00
     29   0.000000D+00  0.000000D+00 -0.602565D-01  0.179228D+00  0.000000D+00
     30   0.741876D-02  0.000000D+00  0.000000D+00  0.000000D+00 -0.390950D-01
     31   0.000000D+00  0.741876D-02  0.000000D+00  0.000000D+00  0.000000D+00
     32   0.000000D+00  0.000000D+00 -0.367223D-01  0.675680D-01  0.000000D+00
     33   0.000000D+00  0.000000D+00 -0.133334D-01  0.121959D-01  0.000000D+00
     34   0.510919D-02  0.000000D+00  0.000000D+00  0.000000D+00 -0.181926D-01
     35   0.000000D+00  0.510919D-02  0.000000D+00  0.000000D+00  0.000000D+00
     36   0.000000D+00  0.000000D+00  0.000000D+00  0.000000D+00  0.000000D+00
     37   0.000000D+00  0.000000D+00  0.000000D+00  0.000000D+00  0.000000D+00
     38   0.000000D+00  0.000000D+00 -0.342512D+00  0.395731D+00  0.000000D+00
     39   0.151165D+00  0.000000D+00  0.000000D+00  0.000000D+00 -0.377201D+00
     40   0.000000D+00  0.151165D+00  0.000000D+00  0.000000D+00  0.000000D+00
     41   0.000000D+00  0.000000D+00 -0.389259D+00  0.245787D+00  0.000000D+00
     42   0.000000D+00  0.000000D+00 -0.245787D+00 -0.463736D-01  0.000000D+00
     43   0.377201D+00  0.000000D+00  0.000000D+00  0.000000D+00 -0.440061D+00
     44   0.000000D+00  0.377201D+00  0.000000D+00  0.000000D+00  0.000000D+00
     45   0.000000D+00  0.000000D+00  0.000000D+00  0.000000D+00  0.000000D+00
     46   0.000000D+00  0.000000D+00  0.000000D+00  0.000000D+00  0.000000D+00
                21            22            23            24            25 
      1   0.000000D+00  0.000000D+00  0.000000D+00  0.000000D+00  0.000000D+00
      2   0.000000D+00  0.000000D+00  0.000000D+00  0.000000D+00  0.000000D+00
      3   0.000000D+00  0.000000D+00  0.000000D+00  0.000000D+00  0.000000D+00
      4   0.000000D+00  0.000000D+00  0.000000D+00  0.000000D+00  0.000000D+00
      5   0.000000D+00  0.000000D+00  0.000000D+00  0.000000D+00  0.000000D+00
      6   0.000000D+00  0.000000D+00  0.000000D+00  0.000000D+00  0.000000D+00
      7   0.000000D+00  0.000000D+00  0.000000D+00  0.000000D+00  0.000000D+00
      8   0.000000D+00  0.000000D+00  0.000000D+00  0.000000D+00  0.000000D+00
      9   0.000000D+00  0.000000D+00  0.000000D+00  0.000000D+00  0.000000D+00
     10   0.000000D+00  0.000000D+00  0.000000D+00  0.000000D+00  0.000000D+00
     11   0.000000D+00  0.000000D+00  0.000000D+00  0.000000D+00  0.000000D+00
     12   0.556204D-01  0.000000D+00  0.000000D+00  0.000000D+00  0.000000D+00
     13   0.000000D+00  0.556204D-01  0.000000D+00  0.000000D+00  0.000000D+00
     14   0.000000D+00  0.000000D+00  0.556204D-01  0.000000D+00  0.000000D+00
     15   0.000000D+00  0.000000D+00  0.000000D+00  0.966542D-03  0.597590D-02
     16   0.000000D+00  0.000000D+00  0.000000D+00  0.000000D+00  0.000000D+00
     17   0.000000D+00  0.000000D+00  0.000000D+00  0.000000D+00  0.000000D+00
     18   0.000000D+00  0.000000D+00  0.000000D+00 -0.170910D-02 -0.105293D-01
     19   0.000000D+00  0.000000D+00  0.000000D+00  0.595892D-02  0.360957D-01
     20   0.000000D+00  0.000000D+00  0.000000D+00  0.000000D+00  0.000000D+00
     21   0.100000D+01  0.000000D+00  0.000000D+00  0.000000D+00  0.000000D+00
     22   0.000000D+00  0.100000D+01  0.000000D+00  0.000000D+00  0.000000D+00
     23   0.000000D+00  0.000000D+00  0.100000D+01  0.000000D+00  0.000000D+00
     24   0.000000D+00  0.000000D+00  0.000000D+00  0.100000D+01  0.403730D+00
     25   0.000000D+00  0.000000D+00  0.000000D+00  0.403730D+00  0.100000D+01
     26   0.000000D+00  0.000000D+00  0.000000D+00  0.000000D+00  0.000000D+00
     27  -0.262970D-02  0.000000D+00  0.000000D+00  0.000000D+00  0.000000D+00
     28   0.000000D+00  0.000000D+00  0.000000D+00  0.000000D+00  0.000000D+00
     29   0.000000D+00  0.000000D+00  0.000000D+00  0.292129D-01  0.339068D+00
     30   0.000000D+00  0.000000D+00  0.000000D+00  0.000000D+00  0.000000D+00
     31  -0.390950D-01  0.000000D+00  0.000000D+00  0.000000D+00  0.000000D+00
     32   0.000000D+00  0.000000D+00  0.000000D+00  0.000000D+00  0.000000D+00
     33   0.000000D+00  0.000000D+00  0.000000D+00  0.000000D+00  0.000000D+00
     34   0.000000D+00  0.000000D+00  0.000000D+00  0.000000D+00  0.000000D+00
     35  -0.181926D-01  0.000000D+00  0.000000D+00  0.000000D+00  0.000000D+00
     36   0.000000D+00  0.454010D-02  0.000000D+00  0.000000D+00  0.000000D+00
     37   0.000000D+00  0.000000D+00  0.454010D-02  0.000000D+00  0.000000D+00
     38   0.000000D+00  0.000000D+00  0.000000D+00 -0.382798D-03  0.488481D-02
     39   0.000000D+00  0.000000D+00  0.000000D+00  0.000000D+00  0.000000D+00
     40  -0.377201D+00  0.000000D+00  0.000000D+00  0.000000D+00  0.000000D+00
     41   0.000000D+00  0.000000D+00  0.000000D+00  0.000000D+00  0.000000D+00
     42   0.000000D+00  0.000000D+00  0.000000D+00  0.000000D+00  0.000000D+00
     43   0.000000D+00  0.000000D+00  0.000000D+00  0.000000D+00  0.000000D+00
     44  -0.440061D+00  0.000000D+00  0.000000D+00  0.000000D+00  0.000000D+00
     45   0.000000D+00  0.261341D+00  0.000000D+00  0.000000D+00  0.000000D+00
     46   0.000000D+00  0.000000D+00  0.261341D+00  0.000000D+00  0.000000D+00
                26            27            28            29            30 
      1   0.000000D+00  0.000000D+00  0.000000D+00  0.000000D+00  0.000000D+00
      2   0.000000D+00  0.000000D+00  0.000000D+00  0.000000D+00  0.000000D+00
      3   0.000000D+00  0.000000D+00  0.000000D+00  0.000000D+00  0.000000D+00
      4   0.000000D+00  0.000000D+00  0.000000D+00  0.000000D+00  0.000000D+00
      5   0.000000D+00  0.000000D+00  0.000000D+00  0.000000D+00  0.000000D+00
      6   0.000000D+00  0.000000D+00  0.000000D+00  0.000000D+00  0.000000D+00
      7   0.000000D+00  0.000000D+00  0.000000D+00  0.000000D+00  0.000000D+00
      8   0.000000D+00  0.000000D+00  0.000000D+00  0.000000D+00  0.000000D+00
      9   0.000000D+00  0.000000D+00  0.000000D+00  0.000000D+00  0.000000D+00
     10   0.000000D+00  0.000000D+00  0.000000D+00  0.177066D-05  0.000000D+00
     11   0.000000D+00  0.000000D+00  0.000000D+00  0.000000D+00  0.000000D+00
     12   0.000000D+00  0.000000D+00  0.000000D+00  0.000000D+00  0.000000D+00
     13   0.000000D+00  0.000000D+00  0.000000D+00  0.000000D+00  0.000000D+00
     14   0.000000D+00  0.000000D+00  0.000000D+00  0.000000D+00  0.000000D+00
     15   0.000000D+00  0.000000D+00  0.141759D-02  0.350599D-01  0.000000D+00
     16   0.442174D-03  0.000000D+00  0.000000D+00  0.000000D+00  0.741876D-02
     17   0.000000D+00  0.442174D-03  0.000000D+00  0.000000D+00  0.000000D+00
     18   0.000000D+00  0.000000D+00 -0.229626D-02 -0.602565D-01  0.000000D+00
     19   0.000000D+00  0.000000D+00  0.503754D-02  0.179228D+00  0.000000D+00
     20  -0.262970D-02  0.000000D+00  0.000000D+00  0.000000D+00 -0.390950D-01
     21   0.000000D+00 -0.262970D-02  0.000000D+00  0.000000D+00  0.000000D+00
     22   0.000000D+00  0.000000D+00  0.000000D+00  0.000000D+00  0.000000D+00
     23   0.000000D+00  0.000000D+00  0.000000D+00  0.000000D+00  0.000000D+00
     24   0.000000D+00  0.000000D+00  0.000000D+00  0.292129D-01  0.000000D+00
     25   0.000000D+00  0.000000D+00  0.000000D+00  0.339068D+00  0.000000D+00
     26   0.100000D+01  0.000000D+00  0.000000D+00  0.000000D+00  0.351981D+00
     27   0.000000D+00  0.100000D+01  0.000000D+00  0.000000D+00  0.000000D+00
     28   0.000000D+00  0.000000D+00  0.100000D+01  0.000000D+00  0.000000D+00
     29   0.000000D+00  0.000000D+00  0.000000D+00  0.100000D+01  0.000000D+00
     30   0.351981D+00  0.000000D+00  0.000000D+00  0.000000D+00  0.100000D+01
     31   0.000000D+00  0.351981D+00  0.000000D+00  0.000000D+00  0.000000D+00
     32   0.000000D+00  0.000000D+00  0.351981D+00  0.000000D+00  0.000000D+00
     33   0.000000D+00  0.000000D+00  0.000000D+00  0.000000D+00  0.000000D+00
     34   0.000000D+00  0.000000D+00  0.000000D+00  0.000000D+00  0.000000D+00
     35   0.000000D+00  0.000000D+00  0.000000D+00  0.000000D+00  0.000000D+00
     36   0.000000D+00  0.000000D+00  0.000000D+00  0.000000D+00  0.000000D+00
     37   0.000000D+00  0.000000D+00  0.000000D+00  0.000000D+00  0.000000D+00
     38   0.000000D+00  0.000000D+00  0.000000D+00  0.195676D+00  0.000000D+00
     39   0.130758D-01  0.000000D+00  0.000000D+00  0.000000D+00  0.212222D+00
     40   0.000000D+00  0.130758D-01  0.000000D+00  0.000000D+00  0.000000D+00
     41   0.000000D+00  0.000000D+00  0.130758D-01  0.000000D+00  0.000000D+00
     42   0.000000D+00  0.000000D+00  0.000000D+00  0.000000D+00  0.000000D+00
     43   0.000000D+00  0.000000D+00  0.000000D+00  0.000000D+00  0.000000D+00
     44   0.000000D+00  0.000000D+00  0.000000D+00  0.000000D+00  0.000000D+00
     45   0.000000D+00  0.000000D+00  0.000000D+00  0.000000D+00  0.000000D+00
     46   0.000000D+00  0.000000D+00  0.000000D+00  0.000000D+00  0.000000D+00
                31            32            33            34            35 
      1   0.000000D+00  0.000000D+00  0.000000D+00  0.000000D+00  0.000000D+00
      2   0.000000D+00  0.000000D+00  0.000000D+00  0.000000D+00  0.000000D+00
      3   0.000000D+00  0.000000D+00  0.000000D+00  0.000000D+00  0.000000D+00
      4   0.000000D+00  0.000000D+00  0.000000D+00  0.000000D+00  0.000000D+00
      5   0.000000D+00  0.000000D+00  0.000000D+00  0.000000D+00  0.000000D+00
      6   0.000000D+00  0.000000D+00  0.177066D-05  0.000000D+00  0.000000D+00
      7   0.000000D+00  0.000000D+00  0.000000D+00  0.000000D+00  0.000000D+00
      8   0.000000D+00  0.000000D+00  0.000000D+00  0.000000D+00  0.000000D+00
      9   0.000000D+00 -0.265173D-05 -0.475441D-05  0.000000D+00  0.000000D+00
     10   0.000000D+00  0.475441D-05  0.823601D-05  0.000000D+00  0.000000D+00
     11   0.000000D+00  0.000000D+00  0.000000D+00  0.000000D+00  0.000000D+00
     12   0.000000D+00  0.000000D+00  0.000000D+00  0.000000D+00  0.000000D+00
     13   0.000000D+00  0.000000D+00  0.000000D+00  0.000000D+00  0.000000D+00
     14   0.000000D+00  0.000000D+00  0.000000D+00  0.000000D+00  0.000000D+00
     15   0.000000D+00  0.227132D-01  0.805145D-02  0.000000D+00  0.000000D+00
     16   0.000000D+00  0.000000D+00  0.000000D+00  0.510919D-02  0.000000D+00
     17   0.741876D-02  0.000000D+00  0.000000D+00  0.000000D+00  0.510919D-02
     18   0.000000D+00 -0.367223D-01 -0.133334D-01  0.000000D+00  0.000000D+00
     19   0.000000D+00  0.675680D-01  0.121959D-01  0.000000D+00  0.000000D+00
     20   0.000000D+00  0.000000D+00  0.000000D+00 -0.181926D-01  0.000000D+00
     21  -0.390950D-01  0.000000D+00  0.000000D+00  0.000000D+00 -0.181926D-01
     22   0.000000D+00  0.000000D+00  0.000000D+00  0.000000D+00  0.000000D+00
     23   0.000000D+00  0.000000D+00  0.000000D+00  0.000000D+00  0.000000D+00
     24   0.000000D+00  0.000000D+00  0.000000D+00  0.000000D+00  0.000000D+00
     25   0.000000D+00  0.000000D+00  0.000000D+00  0.000000D+00  0.000000D+00
     26   0.000000D+00  0.000000D+00  0.000000D+00  0.000000D+00  0.000000D+00
     27   0.351981D+00  0.000000D+00  0.000000D+00  0.000000D+00  0.000000D+00
     28   0.000000D+00  0.351981D+00  0.000000D+00  0.000000D+00  0.000000D+00
     29   0.000000D+00  0.000000D+00  0.000000D+00  0.000000D+00  0.000000D+00
     30   0.000000D+00  0.000000D+00  0.000000D+00  0.000000D+00  0.000000D+00
     31   0.100000D+01  0.000000D+00  0.000000D+00  0.000000D+00  0.000000D+00
     32   0.000000D+00  0.100000D+01  0.000000D+00  0.000000D+00  0.000000D+00
     33   0.000000D+00  0.000000D+00  0.100000D+01  0.000000D+00  0.000000D+00
     34   0.000000D+00  0.000000D+00  0.000000D+00  0.100000D+01  0.000000D+00
     35   0.000000D+00  0.000000D+00  0.000000D+00  0.000000D+00  0.100000D+01
     36   0.000000D+00  0.000000D+00  0.000000D+00  0.000000D+00  0.000000D+00
     37   0.000000D+00  0.000000D+00  0.000000D+00  0.000000D+00  0.000000D+00
     38   0.000000D+00  0.000000D+00  0.000000D+00  0.000000D+00  0.000000D+00
     39   0.000000D+00  0.000000D+00  0.000000D+00  0.000000D+00  0.000000D+00
     40   0.212222D+00  0.000000D+00  0.000000D+00  0.000000D+00  0.000000D+00
     41   0.000000D+00  0.212222D+00  0.000000D+00  0.000000D+00  0.000000D+00
     42   0.000000D+00  0.000000D+00  0.556204D-01  0.000000D+00  0.000000D+00
     43   0.000000D+00  0.000000D+00  0.000000D+00  0.556204D-01  0.000000D+00
     44   0.000000D+00  0.000000D+00  0.000000D+00  0.000000D+00  0.556204D-01
     45   0.000000D+00  0.000000D+00  0.000000D+00  0.000000D+00  0.000000D+00
     46   0.000000D+00  0.000000D+00  0.000000D+00  0.000000D+00  0.000000D+00
                36            37            38            39            40 
      1   0.000000D+00  0.000000D+00  0.966542D-03  0.000000D+00  0.000000D+00
      2   0.000000D+00  0.000000D+00  0.597590D-02  0.000000D+00  0.000000D+00
      3   0.000000D+00  0.000000D+00  0.000000D+00  0.442174D-03  0.000000D+00
      4   0.000000D+00  0.000000D+00  0.000000D+00  0.000000D+00  0.442174D-03
      5   0.000000D+00  0.000000D+00 -0.141759D-02  0.000000D+00  0.000000D+00
      6   0.000000D+00  0.000000D+00  0.350599D-01  0.000000D+00  0.000000D+00
      7   0.000000D+00  0.000000D+00  0.000000D+00  0.741876D-02  0.000000D+00
      8   0.000000D+00  0.000000D+00  0.000000D+00  0.000000D+00  0.741876D-02
      9   0.000000D+00  0.000000D+00 -0.227132D-01  0.000000D+00  0.000000D+00
     10   0.000000D+00  0.000000D+00  0.805145D-02  0.000000D+00  0.000000D+00
     11   0.000000D+00  0.000000D+00  0.000000D+00 -0.510919D-02  0.000000D+00
     12   0.000000D+00  0.000000D+00  0.000000D+00  0.000000D+00 -0.510919D-02
     13   0.000000D+00  0.000000D+00  0.000000D+00  0.000000D+00  0.000000D+00
     14   0.000000D+00  0.000000D+00  0.000000D+00  0.000000D+00  0.000000D+00
     15   0.000000D+00  0.000000D+00  0.278173D+00  0.000000D+00  0.000000D+00
     16   0.000000D+00  0.000000D+00  0.000000D+00  0.151165D+00  0.000000D+00
     17   0.000000D+00  0.000000D+00  0.000000D+00  0.000000D+00  0.151165D+00
     18   0.000000D+00  0.000000D+00 -0.342512D+00  0.000000D+00  0.000000D+00
     19   0.000000D+00  0.000000D+00  0.395731D+00  0.000000D+00  0.000000D+00
     20   0.000000D+00  0.000000D+00  0.000000D+00 -0.377201D+00  0.000000D+00
     21   0.000000D+00  0.000000D+00  0.000000D+00  0.000000D+00 -0.377201D+00
     22   0.454010D-02  0.000000D+00  0.000000D+00  0.000000D+00  0.000000D+00
     23   0.000000D+00  0.454010D-02  0.000000D+00  0.000000D+00  0.000000D+00
     24   0.000000D+00  0.000000D+00 -0.382798D-03  0.000000D+00  0.000000D+00
     25   0.000000D+00  0.000000D+00  0.488481D-02  0.000000D+00  0.000000D+00
     26   0.000000D+00  0.000000D+00  0.000000D+00  0.130758D-01  0.000000D+00
     27   0.000000D+00  0.000000D+00  0.000000D+00  0.000000D+00  0.130758D-01
     28   0.000000D+00  0.000000D+00  0.000000D+00  0.000000D+00  0.000000D+00
     29   0.000000D+00  0.000000D+00  0.195676D+00  0.000000D+00  0.000000D+00
     30   0.000000D+00  0.000000D+00  0.000000D+00  0.212222D+00  0.000000D+00
     31   0.000000D+00  0.000000D+00  0.000000D+00  0.000000D+00  0.212222D+00
     32   0.000000D+00  0.000000D+00  0.000000D+00  0.000000D+00  0.000000D+00
     33   0.000000D+00  0.000000D+00  0.000000D+00  0.000000D+00  0.000000D+00
     34   0.000000D+00  0.000000D+00  0.000000D+00  0.000000D+00  0.000000D+00
     35   0.000000D+00  0.000000D+00  0.000000D+00  0.000000D+00  0.000000D+00
     36   0.100000D+01  0.000000D+00  0.000000D+00  0.000000D+00  0.000000D+00
     37   0.000000D+00  0.100000D+01  0.000000D+00  0.000000D+00  0.000000D+00
     38   0.000000D+00  0.000000D+00  0.100000D+01  0.000000D+00  0.000000D+00
     39   0.000000D+00  0.000000D+00  0.000000D+00  0.100000D+01  0.000000D+00
     40   0.000000D+00  0.000000D+00  0.000000D+00  0.000000D+00  0.100000D+01
     41   0.000000D+00  0.000000D+00  0.000000D+00  0.000000D+00  0.000000D+00
     42   0.000000D+00  0.000000D+00  0.000000D+00  0.000000D+00  0.000000D+00
     43   0.000000D+00  0.000000D+00  0.000000D+00  0.000000D+00  0.000000D+00
     44   0.000000D+00  0.000000D+00  0.000000D+00  0.000000D+00  0.000000D+00
     45   0.556204D-01  0.000000D+00  0.000000D+00  0.000000D+00  0.000000D+00
     46   0.000000D+00  0.556204D-01  0.000000D+00  0.000000D+00  0.000000D+00
                41            42            43            44            45 
      1   0.170910D-02  0.595892D-02  0.000000D+00  0.000000D+00  0.000000D+00
      2   0.105293D-01  0.360957D-01  0.000000D+00  0.000000D+00  0.000000D+00
      3   0.000000D+00  0.000000D+00  0.262970D-02  0.000000D+00  0.000000D+00
      4   0.000000D+00  0.000000D+00  0.000000D+00  0.262970D-02  0.000000D+00
      5  -0.229626D-02 -0.503754D-02  0.000000D+00  0.000000D+00  0.000000D+00
      6   0.602565D-01  0.179228D+00  0.000000D+00  0.000000D+00  0.000000D+00
      7   0.000000D+00  0.000000D+00  0.390950D-01  0.000000D+00  0.000000D+00
      8   0.000000D+00  0.000000D+00  0.000000D+00  0.390950D-01  0.000000D+00
      9  -0.367223D-01 -0.675680D-01  0.000000D+00  0.000000D+00  0.000000D+00
     10   0.133334D-01  0.121959D-01  0.000000D+00  0.000000D+00  0.000000D+00
     11   0.000000D+00  0.000000D+00 -0.181926D-01  0.000000D+00  0.000000D+00
     12   0.000000D+00  0.000000D+00  0.000000D+00 -0.181926D-01  0.000000D+00
     13   0.000000D+00  0.000000D+00  0.000000D+00  0.000000D+00  0.454010D-02
     14   0.000000D+00  0.000000D+00  0.000000D+00  0.000000D+00  0.000000D+00
     15   0.342512D+00  0.395731D+00  0.000000D+00  0.000000D+00  0.000000D+00
     16   0.000000D+00  0.000000D+00  0.377201D+00  0.000000D+00  0.000000D+00
     17   0.000000D+00  0.000000D+00  0.000000D+00  0.377201D+00  0.000000D+00
     18  -0.389259D+00 -0.245787D+00  0.000000D+00  0.000000D+00  0.000000D+00
     19   0.245787D+00 -0.463736D-01  0.000000D+00  0.000000D+00  0.000000D+00
     20   0.000000D+00  0.000000D+00 -0.440061D+00  0.000000D+00  0.000000D+00
     21   0.000000D+00  0.000000D+00  0.000000D+00 -0.440061D+00  0.000000D+00
     22   0.000000D+00  0.000000D+00  0.000000D+00  0.000000D+00  0.261341D+00
     23   0.000000D+00  0.000000D+00  0.000000D+00  0.000000D+00  0.000000D+00
     24   0.000000D+00  0.000000D+00  0.000000D+00  0.000000D+00  0.000000D+00
     25   0.000000D+00  0.000000D+00  0.000000D+00  0.000000D+00  0.000000D+00
     26   0.000000D+00  0.000000D+00  0.000000D+00  0.000000D+00  0.000000D+00
     27   0.000000D+00  0.000000D+00  0.000000D+00  0.000000D+00  0.000000D+00
     28   0.130758D-01  0.000000D+00  0.000000D+00  0.000000D+00  0.000000D+00
     29   0.000000D+00  0.000000D+00  0.000000D+00  0.000000D+00  0.000000D+00
     30   0.000000D+00  0.000000D+00  0.000000D+00  0.000000D+00  0.000000D+00
     31   0.000000D+00  0.000000D+00  0.000000D+00  0.000000D+00  0.000000D+00
     32   0.212222D+00  0.000000D+00  0.000000D+00  0.000000D+00  0.000000D+00
     33   0.000000D+00  0.556204D-01  0.000000D+00  0.000000D+00  0.000000D+00
     34   0.000000D+00  0.000000D+00  0.556204D-01  0.000000D+00  0.000000D+00
     35   0.000000D+00  0.000000D+00  0.000000D+00  0.556204D-01  0.000000D+00
     36   0.000000D+00  0.000000D+00  0.000000D+00  0.000000D+00  0.556204D-01
     37   0.000000D+00  0.000000D+00  0.000000D+00  0.000000D+00  0.000000D+00
     38   0.000000D+00  0.000000D+00  0.000000D+00  0.000000D+00  0.000000D+00
     39   0.000000D+00  0.000000D+00  0.000000D+00  0.000000D+00  0.000000D+00
     40   0.000000D+00  0.000000D+00  0.000000D+00  0.000000D+00  0.000000D+00
     41   0.100000D+01  0.000000D+00  0.000000D+00  0.000000D+00  0.000000D+00
     42   0.000000D+00  0.100000D+01  0.000000D+00  0.000000D+00  0.000000D+00
     43   0.000000D+00  0.000000D+00  0.100000D+01  0.000000D+00  0.000000D+00
     44   0.000000D+00  0.000000D+00  0.000000D+00  0.100000D+01  0.000000D+00
     45   0.000000D+00  0.000000D+00  0.000000D+00  0.000000D+00  0.100000D+01
     46   0.000000D+00  0.000000D+00  0.000000D+00  0.000000D+00  0.000000D+00
                46 
      1   0.000000D+00
      2   0.000000D+00
      3   0.000000D+00
      4   0.000000D+00
      5   0.000000D+00
      6   0.000000D+00
      7   0.000000D+00
      8   0.000000D+00
      9   0.000000D+00
     10   0.000000D+00
     11   0.000000D+00
     12   0.000000D+00
     13   0.000000D+00
     14   0.454010D-02
     15   0.000000D+00
     16   0.000000D+00
     17   0.000000D+00
     18   0.000000D+00
     19   0.000000D+00
     20   0.000000D+00
     21   0.000000D+00
     22   0.000000D+00
     23   0.261341D+00
     24   0.000000D+00
     25   0.000000D+00
     26   0.000000D+00
     27   0.000000D+00
     28   0.000000D+00
     29   0.000000D+00
     30   0.000000D+00
     31   0.000000D+00
     32   0.000000D+00
     33   0.000000D+00
     34   0.000000D+00
     35   0.000000D+00
     36   0.000000D+00
     37   0.556204D-01
     38   0.000000D+00
     39   0.000000D+00
     40   0.000000D+00
     41   0.000000D+00
     42   0.000000D+00
     43   0.000000D+00
     44   0.000000D+00
     45   0.000000D+00
     46   0.100000D+01
 Entering OneElI...
 Overlap between basis sets.
 Requested accuracy = 0.1000D-12
 PrsmSu:  NPrtUS=   1 ThrOK=F IAlg=1
 PRISM was handed  1608941233 working-precision words and  1024 shell-pairs
 IPart=  0 NShTot=        1024 NBatch=          92 AvBLen=        11.1
 CnvPC2: ToCart=F DoDens=F IPureD=0 IPureF=0.
 Transformed matrix in CnvPC2: 
                 1             2             3             4             5 
      1   0.999796D+00  0.411773D+00  0.000000D+00  0.000000D+00  0.000000D+00
      2   0.289972D+00  0.988508D+00  0.000000D+00  0.000000D+00  0.000000D+00
      3   0.000000D+00  0.000000D+00  0.999253D+00  0.000000D+00  0.000000D+00
      4   0.000000D+00  0.000000D+00  0.000000D+00  0.999253D+00  0.000000D+00
      5   0.000000D+00  0.000000D+00  0.000000D+00  0.000000D+00  0.999253D+00
      6   0.134764D-01  0.325040D+00  0.000000D+00  0.000000D+00  0.000000D+00
      7   0.000000D+00  0.000000D+00  0.349152D+00  0.000000D+00  0.000000D+00
      8   0.000000D+00  0.000000D+00  0.000000D+00  0.349152D+00  0.000000D+00
      9   0.000000D+00  0.000000D+00  0.000000D+00  0.000000D+00  0.349152D+00
     10   0.000000D+00  0.000000D+00  0.000000D+00  0.000000D+00  0.000000D+00
     11   0.000000D+00  0.000000D+00  0.000000D+00  0.000000D+00  0.000000D+00
     12   0.000000D+00  0.000000D+00  0.000000D+00  0.000000D+00  0.000000D+00
     13   0.000000D+00  0.000000D+00  0.000000D+00  0.000000D+00  0.000000D+00
     14   0.000000D+00  0.000000D+00  0.000000D+00  0.000000D+00  0.000000D+00
     15   0.136505D-03  0.112901D-01  0.000000D+00  0.000000D+00  0.000000D+00
     16   0.438220D-02  0.266691D-01  0.000000D+00  0.000000D+00  0.000000D+00
     17   0.000000D+00  0.000000D+00  0.817497D-02  0.000000D+00  0.000000D+00
     18   0.000000D+00  0.000000D+00  0.000000D+00  0.817497D-02  0.000000D+00
     19   0.000000D+00  0.000000D+00  0.000000D+00  0.000000D+00  0.817497D-02
     20   0.000000D+00  0.000000D+00  0.116279D-02  0.000000D+00  0.000000D+00
     21   0.000000D+00  0.000000D+00  0.000000D+00  0.116279D-02  0.000000D+00
     22   0.000000D+00  0.000000D+00  0.000000D+00  0.000000D+00  0.116279D-02
     23   0.148177D+00  0.678734D+00  0.000000D+00  0.000000D+00  0.000000D+00
     24   0.955899D-01  0.493951D+00  0.000000D+00  0.000000D+00  0.000000D+00
     25   0.611725D-01  0.339847D+00  0.000000D+00  0.000000D+00  0.000000D+00
     26   0.389725D-01  0.225748D+00  0.000000D+00  0.000000D+00  0.000000D+00
     27   0.247680D-01  0.146878D+00  0.000000D+00  0.000000D+00  0.000000D+00
     28   0.157195D-01  0.944404D-01  0.000000D+00  0.000000D+00  0.000000D+00
     29   0.000000D+00  0.000000D+00  0.206184D+00  0.000000D+00  0.000000D+00
     30   0.000000D+00  0.000000D+00  0.000000D+00  0.206184D+00  0.000000D+00
     31   0.000000D+00  0.000000D+00  0.000000D+00  0.000000D+00  0.206184D+00
     32   0.000000D+00  0.000000D+00  0.120751D+00  0.000000D+00  0.000000D+00
     33   0.000000D+00  0.000000D+00  0.000000D+00  0.120751D+00  0.000000D+00
     34   0.000000D+00  0.000000D+00  0.000000D+00  0.000000D+00  0.120751D+00
     35   0.000000D+00  0.000000D+00  0.681853D-01  0.000000D+00  0.000000D+00
     36   0.000000D+00  0.000000D+00  0.000000D+00  0.681853D-01  0.000000D+00
     37   0.000000D+00  0.000000D+00  0.000000D+00  0.000000D+00  0.681853D-01
     38   0.000000D+00  0.000000D+00  0.375966D-01  0.000000D+00  0.000000D+00
     39   0.000000D+00  0.000000D+00  0.000000D+00  0.375966D-01  0.000000D+00
     40   0.000000D+00  0.000000D+00  0.000000D+00  0.000000D+00  0.375966D-01
     41   0.000000D+00  0.000000D+00  0.204200D-01  0.000000D+00  0.000000D+00
     42   0.000000D+00  0.000000D+00  0.000000D+00  0.204200D-01  0.000000D+00
     43   0.000000D+00  0.000000D+00  0.000000D+00  0.000000D+00  0.204200D-01
     44   0.000000D+00  0.000000D+00  0.109874D-01  0.000000D+00  0.000000D+00
     45   0.000000D+00  0.000000D+00  0.000000D+00  0.109874D-01  0.000000D+00
     46   0.000000D+00  0.000000D+00  0.000000D+00  0.000000D+00  0.109874D-01
     47   0.000000D+00  0.000000D+00  0.000000D+00  0.000000D+00  0.000000D+00
     48   0.000000D+00  0.000000D+00  0.000000D+00  0.000000D+00  0.000000D+00
     49   0.000000D+00  0.000000D+00  0.000000D+00  0.000000D+00  0.000000D+00
     50   0.000000D+00  0.000000D+00  0.000000D+00  0.000000D+00  0.000000D+00
     51   0.000000D+00  0.000000D+00  0.000000D+00  0.000000D+00  0.000000D+00
     52   0.000000D+00  0.000000D+00  0.000000D+00  0.000000D+00  0.000000D+00
     53   0.000000D+00  0.000000D+00  0.000000D+00  0.000000D+00  0.000000D+00
     54   0.000000D+00  0.000000D+00  0.000000D+00  0.000000D+00  0.000000D+00
     55   0.000000D+00  0.000000D+00  0.000000D+00  0.000000D+00  0.000000D+00
     56   0.000000D+00  0.000000D+00  0.000000D+00  0.000000D+00  0.000000D+00
     57   0.000000D+00  0.000000D+00  0.000000D+00  0.000000D+00  0.000000D+00
     58   0.000000D+00  0.000000D+00  0.000000D+00  0.000000D+00  0.000000D+00
     59   0.000000D+00  0.000000D+00  0.000000D+00  0.000000D+00  0.000000D+00
     60   0.000000D+00  0.000000D+00  0.000000D+00  0.000000D+00  0.000000D+00
     61   0.000000D+00  0.000000D+00  0.000000D+00  0.000000D+00  0.000000D+00
     62   0.000000D+00  0.000000D+00  0.000000D+00  0.000000D+00  0.000000D+00
     63   0.000000D+00  0.000000D+00  0.000000D+00  0.000000D+00  0.000000D+00
     64   0.000000D+00  0.000000D+00  0.000000D+00  0.000000D+00  0.000000D+00
     65   0.000000D+00  0.000000D+00  0.000000D+00  0.000000D+00  0.000000D+00
     66   0.000000D+00  0.000000D+00  0.000000D+00  0.000000D+00  0.000000D+00
     67   0.000000D+00  0.000000D+00  0.000000D+00  0.000000D+00  0.000000D+00
     68   0.000000D+00  0.000000D+00  0.000000D+00  0.000000D+00  0.000000D+00
     69   0.000000D+00  0.000000D+00  0.000000D+00  0.000000D+00  0.000000D+00
     70   0.000000D+00  0.000000D+00  0.000000D+00  0.000000D+00  0.000000D+00
     71   0.000000D+00  0.000000D+00  0.000000D+00  0.000000D+00  0.000000D+00
     72   0.000000D+00  0.000000D+00  0.000000D+00  0.000000D+00  0.000000D+00
     73   0.000000D+00  0.000000D+00  0.000000D+00  0.000000D+00  0.000000D+00
     74   0.000000D+00  0.000000D+00  0.000000D+00  0.000000D+00  0.000000D+00
     75   0.000000D+00  0.000000D+00  0.000000D+00  0.000000D+00  0.000000D+00
     76   0.000000D+00  0.000000D+00  0.000000D+00  0.000000D+00  0.000000D+00
     77   0.000000D+00  0.000000D+00  0.000000D+00  0.000000D+00  0.000000D+00
     78   0.000000D+00  0.000000D+00  0.000000D+00  0.000000D+00  0.000000D+00
     79   0.000000D+00  0.000000D+00  0.000000D+00  0.000000D+00  0.000000D+00
     80   0.000000D+00  0.000000D+00  0.000000D+00  0.000000D+00  0.000000D+00
     81   0.000000D+00  0.000000D+00  0.000000D+00  0.000000D+00  0.000000D+00
     82   0.000000D+00  0.000000D+00  0.000000D+00  0.000000D+00  0.000000D+00
     83   0.000000D+00  0.000000D+00  0.000000D+00  0.000000D+00  0.000000D+00
     84   0.000000D+00  0.000000D+00  0.000000D+00  0.000000D+00  0.000000D+00
     85   0.000000D+00  0.000000D+00  0.000000D+00  0.000000D+00  0.000000D+00
     86   0.000000D+00  0.000000D+00  0.000000D+00  0.000000D+00  0.000000D+00
     87   0.000000D+00  0.000000D+00  0.000000D+00  0.000000D+00  0.000000D+00
     88   0.000000D+00  0.000000D+00  0.000000D+00  0.000000D+00  0.000000D+00
     89   0.000000D+00  0.000000D+00  0.000000D+00  0.000000D+00  0.000000D+00
     90   0.000000D+00  0.000000D+00  0.000000D+00  0.000000D+00  0.000000D+00
     91   0.000000D+00  0.000000D+00  0.000000D+00  0.000000D+00  0.000000D+00
     92   0.000000D+00  0.000000D+00  0.000000D+00  0.000000D+00  0.000000D+00
     93   0.000000D+00  0.000000D+00  0.000000D+00  0.000000D+00  0.000000D+00
     94   0.000000D+00  0.000000D+00  0.000000D+00  0.000000D+00  0.000000D+00
     95   0.000000D+00  0.000000D+00  0.000000D+00  0.000000D+00  0.000000D+00
     96   0.000000D+00  0.000000D+00  0.000000D+00  0.000000D+00  0.000000D+00
     97   0.000000D+00  0.000000D+00  0.000000D+00  0.000000D+00  0.000000D+00
     98   0.000000D+00  0.000000D+00  0.000000D+00  0.000000D+00  0.000000D+00
     99   0.000000D+00  0.000000D+00  0.000000D+00  0.000000D+00  0.000000D+00
    100   0.000000D+00  0.000000D+00  0.000000D+00  0.000000D+00  0.000000D+00
    101   0.000000D+00  0.000000D+00  0.000000D+00  0.000000D+00  0.000000D+00
    102   0.000000D+00  0.000000D+00  0.000000D+00  0.000000D+00  0.000000D+00
    103   0.000000D+00  0.000000D+00  0.000000D+00  0.000000D+00  0.000000D+00
    104   0.000000D+00  0.000000D+00  0.000000D+00  0.000000D+00  0.000000D+00
    105   0.000000D+00  0.000000D+00  0.000000D+00  0.000000D+00  0.000000D+00
    106   0.000000D+00  0.000000D+00  0.000000D+00  0.000000D+00  0.000000D+00
    107   0.000000D+00  0.000000D+00  0.000000D+00  0.000000D+00  0.000000D+00
    108   0.000000D+00  0.000000D+00  0.000000D+00  0.000000D+00  0.000000D+00
    109   0.000000D+00  0.000000D+00  0.000000D+00  0.000000D+00  0.000000D+00
    110   0.000000D+00  0.000000D+00  0.000000D+00  0.000000D+00  0.000000D+00
    111   0.000000D+00  0.000000D+00  0.000000D+00  0.000000D+00  0.000000D+00
    112   0.000000D+00  0.000000D+00  0.000000D+00  0.000000D+00  0.000000D+00
    113   0.000000D+00  0.000000D+00  0.000000D+00  0.000000D+00  0.000000D+00
    114   0.000000D+00  0.000000D+00  0.000000D+00  0.000000D+00  0.000000D+00
    115   0.000000D+00  0.000000D+00  0.000000D+00  0.000000D+00  0.000000D+00
    116   0.000000D+00  0.000000D+00  0.000000D+00  0.000000D+00  0.000000D+00
    117   0.000000D+00  0.000000D+00  0.000000D+00  0.000000D+00  0.000000D+00
    118   0.000000D+00  0.000000D+00  0.000000D+00  0.000000D+00  0.000000D+00
    119   0.000000D+00  0.000000D+00  0.000000D+00  0.000000D+00  0.000000D+00
    120   0.000000D+00  0.000000D+00  0.000000D+00  0.000000D+00  0.000000D+00
    121   0.000000D+00  0.000000D+00  0.000000D+00  0.000000D+00  0.000000D+00
    122   0.000000D+00  0.000000D+00  0.000000D+00  0.000000D+00  0.000000D+00
    123   0.000000D+00  0.000000D+00  0.000000D+00  0.000000D+00  0.000000D+00
    124   0.000000D+00  0.000000D+00  0.000000D+00  0.000000D+00  0.000000D+00
    125   0.000000D+00  0.000000D+00  0.000000D+00  0.000000D+00  0.000000D+00
    126   0.000000D+00  0.000000D+00  0.000000D+00  0.000000D+00  0.000000D+00
    127   0.000000D+00  0.000000D+00  0.000000D+00  0.000000D+00  0.000000D+00
    128   0.000000D+00  0.000000D+00  0.000000D+00  0.000000D+00  0.000000D+00
    129   0.000000D+00  0.000000D+00  0.000000D+00  0.000000D+00  0.000000D+00
    130   0.000000D+00  0.000000D+00  0.000000D+00  0.000000D+00  0.000000D+00
    131   0.000000D+00  0.000000D+00  0.000000D+00  0.000000D+00  0.000000D+00
    132   0.000000D+00  0.000000D+00  0.000000D+00  0.000000D+00  0.000000D+00
    133   0.000000D+00  0.000000D+00  0.000000D+00  0.000000D+00  0.000000D+00
    134   0.000000D+00  0.000000D+00  0.000000D+00  0.000000D+00  0.000000D+00
    135   0.000000D+00  0.000000D+00  0.000000D+00  0.000000D+00  0.000000D+00
    136   0.000000D+00  0.000000D+00  0.000000D+00  0.000000D+00  0.000000D+00
    137   0.000000D+00  0.000000D+00  0.000000D+00  0.000000D+00  0.000000D+00
    138   0.000000D+00  0.000000D+00  0.000000D+00  0.000000D+00  0.000000D+00
    139   0.000000D+00  0.000000D+00  0.000000D+00  0.000000D+00  0.000000D+00
    140   0.000000D+00  0.000000D+00  0.000000D+00  0.000000D+00  0.000000D+00
    141   0.000000D+00  0.000000D+00  0.000000D+00  0.000000D+00  0.000000D+00
    142   0.000000D+00  0.000000D+00  0.000000D+00  0.000000D+00  0.000000D+00
    143   0.000000D+00  0.000000D+00  0.000000D+00  0.000000D+00  0.000000D+00
    144   0.000000D+00  0.000000D+00  0.000000D+00  0.000000D+00  0.000000D+00
    145   0.000000D+00  0.000000D+00  0.000000D+00  0.000000D+00  0.000000D+00
    146   0.000000D+00  0.000000D+00  0.000000D+00  0.000000D+00  0.000000D+00
    147   0.000000D+00  0.000000D+00  0.000000D+00  0.000000D+00  0.000000D+00
    148   0.000000D+00  0.000000D+00  0.000000D+00  0.000000D+00  0.000000D+00
    149   0.000000D+00  0.000000D+00  0.000000D+00  0.000000D+00  0.000000D+00
    150   0.000000D+00  0.000000D+00  0.000000D+00  0.000000D+00  0.000000D+00
    151   0.000000D+00  0.000000D+00  0.000000D+00  0.000000D+00  0.000000D+00
    152   0.000000D+00  0.000000D+00  0.000000D+00  0.000000D+00  0.000000D+00
    153   0.000000D+00  0.000000D+00  0.000000D+00  0.000000D+00  0.000000D+00
    154   0.000000D+00  0.000000D+00  0.000000D+00  0.000000D+00  0.000000D+00
    155   0.000000D+00  0.000000D+00  0.000000D+00  0.000000D+00  0.000000D+00
    156   0.000000D+00  0.000000D+00  0.000000D+00  0.000000D+00  0.000000D+00
    157   0.000000D+00  0.000000D+00  0.000000D+00  0.000000D+00  0.000000D+00
    158   0.000000D+00  0.000000D+00  0.000000D+00  0.000000D+00  0.000000D+00
    159   0.000000D+00  0.000000D+00  0.000000D+00  0.000000D+00  0.000000D+00
    160   0.000000D+00  0.000000D+00  0.000000D+00  0.000000D+00  0.000000D+00
    161   0.000000D+00  0.000000D+00  0.000000D+00  0.000000D+00  0.000000D+00
[...]
   29    |  1.213165  0.604784  2.080070  0.811434  2.080070
   29    |  0.000000  0.604784  2.080070  0.811434  2.080070
         |
   30    |  0.751315  1.240569  2.136934  0.859333  2.136934
   30    |  0.751315  0.000000  2.136934  0.859333  2.136934
         |
   31    |  1.555945  1.569885  1.497768  2.505701  3.461757
   31    |  1.555945  1.569885  0.000000  2.505701  3.461757
         |
   32    |  1.064990  1.084113  1.682531  1.509992  2.505701
   32    |  1.064990  1.084113  1.682531  0.000000  2.505701
         |
   33    |  1.555945  1.569885  0.784936  1.682531  1.497768
   33    |  1.555945  1.569885  0.784936  1.682531  0.000000
         |

                   MP2(CBS) Pair Energies
                   ----------------------

 AB - AA |     29        30        31        32        33
 BA - BB |     29        30        31        32        33
------------------------------------------------------------
   29    | -0.022063 -0.007615 -0.002408 -0.006224 -0.002408
   29    |  0.000000 -0.007615 -0.002408 -0.006224 -0.002408
         |
   30    | -0.011322 -0.021793 -0.002327 -0.005958 -0.002327
   30    | -0.011322  0.000000 -0.002327 -0.005958 -0.002327
         |
   31    | -0.005654 -0.005563 -0.019549 -0.001900 -0.000044
   31    | -0.005654 -0.005563  0.000000 -0.001900 -0.000044
         |
   32    | -0.009946 -0.009509 -0.005090 -0.019453 -0.001900
   32    | -0.009946 -0.009509 -0.005090  0.000000 -0.001900
         |
   33    | -0.005654 -0.005563 -0.000149 -0.005090 -0.019549
   33    | -0.005654 -0.005563 -0.000149 -0.005090  0.000000
         |

                     Sum of ab pair energies =    -0.165948 A.U.
                     Sum of ba pair energies =    -0.063541 A.U.
                     Sum of aa pair energies =    -0.033111 A.U.
                     Sum of bb pair energies =    -0.033111 A.U.

           Sum of intraorbital pair energies =    -0.102406 A.U.
           Sum of interorbital pair energies =    -0.193304 A.U.
                                                  ----------
                         Total pair energies =    -0.295710 A.U.

                         Single Excitations  =     0.000000 A.U.

                          Total second order =    -0.295710 A.U.



            MP2(CBS) (With Interference Correction) 
            ---------------------------------------

 AB - AA |     29        30        31        32        33
 BA - BB |     29        30        31        32        33
------------------------------------------------------------
   29    | -0.021649 -0.007606 -0.002399 -0.006215 -0.002399
   29    |  0.000000 -0.007606 -0.002399 -0.006215 -0.002399
         |
   30    | -0.011192 -0.021365 -0.002318 -0.005950 -0.002318
   30    | -0.011192  0.000000 -0.002318 -0.005950 -0.002318
         |
   31    | -0.005588 -0.005499 -0.019200 -0.001892 -0.000043
   31    | -0.005588 -0.005499  0.000000 -0.001892 -0.000043
         |
   32    | -0.009829 -0.009402 -0.005033 -0.019039 -0.001892
   32    | -0.009829 -0.009402 -0.005033  0.000000 -0.001892
         |
   33    | -0.005588 -0.005499 -0.000149 -0.005033 -0.019200
   33    | -0.005588 -0.005499 -0.000149 -0.005033  0.000000
         |

                     Sum of ab pair energies =    -0.163264 A.U.
                     Sum of ba pair energies =    -0.062811 A.U.
                     Sum of aa pair energies =    -0.033032 A.U.
                     Sum of bb pair energies =    -0.033032 A.U.

           Sum of intraorbital pair energies =    -0.100452 A.U.
           Sum of interorbital pair energies =    -0.191686 A.U.
                                                  ----------
                         Total pair energies =    -0.292139 A.U.

                         Single Excitations  =     0.000000 A.U.

                          Total second order =    -0.292139 A.U.

                         E2(CBS) - E2(Dir) =      -0.006334 A.U.

 E2(CBS)=      -0.295710 CBS-Int=       0.003571 OIii=       1.325761

 **********************************************************************

            Population analysis using the SCF density.

 **********************************************************************

 Orbital symmetries:
       Occupied  (SGG) (SGU) (SGG) (SGU) (PIG) (PIG) (PIU) (PIU)
                 (SGU) (SGG) (SGG) (SGU) (PIU) (PIU) (PIG) (PIG)
                 (SGG) (SGU) (SGG) (DLTG) (DLTG) (DLTU) (DLTU)
                 (PIU) (PIU) (PIG) (PIG) (SGU) (SGG) (SGU) (SGG)
                 (PIU) (PIU)
       Virtual   (PIG) (PIG) (SGU) (SGG) (PIU) (PIU) (SGG) (PIG)
                 (PIG) (SGU) (SGU) (DLTG) (DLTG) (PIU) (PIU) (SGG)
                 (SGG) (PIU) (PIU) (DLTU) (DLTU) (PIG) (PIG) (SGU)
                 (SGU) (PIG) (PIG) (SGG) (DLTG) (DLTG) (PIU) (PIU)
                 (SGU) (PHIU) (PHIU) (SGG) (DLTG) (DLTG) (DLTU)
                 (DLTU) (PHIG) (PHIG) (PIG) (PIG) (PIU) (PIU) (SGG)
                 (SGU) (PIU) (PIU) (PIG) (PIG) (SGG) (DLTU) (DLTU)
                 (SGU) (PIG) (PIG) (SGU) (?A) (?A) (PHIU) (PHIU)
                 (SGG) (?B) (?B) (DLTG) (DLTG) (PIU) (PIU) (SGG)
                 (PHIG) (PHIG) (DLTG) (DLTG) (DLTU) (DLTU) (PIG)
                 (PIG) (PHIU) (PHIU) (DLTG) (DLTG) (SGU) (SGU)
                 (PHIG) (PHIG) (PIU) (PIU) (DLTU) (DLTU) (PIG)
                 (PIG) (SGG) (DLTU) (DLTU) (PIU) (PIU) (SGU) (SGG)
                 (PIU) (PIU) (PIG) (PIG) (?A) (?A) (?C) (?C) (SGU)
                 (?D) (?D) (PHIU) (PHIU) (SGG) (PIG) (PIG) (?B)
                 (?B) (DLTG) (DLTG) (SGG) (?A) (?A) (PHIU) (PHIU)
                 (PIU) (PIU) (?B) (?B) (SGU) (PHIG) (PHIG) (SGG)
                 (PHIG) (PHIG) (DLTG) (DLTG) (PIG) (PIG) (DLTU)
                 (DLTU) (SGU) (PIU) (PIU) (DLTU) (DLTU) (SGU) (PIG)
                 (PIG) (DLTG) (DLTG) (PHIU) (PHIU) (DLTG) (DLTG)
                 (PIU) (PIU) (DLTU) (DLTU) (PHIG) (PHIG) (SGG)
                 (SGU) (PIU) (PIU) (PIG) (PIG) (SGG) (DLTU) (DLTU)
                 (?C) (?C) (SGU) (?A) (?A) (?E) (?E) (?F) (?F)
                 (SGG) (PHIU) (PHIU) (PIU) (PIU) (PIG) (PIG) (?D)
                 (?D) (DLTG) (DLTG) (SGU) (SGG) (PIU) (PIU) (?B)
                 (?B) (?A) (?A) (?C) (?C) (PIG) (PIG) (?D) (?D)
                 (PHIU) (PHIU) (?B) (?B) (?A) (?A) (PHIU) (PHIU)
                 (PHIG) (PHIG) (PIG) (PIG) (?B) (?B) (SGG) (DLTU)
                 (DLTU) (SGU) (DLTG) (DLTG) (PHIG) (PHIG) (SGG)
                 (PIU) (PIU) (DLTG) (DLTG) (DLTU) (DLTU) (PHIG)
                 (PHIG) (SGU) (PIG) (PIG) (SGG) (PIU) (PIU) (SGU)
                 (DLTU) (DLTU) (SGU) (PIG) (PIG) (PHIU) (PHIU)
                 (DLTG) (DLTG) (PHIG) (PHIG) (DLTG) (DLTG) (DLTU)
                 (DLTU) (SGG) (PIU) (PIU) (?A) (?A) (SGU) (?C)
                 (?C) (PIU) (PIU) (DLTU) (DLTU) (PIG) (PIG) (PHIU)
                 (PHIU) (?E) (?E) (?G) (?G) (?H) (?H) (?F) (?F)
                 (?D) (?D) (DLTG) (DLTG) (SGG) (PIG) (PIG) (PIU)
                 (PIU) (?B) (?B) (SGU) (SGG) (PIU) (PIU) (SGG)
                 (PIG) (PIG) (SGU) (PHIG) (PHIG) (?A) (?A) (DLTU)
                 (DLTU) (PHIU) (PHIU) (?B) (?B) (SGG) (DLTG) (DLTG)
                 (PIU) (PIU) (SGU) (?C) (?C) (PHIG) (PHIG) (?E)
                 (?E) (?A) (?A) (?C) (?C) (?F) (?F) (PIG) (PIG)
                 (?A) (?A) (?D) (?D) (PHIU) (PHIU) (?D) (?D) (?B)
                 (?B) (SGG) (PHIU) (PHIU) (?B) (?B) (DLTU) (DLTU)
                 (DLTG) (DLTG) (PHIG) (PHIG) (PIG) (PIG) (SGU)
                 (PIU) (PIU) (SGG) (DLTU) (DLTU) (PIG) (PIG) (PHIG)
                 (PHIG) (DLTG) (DLTG) (SGU) (SGU) (PIU) (PIU) (SGU)
                 (DLTU) (DLTU) (PIG) (PIG) (SGG) (PHIU) (PHIU)
                 (PHIG) (PHIG) (DLTG) (DLTG) (DLTU) (DLTU) (SGG)
                 (PIU) (PIU) (PIG) (PIG) (SGU) (DLTG) (DLTG) (DLTU)
                 (DLTU) (PIU) (PIU) (PIG) (PIG) (SGG) (SGU) (PIU)
                 (PIU) (PIG) (PIG) (SGU) (SGG) (SGG) (SGU) (SGG)
                 (SGU)
 The electronic state is 1-SGG.
 Alpha  occ. eigenvalues -- -432.59880-432.59880 -56.32227 -56.32227 -50.16688
 Alpha  occ. eigenvalues --  -50.16688 -50.16688 -50.16688 -50.16569 -50.16569
 Alpha  occ. eigenvalues --   -8.04290  -8.04264  -5.89570  -5.89570  -5.89552
 Alpha  occ. eigenvalues --   -5.89552  -5.89340  -5.89199  -2.13218  -2.13003
 Alpha  occ. eigenvalues --   -2.13003  -2.12901  -2.12901  -2.12808  -2.12808
 Alpha  occ. eigenvalues --   -2.12221  -2.12221  -2.11759  -0.86045  -0.60907
 Alpha  occ. eigenvalues --   -0.38012  -0.34176  -0.34176
 Alpha virt. eigenvalues --    0.00148   0.00148   0.04252   0.05870   0.06546
 Alpha virt. eigenvalues --    0.06546   0.08196   0.09419   0.09419   0.14426
 Alpha virt. eigenvalues --    0.17949   0.20963   0.20963   0.25871   0.25871
 Alpha virt. eigenvalues --    0.26474   0.31285   0.31335   0.31335   0.31487
 Alpha virt. eigenvalues --    0.31487   0.34222   0.34222   0.35018   0.40774
 Alpha virt. eigenvalues --    0.42837   0.42837   0.43663   0.59695   0.59695
 Alpha virt. eigenvalues --    0.59798   0.59798   0.61356   0.62621   0.62621
 Alpha virt. eigenvalues --    0.67105   0.69801   0.69801   0.71690   0.71690
 Alpha virt. eigenvalues --    0.74902   0.74902   0.81904   0.81904   0.84141
 Alpha virt. eigenvalues --    0.84141   0.85515   0.88098   0.88895   0.88895
 Alpha virt. eigenvalues --    0.89642   0.89642   0.90245   0.91206   0.91206
 Alpha virt. eigenvalues --    0.92603   1.07555   1.07555   1.07981   1.08865
 Alpha virt. eigenvalues --    1.08865   1.12465   1.12465   1.19999   1.21761
 Alpha virt. eigenvalues --    1.21761   1.28323   1.28323   1.30270   1.30270
 Alpha virt. eigenvalues --    1.36167   1.41435   1.41435   1.50170   1.50170
 Alpha virt. eigenvalues --    1.53341   1.53341   1.57833   1.57833   1.58042
 Alpha virt. eigenvalues --    1.58042   1.61528   1.61528   1.63497   1.65891
 Alpha virt. eigenvalues --    1.66926   1.66926   1.68299   1.68299   1.70845
 Alpha virt. eigenvalues --    1.70845   1.74821   1.74821   1.74991   1.77782
 Alpha virt. eigenvalues --    1.77782   1.79602   1.79602   1.79742   1.93608
 Alpha virt. eigenvalues --    1.93829   1.93829   1.97158   1.97158   1.98010
 Alpha virt. eigenvalues --    1.98010   2.01456   2.01456   2.02104   2.13025
 Alpha virt. eigenvalues --    2.13025   2.15203   2.15203   2.16886   2.31730
 Alpha virt. eigenvalues --    2.31730   2.34797   2.34797   2.41039   2.41039
 Alpha virt. eigenvalues --    2.47142   2.48429   2.48429   2.50074   2.50074
 Alpha virt. eigenvalues --    2.51495   2.51495   2.57107   2.57107   2.66101
 Alpha virt. eigenvalues --    2.70048   2.70048   2.72431   2.73106   2.73106
 Alpha virt. eigenvalues --    2.73859   2.73859   2.75348   2.75348   2.82455
 Alpha virt. eigenvalues --    2.82455   2.93738   2.93968   2.93968   2.96526
 Alpha virt. eigenvalues --    2.96526   3.01618   3.06542   3.06542   3.18808
 Alpha virt. eigenvalues --    3.18808   3.20809   3.20809   3.24288   3.24288
 Alpha virt. eigenvalues --    3.24685   3.24685   3.28052   3.28052   3.28736
 Alpha virt. eigenvalues --    3.28736   3.35931   3.55961   3.58409   3.58409
 Alpha virt. eigenvalues --    3.64007   3.64007   3.65387   3.73333   3.73333
 Alpha virt. eigenvalues --    3.74042   3.74042   3.75000   3.75060   3.75060
 Alpha virt. eigenvalues --    3.85460   3.85460   3.91264   3.91264   3.92493
 Alpha virt. eigenvalues --    3.99240   3.99240   4.02812   4.02812   4.06146
 Alpha virt. eigenvalues --    4.06146   4.08393   4.08393   4.20137   4.20137
 Alpha virt. eigenvalues --    4.21777   4.32125   4.37404   4.37404   4.46621
 Alpha virt. eigenvalues --    4.46621   4.46991   4.46991   4.48665   4.48665
 Alpha virt. eigenvalues --    4.53590   4.53590   4.54789   4.54789   4.63684
 Alpha virt. eigenvalues --    4.63684   4.69464   4.69464   4.75356   4.75356
 Alpha virt. eigenvalues --    4.78627   4.78627   4.78903   4.78903   4.79315
 Alpha virt. eigenvalues --    4.79315   4.83354   4.83354   4.83859   4.89536
 Alpha virt. eigenvalues --    4.89536   4.93471   4.98793   4.98793   5.00241
 Alpha virt. eigenvalues --    5.00241   5.07005   5.09999   5.09999   5.11204
 Alpha virt. eigenvalues --    5.11204   5.13424   5.13424   5.22103   5.22103
 Alpha virt. eigenvalues --    5.22601   5.33089   5.33089   5.35543   5.39874
 Alpha virt. eigenvalues --    5.39874   5.79007   5.95945   5.95945   6.10657
 Alpha virt. eigenvalues --    6.18841   6.18841   6.32616   6.32616   6.37631
 Alpha virt. eigenvalues --    6.37631   6.40694   6.40694   6.57092   6.57092
 Alpha virt. eigenvalues --    6.61290   6.61290   6.63586   6.64944   6.64944
 Alpha virt. eigenvalues --    6.90292   6.90292   6.94589   6.97028   6.97028
 Alpha virt. eigenvalues --    6.99280   6.99280   7.01963   7.01963   7.08078
 Alpha virt. eigenvalues --    7.08078   7.10413   7.10413   7.11327   7.11327
 Alpha virt. eigenvalues --    7.15995   7.15995   7.17060   7.17060   7.23143
 Alpha virt. eigenvalues --    7.23143   7.45383   7.45383   7.46967   7.46967
 Alpha virt. eigenvalues --    7.51040   7.83066   7.83066   7.91162   7.91162
 Alpha virt. eigenvalues --    7.93800   7.93800   7.93965   8.06921   8.14860
 Alpha virt. eigenvalues --    8.14860   8.19132   8.30075   8.30075   8.31552
 Alpha virt. eigenvalues --    8.39518   8.39518   8.39903   8.39903   8.40658
 Alpha virt. eigenvalues --    8.40658   8.42881   8.42881   8.45132   8.45132
 Alpha virt. eigenvalues --    8.48022   8.49256   8.49256   8.54748   8.54748
 Alpha virt. eigenvalues --    8.56305   8.61382   8.61382   8.61423   8.61423
 Alpha virt. eigenvalues --    8.64866   8.64866   8.65643   8.65643   8.67284
 Alpha virt. eigenvalues --    8.67284   8.67827   8.67827   8.68759   8.68759
 Alpha virt. eigenvalues --    8.68766   8.68766   8.70276   8.70276   8.73328
 Alpha virt. eigenvalues --    8.73328   8.78962   8.78962   8.83111   8.83111
 Alpha virt. eigenvalues --    8.92187   9.01898   9.01898   9.05180   9.05180
 Alpha virt. eigenvalues --    9.05299   9.05299   9.12952   9.12952   9.30528
 Alpha virt. eigenvalues --    9.30528   9.31435   9.31435   9.34246   9.35330
 Alpha virt. eigenvalues --    9.35330   9.47389   9.50976   9.50976   9.56027
 Alpha virt. eigenvalues --    9.56027   9.56434   9.56434   9.68608   9.68608
 Alpha virt. eigenvalues --    9.93058  10.49722  10.56190  10.56190  10.73526
 Alpha virt. eigenvalues --   10.83592  10.83592  11.07209  11.07209  11.39826
 Alpha virt. eigenvalues --   11.68697  11.68697  11.75173  11.75173  11.80176
 Alpha virt. eigenvalues --   11.80176  12.14017  12.14017  12.34433  12.42537
 Alpha virt. eigenvalues --   12.42537  13.25907  13.25907  13.32348  13.81084
 Alpha virt. eigenvalues --   13.81084  13.96837  13.96837  14.48572  14.48572
 Alpha virt. eigenvalues --   14.99089  14.99089  15.56702  16.37315  18.17508
 Alpha virt. eigenvalues --   18.17508  18.44130  18.44130  18.78174  18.79018
 Alpha virt. eigenvalues --   20.87051  21.91378 452.88576 462.38192
          Condensed to atoms (all electrons):
              1          2
     1  As  32.252797   0.747203
     2  As   0.747203  32.252797
 Mulliken atomic charges:
              1
     1  As   0.000000
     2  As   0.000000
 Sum of Mulliken atomic charges =   0.00000
 Mulliken charges with hydrogens summed into heavy atoms:
              1
     1  As   0.000000
     2  As   0.000000
 Sum of Mulliken charges with hydrogens summed into heavy atoms =   0.00000
          Atomic-Atomic Spin Densities.
              1          2
     1  As   0.000000   0.000000
     2  As   0.000000   0.000000
 Mulliken atomic spin densities:
              1
     1  As   0.000000
     2  As   0.000000
 Sum of Mulliken atomic spin densities =   0.00000
 Electronic spatial extent (au):  <R**2>=            340.9726
 Charge=              0.0000 electrons
 Dipole moment (field-independent basis, Debye):
    X=              0.0000    Y=              0.0000    Z=              0.0000  Tot=              0.0000
 Quadrupole moment (field-independent basis, Debye-Ang):
   XX=            -36.7169   YY=            -36.7169   ZZ=            -34.8148
   XY=              0.0000   XZ=              0.0000   YZ=              0.0000
 Traceless Quadrupole moment (field-independent basis, Debye-Ang):
   XX=             -0.6340   YY=             -0.6340   ZZ=              1.2681
   XY=              0.0000   XZ=              0.0000   YZ=              0.0000
 Octapole moment (field-independent basis, Debye-Ang**2):
  XXX=              0.0000  YYY=              0.0000  ZZZ=              0.0000  XYY=              0.0000
  XXY=              0.0000  XXZ=              0.0000  XZZ=              0.0000  YZZ=              0.0000
  YYZ=              0.0000  XYZ=              0.0000
 Hexadecapole moment (field-independent basis, Debye-Ang**3):
 XXXX=            -58.6364 YYYY=            -58.6364 ZZZZ=           -294.2414 XXXY=              0.0000
 XXXZ=              0.0000 YYYX=              0.0000 YYYZ=              0.0000 ZZZX=              0.0000
 ZZZY=              0.0000 XXYY=            -19.5455 XXZZ=            -55.6040 YYZZ=            -55.6040
 XXYZ=              0.0000 YYXZ=              0.0000 ZZXY=              0.0000
 N-N= 2.740768477858D+02 E-N=-1.686802242762D+04  KE= 6.702582671265D+03
                          Isotropic Fermi Contact Couplings
        Atom                 a.u.       MegaHertz       Gauss      10(-4) cm-1
     1  As(75)             0.00000       0.00000       0.00000       0.00000
     2  As(75)             0.00000       0.00000       0.00000       0.00000
 --------------------------------------------------------
       Center         ----  Spin Dipole Couplings  ----
                      3XX-RR        3YY-RR        3ZZ-RR
 --------------------------------------------------------
     1   Atom        0.000000      0.000000      0.000000
     2   Atom        0.000000      0.000000      0.000000
 --------------------------------------------------------
                        XY            XZ            YZ
 --------------------------------------------------------
     1   Atom        0.000000      0.000000      0.000000
     2   Atom        0.000000      0.000000      0.000000
 --------------------------------------------------------


 ---------------------------------------------------------------------------------
              Anisotropic Spin Dipole Couplings in Principal Axis System
 ---------------------------------------------------------------------------------

       Atom             a.u.   MegaHertz   Gauss  10(-4) cm-1        Axes

              Baa     0.0000     0.000     0.000     0.000  1.0000  0.0000  0.0000
     1 As(75) Bbb     0.0000     0.000     0.000     0.000  0.0000  1.0000  0.0000
              Bcc     0.0000     0.000     0.000     0.000  0.0000  0.0000  1.0000
 
              Baa     0.0000     0.000     0.000     0.000  1.0000  0.0000  0.0000
     2 As(75) Bbb     0.0000     0.000     0.000     0.000  0.0000  1.0000  0.0000
              Bcc     0.0000     0.000     0.000     0.000  0.0000  0.0000  1.0000
 

 ---------------------------------------------------------------------------------


 Test job not archived.
 1\1\GINC-C31\SP\ROMP2-RW\Gen\As2\GPETERSSON\21-Aug-2012\0\\# ROMP2(RW)
  Gen GFinput Int=NoBasisTransform Int(Grid=Ultrafine) IOp(3/32=2,5/6=1
 0,8/11=1,9/33=1) Maxdisk=128GB CBSextrapolate(Nmin=25,MinPop)\\As2\\0,
 1\As\As,1,2.1026\\Version=EM64L-G09RevA.02\State=1-SGG\HF=-4468.499058
 1\MP2=-4468.7884344\E2(CBS)=-0.2957101\CBS-Int=-0.2921388\OIii=1.32576
 13\RMSD=4.899e-12\PG=D*H [C*(As1.As1)]\\@


 ABOVE ALL I AM AN OPTIMIST FOR NUMBER THEORY,
 AND I HOLD THE HOPE THAT WE MAY NOT BE FAR FROM
 A TIME WHEN IRREFUTABLE ARITHMETIC WILL CELEBRATE
 ITS TRIUMPHS IN PHYSICS AND CHEMISTRY.
   -- HERMANN MINKOWSKI, 1905
 Job cpu time:  2 days  2 hours 45 minutes 10.6 seconds.
 File lengths (MBytes):  RWF=   5115 Int=      0 D2E=      0 Chk=     16 Scr=      1
 Normal termination of Gaussian 09 at Tue Aug 21 17:03:10 2012.
