 Entering Gaussian System, Link 0=gdv
 AtFile(1): 7ZaPa-NR.gbs
 Initial command:
 /share/apps/gaussian/gdvh12/gdv/l1.exe /localscratch/935831/Gau-25935.inp -scrdir=/localscratch/935831/
 Entering Link 1 = /share/apps/gaussian/gdvh12/gdv/l1.exe PID=     25936.
  
 Copyright (c) 1988,1990,1992,1993,1995,1998,2003,2009,2011,
            Gaussian, Inc.  All Rights Reserved.
  
 This is the private, development version of
 the Gaussian(R) DV system of programs. It is based on
 the Gaussian(R) 09 system (copyright 2009, Gaussian, Inc.),
 the Gaussian(R) 03 system (copyright 2003, Gaussian, Inc.),
 the Gaussian(R) 98 system (copyright 1998, Gaussian, Inc.),
 the Gaussian(R) 94 system (copyright 1995, Gaussian, Inc.),
 the Gaussian 92(TM) system (copyright 1992, Gaussian, Inc.),
 the Gaussian 90(TM) system (copyright 1990, Gaussian, Inc.),
 the Gaussian 88(TM) system (copyright 1988, Gaussian, Inc.),
 the Gaussian 86(TM) system (copyright 1986, Carnegie Mellon
 University), and the Gaussian 82(TM) system (copyright 1983,
 Carnegie Mellon University). Gaussian is a federally registered
 trademark of Gaussian, Inc.
  
 This software contains proprietary and confidential information,
 including trade secrets, belonging to Gaussian, Inc.
  
 This software is provided under written license and may be
 used, copied, transmitted, or stored only in accord with that
 written license.
  
 The following legend is applicable only to US Government
 contracts under FAR:
  
                    RESTRICTED RIGHTS LEGEND
  
 Use, reproduction and disclosure by the US Government is
 subject to restrictions as set forth in subparagraphs (a)
 and (c) of the Commercial Computer Software - Restricted
 Rights clause in FAR 52.227-19.
  
 Gaussian, Inc.
 340 Quinnipiac St., Bldg. 40, Wallingford CT 06492
  
  
 ---------------------------------------------------------------
 Warning -- This program may not be used in any manner that
 competes with the business of Gaussian, Inc. or will provide
 assistance to any competitor of Gaussian, Inc.  The licensee
 of this program is prohibited from giving any competitor of
 Gaussian, Inc. access to this program.  By using this program,
 the user acknowledges that Gaussian, Inc. is engaged in the
 business of creating and licensing software in the field of
 computational chemistry and represents and warrants to the
 licensee that it is not a competitor of Gaussian, Inc. and that
 it will not use this program in any manner prohibited above.
 ---------------------------------------------------------------
  

 Cite this work as:
 Gaussian Development Version, Revision H.12,
 M. J. Frisch, G. W. Trucks, H. B. Schlegel, G. E. Scuseria, 
 M. A. Robb, J. R. Cheeseman, G. Scalmani, V. Barone, B. Mennucci, 
 G. A. Petersson, H. Nakatsuji, M. Caricato, X. Li, H. P. Hratchian, 
 A. F. Izmaylov, J. Bloino, G. Zheng, J. L. Sonnenberg, M. Hada, 
 M. Ehara, K. Toyota, R. Fukuda, J. Hasegawa, M. Ishida, T. Nakajima, 
 Y. Honda, O. Kitao, H. Nakai, T. Vreven, J. A. Montgomery, Jr., 
 J. E. Peralta, F. Ogliaro, M. Bearpark, J. J. Heyd, E. Brothers, 
 K. N. Kudin, V. N. Staroverov, T. Keith, R. Kobayashi, J. Normand, 
 K. Raghavachari, A. Rendell, J. C. Burant, S. S. Iyengar, J. Tomasi, 
 M. Cossi, N. Rega, J. M. Millam, M. Klene, J. E. Knox, J. B. Cross, 
 V. Bakken, C. Adamo, J. Jaramillo, R. Gomperts, R. E. Stratmann, 
 O. Yazyev, A. J. Austin, R. Cammi, C. Pomelli, J. W. Ochterski, 
 R. L. Martin, K. Morokuma, V. G. Zakrzewski, G. A. Voth, 
 P. Salvador, J. J. Dannenberg, S. Dapprich, P. V. Parandekar, 
 N. J. Mayhall, A. D. Daniels, O. Farkas, J. B. Foresman, 
 J. V. Ortiz, J. Cioslowski, and D. J. Fox, 
 Gaussian, Inc., Wallingford CT, 2010.
 
 ******************************************
 Gaussian DV:  EM64L-GDVRevH.12  9-Jun-2011
                 3-Jun-2013 
 ******************************************
 % Mem=6GB
 % Nproc=8
 Will use up to    8 processors via shared memory.
 ----------------------------------------------------------------------
 # ROMP2(RW) Gen GFinput Int=NoBasisTransform Int(Grid=Ultrafine) IOp(3
 /32=2,5/6=10,8/11=1,9/33=1) Maxdisk=128GB CBSextrapolate(Nmin=25,MinPo
 p)
 ----------------------------------------------------------------------
 1/38=1/1;
 2/12=2,17=6,18=5,40=1/2;
 3/5=7,11=2,16=1,24=10,25=1,30=1,32=2,60=-1,75=-5,116=101/1,2,3;
 4//1;
 5/5=2,6=10,38=5/2;
 8/5=-1,10=91,11=1/1;
 9/16=-3,33=1,75=2,81=25,83=4/6,4;
 6/7=2,8=2,9=2,10=2/1;
 99/5=1,9=1/99;
 ---
 As2
 ---
 Charge =  0 Multiplicity = 1
 Symbolic Z-Matrix:
 As
 As                   1     2.1026 
 
                          Input orientation:                          
 ---------------------------------------------------------------------
 Center     Atomic      Atomic             Coordinates (Angstroms)
 Number     Number       Type             X           Y           Z
 ---------------------------------------------------------------------
      1         33           0        0.000000    0.000000    0.000000
      2         33           0        0.000000    0.000000    2.102600
 ---------------------------------------------------------------------
 Stoichiometry    As2
 Framework group  D*H[C*(As.As)]
 Deg. of freedom     1
 Full point group                 D*H     NOp   8
 Largest Abelian subgroup         D2H     NOp   8
 Largest concise Abelian subgroup C2      NOp   2
                         Standard orientation:                         
 ---------------------------------------------------------------------
 Center     Atomic      Atomic             Coordinates (Angstroms)
 Number     Number       Type             X           Y           Z
 ---------------------------------------------------------------------
      1         33           0        0.000000    0.000000    1.051300
      2         33           0        0.000000    0.000000   -1.051300
 ---------------------------------------------------------------------
 Rotational constants (GHZ):      0.0000000      3.0515947      3.0515947
 General basis read from cards:  (5D, 7F)
 AO basis set in the form of general basis input (Overlap normalization):
      1 0
 S  19 1.00       0.000000000000
      0.8650451530D+08  0.3300655124D-06
      0.1628168380D+08  0.2044443866D-05
      0.3747703670D+07  0.1154070357D-04
      0.1021359720D+07  0.5186212928D-04
      0.3203359010D+06  0.1980363441D-03
      0.1128004270D+06  0.6592990918D-03
      0.4365492760D+05  0.1967820252D-02
      0.1823316230D+05  0.5373513002D-02
      0.8093021230D+04  0.1361405918D-01
      0.3768715480D+04  0.3218167547D-01
      0.1821795630D+04  0.7046321339D-01
      0.9062961930D+03  0.1393760946D+00
      0.4607567010D+03  0.2356460856D+00
      0.2380523900D+03  0.3052203077D+00
      0.1244279870D+03  0.2463339057D+00
      0.6555498500D+02  0.8883839465D-01
      0.3470247800D+02  0.8436057777D-02
      0.1840391500D+02  0.8969998273D-03
      0.9749020000D+01 -0.1634633792D-04
 S  15 1.00       0.000000000000
      0.1823316230D+05 -0.1075407502D-04
      0.8093021230D+04 -0.5163809444D-04
      0.3768715480D+04 -0.3116450839D-03
      0.1821795630D+04 -0.1392899174D-02
      0.9062961930D+03 -0.5826934199D-02
      0.4607567010D+03 -0.2005173173D-01
      0.2380523900D+03 -0.5519948761D-01
      0.1244279870D+03 -0.8931625917D-01
      0.6555498500D+02 -0.7681709220D-02
      0.3470247800D+02  0.2994520646D+00
      0.1840391500D+02  0.5139876625D+00
      0.9749020000D+01  0.2694413671D+00
      0.5141291000D+01  0.3732476805D-01
      0.2688638000D+01  0.2126411459D-02
      0.1387503000D+01 -0.4374603707D-03
 P  17 1.00       0.000000000000
      0.1270486630D+06  0.2908665223D-05
      0.3383589630D+05  0.2308522329D-04
      0.1079826630D+05  0.1487140281D-03
      0.3990275130D+04  0.7333736933D-03
      0.1657360270D+04  0.2944593625D-02
      0.7542497550D+03  0.9896016561D-02
      0.3680268710D+03  0.2845947159D-01
      0.1890566260D+03  0.7062396426D-01
      0.1007096710D+03  0.1477086082D+00
      0.5494271700D+02  0.2487758530D+00
      0.3038872200D+02  0.3147722141D+00
      0.1690166700D+02  0.2489544237D+00
      0.9390696000D+01  0.9772138151D-01
      0.5184120000D+01  0.1548410760D-01
      0.2830598000D+01  0.1350578766D-02
      0.1522368000D+01  0.2302604066D-03
      0.8032380000D+00  0.1566076893D-04
 S  11 1.00       0.000000000000
      0.2380523900D+03  0.6267477406D-03
      0.1244279870D+03  0.2438415568D-02
      0.6555498500D+02  0.2123420768D-02
      0.3470247800D+02 -0.3360031026D-01
      0.1840391500D+02 -0.1702762447D+00
      0.9749020000D+01 -0.1407439079D+00
      0.5141291000D+01  0.2662757245D+00
      0.2688638000D+01  0.5844492732D+00
      0.1387503000D+01  0.3405739287D+00
      0.7023420000D+00  0.3721768841D-01
      0.3461010000D+00  0.1820752711D-02
 P  14 1.00       0.000000000000
      0.7542497550D+03 -0.3479424059D-04
      0.3680268710D+03 -0.2215335236D-03
      0.1890566260D+03 -0.1180225478D-02
      0.1007096710D+03 -0.4452205246D-02
      0.5494271700D+02 -0.1178521590D-01
      0.3038872200D+02 -0.2198598209D-01
      0.1690166700D+02  0.2208057327D-02
      0.9390696000D+01  0.1327932072D+00
      0.5184120000D+01  0.3112525746D+00
      0.2830598000D+01  0.3783531746D+00
      0.1522368000D+01  0.2368181203D+00
      0.8032380000D+00  0.5628763891D-01
      0.4139680000D+00  0.4181683333D-02
      0.2073520000D+00  0.4945473986D-03
 D  16 1.00       0.000000000000
      0.3935057380D+04  0.6658747933D-05
      0.1231408950D+04  0.6620479445D-04
      0.4868924300D+03  0.4088972204D-03
      0.2242100730D+03  0.1802995078D-02
      0.1133345490D+03  0.6440508421D-02
      0.6039109000D+02  0.1912265063D-01
      0.3307289700D+02  0.4806286143D-01
      0.1835928800D+02  0.1043746713D+00
      0.1027002900D+02  0.1818481736D+00
      0.5780470000D+01  0.2434629020D+00
      0.3271235000D+01  0.2609256884D+00
      0.1854725000D+01  0.2262380742D+00
      0.1043163000D+01  0.1466007219D+00
      0.5705330000D+00  0.6184849393D-01
      0.2934450000D+00  0.1265731408D-01
      0.1349280000D+00  0.9703401441D-03
 S  10 1.00       0.000000000000
      0.3470247800D+02  0.1511943432D-03
      0.1840391500D+02  0.2606893701D-02
      0.9749020000D+01  0.2382588455D-02
      0.5141291000D+01 -0.1010241098D-01
      0.2688638000D+01 -0.6873666774D-01
      0.1387503000D+01 -0.1896156945D+00
      0.7023420000D+00  0.2529798556D-01
      0.3461010000D+00  0.4476449179D+00
      0.1644960000D+00  0.5350838366D+00
      0.7455300000D-01  0.1637862519D+00
 S   1 1.00       0.000000000000
      0.3584180297D-01  0.1000000000D+01
 P  11 1.00       0.000000000000
      0.3038872200D+02  0.9689603129D-04
      0.1690166700D+02 -0.3491934347D-03
      0.9390696000D+01 -0.2763946553D-02
      0.5184120000D+01 -0.7042864955D-02
      0.2830598000D+01 -0.1609648048D-01
      0.1522368000D+01 -0.2477584807D-01
      0.8032380000D+00  0.6264801904D-01
      0.4139680000D+00  0.2634837480D+00
      0.2073520000D+00  0.4127647139D+00
      0.1003300000D+00  0.3233714430D+00
      0.4654600000D-01  0.7992207825D-01
 P   1 1.00       0.000000000000
      0.2662990033D-01  0.1000000000D+01
 S   1 1.00       0.000000000000
      0.4130607000D+01  0.1000000000D+01
 S   1 1.00       0.000000000000
      0.2248043000D+01  0.1000000000D+01
 S   1 1.00       0.000000000000
      0.1223476000D+01  0.1000000000D+01
 S   1 1.00       0.000000000000
      0.6658650000D+00  0.1000000000D+01
 S   1 1.00       0.000000000000
      0.3623910000D+00  0.1000000000D+01
 S   1 1.00       0.000000000000
      0.1972280000D+00  0.1000000000D+01
 P   1 1.00       0.000000000000
      0.2061443000D+01  0.1000000000D+01
 P   1 1.00       0.000000000000
      0.1240995000D+01  0.1000000000D+01
 P   1 1.00       0.000000000000
      0.7470830000D+00  0.1000000000D+01
 P   1 1.00       0.000000000000
      0.4497470000D+00  0.1000000000D+01
 P   1 1.00       0.000000000000
      0.2707490000D+00  0.1000000000D+01
 P   1 1.00       0.000000000000
      0.1629920000D+00  0.1000000000D+01
 D   1 1.00       0.000000000000
      0.2172717000D+01  0.1000000000D+01
 D   1 1.00       0.000000000000
      0.1200925000D+01  0.1000000000D+01
 D   1 1.00       0.000000000000
      0.6637870000D+00  0.1000000000D+01
 D   1 1.00       0.000000000000
      0.3668950000D+00  0.1000000000D+01
 D   1 1.00       0.000000000000
      0.2027940000D+00  0.1000000000D+01
 D   1 1.00       0.000000000000
      0.1120900000D+00  0.1000000000D+01
 D   1 1.00       0.000000000000
      0.6195500000D-01  0.1000000000D+01
 F   1 1.00       0.000000000000
      0.2434959000D+01  0.1000000000D+01
 F   1 1.00       0.000000000000
      0.1305072000D+01  0.1000000000D+01
 F   1 1.00       0.000000000000
      0.6994830000D+00  0.1000000000D+01
 F   1 1.00       0.000000000000
      0.3749040000D+00  0.1000000000D+01
 F   1 1.00       0.000000000000
      0.2009380000D+00  0.1000000000D+01
 F   1 1.00       0.000000000000
      0.1076970000D+00  0.1000000000D+01
 G   1 1.00       0.000000000000
      0.1148666000D+01  0.1000000000D+01
 G   1 1.00       0.000000000000
      0.7139930000D+00  0.1000000000D+01
 G   1 1.00       0.000000000000
      0.4438070000D+00  0.1000000000D+01
 G   1 1.00       0.000000000000
      0.2758630000D+00  0.1000000000D+01
 G   1 1.00       0.000000000000
      0.1714710000D+00  0.1000000000D+01
 H   1 1.00       0.000000000000
      0.1101614000D+01  0.1000000000D+01
 H   1 1.00       0.000000000000
      0.6542220000D+00  0.1000000000D+01
 H   1 1.00       0.000000000000
      0.3885260000D+00  0.1000000000D+01
 H   1 1.00       0.000000000000
      0.2307358000D+00  0.1000000000D+01
 I   1 1.00       0.000000000000
      0.1063087000D+01  0.1000000000D+01
 I   1 1.00       0.000000000000
      0.5892140000D+00  0.1000000000D+01
 I   1 1.00       0.000000000000
      0.3265700000D+00  0.1000000000D+01
 J   1 1.00       0.000000000000
      0.8915241263D+00  0.1000000000D+01
 ****
      2 0
 S  19 1.00       0.000000000000
      0.8650451530D+08  0.3300655124D-06
      0.1628168380D+08  0.2044443866D-05
      0.3747703670D+07  0.1154070357D-04
      0.1021359720D+07  0.5186212928D-04
      0.3203359010D+06  0.1980363441D-03
      0.1128004270D+06  0.6592990918D-03
      0.4365492760D+05  0.1967820252D-02
      0.1823316230D+05  0.5373513002D-02
      0.8093021230D+04  0.1361405918D-01
      0.3768715480D+04  0.3218167547D-01
      0.1821795630D+04  0.7046321339D-01
      0.9062961930D+03  0.1393760946D+00
      0.4607567010D+03  0.2356460856D+00
      0.2380523900D+03  0.3052203077D+00
      0.1244279870D+03  0.2463339057D+00
      0.6555498500D+02  0.8883839465D-01
      0.3470247800D+02  0.8436057777D-02
      0.1840391500D+02  0.8969998273D-03
      0.9749020000D+01 -0.1634633792D-04
 S  15 1.00       0.000000000000
      0.1823316230D+05 -0.1075407502D-04
      0.8093021230D+04 -0.5163809444D-04
      0.3768715480D+04 -0.3116450839D-03
      0.1821795630D+04 -0.1392899174D-02
      0.9062961930D+03 -0.5826934199D-02
      0.4607567010D+03 -0.2005173173D-01
      0.2380523900D+03 -0.5519948761D-01
      0.1244279870D+03 -0.8931625917D-01
      0.6555498500D+02 -0.7681709220D-02
      0.3470247800D+02  0.2994520646D+00
      0.1840391500D+02  0.5139876625D+00
      0.9749020000D+01  0.2694413671D+00
      0.5141291000D+01  0.3732476805D-01
      0.2688638000D+01  0.2126411459D-02
      0.1387503000D+01 -0.4374603707D-03
 P  17 1.00       0.000000000000
      0.1270486630D+06  0.2908665223D-05
      0.3383589630D+05  0.2308522329D-04
      0.1079826630D+05  0.1487140281D-03
      0.3990275130D+04  0.7333736933D-03
      0.1657360270D+04  0.2944593625D-02
      0.7542497550D+03  0.9896016561D-02
      0.3680268710D+03  0.2845947159D-01
      0.1890566260D+03  0.7062396426D-01
      0.1007096710D+03  0.1477086082D+00
      0.5494271700D+02  0.2487758530D+00
      0.3038872200D+02  0.3147722141D+00
      0.1690166700D+02  0.2489544237D+00
      0.9390696000D+01  0.9772138151D-01
      0.5184120000D+01  0.1548410760D-01
      0.2830598000D+01  0.1350578766D-02
      0.1522368000D+01  0.2302604066D-03
      0.8032380000D+00  0.1566076893D-04
 S  11 1.00       0.000000000000
      0.2380523900D+03  0.6267477406D-03
      0.1244279870D+03  0.2438415568D-02
      0.6555498500D+02  0.2123420768D-02
      0.3470247800D+02 -0.3360031026D-01
      0.1840391500D+02 -0.1702762447D+00
      0.9749020000D+01 -0.1407439079D+00
      0.5141291000D+01  0.2662757245D+00
      0.2688638000D+01  0.5844492732D+00
      0.1387503000D+01  0.3405739287D+00
      0.7023420000D+00  0.3721768841D-01
      0.3461010000D+00  0.1820752711D-02
 P  14 1.00       0.000000000000
      0.7542497550D+03 -0.3479424059D-04
      0.3680268710D+03 -0.2215335236D-03
      0.1890566260D+03 -0.1180225478D-02
      0.1007096710D+03 -0.4452205246D-02
      0.5494271700D+02 -0.1178521590D-01
      0.3038872200D+02 -0.2198598209D-01
      0.1690166700D+02  0.2208057327D-02
      0.9390696000D+01  0.1327932072D+00
      0.5184120000D+01  0.3112525746D+00
      0.2830598000D+01  0.3783531746D+00
      0.1522368000D+01  0.2368181203D+00
      0.8032380000D+00  0.5628763891D-01
      0.4139680000D+00  0.4181683333D-02
      0.2073520000D+00  0.4945473986D-03
 D  16 1.00       0.000000000000
      0.3935057380D+04  0.6658747933D-05
      0.1231408950D+04  0.6620479445D-04
      0.4868924300D+03  0.4088972204D-03
      0.2242100730D+03  0.1802995078D-02
      0.1133345490D+03  0.6440508421D-02
      0.6039109000D+02  0.1912265063D-01
      0.3307289700D+02  0.4806286143D-01
      0.1835928800D+02  0.1043746713D+00
      0.1027002900D+02  0.1818481736D+00
      0.5780470000D+01  0.2434629020D+00
      0.3271235000D+01  0.2609256884D+00
      0.1854725000D+01  0.2262380742D+00
      0.1043163000D+01  0.1466007219D+00
      0.5705330000D+00  0.6184849393D-01
      0.2934450000D+00  0.1265731408D-01
      0.1349280000D+00  0.9703401441D-03
 S  10 1.00       0.000000000000
      0.3470247800D+02  0.1511943432D-03
      0.1840391500D+02  0.2606893701D-02
      0.9749020000D+01  0.2382588455D-02
      0.5141291000D+01 -0.1010241098D-01
      0.2688638000D+01 -0.6873666774D-01
      0.1387503000D+01 -0.1896156945D+00
      0.7023420000D+00  0.2529798556D-01
      0.3461010000D+00  0.4476449179D+00
      0.1644960000D+00  0.5350838366D+00
      0.7455300000D-01  0.1637862519D+00
 S   1 1.00       0.000000000000
      0.3584180297D-01  0.1000000000D+01
 P  11 1.00       0.000000000000
      0.3038872200D+02  0.9689603129D-04
      0.1690166700D+02 -0.3491934347D-03
      0.9390696000D+01 -0.2763946553D-02
      0.5184120000D+01 -0.7042864955D-02
      0.2830598000D+01 -0.1609648048D-01
      0.1522368000D+01 -0.2477584807D-01
      0.8032380000D+00  0.6264801904D-01
      0.4139680000D+00  0.2634837480D+00
      0.2073520000D+00  0.4127647139D+00
      0.1003300000D+00  0.3233714430D+00
      0.4654600000D-01  0.7992207825D-01
 P   1 1.00       0.000000000000
      0.2662990033D-01  0.1000000000D+01
 S   1 1.00       0.000000000000
      0.4130607000D+01  0.1000000000D+01
 S   1 1.00       0.000000000000
      0.2248043000D+01  0.1000000000D+01
 S   1 1.00       0.000000000000
      0.1223476000D+01  0.1000000000D+01
 S   1 1.00       0.000000000000
      0.6658650000D+00  0.1000000000D+01
 S   1 1.00       0.000000000000
      0.3623910000D+00  0.1000000000D+01
 S   1 1.00       0.000000000000
      0.1972280000D+00  0.1000000000D+01
 P   1 1.00       0.000000000000
      0.2061443000D+01  0.1000000000D+01
 P   1 1.00       0.000000000000
      0.1240995000D+01  0.1000000000D+01
 P   1 1.00       0.000000000000
      0.7470830000D+00  0.1000000000D+01
 P   1 1.00       0.000000000000
      0.4497470000D+00  0.1000000000D+01
 P   1 1.00       0.000000000000
      0.2707490000D+00  0.1000000000D+01
 P   1 1.00       0.000000000000
      0.1629920000D+00  0.1000000000D+01
 D   1 1.00       0.000000000000
      0.2172717000D+01  0.1000000000D+01
 D   1 1.00       0.000000000000
      0.1200925000D+01  0.1000000000D+01
 D   1 1.00       0.000000000000
      0.6637870000D+00  0.1000000000D+01
 D   1 1.00       0.000000000000
      0.3668950000D+00  0.1000000000D+01
 D   1 1.00       0.000000000000
      0.2027940000D+00  0.1000000000D+01
 D   1 1.00       0.000000000000
      0.1120900000D+00  0.1000000000D+01
 D   1 1.00       0.000000000000
      0.6195500000D-01  0.1000000000D+01
 F   1 1.00       0.000000000000
      0.2434959000D+01  0.1000000000D+01
 F   1 1.00       0.000000000000
      0.1305072000D+01  0.1000000000D+01
 F   1 1.00       0.000000000000
      0.6994830000D+00  0.1000000000D+01
 F   1 1.00       0.000000000000
      0.3749040000D+00  0.1000000000D+01
 F   1 1.00       0.000000000000
      0.2009380000D+00  0.1000000000D+01
 F   1 1.00       0.000000000000
      0.1076970000D+00  0.1000000000D+01
 G   1 1.00       0.000000000000
      0.1148666000D+01  0.1000000000D+01
 G   1 1.00       0.000000000000
      0.7139930000D+00  0.1000000000D+01
 G   1 1.00       0.000000000000
      0.4438070000D+00  0.1000000000D+01
 G   1 1.00       0.000000000000
      0.2758630000D+00  0.1000000000D+01
 G   1 1.00       0.000000000000
      0.1714710000D+00  0.1000000000D+01
 H   1 1.00       0.000000000000
      0.1101614000D+01  0.1000000000D+01
 H   1 1.00       0.000000000000
      0.6542220000D+00  0.1000000000D+01
 H   1 1.00       0.000000000000
      0.3885260000D+00  0.1000000000D+01
 H   1 1.00       0.000000000000
      0.2307358000D+00  0.1000000000D+01
 I   1 1.00       0.000000000000
      0.1063087000D+01  0.1000000000D+01
 I   1 1.00       0.000000000000
      0.5892140000D+00  0.1000000000D+01
 I   1 1.00       0.000000000000
      0.3265700000D+00  0.1000000000D+01
 J   1 1.00       0.000000000000
      0.8915241263D+00  0.1000000000D+01
 ****

 There are   157 symmetry adapted cartesian basis functions of AG  symmetry.
 There are    65 symmetry adapted cartesian basis functions of B1G symmetry.
 There are   103 symmetry adapted cartesian basis functions of B2G symmetry.
 There are   103 symmetry adapted cartesian basis functions of B3G symmetry.
 There are    65 symmetry adapted cartesian basis functions of AU  symmetry.
 There are   157 symmetry adapted cartesian basis functions of B1U symmetry.
 There are   103 symmetry adapted cartesian basis functions of B2U symmetry.
 There are   103 symmetry adapted cartesian basis functions of B3U symmetry.
 There are    92 symmetry adapted basis functions of AG  symmetry.
 There are    44 symmetry adapted basis functions of B1G symmetry.
 There are    65 symmetry adapted basis functions of B2G symmetry.
 There are    65 symmetry adapted basis functions of B3G symmetry.
 There are    44 symmetry adapted basis functions of AU  symmetry.
 There are    92 symmetry adapted basis functions of B1U symmetry.
 There are    65 symmetry adapted basis functions of B2U symmetry.
 There are    65 symmetry adapted basis functions of B3U symmetry.
   532 basis functions,  1372 primitive gaussians,   856 cartesian basis functions
    33 alpha electrons       33 beta electrons
       nuclear repulsion energy       274.0768477858 Hartrees.
 NAtoms=    2 NActive=    2 NUniq=    1 SFac= 4.00D+00 NAtFMM=   60 NAOKFM=F Big=F
 Integral buffers will be    131072 words long.
 Raffenetti 2 integral format.
 Two-electron integral symmetry is turned on.
 One-electron integrals computed using PRISM.
 PrsmSu:  requested number of processors reduced to:   1 ShMem   1 Linda.
 NBasis=   532 RedAO= F EigKep=  0.00D+00  NBF=    92    44    65    65    44    92    65    65
 NBsUse=   532 1.00D-04 EigRej=  0.00D+00 NBFU=    92    44    65    65    44    92    65    65
 ExpMin= 2.66D-02 ExpMax= 8.65D+07 ExpMxC= 8.09D+03 IAcc=3 IRadAn=         5 AccDes= 0.00D+00
 Harris functional with IExCor=  205 and IRadAn=       5 diagonalized for initial guess.
 HarFok:  IExCor=  205 AccDes= 0.00D+00 IRadAn=         5 IDoV= 1 UseB2=F ITyADJ=14
 ICtDFT=  3500011 ScaDFX=  1.000000  1.000000  1.000000  1.000000
 FoFCou: FMM=F IPFlag=           0 FMFlag=      100000 FMFlg1=           0
         NFxFlg=           0 DoJE=T BraDBF=F KetDBF=T FulRan=T
         wScrn=  0.000000 ICntrl=     500 IOpCl=  0 I1Cent=   200000004 NGrid=           0
         NMat0=    1 NMatS0=      1 NMatT0=    0 NMatD0=    1 NMtDS0=    0 NMtDT0=    0
 Petite list used in FoFCou.
 CoulSu:  requested number of processors reduced to:   6 ShMem   1 Linda.
 CoulSu:  requested number of processors reduced to:   6 ShMem   1 Linda.
 CoulSu:  requested number of processors reduced to:   6 ShMem   1 Linda.
 CoulSu:  requested number of processors reduced to:   6 ShMem   1 Linda.
 DSYEVD returned Info=      142843 IAlg= 4 N=   532 NDim=   532 NE2=     1510909 trying DSYEV.
 Initial guess orbital symmetries:
       Occupied  (SGU) (SGG) (SGU) (SGG) (SGU) (SGG) (PIG) (PIG)
                 (PIU) (PIU) (SGG) (SGU) (SGG) (SGU) (PIU) (PIU)
                 (PIG) (PIG) (SGG) (PIU) (PIU) (PIG) (PIG) (DLTG)
                 (DLTG) (DLTU) (DLTU) (SGU) (SGG) (SGU) (SGG) (PIU)
                 (PIU)
       Virtual   (PIG) (PIG) (SGU) (SGG) (PIU) (PIU) (SGG) (SGU)
                 (DLTG) (DLTG) (PIG) (PIG) (SGU) (PIU) (PIU) (DLTU)
                 (DLTU) (SGG) (PIG) (PIG) (SGG) (SGU) (PIU) (PIU)
                 (DLTG) (DLTG) (PHIU) (PHIU) (PIU) (PIU) (SGG)
                 (PIG) (PIG) (SGU) (DLTU) (DLTU) (DLTG) (DLTG)
                 (PHIG) (PHIG) (SGG) (PIG) (PIG) (SGU) (PIU) (PIU)
                 (DLTU) (DLTU) (SGU) (SGG) (?A) (?A) (PIU) (PIU)
                 (PIG) (PIG) (DLTG) (DLTG) (PHIU) (PHIU) (SGG)
                 (PIG) (PIG) (?B) (?B) (DLTU) (DLTU) (SGG) (PIU)
                 (PIU) (SGU) (DLTG) (DLTG) (PHIU) (PHIU) (PHIG)
                 (PHIG) (SGG) (SGU) (DLTG) (DLTG) (PIU) (PIU) (PIG)
                 (PIG) (DLTU) (DLTU) (PHIG) (PHIG) (SGU) (PIU)
                 (PIU) (?C) (?C) (PIG) (PIG) (SGU) (?A) (?A) (DLTU)
                 (DLTU) (SGG) (?D) (?D) (PIG) (PIG) (PIU) (PIU)
                 (SGG) (PHIU) (PHIU) (SGG) (DLTU) (DLTU) (DLTG)
                 (DLTG) (?B) (?B) (?A) (?A) (PHIU) (PHIU) (SGU)
                 (DLTG) (DLTG) (?B) (?B) (SGU) (PHIG) (PHIG) (PIG)
                 (PIG) (DLTG) (DLTG) (PIU) (PIU) (DLTU) (DLTU)
                 (PHIU) (PHIU) (SGG) (SGU) (PIU) (PIU) (PHIG) (PHIG)
                 (PIG) (PIG) (SGG) (PIG) (PIG) (PHIG) (PHIG) (DLTG)
                 (DLTG) (PIU) (PIU) (DLTU) (DLTU) (?C) (?C) (?E)
                 (?E) (SGU) (PIG) (PIG) (?F) (?F) (SGU) (SGG) (SGG)
                 (?A) (?A) (DLTU) (DLTU) (PIU) (PIU) (?D) (?D)
                 (PHIU) (PHIU) (?C) (?C) (?A) (?A) (SGU) (SGG)
                 (PIU) (PIU) (DLTG) (DLTG) (PIG) (PIG) (?D) (?D)
                 (?B) (?B) (PHIU) (PHIU) (DLTU) (DLTU) (DLTG) (DLTG)
                 (?A) (?A) (?B) (?B) (PHIG) (PHIG) (PHIU) (PHIU)
                 (PIG) (PIG) (?B) (?B) (SGU) (PIU) (PIU) (SGG)
                 (PHIG) (PHIG) (PIU) (PIU) (DLTU) (DLTU) (PIG)
                 (PIG) (DLTG) (DLTG) (SGU) (DLTU) (DLTU) (SGG)
                 (SGU) (PHIG) (PHIG) (PIG) (PIG) (PHIU) (PHIU)
                 (DLTG) (DLTG) (SGG) (SGU) (PHIG) (PHIG) (DLTG)
                 (DLTG) (PIU) (PIU) (DLTU) (DLTU) (SGG) (PIG) (PIG)
                 (PIU) (PIU) (SGG) (SGU) (PIG) (PIG) (PIU) (PIU)
                 (SGU) (DLTU) (DLTU) (?A) (?A) (PHIU) (PHIU) (?C)
                 (?C) (DLTG) (DLTG) (SGG) (?E) (?E) (?F) (?F) (PIU)
                 (PIU) (?D) (?D) (PIG) (PIG) (SGG) (?C) (?C) (?A)
                 (?A) (?D) (?D) (?B) (?B) (?A) (?A) (PHIU) (PHIU)
                 (DLTU) (DLTU) (PHIG) (PHIG) (?B) (?B) (PHIU) (PHIU)
                 (PIU) (PIU) (?B) (?B) (PIG) (PIG) (SGU) (DLTG)
                 (DLTG) (PHIG) (PHIG) (SGU) (DLTU) (DLTU) (DLTG)
                 (DLTG) (PIG) (PIG) (SGG) (SGG) (PIU) (PIU) (PHIG)
                 (PHIG) (SGU) (SGU) (DLTU) (DLTU) (PHIU) (PHIU)
                 (PHIG) (PHIG) (DLTG) (DLTG) (PIG) (PIG) (SGG)
                 (DLTG) (DLTG) (PIU) (PIU) (?A) (?A) (?C) (?C)
                 (DLTU) (DLTU) (?E) (?E) (SGU) (?G) (?G) (DLTU)
                 (DLTU) (?H) (?H) (?F) (?F) (PHIU) (PHIU) (PIG)
                 (PIG) (PIU) (PIU) (?D) (?D) (SGU) (SGG) (DLTG)
                 (DLTG) (?B) (?B) (PIU) (PIU) (PIG) (PIG) (SGG)
                 (SGU) (SGG) (PIU) (PIU) (PIG) (PIG) (?A) (?A)
                 (PHIU) (PHIU) (?B) (?B) (PHIG) (PHIG) (SGG) (PIG)
                 (PIG) (DLTG) (DLTG) (DLTU) (DLTU) (PIU) (PIU)
                 (PHIG) (PHIG) (SGU) (SGG) (?A) (?A) (?C) (?C)
                 (?D) (?D) (PHIU) (PHIU) (DLTU) (DLTU) (SGU) (?B)
                 (?B) (?C) (?C) (?E) (?E) (?F) (?F) (?A) (?A) (PIG)
                 (PIG) (?D) (?D) (DLTG) (DLTG) (PIU) (PIU) (PHIG)
                 (PHIG) (PHIU) (PHIU) (?B) (?B) (DLTU) (DLTU) (SGU)
                 (SGG) (PIG) (PIG) (DLTG) (DLTG) (PHIG) (PHIG)
                 (SGU) (SGU) (PIU) (PIU) (DLTU) (DLTU) (SGU) (SGG)
                 (PIG) (PIG) (PHIU) (PHIU) (PHIG) (PHIG) (DLTG)
                 (DLTG) (SGG) (DLTU) (DLTU) (PIU) (PIU) (PIG) (PIG)
                 (SGU) (DLTG) (DLTG) (DLTU) (DLTU) (PIU) (PIU)
                 (PIG) (PIG) (SGG) (SGU) (PIU) (PIU) (PIG) (PIG)
                 (SGG) (SGU) (SGG) (SGU) (SGG) (SGU)
 The electronic state of the initial guess is 1-SGG.
 Requested convergence on RMS density matrix=1.00D-10 within 128 cycles.
 Requested convergence on MAX density matrix=1.00D-08.
 Requested convergence on             energy=1.00D-08.
 No special actions if energy rises.
 CoulSu:  requested number of processors reduced to:   6 ShMem   1 Linda.
 CoulSu:  requested number of processors reduced to:   6 ShMem   1 Linda.
 CoulSu:  requested number of processors reduced to:   6 ShMem   1 Linda.
 CoulSu:  requested number of processors reduced to:   6 ShMem   1 Linda.
 CoulSu:  requested number of processors reduced to:   6 ShMem   1 Linda.
 CoulSu:  requested number of processors reduced to:   6 ShMem   1 Linda.
 Initial convergence to 1.0D-05 achieved.  Increase integral accuracy.
 CoulSu:  requested number of processors reduced to:   6 ShMem   1 Linda.
 CoulSu:  requested number of processors reduced to:   6 ShMem   1 Linda.
 CoulSu:  requested number of processors reduced to:   6 ShMem   1 Linda.
 CoulSu:  requested number of processors reduced to:   6 ShMem   1 Linda.
 CoulSu:  requested number of processors reduced to:   6 ShMem   1 Linda.
 CoulSu:  requested number of processors reduced to:   6 ShMem   1 Linda.
 CoulSu:  requested number of processors reduced to:   6 ShMem   1 Linda.
 CoulSu:  requested number of processors reduced to:   6 ShMem   1 Linda.
 SCF Done:  E(ROHF) =  -4468.49907656     A.U. after   14 cycles
            NFock= 14  Conv=0.47D-10     -V/T= 2.0000
 <Sx>= 0.0000 <Sy>= 0.0000 <Sz>= 0.0000 <S**2>= 0.0000 S= 0.0000
 <L.S>= 0.000000000000E+00
 Annihilation of the first spin contaminant:
 S**2 before annihilation     0.0000,   after     0.0000
 GenMOA:  NOpAll=  8 NOp2=8 NOpUse=  8 JSym2X=1
 CoulSu:  requested number of processors reduced to:   6 ShMem   1 Linda.
 <Sx>= 0.0000 <Sy>= 0.0000 <Sz>= 0.0000 <S**2>= 0.0000 S= 0.0000
 Range of M.O.s used for correlation:    29   532
 NBasis=   532 NAE=    33 NBE=    33 NFC=    28 NFV=     0
 NROrb=    504 NOA=     5 NOB=     5 NVA=   499 NVB=   499

 **** Warning!!: The largest alpha MO coefficient is  0.13463506D+04


 **** Warning!!: The largest beta MO coefficient is  0.13463506D+04

 Singles contribution to E2=   -0.2791213737D-13
 Disk-based method using OVN memory for  5 occupieds at a time.
 Permanent disk used for amplitudes and <ij||ab> integrals=    17420090 words.
 Estimated scratch disk usage=  1193346775 words.
 IUseRI=2 ITolRI= 6 IR12RI=0
 Actual    scratch disk usage=  1192271575 words.
 GetIJB would need an additional  1076629039 words of memory to use all   8 processors.
 JobTyp=2 Pass  1:  I=   1 to   5 NPSUse=  1 ParTrn=F ParDer=F DoDerP=F.
 (rs|ai) integrals will be sorted in core.
 T,EIJ(AA): I=   1 J=   2      0.3268390E-03     -0.8397087E-03
 T,EIJ(AA): I=   1 J=   3      0.3024717E-03     -0.8288591E-03
 T,EIJ(AA): I=   1 J=   4      0.7507858E-03     -0.1754929E-02
 T,EIJ(AA): I=   1 J=   5      0.7507858E-03     -0.1754929E-02
 T,EIJ(AA): I=   2 J=   3      0.1003750E-02     -0.1918729E-02
 T,EIJ(AA): I=   2 J=   4      0.1934038E-02     -0.3107508E-02
 T,EIJ(AA): I=   2 J=   5      0.1934038E-02     -0.3107508E-02
 T,EIJ(AA): I=   3 J=   4      0.4213830E-02     -0.5793917E-02
 T,EIJ(AA): I=   3 J=   5      0.4213830E-02     -0.5793917E-02
 T,EIJ(AA): I=   4 J=   5      0.7717730E-02     -0.7864220E-02
 T,EIJ(AB): I=   1 J=   1      0.2683760E-02     -0.9059033E-02
 T,EIJ(AB): I=   1 J=   2      0.1325397E-02     -0.4134791E-02
 T,EIJ(AB): I=   1 J=   3      0.1949276E-02     -0.5833072E-02
 T,EIJ(AB): I=   1 J=   4      0.2352677E-02     -0.6146451E-02
 T,EIJ(AB): I=   1 J=   5      0.2352677E-02     -0.6146451E-02
 T,EIJ(AB): I=   2 J=   1      0.1325397E-02     -0.4134791E-02
 T,EIJ(AB): I=   2 J=   2      0.6139480E-02     -0.1238160E-01
 T,EIJ(AB): I=   2 J=   3      0.4455528E-02     -0.9674527E-02
 T,EIJ(AB): I=   2 J=   4      0.3485052E-02     -0.6691880E-02
 T,EIJ(AB): I=   2 J=   5      0.3485052E-02     -0.6691880E-02
 T,EIJ(AB): I=   3 J=   1      0.1949276E-02     -0.5833072E-02
 T,EIJ(AB): I=   3 J=   2      0.4455528E-02     -0.9674527E-02
 T,EIJ(AB): I=   3 J=   3      0.8485845E-02     -0.1540683E-01
 T,EIJ(AB): I=   3 J=   4      0.4903145E-02     -0.7678321E-02
 T,EIJ(AB): I=   3 J=   5      0.4903145E-02     -0.7678321E-02
 T,EIJ(AB): I=   4 J=   1      0.2352677E-02     -0.6146451E-02
 T,EIJ(AB): I=   4 J=   2      0.3485052E-02     -0.6691880E-02
 T,EIJ(AB): I=   4 J=   3      0.4903145E-02     -0.7678321E-02
 T,EIJ(AB): I=   4 J=   4      0.1912966E-01     -0.2162016E-01
 T,EIJ(AB): I=   4 J=   5      0.1074463E-01     -0.1140453E-01
 T,EIJ(AB): I=   5 J=   1      0.2352677E-02     -0.6146451E-02
 T,EIJ(AB): I=   5 J=   2      0.3485052E-02     -0.6691880E-02
 T,EIJ(AB): I=   5 J=   3      0.4903145E-02     -0.7678321E-02
 T,EIJ(AB): I=   5 J=   4      0.1074463E-01     -0.1140453E-01
 T,EIJ(AB): I=   5 J=   5      0.1912966E-01     -0.2162016E-01
 Actual    scratch disk usage=  1192271575 words.
 GetIJB would need an additional  1076629039 words of memory to use all   8 processors.
 JobTyp=3 Pass  1:  I=   1 to   5 NPSUse=  1 ParTrn=F ParDer=F DoDerP=F.
 (rs|ai) integrals will be sorted in core.
 T,EIJ(BB): I=   1 J=   2      0.3268390E-03     -0.8397087E-03
 T,EIJ(BB): I=   1 J=   3      0.3024717E-03     -0.8288591E-03
 T,EIJ(BB): I=   1 J=   4      0.7507858E-03     -0.1754929E-02
 T,EIJ(BB): I=   1 J=   5      0.7507858E-03     -0.1754929E-02
 T,EIJ(BB): I=   2 J=   3      0.1003750E-02     -0.1918729E-02
 T,EIJ(BB): I=   2 J=   4      0.1934038E-02     -0.3107508E-02
 T,EIJ(BB): I=   2 J=   5      0.1934038E-02     -0.3107508E-02
 T,EIJ(BB): I=   3 J=   4      0.4213830E-02     -0.5793917E-02
 T,EIJ(BB): I=   3 J=   5      0.4213830E-02     -0.5793917E-02
 T,EIJ(BB): I=   4 J=   5      0.7717730E-02     -0.7864220E-02
 Spin components of T(2) and E(2):
     alpha-alpha T2 =       0.2314809868D-01 E2=     -0.3276422381D-01
     alpha-beta  T2 =       0.1354815593D+00 E2=     -0.2242482408D+00
     beta-beta   T2 =       0.2314809868D-01 E2=     -0.3276422381D-01
 ANorm=    0.1087096020D+01
 E2 =    -0.2897766884D+00 EUMP2 =    -0.44687888532489D+04

 Complete Basis Set (CBS) Extrapolation:
 M. R. Nyden and G. A. Petersson, JCP 75, 1843 (1981)
 G. A. Petersson and M. A. Al-Laham, JCP 94, 6081 (1991)
 G. A. Petersson, T. Tensfeldt, and J. A. Montgomery, JCP 94, 6091 (1991)
 J. A. Montgomery, J. W. Ochterski, and G. A. Petersson, JCP 101, 5900 (1994)
 
 Minimum Number of PNO for Extrapolation =  25
 Absolute Overlaps: IRadAn =         5
 LocTrn: ILocal=3 LocCor=F DoCore=F.
 Entering OneElI...
 Overlap between basis sets.
 Requested accuracy = 0.1000D-12
 PrsmSu:  NPrtUS=   1 ThrOK=F IAlg=1 NPAlg=1 LenDen=           0.
 Prism:   IPart=     0 DynPar=F LinDyn=F Incr=           1.
 PRISM was handed   803978247 working-precision words and   136 shell-pairs
 IPart=  0 NShTot=         136 NBatch=          15 AvBLen=         9.1
 PrSmSu:  NxtVal=              2.
 CnvPC2: ToCart=F DoDens=F IPureD=0 IPureF=0.
 Transformed matrix in CnvPC2: 
                 1             2             3             4             5 
      1   0.100000D+01  0.403730D+00  0.000000D+00  0.000000D+00  0.000000D+00
      2   0.403730D+00  0.100000D+01  0.000000D+00  0.000000D+00  0.000000D+00
      3   0.000000D+00  0.000000D+00  0.100000D+01  0.000000D+00  0.000000D+00
      4   0.000000D+00  0.000000D+00  0.000000D+00  0.100000D+01  0.000000D+00
      5   0.000000D+00  0.000000D+00  0.000000D+00  0.000000D+00  0.100000D+01
      6   0.292129D-01  0.339068D+00  0.000000D+00  0.000000D+00  0.000000D+00
      7   0.000000D+00  0.000000D+00  0.351981D+00  0.000000D+00  0.000000D+00
      8   0.000000D+00  0.000000D+00  0.000000D+00  0.351981D+00  0.000000D+00
      9   0.000000D+00  0.000000D+00  0.000000D+00  0.000000D+00  0.351981D+00
     10   0.000000D+00  0.000000D+00  0.000000D+00  0.000000D+00  0.000000D+00
     11   0.000000D+00  0.000000D+00  0.000000D+00  0.000000D+00  0.000000D+00
     12   0.000000D+00  0.000000D+00  0.000000D+00  0.000000D+00  0.000000D+00
     13   0.000000D+00  0.000000D+00  0.000000D+00  0.000000D+00  0.000000D+00
     14   0.000000D+00  0.000000D+00  0.000000D+00  0.000000D+00  0.000000D+00
     15  -0.382798D-03  0.488481D-02  0.000000D+00  0.000000D+00  0.000000D+00
     16   0.000000D+00  0.000000D+00  0.130758D-01  0.000000D+00  0.000000D+00
     17   0.000000D+00  0.000000D+00  0.000000D+00  0.130758D-01  0.000000D+00
     18   0.000000D+00  0.000000D+00  0.000000D+00  0.000000D+00  0.130758D-01
     19   0.000000D+00  0.000000D+00  0.000000D+00  0.000000D+00  0.000000D+00
     20   0.000000D+00  0.000000D+00  0.000000D+00  0.000000D+00  0.000000D+00
     21   0.000000D+00  0.000000D+00  0.000000D+00  0.000000D+00  0.000000D+00
     22   0.000000D+00  0.000000D+00  0.000000D+00  0.000000D+00  0.000000D+00
     23   0.000000D+00  0.000000D+00  0.000000D+00  0.000000D+00  0.000000D+00
     24   0.000000D+00  0.000000D+00  0.000000D+00  0.000000D+00  0.000000D+00
     25   0.000000D+00  0.000000D+00  0.000000D+00  0.000000D+00  0.000000D+00
     26   0.000000D+00  0.000000D+00  0.000000D+00  0.000000D+00  0.000000D+00
     27   0.000000D+00  0.000000D+00  0.000000D+00  0.000000D+00  0.000000D+00
     28   0.000000D+00  0.000000D+00  0.000000D+00  0.000000D+00  0.000000D+00
     29   0.000000D+00  0.000000D+00  0.000000D+00  0.000000D+00  0.000000D+00
     30   0.000000D+00  0.000000D+00  0.000000D+00  0.000000D+00  0.000000D+00
     31   0.000000D+00  0.000000D+00  0.000000D+00  0.000000D+00  0.000000D+00
     32   0.000000D+00  0.000000D+00  0.000000D+00  0.000000D+00  0.000000D+00
     33   0.000000D+00  0.000000D+00  0.000000D+00  0.000000D+00  0.000000D+00
     34   0.000000D+00  0.000000D+00  0.000000D+00  0.000000D+00  0.000000D+00
     35   0.000000D+00  0.000000D+00  0.000000D+00  0.000000D+00  0.000000D+00
     36   0.000000D+00  0.000000D+00  0.000000D+00  0.000000D+00  0.000000D+00
     37   0.000000D+00  0.000000D+00  0.000000D+00  0.000000D+00  0.000000D+00
     38   0.966542D-03  0.597590D-02  0.000000D+00  0.000000D+00 -0.141759D-02
     39   0.000000D+00  0.000000D+00  0.442174D-03  0.000000D+00  0.000000D+00
     40   0.000000D+00  0.000000D+00  0.000000D+00  0.442174D-03  0.000000D+00
     41   0.170910D-02  0.105293D-01  0.000000D+00  0.000000D+00 -0.229626D-02
     42   0.595892D-02  0.360957D-01  0.000000D+00  0.000000D+00 -0.503754D-02
     43   0.000000D+00  0.000000D+00  0.262970D-02  0.000000D+00  0.000000D+00
     44   0.000000D+00  0.000000D+00  0.000000D+00  0.262970D-02  0.000000D+00
     45   0.000000D+00  0.000000D+00  0.000000D+00  0.000000D+00  0.000000D+00
     46   0.000000D+00  0.000000D+00  0.000000D+00  0.000000D+00  0.000000D+00
                 6             7             8             9            10 
      1   0.292129D-01  0.000000D+00  0.000000D+00  0.000000D+00  0.000000D+00
      2   0.339068D+00  0.000000D+00  0.000000D+00  0.000000D+00  0.000000D+00
      3   0.000000D+00  0.351981D+00  0.000000D+00  0.000000D+00  0.000000D+00
      4   0.000000D+00  0.000000D+00  0.351981D+00  0.000000D+00  0.000000D+00
      5   0.000000D+00  0.000000D+00  0.000000D+00  0.351981D+00  0.000000D+00
      6   0.100000D+01  0.000000D+00  0.000000D+00  0.000000D+00  0.000000D+00
      7   0.000000D+00  0.100000D+01  0.000000D+00  0.000000D+00  0.000000D+00
      8   0.000000D+00  0.000000D+00  0.100000D+01  0.000000D+00  0.000000D+00
      9   0.000000D+00  0.000000D+00  0.000000D+00  0.100000D+01  0.000000D+00
     10   0.000000D+00  0.000000D+00  0.000000D+00  0.000000D+00  0.100000D+01
     11   0.000000D+00  0.000000D+00  0.000000D+00  0.000000D+00  0.000000D+00
     12   0.000000D+00  0.000000D+00  0.000000D+00  0.000000D+00  0.000000D+00
     13   0.000000D+00  0.000000D+00  0.000000D+00  0.000000D+00  0.000000D+00
     14   0.000000D+00  0.000000D+00  0.000000D+00  0.000000D+00  0.000000D+00
     15   0.195676D+00  0.000000D+00  0.000000D+00  0.000000D+00  0.000000D+00
     16   0.000000D+00  0.212222D+00  0.000000D+00  0.000000D+00  0.000000D+00
     17   0.000000D+00  0.000000D+00  0.212222D+00  0.000000D+00  0.000000D+00
     18   0.000000D+00  0.000000D+00  0.000000D+00  0.212222D+00  0.000000D+00
     19   0.000000D+00  0.000000D+00  0.000000D+00  0.000000D+00  0.556204D-01
     20   0.000000D+00  0.000000D+00  0.000000D+00  0.000000D+00  0.000000D+00
     21   0.000000D+00  0.000000D+00  0.000000D+00  0.000000D+00  0.000000D+00
     22   0.000000D+00  0.000000D+00  0.000000D+00  0.000000D+00  0.000000D+00
     23   0.000000D+00  0.000000D+00  0.000000D+00  0.000000D+00  0.000000D+00
     24   0.000000D+00  0.000000D+00  0.000000D+00  0.000000D+00  0.000000D+00
     25   0.000000D+00  0.000000D+00  0.000000D+00  0.000000D+00  0.000000D+00
     26   0.000000D+00  0.000000D+00  0.000000D+00  0.000000D+00  0.000000D+00
     27   0.000000D+00  0.000000D+00  0.000000D+00  0.000000D+00  0.000000D+00
     28   0.000000D+00  0.000000D+00  0.000000D+00  0.000000D+00  0.000000D+00
     29   0.000000D+00  0.000000D+00  0.000000D+00  0.000000D+00  0.177066D-05
     30   0.000000D+00  0.000000D+00  0.000000D+00  0.000000D+00  0.000000D+00
     31   0.000000D+00  0.000000D+00  0.000000D+00  0.000000D+00  0.000000D+00
     32   0.000000D+00  0.000000D+00  0.000000D+00 -0.265173D-05  0.475441D-05
     33   0.177066D-05  0.000000D+00  0.000000D+00 -0.475441D-05  0.823601D-05
     34   0.000000D+00  0.000000D+00  0.000000D+00  0.000000D+00  0.000000D+00
     35   0.000000D+00  0.000000D+00  0.000000D+00  0.000000D+00  0.000000D+00
     36   0.000000D+00  0.000000D+00  0.000000D+00  0.000000D+00  0.000000D+00
     37   0.000000D+00  0.000000D+00  0.000000D+00  0.000000D+00  0.000000D+00
     38   0.350599D-01  0.000000D+00  0.000000D+00 -0.227132D-01  0.805145D-02
     39   0.000000D+00  0.741876D-02  0.000000D+00  0.000000D+00  0.000000D+00
     40   0.000000D+00  0.000000D+00  0.741876D-02  0.000000D+00  0.000000D+00
     41   0.602565D-01  0.000000D+00  0.000000D+00 -0.367223D-01  0.133334D-01
     42   0.179228D+00  0.000000D+00  0.000000D+00 -0.675680D-01  0.121959D-01
     43   0.000000D+00  0.390950D-01  0.000000D+00  0.000000D+00  0.000000D+00
     44   0.000000D+00  0.000000D+00  0.390950D-01  0.000000D+00  0.000000D+00
     45   0.000000D+00  0.000000D+00  0.000000D+00  0.000000D+00  0.000000D+00
     46   0.000000D+00  0.000000D+00  0.000000D+00  0.000000D+00  0.000000D+00
                11            12            13            14            15 
      1   0.000000D+00  0.000000D+00  0.000000D+00  0.000000D+00 -0.382798D-03
      2   0.000000D+00  0.000000D+00  0.000000D+00  0.000000D+00  0.488481D-02
      3   0.000000D+00  0.000000D+00  0.000000D+00  0.000000D+00  0.000000D+00
      4   0.000000D+00  0.000000D+00  0.000000D+00  0.000000D+00  0.000000D+00
      5   0.000000D+00  0.000000D+00  0.000000D+00  0.000000D+00  0.000000D+00
      6   0.000000D+00  0.000000D+00  0.000000D+00  0.000000D+00  0.195676D+00
      7   0.000000D+00  0.000000D+00  0.000000D+00  0.000000D+00  0.000000D+00
      8   0.000000D+00  0.000000D+00  0.000000D+00  0.000000D+00  0.000000D+00
      9   0.000000D+00  0.000000D+00  0.000000D+00  0.000000D+00  0.000000D+00
     10   0.000000D+00  0.000000D+00  0.000000D+00  0.000000D+00  0.000000D+00
     11   0.100000D+01  0.000000D+00  0.000000D+00  0.000000D+00  0.000000D+00
     12   0.000000D+00  0.100000D+01  0.000000D+00  0.000000D+00  0.000000D+00
     13   0.000000D+00  0.000000D+00  0.100000D+01  0.000000D+00  0.000000D+00
     14   0.000000D+00  0.000000D+00  0.000000D+00  0.100000D+01  0.000000D+00
     15   0.000000D+00  0.000000D+00  0.000000D+00  0.000000D+00  0.100000D+01
     16   0.000000D+00  0.000000D+00  0.000000D+00  0.000000D+00  0.000000D+00
     17   0.000000D+00  0.000000D+00  0.000000D+00  0.000000D+00  0.000000D+00
     18   0.000000D+00  0.000000D+00  0.000000D+00  0.000000D+00  0.000000D+00
     19   0.000000D+00  0.000000D+00  0.000000D+00  0.000000D+00  0.000000D+00
     20   0.556204D-01  0.000000D+00  0.000000D+00  0.000000D+00  0.000000D+00
     21   0.000000D+00  0.556204D-01  0.000000D+00  0.000000D+00  0.000000D+00
     22   0.000000D+00  0.000000D+00  0.556204D-01  0.000000D+00  0.000000D+00
     23   0.000000D+00  0.000000D+00  0.000000D+00  0.556204D-01  0.000000D+00
     24   0.000000D+00  0.000000D+00  0.000000D+00  0.000000D+00  0.966542D-03
     25   0.000000D+00  0.000000D+00  0.000000D+00  0.000000D+00  0.597590D-02
     26   0.000000D+00  0.000000D+00  0.000000D+00  0.000000D+00  0.000000D+00
     27   0.000000D+00  0.000000D+00  0.000000D+00  0.000000D+00  0.000000D+00
     28   0.000000D+00  0.000000D+00  0.000000D+00  0.000000D+00  0.141759D-02
     29   0.000000D+00  0.000000D+00  0.000000D+00  0.000000D+00  0.350599D-01
     30   0.000000D+00  0.000000D+00  0.000000D+00  0.000000D+00  0.000000D+00
     31   0.000000D+00  0.000000D+00  0.000000D+00  0.000000D+00  0.000000D+00
     32   0.000000D+00  0.000000D+00  0.000000D+00  0.000000D+00  0.227132D-01
     33   0.000000D+00  0.000000D+00  0.000000D+00  0.000000D+00  0.805145D-02
     34   0.000000D+00  0.000000D+00  0.000000D+00  0.000000D+00  0.000000D+00
     35   0.000000D+00  0.000000D+00  0.000000D+00  0.000000D+00  0.000000D+00
     36   0.000000D+00  0.000000D+00  0.000000D+00  0.000000D+00  0.000000D+00
     37   0.000000D+00  0.000000D+00  0.000000D+00  0.000000D+00  0.000000D+00
     38   0.000000D+00  0.000000D+00  0.000000D+00  0.000000D+00  0.278173D+00
     39  -0.510919D-02  0.000000D+00  0.000000D+00  0.000000D+00  0.000000D+00
     40   0.000000D+00 -0.510919D-02  0.000000D+00  0.000000D+00  0.000000D+00
     41   0.000000D+00  0.000000D+00  0.000000D+00  0.000000D+00  0.342512D+00
     42   0.000000D+00  0.000000D+00  0.000000D+00  0.000000D+00  0.395731D+00
     43  -0.181926D-01  0.000000D+00  0.000000D+00  0.000000D+00  0.000000D+00
     44   0.000000D+00 -0.181926D-01  0.000000D+00  0.000000D+00  0.000000D+00
     45   0.000000D+00  0.000000D+00  0.454010D-02  0.000000D+00  0.000000D+00
     46   0.000000D+00  0.000000D+00  0.000000D+00  0.454010D-02  0.000000D+00
                16            17            18            19            20 
      1   0.000000D+00  0.000000D+00  0.000000D+00  0.000000D+00  0.000000D+00
      2   0.000000D+00  0.000000D+00  0.000000D+00  0.000000D+00  0.000000D+00
      3   0.130758D-01  0.000000D+00  0.000000D+00  0.000000D+00  0.000000D+00
      4   0.000000D+00  0.130758D-01  0.000000D+00  0.000000D+00  0.000000D+00
      5   0.000000D+00  0.000000D+00  0.130758D-01  0.000000D+00  0.000000D+00
      6   0.000000D+00  0.000000D+00  0.000000D+00  0.000000D+00  0.000000D+00
      7   0.212222D+00  0.000000D+00  0.000000D+00  0.000000D+00  0.000000D+00
      8   0.000000D+00  0.212222D+00  0.000000D+00  0.000000D+00  0.000000D+00
      9   0.000000D+00  0.000000D+00  0.212222D+00  0.000000D+00  0.000000D+00
     10   0.000000D+00  0.000000D+00  0.000000D+00  0.556204D-01  0.000000D+00
     11   0.000000D+00  0.000000D+00  0.000000D+00  0.000000D+00  0.556204D-01
     12   0.000000D+00  0.000000D+00  0.000000D+00  0.000000D+00  0.000000D+00
     13   0.000000D+00  0.000000D+00  0.000000D+00  0.000000D+00  0.000000D+00
     14   0.000000D+00  0.000000D+00  0.000000D+00  0.000000D+00  0.000000D+00
     15   0.000000D+00  0.000000D+00  0.000000D+00  0.000000D+00  0.000000D+00
     16   0.100000D+01  0.000000D+00  0.000000D+00  0.000000D+00  0.000000D+00
     17   0.000000D+00  0.100000D+01  0.000000D+00  0.000000D+00  0.000000D+00
     18   0.000000D+00  0.000000D+00  0.100000D+01  0.000000D+00  0.000000D+00
     19   0.000000D+00  0.000000D+00  0.000000D+00  0.100000D+01  0.000000D+00
     20   0.000000D+00  0.000000D+00  0.000000D+00  0.000000D+00  0.100000D+01
     21   0.000000D+00  0.000000D+00  0.000000D+00  0.000000D+00  0.000000D+00
     22   0.000000D+00  0.000000D+00  0.000000D+00  0.000000D+00  0.000000D+00
     23   0.000000D+00  0.000000D+00  0.000000D+00  0.000000D+00  0.000000D+00
     24   0.000000D+00  0.000000D+00 -0.170910D-02  0.595892D-02  0.000000D+00
     25   0.000000D+00  0.000000D+00 -0.105293D-01  0.360957D-01  0.000000D+00
     26   0.442174D-03  0.000000D+00  0.000000D+00  0.000000D+00 -0.262970D-02
     27   0.000000D+00  0.442174D-03  0.000000D+00  0.000000D+00  0.000000D+00
     28   0.000000D+00  0.000000D+00 -0.229626D-02  0.503754D-02  0.000000D+00
     29   0.000000D+00  0.000000D+00 -0.602565D-01  0.179228D+00  0.000000D+00
     30   0.741876D-02  0.000000D+00  0.000000D+00  0.000000D+00 -0.390950D-01
     31   0.000000D+00  0.741876D-02  0.000000D+00  0.000000D+00  0.000000D+00
     32   0.000000D+00  0.000000D+00 -0.367223D-01  0.675680D-01  0.000000D+00
     33   0.000000D+00  0.000000D+00 -0.133334D-01  0.121959D-01  0.000000D+00
     34   0.510919D-02  0.000000D+00  0.000000D+00  0.000000D+00 -0.181926D-01
     35   0.000000D+00  0.510919D-02  0.000000D+00  0.000000D+00  0.000000D+00
     36   0.000000D+00  0.000000D+00  0.000000D+00  0.000000D+00  0.000000D+00
     37   0.000000D+00  0.000000D+00  0.000000D+00  0.000000D+00  0.000000D+00
     38   0.000000D+00  0.000000D+00 -0.342512D+00  0.395731D+00  0.000000D+00
     39   0.151165D+00  0.000000D+00  0.000000D+00  0.000000D+00 -0.377201D+00
     40   0.000000D+00  0.151165D+00  0.000000D+00  0.000000D+00  0.000000D+00
     41   0.000000D+00  0.000000D+00 -0.389259D+00  0.245787D+00  0.000000D+00
     42   0.000000D+00  0.000000D+00 -0.245787D+00 -0.463736D-01  0.000000D+00
     43   0.377201D+00  0.000000D+00  0.000000D+00  0.000000D+00 -0.440061D+00
     44   0.000000D+00  0.377201D+00  0.000000D+00  0.000000D+00  0.000000D+00
     45   0.000000D+00  0.000000D+00  0.000000D+00  0.000000D+00  0.000000D+00
     46   0.000000D+00  0.000000D+00  0.000000D+00  0.000000D+00  0.000000D+00
                21            22            23            24            25 
      1   0.000000D+00  0.000000D+00  0.000000D+00  0.000000D+00  0.000000D+00
      2   0.000000D+00  0.000000D+00  0.000000D+00  0.000000D+00  0.000000D+00
      3   0.000000D+00  0.000000D+00  0.000000D+00  0.000000D+00  0.000000D+00
      4   0.000000D+00  0.000000D+00  0.000000D+00  0.000000D+00  0.000000D+00
      5   0.000000D+00  0.000000D+00  0.000000D+00  0.000000D+00  0.000000D+00
      6   0.000000D+00  0.000000D+00  0.000000D+00  0.000000D+00  0.000000D+00
      7   0.000000D+00  0.000000D+00  0.000000D+00  0.000000D+00  0.000000D+00
      8   0.000000D+00  0.000000D+00  0.000000D+00  0.000000D+00  0.000000D+00
      9   0.000000D+00  0.000000D+00  0.000000D+00  0.000000D+00  0.000000D+00
     10   0.000000D+00  0.000000D+00  0.000000D+00  0.000000D+00  0.000000D+00
     11   0.000000D+00  0.000000D+00  0.000000D+00  0.000000D+00  0.000000D+00
     12   0.556204D-01  0.000000D+00  0.000000D+00  0.000000D+00  0.000000D+00
     13   0.000000D+00  0.556204D-01  0.000000D+00  0.000000D+00  0.000000D+00
     14   0.000000D+00  0.000000D+00  0.556204D-01  0.000000D+00  0.000000D+00
     15   0.000000D+00  0.000000D+00  0.000000D+00  0.966542D-03  0.597590D-02
     16   0.000000D+00  0.000000D+00  0.000000D+00  0.000000D+00  0.000000D+00
     17   0.000000D+00  0.000000D+00  0.000000D+00  0.000000D+00  0.000000D+00
     18   0.000000D+00  0.000000D+00  0.000000D+00 -0.170910D-02 -0.105293D-01
     19   0.000000D+00  0.000000D+00  0.000000D+00  0.595892D-02  0.360957D-01
     20   0.000000D+00  0.000000D+00  0.000000D+00  0.000000D+00  0.000000D+00
     21   0.100000D+01  0.000000D+00  0.000000D+00  0.000000D+00  0.000000D+00
     22   0.000000D+00  0.100000D+01  0.000000D+00  0.000000D+00  0.000000D+00
     23   0.000000D+00  0.000000D+00  0.100000D+01  0.000000D+00  0.000000D+00
     24   0.000000D+00  0.000000D+00  0.000000D+00  0.100000D+01  0.403730D+00
     25   0.000000D+00  0.000000D+00  0.000000D+00  0.403730D+00  0.100000D+01
     26   0.000000D+00  0.000000D+00  0.000000D+00  0.000000D+00  0.000000D+00
     27  -0.262970D-02  0.000000D+00  0.000000D+00  0.000000D+00  0.000000D+00
     28   0.000000D+00  0.000000D+00  0.000000D+00  0.000000D+00  0.000000D+00
     29   0.000000D+00  0.000000D+00  0.000000D+00  0.292129D-01  0.339068D+00
     30   0.000000D+00  0.000000D+00  0.000000D+00  0.000000D+00  0.000000D+00
     31  -0.390950D-01  0.000000D+00  0.000000D+00  0.000000D+00  0.000000D+00
     32   0.000000D+00  0.000000D+00  0.000000D+00  0.000000D+00  0.000000D+00
     33   0.000000D+00  0.000000D+00  0.000000D+00  0.000000D+00  0.000000D+00
     34   0.000000D+00  0.000000D+00  0.000000D+00  0.000000D+00  0.000000D+00
     35  -0.181926D-01  0.000000D+00  0.000000D+00  0.000000D+00  0.000000D+00
     36   0.000000D+00  0.454010D-02  0.000000D+00  0.000000D+00  0.000000D+00
     37   0.000000D+00  0.000000D+00  0.454010D-02  0.000000D+00  0.000000D+00
     38   0.000000D+00  0.000000D+00  0.000000D+00 -0.382798D-03  0.488481D-02
     39   0.000000D+00  0.000000D+00  0.000000D+00  0.000000D+00  0.000000D+00
     40  -0.377201D+00  0.000000D+00  0.000000D+00  0.000000D+00  0.000000D+00
     41   0.000000D+00  0.000000D+00  0.000000D+00  0.000000D+00  0.000000D+00
     42   0.000000D+00  0.000000D+00  0.000000D+00  0.000000D+00  0.000000D+00
     43   0.000000D+00  0.000000D+00  0.000000D+00  0.000000D+00  0.000000D+00
     44  -0.440061D+00  0.000000D+00  0.000000D+00  0.000000D+00  0.000000D+00
     45   0.000000D+00  0.261341D+00  0.000000D+00  0.000000D+00  0.000000D+00
     46   0.000000D+00  0.000000D+00  0.261341D+00  0.000000D+00  0.000000D+00
                26            27            28            29            30 
      1   0.000000D+00  0.000000D+00  0.000000D+00  0.000000D+00  0.000000D+00
      2   0.000000D+00  0.000000D+00  0.000000D+00  0.000000D+00  0.000000D+00
      3   0.000000D+00  0.000000D+00  0.000000D+00  0.000000D+00  0.000000D+00
      4   0.000000D+00  0.000000D+00  0.000000D+00  0.000000D+00  0.000000D+00
      5   0.000000D+00  0.000000D+00  0.000000D+00  0.000000D+00  0.000000D+00
      6   0.000000D+00  0.000000D+00  0.000000D+00  0.000000D+00  0.000000D+00
      7   0.000000D+00  0.000000D+00  0.000000D+00  0.000000D+00  0.000000D+00
      8   0.000000D+00  0.000000D+00  0.000000D+00  0.000000D+00  0.000000D+00
      9   0.000000D+00  0.000000D+00  0.000000D+00  0.000000D+00  0.000000D+00
     10   0.000000D+00  0.000000D+00  0.000000D+00  0.177066D-05  0.000000D+00
     11   0.000000D+00  0.000000D+00  0.000000D+00  0.000000D+00  0.000000D+00
     12   0.000000D+00  0.000000D+00  0.000000D+00  0.000000D+00  0.000000D+00
     13   0.000000D+00  0.000000D+00  0.000000D+00  0.000000D+00  0.000000D+00
     14   0.000000D+00  0.000000D+00  0.000000D+00  0.000000D+00  0.000000D+00
     15   0.000000D+00  0.000000D+00  0.141759D-02  0.350599D-01  0.000000D+00
     16   0.442174D-03  0.000000D+00  0.000000D+00  0.000000D+00  0.741876D-02
     17   0.000000D+00  0.442174D-03  0.000000D+00  0.000000D+00  0.000000D+00
     18   0.000000D+00  0.000000D+00 -0.229626D-02 -0.602565D-01  0.000000D+00
     19   0.000000D+00  0.000000D+00  0.503754D-02  0.179228D+00  0.000000D+00
     20  -0.262970D-02  0.000000D+00  0.000000D+00  0.000000D+00 -0.390950D-01
     21   0.000000D+00 -0.262970D-02  0.000000D+00  0.000000D+00  0.000000D+00
     22   0.000000D+00  0.000000D+00  0.000000D+00  0.000000D+00  0.000000D+00
     23   0.000000D+00  0.000000D+00  0.000000D+00  0.000000D+00  0.000000D+00
     24   0.000000D+00  0.000000D+00  0.000000D+00  0.292129D-01  0.000000D+00
     25   0.000000D+00  0.000000D+00  0.000000D+00  0.339068D+00  0.000000D+00
     26   0.100000D+01  0.000000D+00  0.000000D+00  0.000000D+00  0.351981D+00
     27   0.000000D+00  0.100000D+01  0.000000D+00  0.000000D+00  0.000000D+00
     28   0.000000D+00  0.000000D+00  0.100000D+01  0.000000D+00  0.000000D+00
     29   0.000000D+00  0.000000D+00  0.000000D+00  0.100000D+01  0.000000D+00
     30   0.351981D+00  0.000000D+00  0.000000D+00  0.000000D+00  0.100000D+01
     31   0.000000D+00  0.351981D+00  0.000000D+00  0.000000D+00  0.000000D+00
     32   0.000000D+00  0.000000D+00  0.351981D+00  0.000000D+00  0.000000D+00
     33   0.000000D+00  0.000000D+00  0.000000D+00  0.000000D+00  0.000000D+00
     34   0.000000D+00  0.000000D+00  0.000000D+00  0.000000D+00  0.000000D+00
     35   0.000000D+00  0.000000D+00  0.000000D+00  0.000000D+00  0.000000D+00
     36   0.000000D+00  0.000000D+00  0.000000D+00  0.000000D+00  0.000000D+00
     37   0.000000D+00  0.000000D+00  0.000000D+00  0.000000D+00  0.000000D+00
     38   0.000000D+00  0.000000D+00  0.000000D+00  0.195676D+00  0.000000D+00
     39   0.130758D-01  0.000000D+00  0.000000D+00  0.000000D+00  0.212222D+00
     40   0.000000D+00  0.130758D-01  0.000000D+00  0.000000D+00  0.000000D+00
     41   0.000000D+00  0.000000D+00  0.130758D-01  0.000000D+00  0.000000D+00
     42   0.000000D+00  0.000000D+00  0.000000D+00  0.000000D+00  0.000000D+00
     43   0.000000D+00  0.000000D+00  0.000000D+00  0.000000D+00  0.000000D+00
     44   0.000000D+00  0.000000D+00  0.000000D+00  0.000000D+00  0.000000D+00
     45   0.000000D+00  0.000000D+00  0.000000D+00  0.000000D+00  0.000000D+00
     46   0.000000D+00  0.000000D+00  0.000000D+00  0.000000D+00  0.000000D+00
                31            32            33            34            35 
      1   0.000000D+00  0.000000D+00  0.000000D+00  0.000000D+00  0.000000D+00
      2   0.000000D+00  0.000000D+00  0.000000D+00  0.000000D+00  0.000000D+00
      3   0.000000D+00  0.000000D+00  0.000000D+00  0.000000D+00  0.000000D+00
      4   0.000000D+00  0.000000D+00  0.000000D+00  0.000000D+00  0.000000D+00
      5   0.000000D+00  0.000000D+00  0.000000D+00  0.000000D+00  0.000000D+00
      6   0.000000D+00  0.000000D+00  0.177066D-05  0.000000D+00  0.000000D+00
      7   0.000000D+00  0.000000D+00  0.000000D+00  0.000000D+00  0.000000D+00
      8   0.000000D+00  0.000000D+00  0.000000D+00  0.000000D+00  0.000000D+00
      9   0.000000D+00 -0.265173D-05 -0.475441D-05  0.000000D+00  0.000000D+00
     10   0.000000D+00  0.475441D-05  0.823601D-05  0.000000D+00  0.000000D+00
     11   0.000000D+00  0.000000D+00  0.000000D+00  0.000000D+00  0.000000D+00
     12   0.000000D+00  0.000000D+00  0.000000D+00  0.000000D+00  0.000000D+00
     13   0.000000D+00  0.000000D+00  0.000000D+00  0.000000D+00  0.000000D+00
     14   0.000000D+00  0.000000D+00  0.000000D+00  0.000000D+00  0.000000D+00
     15   0.000000D+00  0.227132D-01  0.805145D-02  0.000000D+00  0.000000D+00
     16   0.000000D+00  0.000000D+00  0.000000D+00  0.510919D-02  0.000000D+00
     17   0.741876D-02  0.000000D+00  0.000000D+00  0.000000D+00  0.510919D-02
     18   0.000000D+00 -0.367223D-01 -0.133334D-01  0.000000D+00  0.000000D+00
     19   0.000000D+00  0.675680D-01  0.121959D-01  0.000000D+00  0.000000D+00
     20   0.000000D+00  0.000000D+00  0.000000D+00 -0.181926D-01  0.000000D+00
     21  -0.390950D-01  0.000000D+00  0.000000D+00  0.000000D+00 -0.181926D-01
     22   0.000000D+00  0.000000D+00  0.000000D+00  0.000000D+00  0.000000D+00
     23   0.000000D+00  0.000000D+00  0.000000D+00  0.000000D+00  0.000000D+00
     24   0.000000D+00  0.000000D+00  0.000000D+00  0.000000D+00  0.000000D+00
     25   0.000000D+00  0.000000D+00  0.000000D+00  0.000000D+00  0.000000D+00
     26   0.000000D+00  0.000000D+00  0.000000D+00  0.000000D+00  0.000000D+00
     27   0.351981D+00  0.000000D+00  0.000000D+00  0.000000D+00  0.000000D+00
     28   0.000000D+00  0.351981D+00  0.000000D+00  0.000000D+00  0.000000D+00
     29   0.000000D+00  0.000000D+00  0.000000D+00  0.000000D+00  0.000000D+00
     30   0.000000D+00  0.000000D+00  0.000000D+00  0.000000D+00  0.000000D+00
     31   0.100000D+01  0.000000D+00  0.000000D+00  0.000000D+00  0.000000D+00
     32   0.000000D+00  0.100000D+01  0.000000D+00  0.000000D+00  0.000000D+00
     33   0.000000D+00  0.000000D+00  0.100000D+01  0.000000D+00  0.000000D+00
     34   0.000000D+00  0.000000D+00  0.000000D+00  0.100000D+01  0.000000D+00
     35   0.000000D+00  0.000000D+00  0.000000D+00  0.000000D+00  0.100000D+01
     36   0.000000D+00  0.000000D+00  0.000000D+00  0.000000D+00  0.000000D+00
     37   0.000000D+00  0.000000D+00  0.000000D+00  0.000000D+00  0.000000D+00
     38   0.000000D+00  0.000000D+00  0.000000D+00  0.000000D+00  0.000000D+00
     39   0.000000D+00  0.000000D+00  0.000000D+00  0.000000D+00  0.000000D+00
     40   0.212222D+00  0.000000D+00  0.000000D+00  0.000000D+00  0.000000D+00
     41   0.000000D+00  0.212222D+00  0.000000D+00  0.000000D+00  0.000000D+00
     42   0.000000D+00  0.000000D+00  0.556204D-01  0.000000D+00  0.000000D+00
     43   0.000000D+00  0.000000D+00  0.000000D+00  0.556204D-01  0.000000D+00
     44   0.000000D+00  0.000000D+00  0.000000D+00  0.000000D+00  0.556204D-01
     45   0.000000D+00  0.000000D+00  0.000000D+00  0.000000D+00  0.000000D+00
     46   0.000000D+00  0.000000D+00  0.000000D+00  0.000000D+00  0.000000D+00
                36            37            38            39            40 
      1   0.000000D+00  0.000000D+00  0.966542D-03  0.000000D+00  0.000000D+00
      2   0.000000D+00  0.000000D+00  0.597590D-02  0.000000D+00  0.000000D+00
      3   0.000000D+00  0.000000D+00  0.000000D+00  0.442174D-03  0.000000D+00
      4   0.000000D+00  0.000000D+00  0.000000D+00  0.000000D+00  0.442174D-03
      5   0.000000D+00  0.000000D+00 -0.141759D-02  0.000000D+00  0.000000D+00
      6   0.000000D+00  0.000000D+00  0.350599D-01  0.000000D+00  0.000000D+00
      7   0.000000D+00  0.000000D+00  0.000000D+00  0.741876D-02  0.000000D+00
      8   0.000000D+00  0.000000D+00  0.000000D+00  0.000000D+00  0.741876D-02
      9   0.000000D+00  0.000000D+00 -0.227132D-01  0.000000D+00  0.000000D+00
     10   0.000000D+00  0.000000D+00  0.805145D-02  0.000000D+00  0.000000D+00
     11   0.000000D+00  0.000000D+00  0.000000D+00 -0.510919D-02  0.000000D+00
     12   0.000000D+00  0.000000D+00  0.000000D+00  0.000000D+00 -0.510919D-02
     13   0.000000D+00  0.000000D+00  0.000000D+00  0.000000D+00  0.000000D+00
     14   0.000000D+00  0.000000D+00  0.000000D+00  0.000000D+00  0.000000D+00
     15   0.000000D+00  0.000000D+00  0.278173D+00  0.000000D+00  0.000000D+00
     16   0.000000D+00  0.000000D+00  0.000000D+00  0.151165D+00  0.000000D+00
     17   0.000000D+00  0.000000D+00  0.000000D+00  0.000000D+00  0.151165D+00
     18   0.000000D+00  0.000000D+00 -0.342512D+00  0.000000D+00  0.000000D+00
     19   0.000000D+00  0.000000D+00  0.395731D+00  0.000000D+00  0.000000D+00
     20   0.000000D+00  0.000000D+00  0.000000D+00 -0.377201D+00  0.000000D+00
     21   0.000000D+00  0.000000D+00  0.000000D+00  0.000000D+00 -0.377201D+00
     22   0.454010D-02  0.000000D+00  0.000000D+00  0.000000D+00  0.000000D+00
     23   0.000000D+00  0.454010D-02  0.000000D+00  0.000000D+00  0.000000D+00
     24   0.000000D+00  0.000000D+00 -0.382798D-03  0.000000D+00  0.000000D+00
     25   0.000000D+00  0.000000D+00  0.488481D-02  0.000000D+00  0.000000D+00
     26   0.000000D+00  0.000000D+00  0.000000D+00  0.130758D-01  0.000000D+00
     27   0.000000D+00  0.000000D+00  0.000000D+00  0.000000D+00  0.130758D-01
     28   0.000000D+00  0.000000D+00  0.000000D+00  0.000000D+00  0.000000D+00
     29   0.000000D+00  0.000000D+00  0.195676D+00  0.000000D+00  0.000000D+00
     30   0.000000D+00  0.000000D+00  0.000000D+00  0.212222D+00  0.000000D+00
     31   0.000000D+00  0.000000D+00  0.000000D+00  0.000000D+00  0.212222D+00
     32   0.000000D+00  0.000000D+00  0.000000D+00  0.000000D+00  0.000000D+00
     33   0.000000D+00  0.000000D+00  0.000000D+00  0.000000D+00  0.000000D+00
     34   0.000000D+00  0.000000D+00  0.000000D+00  0.000000D+00  0.000000D+00
     35   0.000000D+00  0.000000D+00  0.000000D+00  0.000000D+00  0.000000D+00
     36   0.100000D+01  0.000000D+00  0.000000D+00  0.000000D+00  0.000000D+00
     37   0.000000D+00  0.100000D+01  0.000000D+00  0.000000D+00  0.000000D+00
     38   0.000000D+00  0.000000D+00  0.100000D+01  0.000000D+00  0.000000D+00
     39   0.000000D+00  0.000000D+00  0.000000D+00  0.100000D+01  0.000000D+00
     40   0.000000D+00  0.000000D+00  0.000000D+00  0.000000D+00  0.100000D+01
     41   0.000000D+00  0.000000D+00  0.000000D+00  0.000000D+00  0.000000D+00
     42   0.000000D+00  0.000000D+00  0.000000D+00  0.000000D+00  0.000000D+00
     43   0.000000D+00  0.000000D+00  0.000000D+00  0.000000D+00  0.000000D+00
     44   0.000000D+00  0.000000D+00  0.000000D+00  0.000000D+00  0.000000D+00
     45   0.556204D-01  0.000000D+00  0.000000D+00  0.000000D+00  0.000000D+00
     46   0.000000D+00  0.556204D-01  0.000000D+00  0.000000D+00  0.000000D+00
                41            42            43            44            45 
      1   0.170910D-02  0.595892D-02  0.000000D+00  0.000000D+00  0.000000D+00
      2   0.105293D-01  0.360957D-01  0.000000D+00  0.000000D+00  0.000000D+00
      3   0.000000D+00  0.000000D+00  0.262970D-02  0.000000D+00  0.000000D+00
      4   0.000000D+00  0.000000D+00  0.000000D+00  0.262970D-02  0.000000D+00
      5  -0.229626D-02 -0.503754D-02  0.000000D+00  0.000000D+00  0.000000D+00
      6   0.602565D-01  0.179228D+00  0.000000D+00  0.000000D+00  0.000000D+00
      7   0.000000D+00  0.000000D+00  0.390950D-01  0.000000D+00  0.000000D+00
      8   0.000000D+00  0.000000D+00  0.000000D+00  0.390950D-01  0.000000D+00
      9  -0.367223D-01 -0.675680D-01  0.000000D+00  0.000000D+00  0.000000D+00
     10   0.133334D-01  0.121959D-01  0.000000D+00  0.000000D+00  0.000000D+00
     11   0.000000D+00  0.000000D+00 -0.181926D-01  0.000000D+00  0.000000D+00
     12   0.000000D+00  0.000000D+00  0.000000D+00 -0.181926D-01  0.000000D+00
     13   0.000000D+00  0.000000D+00  0.000000D+00  0.000000D+00  0.454010D-02
     14   0.000000D+00  0.000000D+00  0.000000D+00  0.000000D+00  0.000000D+00
     15   0.342512D+00  0.395731D+00  0.000000D+00  0.000000D+00  0.000000D+00
     16   0.000000D+00  0.000000D+00  0.377201D+00  0.000000D+00  0.000000D+00
     17   0.000000D+00  0.000000D+00  0.000000D+00  0.377201D+00  0.000000D+00
     18  -0.389259D+00 -0.245787D+00  0.000000D+00  0.000000D+00  0.000000D+00
     19   0.245787D+00 -0.463736D-01  0.000000D+00  0.000000D+00  0.000000D+00
     20   0.000000D+00  0.000000D+00 -0.440061D+00  0.000000D+00  0.000000D+00
     21   0.000000D+00  0.000000D+00  0.000000D+00 -0.440061D+00  0.000000D+00
     22   0.000000D+00  0.000000D+00  0.000000D+00  0.000000D+00  0.261341D+00
     23   0.000000D+00  0.000000D+00  0.000000D+00  0.000000D+00  0.000000D+00
     24   0.000000D+00  0.000000D+00  0.000000D+00  0.000000D+00  0.000000D+00
     25   0.000000D+00  0.000000D+00  0.000000D+00  0.000000D+00  0.000000D+00
     26   0.000000D+00  0.000000D+00  0.000000D+00  0.000000D+00  0.000000D+00
     27   0.000000D+00  0.000000D+00  0.000000D+00  0.000000D+00  0.000000D+00
     28   0.130758D-01  0.000000D+00  0.000000D+00  0.000000D+00  0.000000D+00
     29   0.000000D+00  0.000000D+00  0.000000D+00  0.000000D+00  0.000000D+00
     30   0.000000D+00  0.000000D+00  0.000000D+00  0.000000D+00  0.000000D+00
     31   0.000000D+00  0.000000D+00  0.000000D+00  0.000000D+00  0.000000D+00
     32   0.212222D+00  0.000000D+00  0.000000D+00  0.000000D+00  0.000000D+00
     33   0.000000D+00  0.556204D-01  0.000000D+00  0.000000D+00  0.000000D+00
     34   0.000000D+00  0.000000D+00  0.556204D-01  0.000000D+00  0.000000D+00
     35   0.000000D+00  0.000000D+00  0.000000D+00  0.556204D-01  0.000000D+00
     36   0.000000D+00  0.000000D+00  0.000000D+00  0.000000D+00  0.556204D-01
     37   0.000000D+00  0.000000D+00  0.000000D+00  0.000000D+00  0.000000D+00
     38   0.000000D+00  0.000000D+00  0.000000D+00  0.000000D+00  0.000000D+00
     39   0.000000D+00  0.000000D+00  0.000000D+00  0.000000D+00  0.000000D+00
     40   0.000000D+00  0.000000D+00  0.000000D+00  0.000000D+00  0.000000D+00
     41   0.100000D+01  0.000000D+00  0.000000D+00  0.000000D+00  0.000000D+00
     42   0.000000D+00  0.100000D+01  0.000000D+00  0.000000D+00  0.000000D+00
     43   0.000000D+00  0.000000D+00  0.100000D+01  0.000000D+00  0.000000D+00
     44   0.000000D+00  0.000000D+00  0.000000D+00  0.100000D+01  0.000000D+00
     45   0.000000D+00  0.000000D+00  0.000000D+00  0.000000D+00  0.100000D+01
     46   0.000000D+00  0.000000D+00  0.000000D+00  0.000000D+00  0.000000D+00
                46 
      1   0.000000D+00
      2   0.000000D+00
      3   0.000000D+00
      4   0.000000D+00
      5   0.000000D+00
      6   0.000000D+00
      7   0.000000D+00
      8   0.000000D+00
      9   0.000000D+00
     10   0.000000D+00
     11   0.000000D+00
     12   0.000000D+00
     13   0.000000D+00
     14   0.454010D-02
     15   0.000000D+00
     16   0.000000D+00
     17   0.000000D+00
     18   0.000000D+00
     19   0.000000D+00
     20   0.000000D+00
     21   0.000000D+00
     22   0.000000D+00
     23   0.261341D+00
     24   0.000000D+00
     25   0.000000D+00
     26   0.000000D+00
     27   0.000000D+00
     28   0.000000D+00
     29   0.000000D+00
     30   0.000000D+00
     31   0.000000D+00
     32   0.000000D+00
     33   0.000000D+00
     34   0.000000D+00
     35   0.000000D+00
     36   0.000000D+00
     37   0.556204D-01
     38   0.000000D+00
     39   0.000000D+00
     40   0.000000D+00
     41   0.000000D+00
     42   0.000000D+00
     43   0.000000D+00
     44   0.000000D+00
     45   0.000000D+00
     46   0.100000D+01
 Entering OneElI...
 Overlap between basis sets.
 Requested accuracy = 0.1000D-12
 PrsmSu:  NPrtUS=   1 ThrOK=F IAlg=1 NPAlg=1 LenDen=           0.
 Prism:   IPart=     0 DynPar=F LinDyn=F Incr=          11.
 PRISM was handed   802955490 working-precision words and  1144 shell-pairs
 IPart=  0 NShTot=        1144 NBatch=          92 AvBLen=        12.4
 PrSmSu:  NxtVal=             12.
 CnvPC2: ToCart=F DoDens=F IPureD=0 IPureF=0.
 Transformed matrix in CnvPC2: 
                 1             2             3             4             5 
      1   0.999796D+00  0.411773D+00  0.000000D+00  0.000000D+00  0.000000D+00
      2   0.289972D+00  0.988508D+00  0.000000D+00  0.000000D+00  0.000000D+00
      3   0.000000D+00  0.000000D+00  0.999253D+00  0.000000D+00  0.000000D+00
      4   0.000000D+00  0.000000D+00  0.000000D+00  0.999253D+00  0.000000D+00
      5   0.000000D+00  0.000000D+00  0.000000D+00  0.000000D+00  0.999253D+00
      6   0.134764D-01  0.325040D+00  0.000000D+00  0.000000D+00  0.000000D+00
      7   0.000000D+00  0.000000D+00  0.349152D+00  0.000000D+00  0.000000D+00
      8   0.000000D+00  0.000000D+00  0.000000D+00  0.349152D+00  0.000000D+00
      9   0.000000D+00  0.000000D+00  0.000000D+00  0.000000D+00  0.349152D+00
     10   0.000000D+00  0.000000D+00  0.000000D+00  0.000000D+00  0.000000D+00
     11   0.000000D+00  0.000000D+00  0.000000D+00  0.000000D+00  0.000000D+00
     12   0.000000D+00  0.000000D+00  0.000000D+00  0.000000D+00  0.000000D+00
     13   0.000000D+00  0.000000D+00  0.000000D+00  0.000000D+00  0.000000D+00
     14   0.000000D+00  0.000000D+00  0.000000D+00  0.000000D+00  0.000000D+00
     15   0.136505D-03  0.112901D-01  0.000000D+00  0.000000D+00  0.000000D+00
     16   0.438220D-02  0.266691D-01  0.000000D+00  0.000000D+00  0.000000D+00
     17   0.000000D+00  0.000000D+00  0.817497D-02  0.000000D+00  0.000000D+00
     18   0.000000D+00  0.000000D+00  0.000000D+00  0.817497D-02  0.000000D+00
     19   0.000000D+00  0.000000D+00  0.000000D+00  0.000000D+00  0.817497D-02
     20   0.000000D+00  0.000000D+00  0.116279D-02  0.000000D+00  0.000000D+00
     21   0.000000D+00  0.000000D+00  0.000000D+00  0.116279D-02  0.000000D+00
     22   0.000000D+00  0.000000D+00  0.000000D+00  0.000000D+00  0.116279D-02
     23   0.148177D+00  0.678734D+00  0.000000D+00  0.000000D+00  0.000000D+00
     24   0.955899D-01  0.493951D+00  0.000000D+00  0.000000D+00  0.000000D+00
     25   0.611725D-01  0.339847D+00  0.000000D+00  0.000000D+00  0.000000D+00
     26   0.389725D-01  0.225748D+00  0.000000D+00  0.000000D+00  0.000000D+00
     27   0.247680D-01  0.146878D+00  0.000000D+00  0.000000D+00  0.000000D+00
     28   0.157195D-01  0.944404D-01  0.000000D+00  0.000000D+00  0.000000D+00
     29   0.000000D+00  0.000000D+00  0.206184D+00  0.000000D+00  0.000000D+00
     30   0.000000D+00  0.000000D+00  0.000000D+00  0.206184D+00  0.000000D+00
     31   0.000000D+00  0.000000D+00  0.000000D+00  0.000000D+00  0.206184D+00
     32   0.000000D+00  0.000000D+00  0.120751D+00  0.000000D+00  0.000000D+00
     33   0.000000D+00  0.000000D+00  0.000000D+00  0.120751D+00  0.000000D+00
     34   0.000000D+00  0.000000D+00  0.000000D+00  0.000000D+00  0.120751D+00
     35   0.000000D+00  0.000000D+00  0.681853D-01  0.000000D+00  0.000000D+00
     36   0.000000D+00  0.000000D+00  0.000000D+00  0.681853D-01  0.000000D+00
     37   0.000000D+00  0.000000D+00  0.000000D+00  0.000000D+00  0.681853D-01
     38   0.000000D+00  0.000000D+00  0.375966D-01  0.000000D+00  0.000000D+00
     39   0.000000D+00  0.000000D+00  0.000000D+00  0.375966D-01  0.000000D+00
     40   0.000000D+00  0.000000D+00  0.000000D+00  0.000000D+00  0.375966D-01
     41   0.000000D+00  0.000000D+00  0.204200D-01  0.000000D+00  0.000000D+00
     42   0.000000D+00  0.000000D+00  0.000000D+00  0.204200D-01  0.000000D+00
     43   0.000000D+00  0.000000D+00  0.000000D+00  0.000000D+00  0.204200D-01
     44   0.000000D+00  0.000000D+00  0.109874D-01  0.000000D+00  0.000000D+00
     45   0.000000D+00  0.000000D+00  0.000000D+00  0.109874D-01  0.000000D+00
     46   0.000000D+00  0.000000D+00  0.000000D+00  0.000000D+00  0.109874D-01
     47   0.000000D+00  0.000000D+00  0.000000D+00  0.000000D+00  0.000000D+00
     48   0.000000D+00  0.000000D+00  0.000000D+00  0.000000D+00  0.000000D+00
     49   0.000000D+00  0.000000D+00  0.000000D+00  0.000000D+00  0.000000D+00
     50   0.000000D+00  0.000000D+00  0.000000D+00  0.000000D+00  0.000000D+00
     51   0.000000D+00  0.000000D+00  0.000000D+00  0.000000D+00  0.000000D+00
     52   0.000000D+00  0.000000D+00  0.000000D+00  0.000000D+00  0.000000D+00
     53   0.000000D+00  0.000000D+00  0.000000D+00  0.000000D+00  0.000000D+00
     54   0.000000D+00  0.000000D+00  0.000000D+00  0.000000D+00  0.000000D+00
     55   0.000000D+00  0.000000D+00  0.000000D+00  0.000000D+00  0.000000D+00
     56   0.000000D+00  0.000000D+00  0.000000D+00  0.000000D+00  0.000000D+00
     57   0.000000D+00  0.000000D+00  0.000000D+00  0.000000D+00  0.000000D+00
     58   0.000000D+00  0.000000D+00  0.000000D+00  0.000000D+00  0.000000D+00
     59   0.000000D+00  0.000000D+00  0.000000D+00  0.000000D+00  0.000000D+00
     60   0.000000D+00  0.000000D+00  0.000000D+00  0.000000D+00  0.000000D+00
     61   0.000000D+00  0.000000D+00  0.000000D+00  0.000000D+00  0.000000D+00
     62   0.000000D+00  0.000000D+00  0.000000D+00  0.000000D+00  0.000000D+00
     63   0.000000D+00  0.000000D+00  0.000000D+00  0.000000D+00  0.000000D+00
     64   0.000000D+00  0.000000D+00  0.000000D+00  0.000000D+00  0.000000D+00
     65   0.000000D+00  0.000000D+00  0.000000D+00  0.000000D+00  0.000000D+00
     66   0.000000D+00  0.000000D+00  0.000000D+00  0.000000D+00  0.000000D+00
     67   0.000000D+00  0.000000D+00  0.000000D+00  0.000000D+00  0.000000D+00
     68   0.000000D+00  0.000000D+00  0.000000D+00  0.000000D+00  0.000000D+00
     69   0.000000D+00  0.000000D+00  0.000000D+00  0.000000D+00  0.000000D+00
     70   0.000000D+00  0.000000D+00  0.000000D+00  0.000000D+00  0.000000D+00
     71   0.000000D+00  0.000000D+00  0.000000D+00  0.000000D+00  0.000000D+00
     72   0.000000D+00  0.000000D+00  0.000000D+00  0.000000D+00  0.000000D+00
     73   0.000000D+00  0.000000D+00  0.000000D+00  0.000000D+00  0.000000D+00
     74   0.000000D+00  0.000000D+00  0.000000D+00  0.000000D+00  0.000000D+00
     75   0.000000D+00  0.000000D+00  0.000000D+00  0.000000D+00  0.000000D+00
     76   0.000000D+00  0.000000D+00  0.000000D+00  0.000000D+00  0.000000D+00
     77   0.000000D+00  0.000000D+00  0.000000D+00  0.000000D+00  0.000000D+00
     78   0.000000D+00  0.000000D+00  0.000000D+00  0.000000D+00  0.000000D+00
     79   0.000000D+00  0.000000D+00  0.000000D+00  0.000000D+00  0.000000D+00
     80   0.000000D+00  0.000000D+00  0.000000D+00  0.000000D+00  0.000000D+00
     81   0.000000D+00  0.000000D+00  0.000000D+00  0.000000D+00  0.000000D+00
     82   0.000000D+00  0.000000D+00  0.000000D+00  0.000000D+00  0.000000D+00
     83   0.000000D+00  0.000000D+00  0.000000D+00  0.000000D+00  0.000000D+00
     84   0.000000D+00  0.000000D+00  0.000000D+00  0.000000D+00  0.000000D+00
     85   0.000000D+00  0.000000D+00  0.000000D+00  0.000000D+00  0.000000D+00
     86   0.000000D+00  0.000000D+00  0.000000D+00  0.000000D+00  0.000000D+00
     87   0.000000D+00  0.000000D+00  0.000000D+00  0.000000D+00  0.000000D+00
     88   0.000000D+00  0.000000D+00  0.000000D+00  0.000000D+00  0.000000D+00
     89   0.000000D+00  0.000000D+00  0.000000D+00  0.000000D+00  0.000000D+00
     90   0.000000D+00  0.000000D+00  0.000000D+00  0.000000D+00  0.000000D+00
     91   0.000000D+00  0.000000D+00  0.000000D+00  0.000000D+00  0.000000D+00
     92   0.000000D+00  0.000000D+00  0.000000D+00  0.000000D+00  0.000000D+00
     93   0.000000D+00  0.000000D+00  0.000000D+00  0.000000D+00  0.000000D+00
     94   0.000000D+00  0.000000D+00  0.000000D+00  0.000000D+00  0.000000D+00
     95   0.000000D+00  0.000000D+00  0.000000D+00  0.000000D+00  0.000000D+00
     96   0.000000D+00  0.000000D+00  0.000000D+00  0.000000D+00  0.000000D+00
     97   0.000000D+00  0.000000D+00  0.000000D+00  0.000000D+00  0.000000D+00
     98   0.000000D+00  0.000000D+00  0.000000D+00  0.000000D+00  0.000000D+00
     99   0.000000D+00  0.000000D+00  0.000000D+00  0.000000D+00  0.000000D+00
    100   0.000000D+00  0.000000D+00  0.000000D+00  0.000000D+00  0.000000D+00
    101   0.000000D+00  0.000000D+00  0.000000D+00  0.000000D+00  0.000000D+00
    102   0.000000D+00  0.000000D+00  0.000000D+00  0.000000D+00  0.000000D+00
    103   0.000000D+00  0.000000D+00  0.000000D+00  0.000000D+00  0.000000D+00
    104   0.000000D+00  0.000000D+00  0.000000D+00  0.000000D+00  0.000000D+00
    105   0.000000D+00  0.000000D+00  0.000000D+00  0.000000D+00  0.000000D+00
    106   0.000000D+00  0.000000D+00  0.000000D+00  0.000000D+00  0.000000D+00
    107   0.000000D+00  0.000000D+00  0.000000D+00  0.000000D+00  0.000000D+00
    108   0.000000D+00  0.000000D+00  0.000000D+00  0.000000D+00  0.000000D+00
    109   0.000000D+00  0.000000D+00  0.000000D+00  0.000000D+00  0.000000D+00
[...]

                         Single Excitations  =     0.000000 A.U.

                          Total second order =    -0.295771 A.U.



            MP2(CBS) (With Interference Correction) 
            ---------------------------------------

 AB - AA |     29        30        31        32        33
 BA - BB |     29        30        31        32        33
------------------------------------------------------------
   29    | -0.018672 -0.006046 -0.001840 -0.001840 -0.005950
   29    |  0.000000 -0.006046 -0.001840 -0.001840 -0.005950
         |
   30    | -0.009670 -0.021694 -0.002399 -0.002399 -0.007780
   30    | -0.009670  0.000000 -0.002399 -0.002399 -0.007780
         |
   31    | -0.004978 -0.005591 -0.019208 -0.000044 -0.002370
   31    | -0.004978 -0.005591  0.000000 -0.000044 -0.002370
         |
   32    | -0.004978 -0.005591 -0.000149 -0.019208 -0.002370
   32    | -0.004978 -0.005591 -0.000149  0.000000 -0.002370
         |
   33    | -0.009509 -0.011374 -0.005558 -0.005558 -0.021595
   33    | -0.009509 -0.011374 -0.005558 -0.005558  0.000000
         |

                     Sum of ab pair energies =    -0.163331 A.U.
                     Sum of ba pair energies =    -0.062955 A.U.
                     Sum of aa pair energies =    -0.033037 A.U.
                     Sum of bb pair energies =    -0.033037 A.U.

           Sum of intraorbital pair energies =    -0.100376 A.U.
           Sum of interorbital pair energies =    -0.191984 A.U.
                                                  ----------
                         Total pair energies =    -0.292360 A.U.

                         Single Excitations  =     0.000000 A.U.

                          Total second order =    -0.292360 A.U.

                         E2(CBS) - E2(Dir) =      -0.005994 A.U.

 E2(CBS)=      -0.295771 CBS-Int=       0.003411 OIii=       1.278056

 **********************************************************************

            Population analysis using the SCF density.

 **********************************************************************

 Orbital symmetries:
       Occupied  (SGG) (SGU) (SGG) (SGU) (PIG) (PIG) (PIU) (PIU)
                 (SGU) (SGG) (SGG) (SGU) (PIU) (PIU) (PIG) (PIG)
                 (SGG) (SGU) (SGG) (DLTG) (DLTG) (DLTU) (DLTU)
                 (PIU) (PIU) (PIG) (PIG) (SGU) (SGG) (SGU) (SGG)
                 (PIU) (PIU)
       Virtual   (PIG) (PIG) (SGU) (SGG) (PIU) (PIU) (SGG) (PIG)
                 (PIG) (SGU) (DLTG) (DLTG) (SGU) (PIU) (PIU) (DLTU)
                 (DLTU) (SGG) (PIG) (PIG) (SGG) (SGU) (PIU) (PIU)
                 (DLTG) (DLTG) (SGG) (PHIU) (PHIU) (PIG) (PIG)
                 (SGU) (PIU) (PIU) (DLTG) (DLTG) (DLTU) (DLTU)
                 (PHIG) (PHIG) (SGG) (SGU) (DLTU) (DLTU) (PIG)
                 (PIG) (PIU) (PIU) (SGU) (SGG) (?A) (?A) (PIG)
                 (PIG) (PIU) (PIU) (PHIU) (PHIU) (DLTG) (DLTG)
                 (SGG) (?B) (?B) (PIG) (PIG) (DLTU) (DLTU) (PIU)
                 (PIU) (SGU) (SGG) (PHIU) (PHIU) (DLTG) (DLTG)
                 (PHIG) (PHIG) (SGG) (DLTG) (DLTG) (SGU) (PIU)
                 (PIU) (DLTU) (DLTU) (PIG) (PIG) (PHIG) (PHIG)
                 (SGU) (?C) (?C) (PIU) (PIU) (PIG) (PIG) (?A) (?A)
                 (SGU) (DLTU) (DLTU) (SGG) (?D) (?D) (PIG) (PIG)
                 (PIU) (PIU) (PHIU) (PHIU) (SGG) (?B) (?B) (DLTU)
                 (DLTU) (SGG) (DLTG) (DLTG) (?A) (?A) (PHIU) (PHIU)
                 (SGU) (PHIG) (PHIG) (?B) (?B) (SGU) (PIG) (PIG)
                 (DLTG) (DLTG) (DLTG) (DLTG) (PIU) (PIU) (SGG)
                 (DLTU) (DLTU) (PHIU) (PHIU) (SGU) (PHIG) (PHIG)
                 (PIG) (PIG) (PIU) (PIU) (SGG) (PHIG) (PHIG) (PIG)
                 (PIG) (DLTG) (DLTG) (PIU) (PIU) (?C) (?C) (?E)
                 (?E) (DLTU) (DLTU) (SGU) (?F) (?F) (SGU) (PIG)
                 (PIG) (SGG) (?A) (?A) (DLTU) (DLTU) (SGG) (?D)
                 (?D) (PIU) (PIU) (PHIU) (PHIU) (?C) (?C) (?A)
                 (?A) (SGU) (PIU) (PIU) (?D) (?D) (SGG) (?B) (?B)
                 (DLTG) (DLTG) (PIG) (PIG) (PHIU) (PHIU) (DLTU)
                 (DLTU) (DLTG) (DLTG) (?A) (?A) (?B) (?B) (PHIG)
                 (PHIG) (PIG) (PIG) (PHIU) (PHIU) (SGU) (?B) (?B)
                 (SGG) (PIU) (PIU) (PHIG) (PHIG) (PIU) (PIU) (DLTU)
                 (DLTU) (PIG) (PIG) (SGU) (DLTG) (DLTG) (SGG) (DLTU)
                 (DLTU) (PHIG) (PHIG) (PIG) (PIG) (SGU) (PHIU)
                 (PHIU) (DLTG) (DLTG) (SGG) (PHIG) (PHIG) (SGU)
                 (DLTG) (DLTG) (DLTU) (DLTU) (PIU) (PIU) (SGG)
                 (PIG) (PIG) (PIU) (PIU) (SGG) (SGU) (PIG) (PIG)
                 (PIU) (PIU) (DLTU) (DLTU) (SGU) (?A) (?A) (?C)
                 (?C) (PHIU) (PHIU) (?E) (?E) (DLTG) (DLTG) (?F)
                 (?F) (SGG) (PIU) (PIU) (?D) (?D) (?C) (?C) (PIG)
                 (PIG) (?A) (?A) (SGG) (?D) (?D) (?B) (?B) (?A)
                 (?A) (DLTU) (DLTU) (PHIU) (PHIU) (?B) (?B) (PHIG)
                 (PHIG) (PHIU) (PHIU) (PIU) (PIU) (?B) (?B) (SGU)
                 (PIG) (PIG) (PHIG) (PHIG) (DLTG) (DLTG) (DLTU)
                 (DLTU) (SGU) (PIG) (PIG) (DLTG) (DLTG) (SGG) (SGG)
                 (PIU) (PIU) (PHIG) (PHIG) (SGU) (SGU) (DLTU) (DLTU)
                 (PHIU) (PHIU) (PHIG) (PHIG) (PIG) (PIG) (DLTG)
                 (DLTG) (SGG) (DLTG) (DLTG) (PIU) (PIU) (?A) (?A)
                 (?C) (?C) (DLTU) (DLTU) (?E) (?E) (?G) (?G) (?H)
                 (?H) (?F) (?F) (SGU) (DLTU) (DLTU) (PHIU) (PHIU)
                 (?D) (?D) (PIG) (PIG) (PIU) (PIU) (SGG) (DLTG)
                 (DLTG) (SGU) (?B) (?B) (PIG) (PIG) (PIU) (PIU)
                 (SGG) (SGU) (PIU) (PIU) (SGG) (PIG) (PIG) (?A)
                 (?A) (PHIG) (PHIG) (PHIU) (PHIU) (?B) (?B) (PIG)
                 (PIG) (SGG) (DLTG) (DLTG) (DLTU) (DLTU) (PHIG)
                 (PHIG) (SGU) (PIU) (PIU) (?C) (?C) (?A) (?A) (SGG)
                 (?D) (?D) (PHIU) (PHIU) (?C) (?C) (?E) (?E) (DLTU)
                 (DLTU) (?B) (?B) (SGU) (?F) (?F) (?A) (?A) (?D)
                 (?D) (PIG) (PIG) (DLTG) (DLTG) (PIU) (PIU) (PHIU)
                 (PHIU) (PHIG) (PHIG) (?B) (?B) (SGU) (DLTU) (DLTU)
                 (SGG) (DLTG) (DLTG) (PIG) (PIG) (PHIG) (PHIG)
                 (SGU) (SGU) (PIU) (PIU) (DLTU) (DLTU) (SGU) (SGG)
                 (PIG) (PIG) (PHIU) (PHIU) (PHIG) (PHIG) (DLTG)
                 (DLTG) (DLTU) (DLTU) (SGG) (PIU) (PIU) (PIG) (PIG)
                 (SGU) (DLTG) (DLTG) (DLTU) (DLTU) (PIU) (PIU)
                 (PIG) (PIG) (SGG) (SGU) (PIU) (PIU) (PIG) (PIG)
                 (SGG) (SGU) (SGG) (SGU) (SGG) (SGU)
 The electronic state is 1-SGG.
 Alpha  occ. eigenvalues -- -432.59881-432.59881 -56.32229 -56.32228 -50.16690
 Alpha  occ. eigenvalues --  -50.16690 -50.16690 -50.16690 -50.16571 -50.16571
 Alpha  occ. eigenvalues --   -8.04292  -8.04265  -5.89572  -5.89572  -5.89553
 Alpha  occ. eigenvalues --   -5.89553  -5.89342  -5.89201  -2.13220  -2.13004
 Alpha  occ. eigenvalues --   -2.13004  -2.12902  -2.12902  -2.12810  -2.12810
 Alpha  occ. eigenvalues --   -2.12223  -2.12223  -2.11761  -0.86045  -0.60908
 Alpha  occ. eigenvalues --   -0.38014  -0.34176  -0.34176
 Alpha virt. eigenvalues --    0.00148   0.00148   0.03995   0.05265   0.06511
 Alpha virt. eigenvalues --    0.06511   0.07593   0.08330   0.08330   0.13411
 Alpha virt. eigenvalues --    0.13498   0.13498   0.16519   0.18580   0.18580
 Alpha virt. eigenvalues --    0.19433   0.19433   0.20110   0.23634   0.23634
 Alpha virt. eigenvalues --    0.26512   0.28329   0.28338   0.28338   0.33929
 Alpha virt. eigenvalues --    0.33929   0.35326   0.35838   0.35838   0.36878
 Alpha virt. eigenvalues --    0.36878   0.38297   0.38468   0.38468   0.42778
 Alpha virt. eigenvalues --    0.42778   0.43357   0.43357   0.44330   0.44330
 Alpha virt. eigenvalues --    0.46776   0.50201   0.50673   0.50673   0.50844
 Alpha virt. eigenvalues --    0.50844   0.50917   0.50917   0.59123   0.67270
 Alpha virt. eigenvalues --    0.68078   0.68078   0.69820   0.69820   0.71113
 Alpha virt. eigenvalues --    0.71113   0.74625   0.74625   0.76958   0.76958
 Alpha virt. eigenvalues --    0.78744   0.79129   0.79129   0.81909   0.81909
 Alpha virt. eigenvalues --    0.83242   0.83242   0.84315   0.84315   0.84922
 Alpha virt. eigenvalues --    0.85139   0.89446   0.89446   0.90593   0.90593
 Alpha virt. eigenvalues --    0.91828   0.91828   0.93260   0.93506   0.93506
 Alpha virt. eigenvalues --    0.94748   0.96277   0.96277   0.96688   0.96688
 Alpha virt. eigenvalues --    0.98361   0.98361   1.00174   1.00174   1.07227
 Alpha virt. eigenvalues --    1.18488   1.18488   1.20423   1.20423   1.20748
 Alpha virt. eigenvalues --    1.20748   1.23903   1.23903   1.24511   1.27865
 Alpha virt. eigenvalues --    1.27865   1.30574   1.31215   1.31215   1.37468
 Alpha virt. eigenvalues --    1.37468   1.38003   1.38003   1.43565   1.43565
 Alpha virt. eigenvalues --    1.46503   1.49811   1.49811   1.50145   1.50145
 Alpha virt. eigenvalues --    1.51344   1.52694   1.52694   1.54656   1.54656
 Alpha virt. eigenvalues --    1.57829   1.57829   1.64811   1.64889   1.64889
 Alpha virt. eigenvalues --    1.65158   1.65158   1.65973   1.67598   1.67598
 Alpha virt. eigenvalues --    1.69094   1.69094   1.71686   1.71686   1.75596
 Alpha virt. eigenvalues --    1.75596   1.76786   1.78733   1.78733   1.83003
 Alpha virt. eigenvalues --    1.83003   1.83357   1.84764   1.84764   1.85333
 Alpha virt. eigenvalues --    1.85333   1.87841   1.87841   1.90411   1.96750
 Alpha virt. eigenvalues --    1.96750   1.98820   1.98820   1.99513   1.99513
 Alpha virt. eigenvalues --    2.02216   2.02216   2.09343   2.09343   2.09491
 Alpha virt. eigenvalues --    2.09491   2.11850   2.11850   2.19976   2.22072
 Alpha virt. eigenvalues --    2.22072   2.26995   2.28349   2.28349   2.28912
 Alpha virt. eigenvalues --    2.31202   2.31202   2.37409   2.37409   2.39122
 Alpha virt. eigenvalues --    2.43934   2.43934   2.44861   2.44861   2.60149
 Alpha virt. eigenvalues --    2.60149   2.62808   2.62808   2.63160   2.63160
 Alpha virt. eigenvalues --    2.69575   2.70141   2.70141   2.72387   2.72387
 Alpha virt. eigenvalues --    2.73530   2.74589   2.74589   2.77323   2.77323
 Alpha virt. eigenvalues --    2.77786   2.77786   2.78575   2.78575   2.82921
 Alpha virt. eigenvalues --    2.82921   2.88221   2.88221   2.91142   2.91142
 Alpha virt. eigenvalues --    2.91490   2.91490   2.91809   2.91809   2.94262
 Alpha virt. eigenvalues --    2.94262   2.99205   2.99205   2.99843   3.00820
 Alpha virt. eigenvalues --    3.00820   3.01178   3.08908   3.08908   3.12524
 Alpha virt. eigenvalues --    3.12524   3.15862   3.15862   3.18725   3.18725
 Alpha virt. eigenvalues --    3.21289   3.21289   3.24527   3.26895   3.26895
 Alpha virt. eigenvalues --    3.33270   3.34240   3.34240   3.35061   3.35061
 Alpha virt. eigenvalues --    3.35747   3.35747   3.38710   3.43751   3.43751
 Alpha virt. eigenvalues --    3.48390   3.48390   3.54067   3.63332   3.63332
 Alpha virt. eigenvalues --    3.66830   3.71518   3.71518   3.77660   3.77660
 Alpha virt. eigenvalues --    3.81982   3.81982   3.91311   4.10437   4.10437
 Alpha virt. eigenvalues --    4.15339   4.15339   4.24709   4.27816   4.35434
 Alpha virt. eigenvalues --    4.35434   4.46306   4.46306   4.50399   4.50399
 Alpha virt. eigenvalues --    4.53355   4.55092   4.55092   4.59696   4.59696
 Alpha virt. eigenvalues --    4.61092   4.61092   4.64559   4.64559   4.70223
 Alpha virt. eigenvalues --    4.70223   4.70985   4.70985   4.72081   4.83910
 Alpha virt. eigenvalues --    4.83910   4.85397   4.85397   4.99945   4.99945
 Alpha virt. eigenvalues --    5.01612   5.01612   5.03042   5.03042   5.06601
 Alpha virt. eigenvalues --    5.06841   5.06841   5.10620   5.10620   5.14840
 Alpha virt. eigenvalues --    5.14840   5.18187   5.18187   5.18743   5.18743
 Alpha virt. eigenvalues --    5.22930   5.22930   5.24562   5.24562   5.24828
 Alpha virt. eigenvalues --    5.24828   5.26335   5.26335   5.26362   5.26362
 Alpha virt. eigenvalues --    5.31233   5.31468   5.31468   5.36993   5.36993
 Alpha virt. eigenvalues --    5.37523   5.37523   5.43748   5.43748   5.45466
 Alpha virt. eigenvalues --    5.49439   5.49439   5.49930   5.49930   5.53077
 Alpha virt. eigenvalues --    5.75068   5.77865   5.77865   5.83503   5.83503
 Alpha virt. eigenvalues --    5.91029   6.24446   6.30658   6.30658   6.53696
 Alpha virt. eigenvalues --    6.53696   6.63075   6.63075   6.66058   6.66058
 Alpha virt. eigenvalues --    6.68788   6.68788   6.79482   6.86539   6.86539
 Alpha virt. eigenvalues --    6.92391   6.92391   6.95220   6.95220   6.97135
 Alpha virt. eigenvalues --    6.97135   7.08813   7.08813   7.11438   7.11438
 Alpha virt. eigenvalues --    7.15994   7.15994   7.17059   7.17059   7.23290
 Alpha virt. eigenvalues --    7.23290   7.26607   7.30504   7.30504   7.31886
 Alpha virt. eigenvalues --    7.31886   7.47181   7.47181   7.47216   7.47216
 Alpha virt. eigenvalues --    7.61732   7.61732   7.88823   7.89185   7.89185
 Alpha virt. eigenvalues --    7.97902   8.01533   8.01533   8.16987   8.16987
 Alpha virt. eigenvalues --    8.18125   8.18125   8.33027   8.38680   8.45873
 Alpha virt. eigenvalues --    8.45873   8.51547   8.65220   8.65220   8.74502
 Alpha virt. eigenvalues --    8.74502   8.75274   8.75274   8.77591   8.77591
 Alpha virt. eigenvalues --    8.79756   8.79756   8.83135   8.83135   8.86244
 Alpha virt. eigenvalues --    8.86634   8.86634   8.88738   8.88738   8.91688
 Alpha virt. eigenvalues --    8.91688   8.92577   8.93295   8.93295   9.08654
 Alpha virt. eigenvalues --    9.08654   9.08975   9.08975   9.13185   9.13508
 Alpha virt. eigenvalues --    9.13508   9.17172   9.17172   9.20564   9.20564
 Alpha virt. eigenvalues --    9.21541   9.21541   9.24052   9.24052   9.24582
 Alpha virt. eigenvalues --    9.24582   9.25484   9.25909   9.25909   9.29312
 Alpha virt. eigenvalues --    9.29312   9.36187   9.36187   9.40736   9.40736
 Alpha virt. eigenvalues --    9.42642   9.42642   9.48294   9.48294   9.54710
 Alpha virt. eigenvalues --    9.54710   9.54807   9.54807   9.57601   9.57601
 Alpha virt. eigenvalues --    9.80500   9.83998   9.83998   9.85793   9.95199
 Alpha virt. eigenvalues --    9.95199   9.95352   9.95352   9.96132   9.96132
 Alpha virt. eigenvalues --   10.29719  10.63360  10.76808  10.76808  10.90054
 Alpha virt. eigenvalues --   10.90054  11.31967  11.63900  11.68273  11.68273
 Alpha virt. eigenvalues --   11.86589  11.86589  11.94555  11.94555  12.09637
 Alpha virt. eigenvalues --   12.09637  12.45093  12.45093  12.45290  12.58673
 Alpha virt. eigenvalues --   12.58673  13.37939  13.37939  13.78859  13.98833
 Alpha virt. eigenvalues --   13.98833  14.29456  14.29456  14.95882  14.95882
 Alpha virt. eigenvalues --   15.27242  15.27242  15.76429  16.44255  18.22752
 Alpha virt. eigenvalues --   18.22752  18.73177  18.73177  19.21335  19.23621
 Alpha virt. eigenvalues --   21.12763  22.25416 455.36236 467.58015
          Condensed to atoms (all electrons):
              1          2
     1  As  32.127025   0.872975
     2  As   0.872975  32.127025
          Atomic-Atomic Spin Densities.
              1          2
     1  As   0.000000   0.000000
     2  As   0.000000   0.000000
 Mulliken charges and spin densities:
              1          2
     1  As   0.000000   0.000000
     2  As   0.000000   0.000000
 Sum of Mulliken charges =   0.00000 spin densities =   0.000000
 Mulliken charges and spin densities with hydrogens summed into heavy atoms:
              1          2
     1  As   0.000000   0.000000
     2  As   0.000000   0.000000
 Sum of Mulliken charges with hydrogens summed into heavy atoms =   0.00000 spin densities =   0.000000
 Electronic spatial extent (au):  <R**2>=            340.9629
 Charge=              0.0000 electrons
 Dipole moment (field-independent basis, Debye):
    X=              0.0000    Y=              0.0000    Z=              0.0000  Tot=              0.0000
 Quadrupole moment (field-independent basis, Debye-Ang):
   XX=            -36.7295   YY=            -36.7295   ZZ=            -34.7766
   XY=              0.0000   XZ=              0.0000   YZ=              0.0000
 Traceless Quadrupole moment (field-independent basis, Debye-Ang):
   XX=             -0.6510   YY=             -0.6510   ZZ=              1.3020
   XY=              0.0000   XZ=              0.0000   YZ=              0.0000
 Octapole moment (field-independent basis, Debye-Ang**2):
  XXX=              0.0000  YYY=              0.0000  ZZZ=              0.0000  XYY=              0.0000
  XXY=              0.0000  XXZ=              0.0000  XZZ=              0.0000  YZZ=              0.0000
  YYZ=              0.0000  XYZ=              0.0000
 Hexadecapole moment (field-independent basis, Debye-Ang**3):
 XXXX=            -58.8102 YYYY=            -58.8102 ZZZZ=           -293.7594 XXXY=              0.0000
 XXXZ=              0.0000 YYYX=              0.0000 YYYZ=              0.0000 ZZZX=              0.0000
 ZZZY=              0.0000 XXYY=            -19.6034 XXZZ=            -55.4796 YYZZ=            -55.4796
 XXYZ=              0.0000 YYXZ=              0.0000 ZZXY=              0.0000
 N-N= 2.740768477858D+02 E-N=-1.686802185718D+04  KE= 6.702583553144D+03
                          Isotropic Fermi Contact Couplings
        Atom                 a.u.       MegaHertz       Gauss      10(-4) cm-1
     1  As(75)             0.00000       0.00000       0.00000       0.00000
     2  As(75)             0.00000       0.00000       0.00000       0.00000
 --------------------------------------------------------
       Center         ----  Spin Dipole Couplings  ----
                      3XX-RR        3YY-RR        3ZZ-RR
 --------------------------------------------------------
     1   Atom        0.000000      0.000000      0.000000
     2   Atom        0.000000      0.000000      0.000000
 --------------------------------------------------------
                        XY            XZ            YZ
 --------------------------------------------------------
     1   Atom        0.000000      0.000000      0.000000
     2   Atom        0.000000      0.000000      0.000000
 --------------------------------------------------------


 ---------------------------------------------------------------------------------
              Anisotropic Spin Dipole Couplings in Principal Axis System
 ---------------------------------------------------------------------------------

       Atom             a.u.   MegaHertz   Gauss  10(-4) cm-1        Axes

              Baa     0.0000     0.000     0.000     0.000  1.0000  0.0000  0.0000
     1 As(75) Bbb     0.0000     0.000     0.000     0.000  0.0000  1.0000  0.0000
              Bcc     0.0000     0.000     0.000     0.000  0.0000  0.0000  1.0000
 
              Baa     0.0000     0.000     0.000     0.000  1.0000  0.0000  0.0000
     2 As(75) Bbb     0.0000     0.000     0.000     0.000  0.0000  1.0000  0.0000
              Bcc     0.0000     0.000     0.000     0.000  0.0000  0.0000  1.0000
 

 ---------------------------------------------------------------------------------


 Test job not archived.
 1\1\GINC-C17\SP\ROMP2-RW\Gen\As2\GPETERSSON\04-Jun-2013\0\\# ROMP2(RW)
  Gen GFinput Int=NoBasisTransform Int(Grid=Ultrafine) IOp(3/32=2,5/6=1
 0,8/11=1,9/33=1) Maxdisk=128GB CBSextrapolate(Nmin=25,MinPop)\\As2\\0,
 1\As\As,1,2.1026\\Version=EM64L-GDVRevH.12\State=1-SGG\HF=-4468.499076
 6\MP2=-4468.7888532\E2(CBS)=-0.2957707\CBS-Int=-0.2923599\OIii=1.27805
 58\RMSD=4.711e-11\PG=D*H [C*(As1.As1)]\\@


 MARY HAD A LITTLE LAMB
      HIS FEET WERE BLACK AS SOOT,
           AND EVERYWHERE THAT MARY WENT
                HIS SOOTY FOOT HE PUT.

                    -- NONAME
 Job cpu time:  3 days  0 hours 59 minutes 41.5 seconds.
 File lengths (MBytes):  RWF=   9309 Int=      0 D2E=      0 Chk=     23 Scr=      1
 Normal termination of Gaussian DV at Tue Jun  4 10:21:51 2013.
