 Entering Gaussian System, Link 0=g09
 AtFile(1): 6ZaP-NR.gbs
 Initial command:
 /share/apps/gaussian/g09root/g09/l1.exe /localscratch/737457/Gau-27162.inp -scrdir=/localscratch/737457/
 Entering Link 1 = /share/apps/gaussian/g09root/g09/l1.exe PID=     27163.
  
 Copyright (c) 1988,1990,1992,1993,1995,1998,2003,2009, Gaussian, Inc.
                  All Rights Reserved.
  
 This is part of the Gaussian(R) 09 program.  It is based on
 the Gaussian(R) 03 system (copyright 2003, Gaussian, Inc.),
 the Gaussian(R) 98 system (copyright 1998, Gaussian, Inc.),
 the Gaussian(R) 94 system (copyright 1995, Gaussian, Inc.),
 the Gaussian 92(TM) system (copyright 1992, Gaussian, Inc.),
 the Gaussian 90(TM) system (copyright 1990, Gaussian, Inc.),
 the Gaussian 88(TM) system (copyright 1988, Gaussian, Inc.),
 the Gaussian 86(TM) system (copyright 1986, Carnegie Mellon
 University), and the Gaussian 82(TM) system (copyright 1983,
 Carnegie Mellon University). Gaussian is a federally registered
 trademark of Gaussian, Inc.
  
 This software contains proprietary and confidential information,
 including trade secrets, belonging to Gaussian, Inc.
  
 This software is provided under written license and may be
 used, copied, transmitted, or stored only in accord with that
 written license.
  
 The following legend is applicable only to US Government
 contracts under FAR:
  
                    RESTRICTED RIGHTS LEGEND
  
 Use, reproduction and disclosure by the US Government is
 subject to restrictions as set forth in subparagraphs (a)
 and (c) of the Commercial Computer Software - Restricted
 Rights clause in FAR 52.227-19.
  
 Gaussian, Inc.
 340 Quinnipiac St., Bldg. 40, Wallingford CT 06492
  
  
 ---------------------------------------------------------------
 Warning -- This program may not be used in any manner that
 competes with the business of Gaussian, Inc. or will provide
 assistance to any competitor of Gaussian, Inc.  The licensee
 of this program is prohibited from giving any competitor of
 Gaussian, Inc. access to this program.  By using this program,
 the user acknowledges that Gaussian, Inc. is engaged in the
 business of creating and licensing software in the field of
 computational chemistry and represents and warrants to the
 licensee that it is not a competitor of Gaussian, Inc. and that
 it will not use this program in any manner prohibited above.
 ---------------------------------------------------------------
  

 Cite this work as:
 Gaussian 09, Revision A.02,
 M. J. Frisch, G. W. Trucks, H. B. Schlegel, G. E. Scuseria, 
 M. A. Robb, J. R. Cheeseman, G. Scalmani, V. Barone, B. Mennucci, 
 G. A. Petersson, H. Nakatsuji, M. Caricato, X. Li, H. P. Hratchian, 
 A. F. Izmaylov, J. Bloino, G. Zheng, J. L. Sonnenberg, M. Hada, 
 M. Ehara, K. Toyota, R. Fukuda, J. Hasegawa, M. Ishida, T. Nakajima, 
 Y. Honda, O. Kitao, H. Nakai, T. Vreven, J. A. Montgomery, Jr., 
 J. E. Peralta, F. Ogliaro, M. Bearpark, J. J. Heyd, E. Brothers, 
 K. N. Kudin, V. N. Staroverov, R. Kobayashi, J. Normand, 
 K. Raghavachari, A. Rendell, J. C. Burant, S. S. Iyengar, J. Tomasi, 
 M. Cossi, N. Rega, J. M. Millam, M. Klene, J. E. Knox, J. B. Cross, 
 V. Bakken, C. Adamo, J. Jaramillo, R. Gomperts, R. E. Stratmann, 
 O. Yazyev, A. J. Austin, R. Cammi, C. Pomelli, J. W. Ochterski, 
 R. L. Martin, K. Morokuma, V. G. Zakrzewski, G. A. Voth, 
 P. Salvador, J. J. Dannenberg, S. Dapprich, A. D. Daniels, 
 O. Farkas, J. B. Foresman, J. V. Ortiz, J. Cioslowski, 
 and D. J. Fox, Gaussian, Inc., Wallingford CT, 2009.
 
 ******************************************
 Gaussian 09:  EM64L-G09RevA.02 11-Jun-2009
                20-Aug-2012 
 ******************************************
 % Mem=12GB
 % Nproc=8
 Will use up to    8 processors via shared memory.
 ----------------------------------------------------------------------
 # ROMP2(RW) Gen GFinput Int=NoBasisTransform Int(Grid=Ultrafine) IOp(3
 /32=2,5/6=10,8/11=1,9/33=1) Maxdisk=128GB CBSextrapolate(Nmin=20,MinPo
 p)
 ----------------------------------------------------------------------
 1/38=1/1;
 2/12=2,17=6,18=5,40=1/2;
 3/5=7,11=2,16=1,24=10,25=1,30=1,32=2,60=-1,75=-5,116=101/1,2,3;
 4//1;
 5/5=2,6=10,38=5/2;
 8/5=-1,10=91,11=1/1;
 9/16=-3,33=1,75=2,81=20,83=4/6,4;
 6/7=2,8=2,9=2,10=2/1;
 99/5=1,9=1/99;
 ---
 As2
 ---
 Symbolic Z-matrix:
 Charge =  0 Multiplicity = 1
 As
 As                   1     2.1026 
 
                          Input orientation:                          
 ---------------------------------------------------------------------
 Center     Atomic      Atomic             Coordinates (Angstroms)
 Number     Number       Type             X           Y           Z
 ---------------------------------------------------------------------
      1         33           0        0.000000    0.000000    0.000000
      2         33           0        0.000000    0.000000    2.102600
 ---------------------------------------------------------------------
 Stoichiometry    As2
 Framework group  D*H[C*(As.As)]
 Deg. of freedom     1
 Full point group                 D*H     NOp   8
 Largest Abelian subgroup         D2H     NOp   8
 Largest concise Abelian subgroup C2      NOp   2
                         Standard orientation:                         
 ---------------------------------------------------------------------
 Center     Atomic      Atomic             Coordinates (Angstroms)
 Number     Number       Type             X           Y           Z
 ---------------------------------------------------------------------
      1         33           0        0.000000    0.000000    1.051300
      2         33           0        0.000000    0.000000   -1.051300
 ---------------------------------------------------------------------
 Rotational constants (GHZ):      0.0000000      3.0515947      3.0515947
 General basis read from cards:  (5D, 7F)
 AO basis set in the form of general basis input (Overlap normalization):
      1 0
 S  17 1.00       0.000000000000
      0.4792162140D+08  0.6831573087D-06
      0.9239816590D+07  0.4107303095D-05
      0.2137477930D+07  0.2332770232D-04
      0.5779892840D+06  0.1066942340D-03
      0.1784821700D+06  0.4178273651D-03
      0.6164823010D+05  0.1428294608D-02
      0.2338411030D+05  0.4363111554D-02
      0.9584343190D+04  0.1208905056D-01
      0.4184736780D+04  0.3063459842D-01
      0.1922341710D+04  0.7061297947D-01
      0.9190191480D+03  0.1445541298D+00
      0.4529190370D+03  0.2481389729D+00
      0.2281907030D+03  0.3173968120D+00
      0.1166696560D+03  0.2401801553D+00
      0.6013631700D+02  0.7351793718D-01
      0.3106127100D+02  0.5078828624D-02
      0.1598641300D+02  0.9000274483D-03
 S  13 1.00       0.000000000000
      0.9584343190D+04 -0.4224081340D-04
      0.4184736780D+04 -0.2388641229D-03
      0.1922341710D+04 -0.1304331616D-02
      0.9190191480D+03 -0.5880084955D-02
      0.4529190370D+03 -0.2138559639D-01
      0.2281907030D+03 -0.6013363205D-01
      0.1166696560D+03 -0.9178636714D-01
      0.6013631700D+02  0.2152010883D-01
      0.3106127100D+02  0.3771683350D+00
      0.1598641300D+02  0.5175624324D+00
      0.8153662000D+01  0.1911846011D+00
      0.4098570000D+01  0.1493497307D-01
      0.2018826000D+01  0.1818510103D-02
 P  14 1.00       0.000000000000
      0.6579976500D+05  0.9287019711D-05
      0.1726342740D+05  0.7538223048D-04
      0.5486395040D+04  0.4831183844D-03
      0.2031470970D+04  0.2331666356D-02
      0.8474631190D+03  0.9003235722D-02
      0.3870449540D+03  0.2854239232D-01
      0.1888862780D+03  0.7574267658D-01
      0.9652361500D+02  0.1642418759D+00
      0.5079115400D+02  0.2776040273D+00
      0.2714726100D+02  0.3331949758D+00
      0.1457632600D+02  0.2250028160D+00
      0.7792863000D+01  0.6455152183D-01
      0.4118713000D+01  0.6292047549D-02
      0.2139337000D+01  0.4475679871D-03
 S  11 1.00       0.000000000000
      0.2281907030D+03  0.8064983212D-03
      0.1166696560D+03  0.2534467483D-02
      0.6013631700D+02  0.1631866862D-02
      0.3106127100D+02 -0.5428071505D-01
      0.1598641300D+02 -0.2034528570D+00
      0.8153662000D+01 -0.6158505433D-01
      0.4098570000D+01  0.4611513863D+00
      0.2018826000D+01  0.5856391227D+00
      0.9684460000D+00  0.1561000314D+00
      0.4493770000D+00  0.5846950661D-03
      0.2001690000D+00  0.2305510087D-02
 P  12 1.00       0.000000000000
      0.3870449540D+03 -0.2054390329D-03
      0.1888862780D+03 -0.1113414279D-02
      0.9652361500D+02 -0.5003724621D-02
      0.5079115400D+02 -0.1341480247D-01
      0.2714726100D+02 -0.2358670688D-01
      0.1457632600D+02  0.2614401031D-01
      0.7792863000D+01  0.2031264782D+00
      0.4118713000D+01  0.3840219493D+00
      0.2139337000D+01  0.3613144536D+00
      0.1086528000D+01  0.1380566397D+00
      0.5370240000D+00  0.1320061715D-01
      0.2570670000D+00  0.1266070008D-02
 D  14 1.00       0.000000000000
      0.2658069280D+04  0.1641554111D-04
      0.8061035810D+03  0.1715684512D-03
      0.3117499280D+03  0.1082725500D-02
      0.1402528180D+03  0.4856881290D-02
      0.6896770300D+02  0.1687293868D-01
      0.3565975400D+02  0.4652152866D-01
      0.1898012200D+02  0.1064129340D+00
      0.1029929200D+02  0.1895098449D+00
      0.5674177000D+01  0.2524617682D+00
      0.3159183000D+01  0.2678725853D+00
      0.1757891000D+01  0.2289291139D+00
      0.9547560000D+00  0.1435177306D+00
      0.4852590000D+00  0.5054363326D-01
      0.2159140000D+00  0.6023559366D-02
 S   8 1.00       0.000000000000
      0.1598641300D+02  0.3204505697D-02
      0.8153662000D+01 -0.1881014542D-02
      0.4098570000D+01 -0.1601749614D-01
      0.2018826000D+01 -0.1428407572D+00
      0.9684460000D+00 -0.1425156504D+00
      0.4493770000D+00  0.3380337521D+00
      0.2001690000D+00  0.6252754483D+00
      0.8485500000D-01  0.2482820837D+00
 S   1 1.00       0.000000000000
      0.2970072670D-01  0.1000000000D+01
 P   9 1.00       0.000000000000
      0.1457632600D+02 -0.5495978780D-03
      0.7792863000D+01 -0.4070273554D-02
      0.4118713000D+01 -0.8602193835D-02
      0.2139337000D+01 -0.2511202943D-01
      0.1086528000D+01  0.4215050491D-02
      0.5370240000D+00  0.1946113591D+00
      0.2570670000D+00  0.4171330189D+00
      0.1185400000D+00  0.3960755177D+00
      0.5232300000D-01  0.1192746505D+00
 P   1 1.00       0.000000000000
      0.5846000000D-01  0.1000000000D+01
 P   1 1.00       0.000000000000
      0.2187800000D-01  0.1000000000D+01
 S   1 1.00       0.000000000000
      0.9904680000D+00  0.1000000000D+01
 S   1 1.00       0.000000000000
      0.5347470000D+00  0.1000000000D+01
 S   1 1.00       0.000000000000
      0.2887060000D+00  0.1000000000D+01
 S   1 1.00       0.000000000000
      0.1558700000D+00  0.1000000000D+01
 S   1 1.00       0.000000000000
      0.8415300000D-01  0.1000000000D+01
 P   1 1.00       0.000000000000
      0.1803660000D+01  0.1000000000D+01
 P   1 1.00       0.000000000000
      0.1015177000D+01  0.1000000000D+01
 P   1 1.00       0.000000000000
      0.5713860000D+00  0.1000000000D+01
 P   1 1.00       0.000000000000
      0.3216000000D+00  0.1000000000D+01
 P   1 1.00       0.000000000000
      0.1810110000D+00  0.1000000000D+01
 D   1 1.00       0.000000000000
      0.1374663000D+01  0.1000000000D+01
 D   1 1.00       0.000000000000
      0.7946810000D+00  0.1000000000D+01
 D   1 1.00       0.000000000000
      0.4108430000D+00  0.1000000000D+01
 D   1 1.00       0.000000000000
      0.2078950000D+00  0.1000000000D+01
 D   1 1.00       0.000000000000
      0.1204360000D+00  0.1000000000D+01
 F   1 1.00       0.000000000000
      0.8086940000D+00  0.1000000000D+01
 F   1 1.00       0.000000000000
      0.5078340000D+00  0.1000000000D+01
 F   1 1.00       0.000000000000
      0.3189030000D+00  0.1000000000D+01
 F   1 1.00       0.000000000000
      0.2002610000D+00  0.1000000000D+01
 G   1 1.00       0.000000000000
      0.9912480000D+00  0.1000000000D+01
 G   1 1.00       0.000000000000
      0.5473690000D+00  0.1000000000D+01
 G   1 1.00       0.000000000000
      0.3022580000D+00  0.1000000000D+01
 H   1 1.00       0.000000000000
      0.9436080000D+00  0.1000000000D+01
 H   1 1.00       0.000000000000
      0.4568400000D+00  0.1000000000D+01
 I   1 1.00       0.000000000000
      0.7808775938D+00  0.1000000000D+01
 ****
      2 0
 S  17 1.00       0.000000000000
      0.4792162140D+08  0.6831573087D-06
      0.9239816590D+07  0.4107303095D-05
      0.2137477930D+07  0.2332770232D-04
      0.5779892840D+06  0.1066942340D-03
      0.1784821700D+06  0.4178273651D-03
      0.6164823010D+05  0.1428294608D-02
      0.2338411030D+05  0.4363111554D-02
      0.9584343190D+04  0.1208905056D-01
      0.4184736780D+04  0.3063459842D-01
      0.1922341710D+04  0.7061297947D-01
      0.9190191480D+03  0.1445541298D+00
      0.4529190370D+03  0.2481389729D+00
      0.2281907030D+03  0.3173968120D+00
      0.1166696560D+03  0.2401801553D+00
      0.6013631700D+02  0.7351793718D-01
      0.3106127100D+02  0.5078828624D-02
      0.1598641300D+02  0.9000274483D-03
 S  13 1.00       0.000000000000
      0.9584343190D+04 -0.4224081340D-04
      0.4184736780D+04 -0.2388641229D-03
      0.1922341710D+04 -0.1304331616D-02
      0.9190191480D+03 -0.5880084955D-02
      0.4529190370D+03 -0.2138559639D-01
      0.2281907030D+03 -0.6013363205D-01
      0.1166696560D+03 -0.9178636714D-01
      0.6013631700D+02  0.2152010883D-01
      0.3106127100D+02  0.3771683350D+00
      0.1598641300D+02  0.5175624324D+00
      0.8153662000D+01  0.1911846011D+00
      0.4098570000D+01  0.1493497307D-01
      0.2018826000D+01  0.1818510103D-02
 P  14 1.00       0.000000000000
      0.6579976500D+05  0.9287019711D-05
      0.1726342740D+05  0.7538223048D-04
      0.5486395040D+04  0.4831183844D-03
      0.2031470970D+04  0.2331666356D-02
      0.8474631190D+03  0.9003235722D-02
      0.3870449540D+03  0.2854239232D-01
      0.1888862780D+03  0.7574267658D-01
      0.9652361500D+02  0.1642418759D+00
      0.5079115400D+02  0.2776040273D+00
      0.2714726100D+02  0.3331949758D+00
      0.1457632600D+02  0.2250028160D+00
      0.7792863000D+01  0.6455152183D-01
      0.4118713000D+01  0.6292047549D-02
      0.2139337000D+01  0.4475679871D-03
 S  11 1.00       0.000000000000
      0.2281907030D+03  0.8064983212D-03
      0.1166696560D+03  0.2534467483D-02
      0.6013631700D+02  0.1631866862D-02
      0.3106127100D+02 -0.5428071505D-01
      0.1598641300D+02 -0.2034528570D+00
      0.8153662000D+01 -0.6158505433D-01
      0.4098570000D+01  0.4611513863D+00
      0.2018826000D+01  0.5856391227D+00
      0.9684460000D+00  0.1561000314D+00
      0.4493770000D+00  0.5846950661D-03
      0.2001690000D+00  0.2305510087D-02
 P  12 1.00       0.000000000000
      0.3870449540D+03 -0.2054390329D-03
      0.1888862780D+03 -0.1113414279D-02
      0.9652361500D+02 -0.5003724621D-02
      0.5079115400D+02 -0.1341480247D-01
      0.2714726100D+02 -0.2358670688D-01
      0.1457632600D+02  0.2614401031D-01
      0.7792863000D+01  0.2031264782D+00
      0.4118713000D+01  0.3840219493D+00
      0.2139337000D+01  0.3613144536D+00
      0.1086528000D+01  0.1380566397D+00
      0.5370240000D+00  0.1320061715D-01
      0.2570670000D+00  0.1266070008D-02
 D  14 1.00       0.000000000000
      0.2658069280D+04  0.1641554111D-04
      0.8061035810D+03  0.1715684512D-03
      0.3117499280D+03  0.1082725500D-02
      0.1402528180D+03  0.4856881290D-02
      0.6896770300D+02  0.1687293868D-01
      0.3565975400D+02  0.4652152866D-01
      0.1898012200D+02  0.1064129340D+00
      0.1029929200D+02  0.1895098449D+00
      0.5674177000D+01  0.2524617682D+00
      0.3159183000D+01  0.2678725853D+00
      0.1757891000D+01  0.2289291139D+00
      0.9547560000D+00  0.1435177306D+00
      0.4852590000D+00  0.5054363326D-01
      0.2159140000D+00  0.6023559366D-02
 S   8 1.00       0.000000000000
      0.1598641300D+02  0.3204505697D-02
      0.8153662000D+01 -0.1881014542D-02
      0.4098570000D+01 -0.1601749614D-01
      0.2018826000D+01 -0.1428407572D+00
      0.9684460000D+00 -0.1425156504D+00
      0.4493770000D+00  0.3380337521D+00
      0.2001690000D+00  0.6252754483D+00
      0.8485500000D-01  0.2482820837D+00
 S   1 1.00       0.000000000000
      0.2970072670D-01  0.1000000000D+01
 P   9 1.00       0.000000000000
      0.1457632600D+02 -0.5495978780D-03
      0.7792863000D+01 -0.4070273554D-02
      0.4118713000D+01 -0.8602193835D-02
      0.2139337000D+01 -0.2511202943D-01
      0.1086528000D+01  0.4215050491D-02
      0.5370240000D+00  0.1946113591D+00
      0.2570670000D+00  0.4171330189D+00
      0.1185400000D+00  0.3960755177D+00
      0.5232300000D-01  0.1192746505D+00
 P   1 1.00       0.000000000000
      0.5846000000D-01  0.1000000000D+01
 P   1 1.00       0.000000000000
      0.2187800000D-01  0.1000000000D+01
 S   1 1.00       0.000000000000
      0.9904680000D+00  0.1000000000D+01
 S   1 1.00       0.000000000000
      0.5347470000D+00  0.1000000000D+01
 S   1 1.00       0.000000000000
      0.2887060000D+00  0.1000000000D+01
 S   1 1.00       0.000000000000
      0.1558700000D+00  0.1000000000D+01
 S   1 1.00       0.000000000000
      0.8415300000D-01  0.1000000000D+01
 P   1 1.00       0.000000000000
      0.1803660000D+01  0.1000000000D+01
 P   1 1.00       0.000000000000
      0.1015177000D+01  0.1000000000D+01
 P   1 1.00       0.000000000000
      0.5713860000D+00  0.1000000000D+01
 P   1 1.00       0.000000000000
      0.3216000000D+00  0.1000000000D+01
 P   1 1.00       0.000000000000
      0.1810110000D+00  0.1000000000D+01
 D   1 1.00       0.000000000000
      0.1374663000D+01  0.1000000000D+01
 D   1 1.00       0.000000000000
      0.7946810000D+00  0.1000000000D+01
 D   1 1.00       0.000000000000
      0.4108430000D+00  0.1000000000D+01
 D   1 1.00       0.000000000000
      0.2078950000D+00  0.1000000000D+01
 D   1 1.00       0.000000000000
      0.1204360000D+00  0.1000000000D+01
 F   1 1.00       0.000000000000
      0.8086940000D+00  0.1000000000D+01
 F   1 1.00       0.000000000000
      0.5078340000D+00  0.1000000000D+01
 F   1 1.00       0.000000000000
      0.3189030000D+00  0.1000000000D+01
 F   1 1.00       0.000000000000
      0.2002610000D+00  0.1000000000D+01
 G   1 1.00       0.000000000000
      0.9912480000D+00  0.1000000000D+01
 G   1 1.00       0.000000000000
      0.5473690000D+00  0.1000000000D+01
 G   1 1.00       0.000000000000
      0.3022580000D+00  0.1000000000D+01
 H   1 1.00       0.000000000000
      0.9436080000D+00  0.1000000000D+01
 H   1 1.00       0.000000000000
      0.4568400000D+00  0.1000000000D+01
 I   1 1.00       0.000000000000
      0.7808775938D+00  0.1000000000D+01
 ****

 There are    59 symmetry adapted basis functions of AG  symmetry.
 There are    23 symmetry adapted basis functions of B1G symmetry.
 There are    39 symmetry adapted basis functions of B2G symmetry.
 There are    39 symmetry adapted basis functions of B3G symmetry.
 There are    23 symmetry adapted basis functions of AU  symmetry.
 There are    59 symmetry adapted basis functions of B1U symmetry.
 There are    39 symmetry adapted basis functions of B2U symmetry.
 There are    39 symmetry adapted basis functions of B3U symmetry.
 Integral buffers will be    131072 words long.
 Raffenetti 2 integral format.
 Two-electron integral symmetry is turned on.
   320 basis functions,   900 primitive gaussians,   462 cartesian basis functions
    33 alpha electrons       33 beta electrons
       nuclear repulsion energy       274.0768477858 Hartrees.
 NAtoms=    2 NActive=    2 NUniq=    1 SFac= 3.00D+00 NAtFMM=   80 NAOKFM=F Big=F
 One-electron integrals computed using PRISM.
 NBasis=   320 RedAO= F  NBF=    59    23    39    39    23    59    39    39
 NBsUse=   320 1.00D-04 NBFU=    59    23    39    39    23    59    39    39
 Harris functional with IExCor=  205 diagonalized for initial guess.
 ExpMin= 2.19D-02 ExpMax= 4.79D+07 ExpMxC= 9.58D+03 IAcc=3 IRadAn=         5 AccDes= 0.00D+00
 HarFok:  IExCor=  205 AccDes= 0.00D+00 IRadAn=         5 IDoV= 1
 ScaDFX=  1.000000  1.000000  1.000000  1.000000
 FoFCou: FMM=F IPFlag=           0 FMFlag=      100000 FMFlg1=           0
         NFxFlg=           0 DoJE=T BraDBF=F KetDBF=T FulRan=T
         Omega=  0.000000  0.000000  1.000000  0.000000  0.000000 ICntrl=     500 IOpCl=  0
         NMat0=    1 NMatS0=    1 NMatT0=    0 NMatD0=    1 NMtDS0=    0 NMtDT0=    0
         I1Cent=           4 NGrid=           0.
 Petite list used in FoFCou.
 Initial guess orbital symmetries:
       Occupied  (SGU) (SGG) (SGU) (SGG) (SGU) (SGG) (PIG) (PIG)
                 (PIU) (PIU) (SGG) (SGU) (SGG) (SGU) (PIU) (PIU)
                 (PIG) (PIG) (SGG) (PIU) (PIU) (PIG) (PIG) (SGU)
                 (DLTG) (DLTG) (DLTU) (DLTU) (SGG) (SGU) (SGG)
                 (PIU) (PIU)
       Virtual   (PIG) (PIG) (SGU) (SGG) (PIU) (PIU) (SGG) (SGU)
                 (DLTG) (DLTG) (PIG) (PIG) (SGU) (PIU) (PIU) (SGG)
                 (PIU) (PIU) (DLTU) (DLTU) (PIG) (PIG) (SGG) (SGU)
                 (SGU) (SGG) (PIG) (PIG) (PHIU) (PHIU) (DLTG) (DLTG)
                 (SGG) (PIU) (PIU) (SGU) (PIU) (PIU) (DLTG) (DLTG)
                 (PIG) (PIG) (PHIG) (PHIG) (DLTU) (DLTU) (SGU)
                 (SGG) (PIU) (PIU) (PIG) (PIG) (SGG) (DLTU) (DLTU)
                 (SGU) (SGU) (SGG) (PIG) (PIG) (PHIU) (PHIU) (DLTG)
                 (DLTG) (?A) (?A) (SGG) (PIU) (PIU) (PHIU) (PHIU)
                 (PIU) (PIU) (PIG) (PIG) (?B) (?B) (SGU) (PHIG)
                 (PHIG) (DLTG) (DLTG) (DLTU) (DLTU) (DLTG) (DLTG)
                 (SGG) (PHIG) (PHIG) (PIU) (PIU) (DLTU) (DLTU)
                 (SGU) (PIG) (PIG) (SGG) (SGU) (PIG) (PIG) (DLTU)
                 (DLTU) (PIU) (PIU) (SGU) (SGG) (PIG) (PIG) (?A)
                 (?A) (SGU) (SGG) (PHIU) (PHIU) (?C) (?C) (PIU)
                 (PIU) (DLTG) (DLTG) (?D) (?D) (SGG) (PHIU) (PHIU)
                 (PIU) (PIU) (PHIG) (PHIG) (PIG) (PIG) (?B) (?B)
                 (SGU) (DLTG) (DLTG) (SGG) (DLTU) (DLTU) (?A) (?A)
                 (PHIU) (PHIU) (?B) (?B) (PIG) (PIG) (PHIG) (PHIG)
                 (SGU) (PHIG) (PHIG) (DLTG) (DLTG) (PIU) (PIU)
                 (PIG) (PIG) (SGU) (SGG) (DLTU) (DLTU) (PIU) (PIU)
                 (DLTG) (DLTG) (SGU) (DLTU) (DLTU) (PIG) (PIG)
                 (SGG) (PIU) (PIU) (DLTU) (DLTU) (SGU) (SGG) (DLTG)
                 (DLTG) (PHIU) (PHIU) (PIG) (PIG) (PHIG) (PHIG)
                 (PIU) (PIU) (DLTU) (DLTU) (SGU) (SGG) (?A) (?A)
                 (PHIU) (PHIU) (?C) (?C) (PIG) (PIG) (PIU) (PIU)
                 (DLTG) (DLTG) (?E) (?E) (?F) (?F) (?D) (?D) (SGG)
                 (?B) (?B) (PIU) (PIU) (PIG) (PIG) (SGU) (SGG)
                 (PHIG) (PHIG) (SGU) (PHIU) (PHIU) (SGG) (?A) (?A)
                 (?B) (?B) (?A) (?A) (DLTU) (DLTU) (?C) (?C) (DLTG)
                 (DLTG) (?D) (?D) (PHIU) (PHIU) (?B) (?B) (PIG)
                 (PIG) (PHIG) (PHIG) (SGU) (PIU) (PIU) (PHIG) (PHIG)
                 (PIG) (PIG) (DLTG) (DLTG) (SGU) (DLTU) (DLTU)
                 (SGG) (SGG) (SGU) (PIU) (PIU) (DLTU) (DLTU) (DLTG)
                 (DLTG) (PIG) (PIG) (DLTU) (DLTU) (PIU) (PIU) (SGU)
                 (PIG) (PIG) (SGG) (SGU) (PIU) (PIU) (PIG) (PIG)
                 (SGG) (SGU) (SGG) (SGU)
 The electronic state of the initial guess is 1-SGG.
 Requested convergence on RMS density matrix=1.00D-10 within 128 cycles.
 Requested convergence on MAX density matrix=1.00D-08.
 Requested convergence on             energy=1.00D-08.
 No special actions if energy rises.
 Initial convergence to 1.0D-05 achieved.  Increase integral accuracy.
 SCF Done:  E(ROHF) =  -4468.49891906     A.U. after   15 cycles
             Convg  =    0.4324D-10             -V/T =  2.0000
 <Sx>= 0.0000 <Sy>= 0.0000 <Sz>= 0.0000 <S**2>= 0.0000 S= 0.0000
 <L.S>= 0.000000000000E+00
 Annihilation of the first spin contaminant:
 S**2 before annihilation     0.0000,   after     0.0000
 GenMOA:  NOpAll=  8 NOp2=8 NOpUse=  8 JSym2X=1
 <Sx>= 0.0000 <Sy>= 0.0000 <Sz>= 0.0000 <S**2>= 0.0000 S= 0.0000
 Range of M.O.s used for correlation:    29   320
 NBasis=   320 NAE=    33 NBE=    33 NFC=    28 NFV=     0
 NROrb=    292 NOA=     5 NOB=     5 NVA=   287 NVB=   287

 **** Warning!!: The largest alpha MO coefficient is  0.34437756D+03


 **** Warning!!: The largest beta MO coefficient is  0.34437756D+03

 Singles contribution to E2=   -0.1493140052D-14
 Disk-based method using OVN memory for  5 occupieds at a time.
 Permanent disk used for amplitudes and <ij||ab> integrals=     5760090 words.
 Estimated scratch disk usage=   203940175 words.
 IUseRI=2 ITolRI= 6 IR12RI=0
 Actual    scratch disk usage=   203156815 words.
 GetIJB would need an additional  1377074607 words of memory to use all   8 processors.
 JobTyp=2 Pass  1:  I=   1 to   5 NPSUse=  1 ParTrn=F ParDer=F DoDerP=F.
 (rs|ai) integrals will be sorted in core.
 T,EIJ(AA): I=   1 J=   2      0.3270028E-03     -0.8372324E-03
 T,EIJ(AA): I=   1 J=   3      0.3021258E-03     -0.8248754E-03
 T,EIJ(AA): I=   1 J=   4      0.7500246E-03     -0.1747570E-02
 T,EIJ(AA): I=   1 J=   5      0.7500246E-03     -0.1747570E-02
 T,EIJ(AA): I=   2 J=   3      0.1004078E-02     -0.1915963E-02
 T,EIJ(AA): I=   2 J=   4      0.1932237E-02     -0.3102323E-02
 T,EIJ(AA): I=   2 J=   5      0.1932237E-02     -0.3102323E-02
 T,EIJ(AA): I=   3 J=   4      0.4212908E-02     -0.5786785E-02
 T,EIJ(AA): I=   3 J=   5      0.4212908E-02     -0.5786785E-02
 T,EIJ(AA): I=   4 J=   5      0.7708389E-02     -0.7848570E-02
 T,EIJ(AB): I=   1 J=   1      0.2676210E-02     -0.8905105E-02
 T,EIJ(AB): I=   1 J=   2      0.1322817E-02     -0.4082925E-02
 T,EIJ(AB): I=   1 J=   3      0.1941951E-02     -0.5716915E-02
 T,EIJ(AB): I=   1 J=   4      0.2341956E-02     -0.6035731E-02
 T,EIJ(AB): I=   1 J=   5      0.2341956E-02     -0.6035731E-02
 T,EIJ(AB): I=   2 J=   1      0.1322817E-02     -0.4082925E-02
 T,EIJ(AB): I=   2 J=   2      0.6134823E-02     -0.1227797E-01
 T,EIJ(AB): I=   2 J=   3      0.4445466E-02     -0.9567777E-02
 T,EIJ(AB): I=   2 J=   4      0.3477998E-02     -0.6626830E-02
 T,EIJ(AB): I=   2 J=   5      0.3477998E-02     -0.6626830E-02
 T,EIJ(AB): I=   3 J=   1      0.1941951E-02     -0.5716915E-02
 T,EIJ(AB): I=   3 J=   2      0.4445466E-02     -0.9567777E-02
 T,EIJ(AB): I=   3 J=   3      0.8465708E-02     -0.1523234E-01
 T,EIJ(AB): I=   3 J=   4      0.4893166E-02     -0.7607462E-02
 T,EIJ(AB): I=   3 J=   5      0.4893166E-02     -0.7607462E-02
 T,EIJ(AB): I=   4 J=   1      0.2341956E-02     -0.6035731E-02
 T,EIJ(AB): I=   4 J=   2      0.3477998E-02     -0.6626830E-02
 T,EIJ(AB): I=   4 J=   3      0.4893166E-02     -0.7607462E-02
 T,EIJ(AB): I=   4 J=   4      0.1906919E-01     -0.2139555E-01
 T,EIJ(AB): I=   4 J=   5      0.1071249E-01     -0.1130396E-01
 T,EIJ(AB): I=   5 J=   1      0.2341956E-02     -0.6035731E-02
 T,EIJ(AB): I=   5 J=   2      0.3477998E-02     -0.6626830E-02
 T,EIJ(AB): I=   5 J=   3      0.4893166E-02     -0.7607462E-02
 T,EIJ(AB): I=   5 J=   4      0.1071249E-01     -0.1130396E-01
 T,EIJ(AB): I=   5 J=   5      0.1906919E-01     -0.2139555E-01
 Actual    scratch disk usage=   203156815 words.
 GetIJB would need an additional  1377074607 words of memory to use all   8 processors.
 JobTyp=3 Pass  1:  I=   1 to   5 NPSUse=  1 ParTrn=F ParDer=F DoDerP=F.
 (rs|ai) integrals will be sorted in core.
 T,EIJ(BB): I=   1 J=   2      0.3270028E-03     -0.8372324E-03
 T,EIJ(BB): I=   1 J=   3      0.3021258E-03     -0.8248754E-03
 T,EIJ(BB): I=   1 J=   4      0.7500246E-03     -0.1747570E-02
 T,EIJ(BB): I=   1 J=   5      0.7500246E-03     -0.1747570E-02
 T,EIJ(BB): I=   2 J=   3      0.1004078E-02     -0.1915963E-02
 T,EIJ(BB): I=   2 J=   4      0.1932237E-02     -0.3102323E-02
 T,EIJ(BB): I=   2 J=   5      0.1932237E-02     -0.3102323E-02
 T,EIJ(BB): I=   3 J=   4      0.4212908E-02     -0.5786785E-02
 T,EIJ(BB): I=   3 J=   5      0.4212908E-02     -0.5786785E-02
 T,EIJ(BB): I=   4 J=   5      0.7708389E-02     -0.7848570E-02
 Spin components of T(2) and E(2):
     alpha-alpha T2 =       0.2313193503D-01 E2=     -0.3269999818D-01
     alpha-beta  T2 =       0.1351130328D+00 E2=     -0.2216297491D+00
     beta-beta   T2 =       0.2313193503D-01 E2=     -0.3269999818D-01
 ANorm=    0.1086911635D+01
 E2 =    -0.2870297454D+00 EUMP2 =    -0.44687859488074D+04

 Complete Basis Set (CBS) Extrapolation:
 M. R. Nyden and G. A. Petersson, JCP 75, 1843 (1981)
 G. A. Petersson and M. A. Al-Laham, JCP 94, 6081 (1991)
 G. A. Petersson, T. Tensfeldt, and J. A. Montgomery, JCP 94, 6091 (1991)
 J. A. Montgomery, J. W. Ochterski, and G. A. Petersson, JCP 101, 5900 (1994)
 
 Minimum Number of PNO for Extrapolation =  20
 Absolute Overlaps: IRadAn =         5
 LocTrn: ILocal=3 LocCor=F DoCore=F.
 Entering OneElI...
 Overlap between basis sets.
 Requested accuracy = 0.1000D-12
 PrsmSu:  NPrtUS=   1 ThrOK=F IAlg=1
 PRISM was handed  1610165367 working-precision words and   136 shell-pairs
 IPart=  0 NShTot=         136 NBatch=          15 AvBLen=         9.1
 CnvPC2: ToCart=F DoDens=F IPureD=0 IPureF=0.
 Transformed matrix in CnvPC2: 
                 1             2             3             4             5 
      1   0.100000D+01  0.403730D+00  0.000000D+00  0.000000D+00  0.000000D+00
      2   0.403730D+00  0.100000D+01  0.000000D+00  0.000000D+00  0.000000D+00
      3   0.000000D+00  0.000000D+00  0.100000D+01  0.000000D+00  0.000000D+00
      4   0.000000D+00  0.000000D+00  0.000000D+00  0.100000D+01  0.000000D+00
      5   0.000000D+00  0.000000D+00  0.000000D+00  0.000000D+00  0.100000D+01
      6   0.292129D-01  0.339068D+00  0.000000D+00  0.000000D+00  0.000000D+00
      7   0.000000D+00  0.000000D+00  0.351981D+00  0.000000D+00  0.000000D+00
      8   0.000000D+00  0.000000D+00  0.000000D+00  0.351981D+00  0.000000D+00
      9   0.000000D+00  0.000000D+00  0.000000D+00  0.000000D+00  0.351981D+00
     10   0.000000D+00  0.000000D+00  0.000000D+00  0.000000D+00  0.000000D+00
     11   0.000000D+00  0.000000D+00  0.000000D+00  0.000000D+00  0.000000D+00
     12   0.000000D+00  0.000000D+00  0.000000D+00  0.000000D+00  0.000000D+00
     13   0.000000D+00  0.000000D+00  0.000000D+00  0.000000D+00  0.000000D+00
     14   0.000000D+00  0.000000D+00  0.000000D+00  0.000000D+00  0.000000D+00
     15  -0.382798D-03  0.488481D-02  0.000000D+00  0.000000D+00  0.000000D+00
     16   0.000000D+00  0.000000D+00  0.130758D-01  0.000000D+00  0.000000D+00
     17   0.000000D+00  0.000000D+00  0.000000D+00  0.130758D-01  0.000000D+00
     18   0.000000D+00  0.000000D+00  0.000000D+00  0.000000D+00  0.130758D-01
     19   0.000000D+00  0.000000D+00  0.000000D+00  0.000000D+00  0.000000D+00
     20   0.000000D+00  0.000000D+00  0.000000D+00  0.000000D+00  0.000000D+00
     21   0.000000D+00  0.000000D+00  0.000000D+00  0.000000D+00  0.000000D+00
     22   0.000000D+00  0.000000D+00  0.000000D+00  0.000000D+00  0.000000D+00
     23   0.000000D+00  0.000000D+00  0.000000D+00  0.000000D+00  0.000000D+00
     24   0.000000D+00  0.000000D+00  0.000000D+00  0.000000D+00  0.000000D+00
     25   0.000000D+00  0.000000D+00  0.000000D+00  0.000000D+00  0.000000D+00
     26   0.000000D+00  0.000000D+00  0.000000D+00  0.000000D+00  0.000000D+00
     27   0.000000D+00  0.000000D+00  0.000000D+00  0.000000D+00  0.000000D+00
     28   0.000000D+00  0.000000D+00  0.000000D+00  0.000000D+00  0.000000D+00
     29   0.000000D+00  0.000000D+00  0.000000D+00  0.000000D+00  0.000000D+00
     30   0.000000D+00  0.000000D+00  0.000000D+00  0.000000D+00  0.000000D+00
     31   0.000000D+00  0.000000D+00  0.000000D+00  0.000000D+00  0.000000D+00
     32   0.000000D+00  0.000000D+00  0.000000D+00  0.000000D+00  0.000000D+00
     33   0.000000D+00  0.000000D+00  0.000000D+00  0.000000D+00  0.000000D+00
     34   0.000000D+00  0.000000D+00  0.000000D+00  0.000000D+00  0.000000D+00
     35   0.000000D+00  0.000000D+00  0.000000D+00  0.000000D+00  0.000000D+00
     36   0.000000D+00  0.000000D+00  0.000000D+00  0.000000D+00  0.000000D+00
     37   0.000000D+00  0.000000D+00  0.000000D+00  0.000000D+00  0.000000D+00
     38   0.966542D-03  0.597590D-02  0.000000D+00  0.000000D+00 -0.141759D-02
     39   0.000000D+00  0.000000D+00  0.442174D-03  0.000000D+00  0.000000D+00
     40   0.000000D+00  0.000000D+00  0.000000D+00  0.442174D-03  0.000000D+00
     41   0.170910D-02  0.105293D-01  0.000000D+00  0.000000D+00 -0.229626D-02
     42   0.595892D-02  0.360957D-01  0.000000D+00  0.000000D+00 -0.503754D-02
     43   0.000000D+00  0.000000D+00  0.262970D-02  0.000000D+00  0.000000D+00
     44   0.000000D+00  0.000000D+00  0.000000D+00  0.262970D-02  0.000000D+00
     45   0.000000D+00  0.000000D+00  0.000000D+00  0.000000D+00  0.000000D+00
     46   0.000000D+00  0.000000D+00  0.000000D+00  0.000000D+00  0.000000D+00
                 6             7             8             9            10 
      1   0.292129D-01  0.000000D+00  0.000000D+00  0.000000D+00  0.000000D+00
      2   0.339068D+00  0.000000D+00  0.000000D+00  0.000000D+00  0.000000D+00
      3   0.000000D+00  0.351981D+00  0.000000D+00  0.000000D+00  0.000000D+00
      4   0.000000D+00  0.000000D+00  0.351981D+00  0.000000D+00  0.000000D+00
      5   0.000000D+00  0.000000D+00  0.000000D+00  0.351981D+00  0.000000D+00
      6   0.100000D+01  0.000000D+00  0.000000D+00  0.000000D+00  0.000000D+00
      7   0.000000D+00  0.100000D+01  0.000000D+00  0.000000D+00  0.000000D+00
      8   0.000000D+00  0.000000D+00  0.100000D+01  0.000000D+00  0.000000D+00
      9   0.000000D+00  0.000000D+00  0.000000D+00  0.100000D+01  0.000000D+00
     10   0.000000D+00  0.000000D+00  0.000000D+00  0.000000D+00  0.100000D+01
     11   0.000000D+00  0.000000D+00  0.000000D+00  0.000000D+00  0.000000D+00
     12   0.000000D+00  0.000000D+00  0.000000D+00  0.000000D+00  0.000000D+00
     13   0.000000D+00  0.000000D+00  0.000000D+00  0.000000D+00  0.000000D+00
     14   0.000000D+00  0.000000D+00  0.000000D+00  0.000000D+00  0.000000D+00
     15   0.195676D+00  0.000000D+00  0.000000D+00  0.000000D+00  0.000000D+00
     16   0.000000D+00  0.212222D+00  0.000000D+00  0.000000D+00  0.000000D+00
     17   0.000000D+00  0.000000D+00  0.212222D+00  0.000000D+00  0.000000D+00
     18   0.000000D+00  0.000000D+00  0.000000D+00  0.212222D+00  0.000000D+00
     19   0.000000D+00  0.000000D+00  0.000000D+00  0.000000D+00  0.556204D-01
     20   0.000000D+00  0.000000D+00  0.000000D+00  0.000000D+00  0.000000D+00
     21   0.000000D+00  0.000000D+00  0.000000D+00  0.000000D+00  0.000000D+00
     22   0.000000D+00  0.000000D+00  0.000000D+00  0.000000D+00  0.000000D+00
     23   0.000000D+00  0.000000D+00  0.000000D+00  0.000000D+00  0.000000D+00
     24   0.000000D+00  0.000000D+00  0.000000D+00  0.000000D+00  0.000000D+00
     25   0.000000D+00  0.000000D+00  0.000000D+00  0.000000D+00  0.000000D+00
     26   0.000000D+00  0.000000D+00  0.000000D+00  0.000000D+00  0.000000D+00
     27   0.000000D+00  0.000000D+00  0.000000D+00  0.000000D+00  0.000000D+00
     28   0.000000D+00  0.000000D+00  0.000000D+00  0.000000D+00  0.000000D+00
     29   0.000000D+00  0.000000D+00  0.000000D+00  0.000000D+00  0.177066D-05
     30   0.000000D+00  0.000000D+00  0.000000D+00  0.000000D+00  0.000000D+00
     31   0.000000D+00  0.000000D+00  0.000000D+00  0.000000D+00  0.000000D+00
     32   0.000000D+00  0.000000D+00  0.000000D+00 -0.265173D-05  0.475441D-05
     33   0.177066D-05  0.000000D+00  0.000000D+00 -0.475441D-05  0.823601D-05
     34   0.000000D+00  0.000000D+00  0.000000D+00  0.000000D+00  0.000000D+00
     35   0.000000D+00  0.000000D+00  0.000000D+00  0.000000D+00  0.000000D+00
     36   0.000000D+00  0.000000D+00  0.000000D+00  0.000000D+00  0.000000D+00
     37   0.000000D+00  0.000000D+00  0.000000D+00  0.000000D+00  0.000000D+00
     38   0.350599D-01  0.000000D+00  0.000000D+00 -0.227132D-01  0.805145D-02
     39   0.000000D+00  0.741876D-02  0.000000D+00  0.000000D+00  0.000000D+00
     40   0.000000D+00  0.000000D+00  0.741876D-02  0.000000D+00  0.000000D+00
     41   0.602565D-01  0.000000D+00  0.000000D+00 -0.367223D-01  0.133334D-01
     42   0.179228D+00  0.000000D+00  0.000000D+00 -0.675680D-01  0.121959D-01
     43   0.000000D+00  0.390950D-01  0.000000D+00  0.000000D+00  0.000000D+00
     44   0.000000D+00  0.000000D+00  0.390950D-01  0.000000D+00  0.000000D+00
     45   0.000000D+00  0.000000D+00  0.000000D+00  0.000000D+00  0.000000D+00
     46   0.000000D+00  0.000000D+00  0.000000D+00  0.000000D+00  0.000000D+00
                11            12            13            14            15 
      1   0.000000D+00  0.000000D+00  0.000000D+00  0.000000D+00 -0.382798D-03
      2   0.000000D+00  0.000000D+00  0.000000D+00  0.000000D+00  0.488481D-02
      3   0.000000D+00  0.000000D+00  0.000000D+00  0.000000D+00  0.000000D+00
      4   0.000000D+00  0.000000D+00  0.000000D+00  0.000000D+00  0.000000D+00
      5   0.000000D+00  0.000000D+00  0.000000D+00  0.000000D+00  0.000000D+00
      6   0.000000D+00  0.000000D+00  0.000000D+00  0.000000D+00  0.195676D+00
      7   0.000000D+00  0.000000D+00  0.000000D+00  0.000000D+00  0.000000D+00
      8   0.000000D+00  0.000000D+00  0.000000D+00  0.000000D+00  0.000000D+00
      9   0.000000D+00  0.000000D+00  0.000000D+00  0.000000D+00  0.000000D+00
     10   0.000000D+00  0.000000D+00  0.000000D+00  0.000000D+00  0.000000D+00
     11   0.100000D+01  0.000000D+00  0.000000D+00  0.000000D+00  0.000000D+00
     12   0.000000D+00  0.100000D+01  0.000000D+00  0.000000D+00  0.000000D+00
     13   0.000000D+00  0.000000D+00  0.100000D+01  0.000000D+00  0.000000D+00
     14   0.000000D+00  0.000000D+00  0.000000D+00  0.100000D+01  0.000000D+00
     15   0.000000D+00  0.000000D+00  0.000000D+00  0.000000D+00  0.100000D+01
     16   0.000000D+00  0.000000D+00  0.000000D+00  0.000000D+00  0.000000D+00
     17   0.000000D+00  0.000000D+00  0.000000D+00  0.000000D+00  0.000000D+00
     18   0.000000D+00  0.000000D+00  0.000000D+00  0.000000D+00  0.000000D+00
     19   0.000000D+00  0.000000D+00  0.000000D+00  0.000000D+00  0.000000D+00
     20   0.556204D-01  0.000000D+00  0.000000D+00  0.000000D+00  0.000000D+00
     21   0.000000D+00  0.556204D-01  0.000000D+00  0.000000D+00  0.000000D+00
     22   0.000000D+00  0.000000D+00  0.556204D-01  0.000000D+00  0.000000D+00
     23   0.000000D+00  0.000000D+00  0.000000D+00  0.556204D-01  0.000000D+00
     24   0.000000D+00  0.000000D+00  0.000000D+00  0.000000D+00  0.966542D-03
     25   0.000000D+00  0.000000D+00  0.000000D+00  0.000000D+00  0.597590D-02
     26   0.000000D+00  0.000000D+00  0.000000D+00  0.000000D+00  0.000000D+00
     27   0.000000D+00  0.000000D+00  0.000000D+00  0.000000D+00  0.000000D+00
     28   0.000000D+00  0.000000D+00  0.000000D+00  0.000000D+00  0.141759D-02
     29   0.000000D+00  0.000000D+00  0.000000D+00  0.000000D+00  0.350599D-01
     30   0.000000D+00  0.000000D+00  0.000000D+00  0.000000D+00  0.000000D+00
     31   0.000000D+00  0.000000D+00  0.000000D+00  0.000000D+00  0.000000D+00
     32   0.000000D+00  0.000000D+00  0.000000D+00  0.000000D+00  0.227132D-01
     33   0.000000D+00  0.000000D+00  0.000000D+00  0.000000D+00  0.805145D-02
     34   0.000000D+00  0.000000D+00  0.000000D+00  0.000000D+00  0.000000D+00
     35   0.000000D+00  0.000000D+00  0.000000D+00  0.000000D+00  0.000000D+00
     36   0.000000D+00  0.000000D+00  0.000000D+00  0.000000D+00  0.000000D+00
     37   0.000000D+00  0.000000D+00  0.000000D+00  0.000000D+00  0.000000D+00
     38   0.000000D+00  0.000000D+00  0.000000D+00  0.000000D+00  0.278173D+00
     39  -0.510919D-02  0.000000D+00  0.000000D+00  0.000000D+00  0.000000D+00
     40   0.000000D+00 -0.510919D-02  0.000000D+00  0.000000D+00  0.000000D+00
     41   0.000000D+00  0.000000D+00  0.000000D+00  0.000000D+00  0.342512D+00
     42   0.000000D+00  0.000000D+00  0.000000D+00  0.000000D+00  0.395731D+00
     43  -0.181926D-01  0.000000D+00  0.000000D+00  0.000000D+00  0.000000D+00
     44   0.000000D+00 -0.181926D-01  0.000000D+00  0.000000D+00  0.000000D+00
     45   0.000000D+00  0.000000D+00  0.454010D-02  0.000000D+00  0.000000D+00
     46   0.000000D+00  0.000000D+00  0.000000D+00  0.454010D-02  0.000000D+00
                16            17            18            19            20 
      1   0.000000D+00  0.000000D+00  0.000000D+00  0.000000D+00  0.000000D+00
      2   0.000000D+00  0.000000D+00  0.000000D+00  0.000000D+00  0.000000D+00
      3   0.130758D-01  0.000000D+00  0.000000D+00  0.000000D+00  0.000000D+00
      4   0.000000D+00  0.130758D-01  0.000000D+00  0.000000D+00  0.000000D+00
      5   0.000000D+00  0.000000D+00  0.130758D-01  0.000000D+00  0.000000D+00
      6   0.000000D+00  0.000000D+00  0.000000D+00  0.000000D+00  0.000000D+00
      7   0.212222D+00  0.000000D+00  0.000000D+00  0.000000D+00  0.000000D+00
      8   0.000000D+00  0.212222D+00  0.000000D+00  0.000000D+00  0.000000D+00
      9   0.000000D+00  0.000000D+00  0.212222D+00  0.000000D+00  0.000000D+00
     10   0.000000D+00  0.000000D+00  0.000000D+00  0.556204D-01  0.000000D+00
     11   0.000000D+00  0.000000D+00  0.000000D+00  0.000000D+00  0.556204D-01
     12   0.000000D+00  0.000000D+00  0.000000D+00  0.000000D+00  0.000000D+00
     13   0.000000D+00  0.000000D+00  0.000000D+00  0.000000D+00  0.000000D+00
     14   0.000000D+00  0.000000D+00  0.000000D+00  0.000000D+00  0.000000D+00
     15   0.000000D+00  0.000000D+00  0.000000D+00  0.000000D+00  0.000000D+00
     16   0.100000D+01  0.000000D+00  0.000000D+00  0.000000D+00  0.000000D+00
     17   0.000000D+00  0.100000D+01  0.000000D+00  0.000000D+00  0.000000D+00
     18   0.000000D+00  0.000000D+00  0.100000D+01  0.000000D+00  0.000000D+00
     19   0.000000D+00  0.000000D+00  0.000000D+00  0.100000D+01  0.000000D+00
     20   0.000000D+00  0.000000D+00  0.000000D+00  0.000000D+00  0.100000D+01
     21   0.000000D+00  0.000000D+00  0.000000D+00  0.000000D+00  0.000000D+00
     22   0.000000D+00  0.000000D+00  0.000000D+00  0.000000D+00  0.000000D+00
     23   0.000000D+00  0.000000D+00  0.000000D+00  0.000000D+00  0.000000D+00
     24   0.000000D+00  0.000000D+00 -0.170910D-02  0.595892D-02  0.000000D+00
     25   0.000000D+00  0.000000D+00 -0.105293D-01  0.360957D-01  0.000000D+00
     26   0.442174D-03  0.000000D+00  0.000000D+00  0.000000D+00 -0.262970D-02
     27   0.000000D+00  0.442174D-03  0.000000D+00  0.000000D+00  0.000000D+00
     28   0.000000D+00  0.000000D+00 -0.229626D-02  0.503754D-02  0.000000D+00
     29   0.000000D+00  0.000000D+00 -0.602565D-01  0.179228D+00  0.000000D+00
     30   0.741876D-02  0.000000D+00  0.000000D+00  0.000000D+00 -0.390950D-01
     31   0.000000D+00  0.741876D-02  0.000000D+00  0.000000D+00  0.000000D+00
     32   0.000000D+00  0.000000D+00 -0.367223D-01  0.675680D-01  0.000000D+00
     33   0.000000D+00  0.000000D+00 -0.133334D-01  0.121959D-01  0.000000D+00
     34   0.510919D-02  0.000000D+00  0.000000D+00  0.000000D+00 -0.181926D-01
     35   0.000000D+00  0.510919D-02  0.000000D+00  0.000000D+00  0.000000D+00
     36   0.000000D+00  0.000000D+00  0.000000D+00  0.000000D+00  0.000000D+00
     37   0.000000D+00  0.000000D+00  0.000000D+00  0.000000D+00  0.000000D+00
     38   0.000000D+00  0.000000D+00 -0.342512D+00  0.395731D+00  0.000000D+00
     39   0.151165D+00  0.000000D+00  0.000000D+00  0.000000D+00 -0.377201D+00
     40   0.000000D+00  0.151165D+00  0.000000D+00  0.000000D+00  0.000000D+00
     41   0.000000D+00  0.000000D+00 -0.389259D+00  0.245787D+00  0.000000D+00
     42   0.000000D+00  0.000000D+00 -0.245787D+00 -0.463736D-01  0.000000D+00
     43   0.377201D+00  0.000000D+00  0.000000D+00  0.000000D+00 -0.440061D+00
     44   0.000000D+00  0.377201D+00  0.000000D+00  0.000000D+00  0.000000D+00
     45   0.000000D+00  0.000000D+00  0.000000D+00  0.000000D+00  0.000000D+00
     46   0.000000D+00  0.000000D+00  0.000000D+00  0.000000D+00  0.000000D+00
                21            22            23            24            25 
      1   0.000000D+00  0.000000D+00  0.000000D+00  0.000000D+00  0.000000D+00
      2   0.000000D+00  0.000000D+00  0.000000D+00  0.000000D+00  0.000000D+00
      3   0.000000D+00  0.000000D+00  0.000000D+00  0.000000D+00  0.000000D+00
      4   0.000000D+00  0.000000D+00  0.000000D+00  0.000000D+00  0.000000D+00
      5   0.000000D+00  0.000000D+00  0.000000D+00  0.000000D+00  0.000000D+00
      6   0.000000D+00  0.000000D+00  0.000000D+00  0.000000D+00  0.000000D+00
      7   0.000000D+00  0.000000D+00  0.000000D+00  0.000000D+00  0.000000D+00
      8   0.000000D+00  0.000000D+00  0.000000D+00  0.000000D+00  0.000000D+00
      9   0.000000D+00  0.000000D+00  0.000000D+00  0.000000D+00  0.000000D+00
     10   0.000000D+00  0.000000D+00  0.000000D+00  0.000000D+00  0.000000D+00
     11   0.000000D+00  0.000000D+00  0.000000D+00  0.000000D+00  0.000000D+00
     12   0.556204D-01  0.000000D+00  0.000000D+00  0.000000D+00  0.000000D+00
     13   0.000000D+00  0.556204D-01  0.000000D+00  0.000000D+00  0.000000D+00
     14   0.000000D+00  0.000000D+00  0.556204D-01  0.000000D+00  0.000000D+00
     15   0.000000D+00  0.000000D+00  0.000000D+00  0.966542D-03  0.597590D-02
     16   0.000000D+00  0.000000D+00  0.000000D+00  0.000000D+00  0.000000D+00
     17   0.000000D+00  0.000000D+00  0.000000D+00  0.000000D+00  0.000000D+00
     18   0.000000D+00  0.000000D+00  0.000000D+00 -0.170910D-02 -0.105293D-01
     19   0.000000D+00  0.000000D+00  0.000000D+00  0.595892D-02  0.360957D-01
     20   0.000000D+00  0.000000D+00  0.000000D+00  0.000000D+00  0.000000D+00
     21   0.100000D+01  0.000000D+00  0.000000D+00  0.000000D+00  0.000000D+00
     22   0.000000D+00  0.100000D+01  0.000000D+00  0.000000D+00  0.000000D+00
     23   0.000000D+00  0.000000D+00  0.100000D+01  0.000000D+00  0.000000D+00
     24   0.000000D+00  0.000000D+00  0.000000D+00  0.100000D+01  0.403730D+00
     25   0.000000D+00  0.000000D+00  0.000000D+00  0.403730D+00  0.100000D+01
     26   0.000000D+00  0.000000D+00  0.000000D+00  0.000000D+00  0.000000D+00
     27  -0.262970D-02  0.000000D+00  0.000000D+00  0.000000D+00  0.000000D+00
     28   0.000000D+00  0.000000D+00  0.000000D+00  0.000000D+00  0.000000D+00
     29   0.000000D+00  0.000000D+00  0.000000D+00  0.292129D-01  0.339068D+00
     30   0.000000D+00  0.000000D+00  0.000000D+00  0.000000D+00  0.000000D+00
     31  -0.390950D-01  0.000000D+00  0.000000D+00  0.000000D+00  0.000000D+00
     32   0.000000D+00  0.000000D+00  0.000000D+00  0.000000D+00  0.000000D+00
     33   0.000000D+00  0.000000D+00  0.000000D+00  0.000000D+00  0.000000D+00
     34   0.000000D+00  0.000000D+00  0.000000D+00  0.000000D+00  0.000000D+00
     35  -0.181926D-01  0.000000D+00  0.000000D+00  0.000000D+00  0.000000D+00
     36   0.000000D+00  0.454010D-02  0.000000D+00  0.000000D+00  0.000000D+00
     37   0.000000D+00  0.000000D+00  0.454010D-02  0.000000D+00  0.000000D+00
     38   0.000000D+00  0.000000D+00  0.000000D+00 -0.382798D-03  0.488481D-02
     39   0.000000D+00  0.000000D+00  0.000000D+00  0.000000D+00  0.000000D+00
     40  -0.377201D+00  0.000000D+00  0.000000D+00  0.000000D+00  0.000000D+00
     41   0.000000D+00  0.000000D+00  0.000000D+00  0.000000D+00  0.000000D+00
     42   0.000000D+00  0.000000D+00  0.000000D+00  0.000000D+00  0.000000D+00
     43   0.000000D+00  0.000000D+00  0.000000D+00  0.000000D+00  0.000000D+00
     44  -0.440061D+00  0.000000D+00  0.000000D+00  0.000000D+00  0.000000D+00
     45   0.000000D+00  0.261341D+00  0.000000D+00  0.000000D+00  0.000000D+00
     46   0.000000D+00  0.000000D+00  0.261341D+00  0.000000D+00  0.000000D+00
                26            27            28            29            30 
      1   0.000000D+00  0.000000D+00  0.000000D+00  0.000000D+00  0.000000D+00
      2   0.000000D+00  0.000000D+00  0.000000D+00  0.000000D+00  0.000000D+00
      3   0.000000D+00  0.000000D+00  0.000000D+00  0.000000D+00  0.000000D+00
      4   0.000000D+00  0.000000D+00  0.000000D+00  0.000000D+00  0.000000D+00
      5   0.000000D+00  0.000000D+00  0.000000D+00  0.000000D+00  0.000000D+00
      6   0.000000D+00  0.000000D+00  0.000000D+00  0.000000D+00  0.000000D+00
      7   0.000000D+00  0.000000D+00  0.000000D+00  0.000000D+00  0.000000D+00
      8   0.000000D+00  0.000000D+00  0.000000D+00  0.000000D+00  0.000000D+00
      9   0.000000D+00  0.000000D+00  0.000000D+00  0.000000D+00  0.000000D+00
     10   0.000000D+00  0.000000D+00  0.000000D+00  0.177066D-05  0.000000D+00
     11   0.000000D+00  0.000000D+00  0.000000D+00  0.000000D+00  0.000000D+00
     12   0.000000D+00  0.000000D+00  0.000000D+00  0.000000D+00  0.000000D+00
     13   0.000000D+00  0.000000D+00  0.000000D+00  0.000000D+00  0.000000D+00
     14   0.000000D+00  0.000000D+00  0.000000D+00  0.000000D+00  0.000000D+00
     15   0.000000D+00  0.000000D+00  0.141759D-02  0.350599D-01  0.000000D+00
     16   0.442174D-03  0.000000D+00  0.000000D+00  0.000000D+00  0.741876D-02
     17   0.000000D+00  0.442174D-03  0.000000D+00  0.000000D+00  0.000000D+00
     18   0.000000D+00  0.000000D+00 -0.229626D-02 -0.602565D-01  0.000000D+00
     19   0.000000D+00  0.000000D+00  0.503754D-02  0.179228D+00  0.000000D+00
     20  -0.262970D-02  0.000000D+00  0.000000D+00  0.000000D+00 -0.390950D-01
     21   0.000000D+00 -0.262970D-02  0.000000D+00  0.000000D+00  0.000000D+00
     22   0.000000D+00  0.000000D+00  0.000000D+00  0.000000D+00  0.000000D+00
     23   0.000000D+00  0.000000D+00  0.000000D+00  0.000000D+00  0.000000D+00
     24   0.000000D+00  0.000000D+00  0.000000D+00  0.292129D-01  0.000000D+00
     25   0.000000D+00  0.000000D+00  0.000000D+00  0.339068D+00  0.000000D+00
     26   0.100000D+01  0.000000D+00  0.000000D+00  0.000000D+00  0.351981D+00
     27   0.000000D+00  0.100000D+01  0.000000D+00  0.000000D+00  0.000000D+00
     28   0.000000D+00  0.000000D+00  0.100000D+01  0.000000D+00  0.000000D+00
     29   0.000000D+00  0.000000D+00  0.000000D+00  0.100000D+01  0.000000D+00
     30   0.351981D+00  0.000000D+00  0.000000D+00  0.000000D+00  0.100000D+01
     31   0.000000D+00  0.351981D+00  0.000000D+00  0.000000D+00  0.000000D+00
     32   0.000000D+00  0.000000D+00  0.351981D+00  0.000000D+00  0.000000D+00
     33   0.000000D+00  0.000000D+00  0.000000D+00  0.000000D+00  0.000000D+00
     34   0.000000D+00  0.000000D+00  0.000000D+00  0.000000D+00  0.000000D+00
     35   0.000000D+00  0.000000D+00  0.000000D+00  0.000000D+00  0.000000D+00
     36   0.000000D+00  0.000000D+00  0.000000D+00  0.000000D+00  0.000000D+00
     37   0.000000D+00  0.000000D+00  0.000000D+00  0.000000D+00  0.000000D+00
     38   0.000000D+00  0.000000D+00  0.000000D+00  0.195676D+00  0.000000D+00
     39   0.130758D-01  0.000000D+00  0.000000D+00  0.000000D+00  0.212222D+00
     40   0.000000D+00  0.130758D-01  0.000000D+00  0.000000D+00  0.000000D+00
     41   0.000000D+00  0.000000D+00  0.130758D-01  0.000000D+00  0.000000D+00
     42   0.000000D+00  0.000000D+00  0.000000D+00  0.000000D+00  0.000000D+00
     43   0.000000D+00  0.000000D+00  0.000000D+00  0.000000D+00  0.000000D+00
     44   0.000000D+00  0.000000D+00  0.000000D+00  0.000000D+00  0.000000D+00
     45   0.000000D+00  0.000000D+00  0.000000D+00  0.000000D+00  0.000000D+00
     46   0.000000D+00  0.000000D+00  0.000000D+00  0.000000D+00  0.000000D+00
                31            32            33            34            35 
      1   0.000000D+00  0.000000D+00  0.000000D+00  0.000000D+00  0.000000D+00
      2   0.000000D+00  0.000000D+00  0.000000D+00  0.000000D+00  0.000000D+00
      3   0.000000D+00  0.000000D+00  0.000000D+00  0.000000D+00  0.000000D+00
      4   0.000000D+00  0.000000D+00  0.000000D+00  0.000000D+00  0.000000D+00
      5   0.000000D+00  0.000000D+00  0.000000D+00  0.000000D+00  0.000000D+00
      6   0.000000D+00  0.000000D+00  0.177066D-05  0.000000D+00  0.000000D+00
      7   0.000000D+00  0.000000D+00  0.000000D+00  0.000000D+00  0.000000D+00
      8   0.000000D+00  0.000000D+00  0.000000D+00  0.000000D+00  0.000000D+00
      9   0.000000D+00 -0.265173D-05 -0.475441D-05  0.000000D+00  0.000000D+00
     10   0.000000D+00  0.475441D-05  0.823601D-05  0.000000D+00  0.000000D+00
     11   0.000000D+00  0.000000D+00  0.000000D+00  0.000000D+00  0.000000D+00
     12   0.000000D+00  0.000000D+00  0.000000D+00  0.000000D+00  0.000000D+00
     13   0.000000D+00  0.000000D+00  0.000000D+00  0.000000D+00  0.000000D+00
     14   0.000000D+00  0.000000D+00  0.000000D+00  0.000000D+00  0.000000D+00
     15   0.000000D+00  0.227132D-01  0.805145D-02  0.000000D+00  0.000000D+00
     16   0.000000D+00  0.000000D+00  0.000000D+00  0.510919D-02  0.000000D+00
     17   0.741876D-02  0.000000D+00  0.000000D+00  0.000000D+00  0.510919D-02
     18   0.000000D+00 -0.367223D-01 -0.133334D-01  0.000000D+00  0.000000D+00
     19   0.000000D+00  0.675680D-01  0.121959D-01  0.000000D+00  0.000000D+00
     20   0.000000D+00  0.000000D+00  0.000000D+00 -0.181926D-01  0.000000D+00
     21  -0.390950D-01  0.000000D+00  0.000000D+00  0.000000D+00 -0.181926D-01
     22   0.000000D+00  0.000000D+00  0.000000D+00  0.000000D+00  0.000000D+00
     23   0.000000D+00  0.000000D+00  0.000000D+00  0.000000D+00  0.000000D+00
     24   0.000000D+00  0.000000D+00  0.000000D+00  0.000000D+00  0.000000D+00
     25   0.000000D+00  0.000000D+00  0.000000D+00  0.000000D+00  0.000000D+00
     26   0.000000D+00  0.000000D+00  0.000000D+00  0.000000D+00  0.000000D+00
     27   0.351981D+00  0.000000D+00  0.000000D+00  0.000000D+00  0.000000D+00
     28   0.000000D+00  0.351981D+00  0.000000D+00  0.000000D+00  0.000000D+00
     29   0.000000D+00  0.000000D+00  0.000000D+00  0.000000D+00  0.000000D+00
     30   0.000000D+00  0.000000D+00  0.000000D+00  0.000000D+00  0.000000D+00
     31   0.100000D+01  0.000000D+00  0.000000D+00  0.000000D+00  0.000000D+00
     32   0.000000D+00  0.100000D+01  0.000000D+00  0.000000D+00  0.000000D+00
     33   0.000000D+00  0.000000D+00  0.100000D+01  0.000000D+00  0.000000D+00
     34   0.000000D+00  0.000000D+00  0.000000D+00  0.100000D+01  0.000000D+00
     35   0.000000D+00  0.000000D+00  0.000000D+00  0.000000D+00  0.100000D+01
     36   0.000000D+00  0.000000D+00  0.000000D+00  0.000000D+00  0.000000D+00
     37   0.000000D+00  0.000000D+00  0.000000D+00  0.000000D+00  0.000000D+00
     38   0.000000D+00  0.000000D+00  0.000000D+00  0.000000D+00  0.000000D+00
     39   0.000000D+00  0.000000D+00  0.000000D+00  0.000000D+00  0.000000D+00
     40   0.212222D+00  0.000000D+00  0.000000D+00  0.000000D+00  0.000000D+00
     41   0.000000D+00  0.212222D+00  0.000000D+00  0.000000D+00  0.000000D+00
     42   0.000000D+00  0.000000D+00  0.556204D-01  0.000000D+00  0.000000D+00
     43   0.000000D+00  0.000000D+00  0.000000D+00  0.556204D-01  0.000000D+00
     44   0.000000D+00  0.000000D+00  0.000000D+00  0.000000D+00  0.556204D-01
     45   0.000000D+00  0.000000D+00  0.000000D+00  0.000000D+00  0.000000D+00
     46   0.000000D+00  0.000000D+00  0.000000D+00  0.000000D+00  0.000000D+00
                36            37            38            39            40 
      1   0.000000D+00  0.000000D+00  0.966542D-03  0.000000D+00  0.000000D+00
      2   0.000000D+00  0.000000D+00  0.597590D-02  0.000000D+00  0.000000D+00
      3   0.000000D+00  0.000000D+00  0.000000D+00  0.442174D-03  0.000000D+00
      4   0.000000D+00  0.000000D+00  0.000000D+00  0.000000D+00  0.442174D-03
      5   0.000000D+00  0.000000D+00 -0.141759D-02  0.000000D+00  0.000000D+00
      6   0.000000D+00  0.000000D+00  0.350599D-01  0.000000D+00  0.000000D+00
      7   0.000000D+00  0.000000D+00  0.000000D+00  0.741876D-02  0.000000D+00
      8   0.000000D+00  0.000000D+00  0.000000D+00  0.000000D+00  0.741876D-02
      9   0.000000D+00  0.000000D+00 -0.227132D-01  0.000000D+00  0.000000D+00
     10   0.000000D+00  0.000000D+00  0.805145D-02  0.000000D+00  0.000000D+00
     11   0.000000D+00  0.000000D+00  0.000000D+00 -0.510919D-02  0.000000D+00
     12   0.000000D+00  0.000000D+00  0.000000D+00  0.000000D+00 -0.510919D-02
     13   0.000000D+00  0.000000D+00  0.000000D+00  0.000000D+00  0.000000D+00
     14   0.000000D+00  0.000000D+00  0.000000D+00  0.000000D+00  0.000000D+00
     15   0.000000D+00  0.000000D+00  0.278173D+00  0.000000D+00  0.000000D+00
     16   0.000000D+00  0.000000D+00  0.000000D+00  0.151165D+00  0.000000D+00
     17   0.000000D+00  0.000000D+00  0.000000D+00  0.000000D+00  0.151165D+00
     18   0.000000D+00  0.000000D+00 -0.342512D+00  0.000000D+00  0.000000D+00
     19   0.000000D+00  0.000000D+00  0.395731D+00  0.000000D+00  0.000000D+00
     20   0.000000D+00  0.000000D+00  0.000000D+00 -0.377201D+00  0.000000D+00
     21   0.000000D+00  0.000000D+00  0.000000D+00  0.000000D+00 -0.377201D+00
     22   0.454010D-02  0.000000D+00  0.000000D+00  0.000000D+00  0.000000D+00
     23   0.000000D+00  0.454010D-02  0.000000D+00  0.000000D+00  0.000000D+00
     24   0.000000D+00  0.000000D+00 -0.382798D-03  0.000000D+00  0.000000D+00
     25   0.000000D+00  0.000000D+00  0.488481D-02  0.000000D+00  0.000000D+00
     26   0.000000D+00  0.000000D+00  0.000000D+00  0.130758D-01  0.000000D+00
     27   0.000000D+00  0.000000D+00  0.000000D+00  0.000000D+00  0.130758D-01
     28   0.000000D+00  0.000000D+00  0.000000D+00  0.000000D+00  0.000000D+00
     29   0.000000D+00  0.000000D+00  0.195676D+00  0.000000D+00  0.000000D+00
     30   0.000000D+00  0.000000D+00  0.000000D+00  0.212222D+00  0.000000D+00
     31   0.000000D+00  0.000000D+00  0.000000D+00  0.000000D+00  0.212222D+00
     32   0.000000D+00  0.000000D+00  0.000000D+00  0.000000D+00  0.000000D+00
     33   0.000000D+00  0.000000D+00  0.000000D+00  0.000000D+00  0.000000D+00
     34   0.000000D+00  0.000000D+00  0.000000D+00  0.000000D+00  0.000000D+00
     35   0.000000D+00  0.000000D+00  0.000000D+00  0.000000D+00  0.000000D+00
     36   0.100000D+01  0.000000D+00  0.000000D+00  0.000000D+00  0.000000D+00
     37   0.000000D+00  0.100000D+01  0.000000D+00  0.000000D+00  0.000000D+00
     38   0.000000D+00  0.000000D+00  0.100000D+01  0.000000D+00  0.000000D+00
     39   0.000000D+00  0.000000D+00  0.000000D+00  0.100000D+01  0.000000D+00
     40   0.000000D+00  0.000000D+00  0.000000D+00  0.000000D+00  0.100000D+01
     41   0.000000D+00  0.000000D+00  0.000000D+00  0.000000D+00  0.000000D+00
     42   0.000000D+00  0.000000D+00  0.000000D+00  0.000000D+00  0.000000D+00
     43   0.000000D+00  0.000000D+00  0.000000D+00  0.000000D+00  0.000000D+00
     44   0.000000D+00  0.000000D+00  0.000000D+00  0.000000D+00  0.000000D+00
     45   0.556204D-01  0.000000D+00  0.000000D+00  0.000000D+00  0.000000D+00
     46   0.000000D+00  0.556204D-01  0.000000D+00  0.000000D+00  0.000000D+00
                41            42            43            44            45 
      1   0.170910D-02  0.595892D-02  0.000000D+00  0.000000D+00  0.000000D+00
      2   0.105293D-01  0.360957D-01  0.000000D+00  0.000000D+00  0.000000D+00
      3   0.000000D+00  0.000000D+00  0.262970D-02  0.000000D+00  0.000000D+00
      4   0.000000D+00  0.000000D+00  0.000000D+00  0.262970D-02  0.000000D+00
      5  -0.229626D-02 -0.503754D-02  0.000000D+00  0.000000D+00  0.000000D+00
      6   0.602565D-01  0.179228D+00  0.000000D+00  0.000000D+00  0.000000D+00
      7   0.000000D+00  0.000000D+00  0.390950D-01  0.000000D+00  0.000000D+00
      8   0.000000D+00  0.000000D+00  0.000000D+00  0.390950D-01  0.000000D+00
      9  -0.367223D-01 -0.675680D-01  0.000000D+00  0.000000D+00  0.000000D+00
     10   0.133334D-01  0.121959D-01  0.000000D+00  0.000000D+00  0.000000D+00
     11   0.000000D+00  0.000000D+00 -0.181926D-01  0.000000D+00  0.000000D+00
     12   0.000000D+00  0.000000D+00  0.000000D+00 -0.181926D-01  0.000000D+00
     13   0.000000D+00  0.000000D+00  0.000000D+00  0.000000D+00  0.454010D-02
     14   0.000000D+00  0.000000D+00  0.000000D+00  0.000000D+00  0.000000D+00
     15   0.342512D+00  0.395731D+00  0.000000D+00  0.000000D+00  0.000000D+00
     16   0.000000D+00  0.000000D+00  0.377201D+00  0.000000D+00  0.000000D+00
     17   0.000000D+00  0.000000D+00  0.000000D+00  0.377201D+00  0.000000D+00
     18  -0.389259D+00 -0.245787D+00  0.000000D+00  0.000000D+00  0.000000D+00
     19   0.245787D+00 -0.463736D-01  0.000000D+00  0.000000D+00  0.000000D+00
     20   0.000000D+00  0.000000D+00 -0.440061D+00  0.000000D+00  0.000000D+00
     21   0.000000D+00  0.000000D+00  0.000000D+00 -0.440061D+00  0.000000D+00
     22   0.000000D+00  0.000000D+00  0.000000D+00  0.000000D+00  0.261341D+00
     23   0.000000D+00  0.000000D+00  0.000000D+00  0.000000D+00  0.000000D+00
     24   0.000000D+00  0.000000D+00  0.000000D+00  0.000000D+00  0.000000D+00
     25   0.000000D+00  0.000000D+00  0.000000D+00  0.000000D+00  0.000000D+00
     26   0.000000D+00  0.000000D+00  0.000000D+00  0.000000D+00  0.000000D+00
     27   0.000000D+00  0.000000D+00  0.000000D+00  0.000000D+00  0.000000D+00
     28   0.130758D-01  0.000000D+00  0.000000D+00  0.000000D+00  0.000000D+00
     29   0.000000D+00  0.000000D+00  0.000000D+00  0.000000D+00  0.000000D+00
     30   0.000000D+00  0.000000D+00  0.000000D+00  0.000000D+00  0.000000D+00
     31   0.000000D+00  0.000000D+00  0.000000D+00  0.000000D+00  0.000000D+00
     32   0.212222D+00  0.000000D+00  0.000000D+00  0.000000D+00  0.000000D+00
     33   0.000000D+00  0.556204D-01  0.000000D+00  0.000000D+00  0.000000D+00
     34   0.000000D+00  0.000000D+00  0.556204D-01  0.000000D+00  0.000000D+00
     35   0.000000D+00  0.000000D+00  0.000000D+00  0.556204D-01  0.000000D+00
     36   0.000000D+00  0.000000D+00  0.000000D+00  0.000000D+00  0.556204D-01
     37   0.000000D+00  0.000000D+00  0.000000D+00  0.000000D+00  0.000000D+00
     38   0.000000D+00  0.000000D+00  0.000000D+00  0.000000D+00  0.000000D+00
     39   0.000000D+00  0.000000D+00  0.000000D+00  0.000000D+00  0.000000D+00
     40   0.000000D+00  0.000000D+00  0.000000D+00  0.000000D+00  0.000000D+00
     41   0.100000D+01  0.000000D+00  0.000000D+00  0.000000D+00  0.000000D+00
     42   0.000000D+00  0.100000D+01  0.000000D+00  0.000000D+00  0.000000D+00
     43   0.000000D+00  0.000000D+00  0.100000D+01  0.000000D+00  0.000000D+00
     44   0.000000D+00  0.000000D+00  0.000000D+00  0.100000D+01  0.000000D+00
     45   0.000000D+00  0.000000D+00  0.000000D+00  0.000000D+00  0.100000D+01
     46   0.000000D+00  0.000000D+00  0.000000D+00  0.000000D+00  0.000000D+00
                46 
      1   0.000000D+00
      2   0.000000D+00
      3   0.000000D+00
      4   0.000000D+00
      5   0.000000D+00
      6   0.000000D+00
      7   0.000000D+00
      8   0.000000D+00
      9   0.000000D+00
     10   0.000000D+00
     11   0.000000D+00
     12   0.000000D+00
     13   0.000000D+00
     14   0.454010D-02
     15   0.000000D+00
     16   0.000000D+00
     17   0.000000D+00
     18   0.000000D+00
     19   0.000000D+00
     20   0.000000D+00
     21   0.000000D+00
     22   0.000000D+00
     23   0.261341D+00
     24   0.000000D+00
     25   0.000000D+00
     26   0.000000D+00
     27   0.000000D+00
     28   0.000000D+00
     29   0.000000D+00
     30   0.000000D+00
     31   0.000000D+00
     32   0.000000D+00
     33   0.000000D+00
     34   0.000000D+00
     35   0.000000D+00
     36   0.000000D+00
     37   0.556204D-01
     38   0.000000D+00
     39   0.000000D+00
     40   0.000000D+00
     41   0.000000D+00
     42   0.000000D+00
     43   0.000000D+00
     44   0.000000D+00
     45   0.000000D+00
     46   0.100000D+01
 Entering OneElI...
 Overlap between basis sets.
 Requested accuracy = 0.1000D-12
 PrsmSu:  NPrtUS=   1 ThrOK=F IAlg=1
 PRISM was handed  1609749489 working-precision words and   860 shell-pairs
 IPart=  0 NShTot=         860 NBatch=          85 AvBLen=        10.1
 CnvPC2: ToCart=F DoDens=F IPureD=0 IPureF=0.
 Transformed matrix in CnvPC2: 
                 1             2             3             4             5 
      1   0.999793D+00  0.412056D+00  0.000000D+00  0.000000D+00  0.000000D+00
      2   0.290164D+00  0.988436D+00  0.000000D+00  0.000000D+00  0.000000D+00
      3   0.000000D+00  0.000000D+00  0.999260D+00  0.000000D+00  0.000000D+00
      4   0.000000D+00  0.000000D+00  0.000000D+00  0.999260D+00  0.000000D+00
      5   0.000000D+00  0.000000D+00  0.000000D+00  0.000000D+00  0.999260D+00
      6   0.133994D-01  0.324743D+00  0.000000D+00  0.000000D+00  0.000000D+00
      7   0.000000D+00  0.000000D+00  0.350255D+00  0.000000D+00  0.000000D+00
      8   0.000000D+00  0.000000D+00  0.000000D+00  0.350255D+00  0.000000D+00
      9   0.000000D+00  0.000000D+00  0.000000D+00  0.000000D+00  0.350255D+00
     10   0.000000D+00  0.000000D+00  0.000000D+00  0.000000D+00  0.000000D+00
     11   0.000000D+00  0.000000D+00  0.000000D+00  0.000000D+00  0.000000D+00
     12   0.000000D+00  0.000000D+00  0.000000D+00  0.000000D+00  0.000000D+00
     13   0.000000D+00  0.000000D+00  0.000000D+00  0.000000D+00  0.000000D+00
     14   0.000000D+00  0.000000D+00  0.000000D+00  0.000000D+00  0.000000D+00
     15   0.256990D-03  0.130754D-01  0.000000D+00  0.000000D+00  0.000000D+00
     16   0.380629D-02  0.231756D-01  0.000000D+00  0.000000D+00  0.000000D+00
     17   0.000000D+00  0.000000D+00  0.900556D-02  0.000000D+00  0.000000D+00
     18   0.000000D+00  0.000000D+00  0.000000D+00  0.900556D-02  0.000000D+00
     19   0.000000D+00  0.000000D+00  0.000000D+00  0.000000D+00  0.900556D-02
     20   0.000000D+00  0.000000D+00  0.309360D-02  0.000000D+00  0.000000D+00
     21   0.000000D+00  0.000000D+00  0.000000D+00  0.309360D-02  0.000000D+00
     22   0.000000D+00  0.000000D+00  0.000000D+00  0.000000D+00  0.309360D-02
     23   0.000000D+00  0.000000D+00  0.910089D-03  0.000000D+00  0.000000D+00
     24   0.000000D+00  0.000000D+00  0.000000D+00  0.910089D-03  0.000000D+00
     25   0.000000D+00  0.000000D+00  0.000000D+00  0.000000D+00  0.910089D-03
     26   0.523268D-01  0.295759D+00  0.000000D+00  0.000000D+00  0.000000D+00
     27   0.331044D-01  0.193700D+00  0.000000D+00  0.000000D+00  0.000000D+00
     28   0.209008D-01  0.124665D+00  0.000000D+00  0.000000D+00  0.000000D+00
     29   0.131813D-01  0.794523D-01  0.000000D+00  0.000000D+00  0.000000D+00
     30   0.830799D-02  0.503650D-01  0.000000D+00  0.000000D+00  0.000000D+00
     31   0.000000D+00  0.000000D+00  0.179889D+00  0.000000D+00  0.000000D+00
     32   0.000000D+00  0.000000D+00  0.000000D+00  0.179889D+00  0.000000D+00
     33   0.000000D+00  0.000000D+00  0.000000D+00  0.000000D+00  0.179889D+00
     34   0.000000D+00  0.000000D+00  0.966510D-01  0.000000D+00  0.000000D+00
     35   0.000000D+00  0.000000D+00  0.000000D+00  0.966510D-01  0.000000D+00
     36   0.000000D+00  0.000000D+00  0.000000D+00  0.000000D+00  0.966510D-01
     37   0.000000D+00  0.000000D+00  0.499015D-01  0.000000D+00  0.000000D+00
     38   0.000000D+00  0.000000D+00  0.000000D+00  0.499015D-01  0.000000D+00
     39   0.000000D+00  0.000000D+00  0.000000D+00  0.000000D+00  0.499015D-01
     40   0.000000D+00  0.000000D+00  0.251489D-01  0.000000D+00  0.000000D+00
     41   0.000000D+00  0.000000D+00  0.000000D+00  0.251489D-01  0.000000D+00
     42   0.000000D+00  0.000000D+00  0.000000D+00  0.000000D+00  0.251489D-01
     43   0.000000D+00  0.000000D+00  0.124955D-01  0.000000D+00  0.000000D+00
     44   0.000000D+00  0.000000D+00  0.000000D+00  0.124955D-01  0.000000D+00
     45   0.000000D+00  0.000000D+00  0.000000D+00  0.000000D+00  0.124955D-01
     46   0.000000D+00  0.000000D+00  0.000000D+00  0.000000D+00  0.000000D+00
     47   0.000000D+00  0.000000D+00  0.000000D+00  0.000000D+00  0.000000D+00
     48   0.000000D+00  0.000000D+00  0.000000D+00  0.000000D+00  0.000000D+00
     49   0.000000D+00  0.000000D+00  0.000000D+00  0.000000D+00  0.000000D+00
     50   0.000000D+00  0.000000D+00  0.000000D+00  0.000000D+00  0.000000D+00
     51   0.000000D+00  0.000000D+00  0.000000D+00  0.000000D+00  0.000000D+00
     52   0.000000D+00  0.000000D+00  0.000000D+00  0.000000D+00  0.000000D+00
     53   0.000000D+00  0.000000D+00  0.000000D+00  0.000000D+00  0.000000D+00
     54   0.000000D+00  0.000000D+00  0.000000D+00  0.000000D+00  0.000000D+00
     55   0.000000D+00  0.000000D+00  0.000000D+00  0.000000D+00  0.000000D+00
     56   0.000000D+00  0.000000D+00  0.000000D+00  0.000000D+00  0.000000D+00
     57   0.000000D+00  0.000000D+00  0.000000D+00  0.000000D+00  0.000000D+00
     58   0.000000D+00  0.000000D+00  0.000000D+00  0.000000D+00  0.000000D+00
     59   0.000000D+00  0.000000D+00  0.000000D+00  0.000000D+00  0.000000D+00
     60   0.000000D+00  0.000000D+00  0.000000D+00  0.000000D+00  0.000000D+00
     61   0.000000D+00  0.000000D+00  0.000000D+00  0.000000D+00  0.000000D+00
     62   0.000000D+00  0.000000D+00  0.000000D+00  0.000000D+00  0.000000D+00
     63   0.000000D+00  0.000000D+00  0.000000D+00  0.000000D+00  0.000000D+00
     64   0.000000D+00  0.000000D+00  0.000000D+00  0.000000D+00  0.000000D+00
     65   0.000000D+00  0.000000D+00  0.000000D+00  0.000000D+00  0.000000D+00
     66   0.000000D+00  0.000000D+00  0.000000D+00  0.000000D+00  0.000000D+00
     67   0.000000D+00  0.000000D+00  0.000000D+00  0.000000D+00  0.000000D+00
     68   0.000000D+00  0.000000D+00  0.000000D+00  0.000000D+00  0.000000D+00
     69   0.000000D+00  0.000000D+00  0.000000D+00  0.000000D+00  0.000000D+00
     70   0.000000D+00  0.000000D+00  0.000000D+00  0.000000D+00  0.000000D+00
     71   0.000000D+00  0.000000D+00  0.000000D+00  0.000000D+00  0.000000D+00
     72   0.000000D+00  0.000000D+00  0.000000D+00  0.000000D+00  0.000000D+00
     73   0.000000D+00  0.000000D+00  0.000000D+00  0.000000D+00  0.000000D+00
     74   0.000000D+00  0.000000D+00  0.000000D+00  0.000000D+00  0.000000D+00
     75   0.000000D+00  0.000000D+00  0.000000D+00  0.000000D+00  0.000000D+00
     76   0.000000D+00  0.000000D+00  0.000000D+00  0.000000D+00  0.000000D+00
     77   0.000000D+00  0.000000D+00  0.000000D+00  0.000000D+00  0.000000D+00
     78   0.000000D+00  0.000000D+00  0.000000D+00  0.000000D+00  0.000000D+00
     79   0.000000D+00  0.000000D+00  0.000000D+00  0.000000D+00  0.000000D+00
     80   0.000000D+00  0.000000D+00  0.000000D+00  0.000000D+00  0.000000D+00
     81   0.000000D+00  0.000000D+00  0.000000D+00  0.000000D+00  0.000000D+00
     82   0.000000D+00  0.000000D+00  0.000000D+00  0.000000D+00  0.000000D+00
     83   0.000000D+00  0.000000D+00  0.000000D+00  0.000000D+00  0.000000D+00
     84   0.000000D+00  0.000000D+00  0.000000D+00  0.000000D+00  0.000000D+00
     85   0.000000D+00  0.000000D+00  0.000000D+00  0.000000D+00  0.000000D+00
     86   0.000000D+00  0.000000D+00  0.000000D+00  0.000000D+00  0.000000D+00
     87   0.000000D+00  0.000000D+00  0.000000D+00  0.000000D+00  0.000000D+00
     88   0.000000D+00  0.000000D+00  0.000000D+00  0.000000D+00  0.000000D+00
     89   0.000000D+00  0.000000D+00  0.000000D+00  0.000000D+00  0.000000D+00
     90   0.000000D+00  0.000000D+00  0.000000D+00  0.000000D+00  0.000000D+00
     91   0.000000D+00  0.000000D+00  0.000000D+00  0.000000D+00  0.000000D+00
     92   0.000000D+00  0.000000D+00  0.000000D+00  0.000000D+00  0.000000D+00
     93   0.000000D+00  0.000000D+00  0.000000D+00  0.000000D+00  0.000000D+00
     94   0.000000D+00  0.000000D+00  0.000000D+00  0.000000D+00  0.000000D+00
     95   0.000000D+00  0.000000D+00  0.000000D+00  0.000000D+00  0.000000D+00
     96   0.000000D+00  0.000000D+00  0.000000D+00  0.000000D+00  0.000000D+00
     97   0.000000D+00  0.000000D+00  0.000000D+00  0.000000D+00  0.000000D+00
     98   0.000000D+00  0.000000D+00  0.000000D+00  0.000000D+00  0.000000D+00
     99   0.000000D+00  0.000000D+00  0.000000D+00  0.000000D+00  0.000000D+00
    100   0.000000D+00  0.000000D+00  0.000000D+00  0.000000D+00  0.000000D+00
    101   0.000000D+00  0.000000D+00  0.000000D+00  0.000000D+00  0.000000D+00
    102   0.000000D+00  0.000000D+00  0.000000D+00  0.000000D+00  0.000000D+00
    103   0.000000D+00  0.000000D+00  0.000000D+00  0.000000D+00  0.000000D+00
    104   0.000000D+00  0.000000D+00  0.000000D+00  0.000000D+00  0.000000D+00
    105   0.000000D+00  0.000000D+00  0.000000D+00  0.000000D+00  0.000000D+00
    106   0.000000D+00  0.000000D+00  0.000000D+00  0.000000D+00  0.000000D+00
    107   0.000000D+00  0.000000D+00  0.000000D+00  0.000000D+00  0.000000D+00
    108   0.000000D+00  0.000000D+00  0.000000D+00  0.000000D+00  0.000000D+00
    109   0.000000D+00  0.000000D+00  0.000000D+00  0.000000D+00  0.000000D+00
    110   0.000000D+00  0.000000D+00  0.000000D+00  0.000000D+00  0.000000D+00
    111   0.000000D+00  0.000000D+00  0.000000D+00  0.000000D+00  0.000000D+00
    112   0.000000D+00  0.000000D+00  0.000000D+00  0.000000D+00  0.000000D+00
    113   0.000000D+00  0.000000D+00  0.000000D+00  0.000000D+00  0.000000D+00
    114   0.000000D+00  0.000000D+00  0.000000D+00  0.000000D+00  0.000000D+00
    115   0.000000D+00  0.000000D+00  0.000000D+00  0.000000D+00  0.000000D+00
    116   0.000000D+00  0.000000D+00  0.000000D+00  0.000000D+00  0.000000D+00
    117   0.000000D+00  0.000000D+00  0.000000D+00  0.000000D+00  0.000000D+00
    118   0.000000D+00  0.000000D+00  0.000000D+00  0.000000D+00  0.000000D+00
    119   0.000000D+00  0.000000D+00  0.000000D+00  0.000000D+00  0.000000D+00
    120   0.000000D+00  0.000000D+00  0.000000D+00  0.000000D+00  0.000000D+00
    121   0.000000D+00  0.000000D+00  0.000000D+00  0.000000D+00  0.000000D+00
    122   0.000000D+00  0.000000D+00  0.000000D+00  0.000000D+00  0.000000D+00
    123   0.000000D+00  0.000000D+00  0.000000D+00  0.000000D+00  0.000000D+00
    124   0.000000D+00  0.000000D+00  0.000000D+00  0.000000D+00  0.000000D+00
    125   0.000000D+00  0.000000D+00  0.000000D+00  0.000000D+00  0.000000D+00
    126   0.000000D+00  0.000000D+00  0.000000D+00  0.000000D+00  0.000000D+00
    127   0.000000D+00  0.000000D+00  0.000000D+00  0.000000D+00  0.000000D+00
    128   0.000000D+00  0.000000D+00  0.000000D+00  0.000000D+00  0.000000D+00
    129   0.000000D+00  0.000000D+00  0.000000D+00  0.000000D+00  0.000000D+00
    130   0.000000D+00  0.000000D+00  0.000000D+00  0.000000D+00  0.000000D+00
    131   0.000000D+00  0.000000D+00  0.000000D+00  0.000000D+00  0.000000D+00
    132   0.000000D+00  0.000000D+00  0.000000D+00  0.000000D+00  0.000000D+00
    133   0.000000D+00  0.000000D+00  0.000000D+00  0.000000D+00  0.000000D+00
    134   0.000000D+00  0.000000D+00  0.000000D+00  0.000000D+00  0.000000D+00
    135   0.000000D+00  0.000000D+00  0.000000D+00  0.000000D+00  0.000000D+00
    136   0.000000D+00  0.000000D+00  0.000000D+00  0.000000D+00  0.000000D+00
    137   0.000000D+00  0.000000D+00  0.000000D+00  0.000000D+00  0.000000D+00
    138   0.000000D+00  0.000000D+00  0.000000D+00  0.000000D+00  0.000000D+00
    139   0.000000D+00  0.000000D+00  0.000000D+00  0.000000D+00  0.000000D+00
    140   0.000000D+00  0.000000D+00  0.000000D+00  0.000000D+00  0.000000D+00
    141   0.000000D+00  0.000000D+00  0.000000D+00  0.000000D+00  0.000000D+00
    142   0.000000D+00  0.000000D+00  0.000000D+00  0.000000D+00  0.000000D+00
    143   0.000000D+00  0.000000D+00  0.000000D+00  0.000000D+00  0.000000D+00
    144   0.000000D+00  0.000000D+00  0.000000D+00  0.000000D+00  0.000000D+00
    145   0.000000D+00  0.000000D+00  0.000000D+00  0.000000D+00  0.000000D+00
    146   0.000000D+00  0.000000D+00  0.000000D+00  0.000000D+00  0.000000D+00
    147   0.000000D+00  0.000000D+00  0.000000D+00  0.000000D+00  0.000000D+00
    148   0.000000D+00  0.000000D+00  0.000000D+00  0.000000D+00  0.000000D+00
    149   0.000000D+00  0.000000D+00  0.000000D+00  0.000000D+00  0.000000D+00
    150   0.000000D+00  0.000000D+00  0.000000D+00  0.000000D+00  0.000000D+00
    151   0.000000D+00  0.000000D+00  0.000000D+00  0.000000D+00  0.000000D+00
    152   0.000000D+00  0.000000D+00  0.000000D+00  0.000000D+00  0.000000D+00
    153   0.000000D+00  0.000000D+00  0.000000D+00  0.000000D+00  0.000000D+00
    154   0.000000D+00  0.000000D+00  0.000000D+00  0.000000D+00  0.000000D+00
    155   0.000000D+00  0.000000D+00  0.000000D+00  0.000000D+00  0.000000D+00
    156   0.000000D+00  0.000000D+00  0.000000D+00  0.000000D+00  0.000000D+00
    157   0.000000D+00  0.000000D+00  0.000000D+00  0.000000D+00  0.000000D+00
    158   0.000000D+00  0.000000D+00  0.000000D+00  0.000000D+00  0.000000D+00
    159   0.000000D+00  0.000000D+00  0.000000D+00  0.000000D+00  0.000000D+00
    160   0.000000D+00  0.000000D+00  0.000000D+00  0.000000D+00  0.000000D+00
    161   0.000000D+00  0.000000D+00  0.000000D+00  0.000000D+00  0.000000D+00
    162   0.000000D+00  0.000000D+00  0.000000D+00  0.000000D+00  0.000000D+00
    163   0.000000D+00  0.000000D+00  0.000000D+00  0.000000D+00  0.000000D+00
    164   0.000000D+00  0.000000D+00  0.000000D+00  0.000000D+00  0.000000D+00
    165   0.000000D+00  0.000000D+00  0.000000D+00  0.000000D+00  0.000000D+00
    166   0.157733D-05  0.981973D-05  0.000000D+00  0.000000D+00 -0.262912D-05
    167   0.000000D+00  0.000000D+00  0.000000D+00  0.000000D+00  0.000000D+00
    168   0.000000D+00  0.000000D+00  0.000000D+00  0.000000D+00  0.000000D+00
    169   0.224517D-05  0.145413D-04  0.000000D+00  0.000000D+00 -0.566547D-05
    170   0.397188D-04  0.251371D-03  0.000000D+00  0.000000D+00 -0.810626D-04
    171   0.000000D+00  0.000000D+00  0.182378D-04  0.000000D+00  0.000000D+00
    172   0.000000D+00  0.000000D+00  0.000000D+00  0.182378D-04  0.000000D+00
    173   0.000000D+00  0.000000D+00  0.000000D+00  0.000000D+00  0.000000D+00
    174   0.000000D+00  0.000000D+00  0.000000D+00  0.000000D+00  0.000000D+00
    175   0.975744D-03  0.600555D-02  0.000000D+00  0.000000D+00 -0.109498D-02
    176   0.238178D-02  0.145130D-01  0.000000D+00  0.000000D+00 -0.571213D-03
    177   0.000000D+00  0.000000D+00  0.747770D-03  0.000000D+00  0.000000D+00
    178   0.000000D+00  0.000000D+00  0.000000D+00  0.747770D-03  0.000000D+00
    179   0.291180D-02  0.177926D-01  0.000000D+00  0.000000D+00 -0.239772D-02
    180   0.000000D+00  0.000000D+00  0.123290D-02  0.000000D+00  0.000000D+00
    181   0.000000D+00  0.000000D+00  0.000000D+00  0.123290D-02  0.000000D+00
    182   0.482753D-02  0.293187D-01  0.000000D+00  0.000000D+00 -0.103556D-02
    183   0.000000D+00  0.000000D+00  0.644556D-03  0.000000D+00  0.000000D+00
    184   0.000000D+00  0.000000D+00  0.000000D+00  0.644556D-03  0.000000D+00
    185   0.251831D-02  0.153313D-01  0.000000D+00  0.000000D+00  0.199837D-03
    186   0.000000D+00  0.000000D+00  0.000000D+00  0.000000D+00  0.000000D+00
    187   0.734987D-05  0.544045D-04  0.000000D+00  0.000000D+00 -0.368434D-04
    188   0.221015D-03  0.141290D-02  0.000000D+00  0.000000D+00 -0.530536D-03
    189   0.112809D-02  0.693969D-02  0.000000D+00  0.000000D+00 -0.142226D-02
    190   0.220206D-02  0.134293D-01  0.000000D+00  0.000000D+00 -0.149301D-02
    191   0.000000D+00  0.000000D+00  0.000000D+00  0.000000D+00  0.000000D+00
    192   0.000000D+00  0.000000D+00  0.000000D+00  0.000000D+00  0.000000D+00
    193   0.000000D+00  0.000000D+00  0.000000D+00  0.000000D+00  0.000000D+00
    194   0.000000D+00  0.000000D+00  0.000000D+00  0.000000D+00  0.000000D+00
    195   0.000000D+00  0.000000D+00  0.000000D+00  0.000000D+00  0.000000D+00
    196   0.000000D+00  0.000000D+00  0.000000D+00  0.000000D+00  0.000000D+00
    197   0.000000D+00  0.000000D+00  0.795517D-05  0.000000D+00  0.000000D+00
    198   0.000000D+00  0.000000D+00  0.000000D+00  0.795517D-05  0.000000D+00
    199   0.260217D-04  0.192515D-03  0.000000D+00  0.000000D+00 -0.131082D-03
    200   0.000000D+00  0.000000D+00  0.171336D-03  0.000000D+00  0.000000D+00
    201   0.000000D+00  0.000000D+00  0.000000D+00  0.171336D-03  0.000000D+00
    202   0.642276D-03  0.409277D-02  0.000000D+00  0.000000D+00 -0.153804D-02
[...]
   29    |  0.351974  0.804799  0.804682  0.840038  0.963496
   29    |  0.000000  0.804799  0.804682  0.840038  0.963496
         |
   30    |  0.575258  0.196705  0.613119  0.682717  0.804799
   30    |  0.575258  0.000000  0.613119  0.682717  0.804799
         |
   31    |  0.575297  0.383183  0.196209  0.682350  0.804682
   31    |  0.575297  0.383183  0.000000  0.682350  0.804682
         |
   32    |  0.605464  0.464603  0.464520  0.336666  0.840038
   32    |  0.605464  0.464603  0.464520  0.000000  0.840038
         |
   33    |  0.916345  0.575258  0.575297  0.605464  0.351974
   33    |  0.916345  0.575258  0.575297  0.605464  0.000000
         |

          Overlap/Interference Sums
          -------------------------

                                      Alpha        Beta
          Overlap                    10.9645      5.9645
          Interference               15.0149     13.5814
          Overlap*Interference        5.2629      3.8294
          Intra-orbital Ovlp*Inf      1.4335      0.0000

              Number of PNO for a Closed Shell
              --------------------------------

 AB - AA |      29        30        31        32        33
 BA - BB |      29        30        31        32        33
------------------------------------------------------------
   29    |      20        20        20        20        20
   29    |       0        20        20        20        20
         |
   30    |      20        20        20        20        20
   30    |      20         0        20        20        20
         |
   31    |      20        20        20        20        20
   31    |      20        20         0        20        20
         |
   32    |      20        20        20        20        20
   32    |      20        20        20         0        20
         |
   33    |      21        20        20        20        20
   33    |      21        20        20        20         0
         |

                   MP2(N) Pair Energies
                   --------------------

 AB - AA |     29        30        31        32        33
 BA - BB |     29        30        31        32        33
------------------------------------------------------------
   29    | -0.017338 -0.002332 -0.002335 -0.001753 -0.000041
   29    |  0.000000 -0.002332 -0.002335 -0.001753 -0.000041
         |
   30    | -0.004992 -0.019826 -0.007771 -0.005858 -0.002332
   30    | -0.004992  0.000000 -0.007771 -0.005858 -0.002332
         |
   31    | -0.004994 -0.010627 -0.019833 -0.005866 -0.002335
   31    | -0.004994 -0.010627  0.000000 -0.005866 -0.002335
         |
   32    | -0.004383 -0.008711 -0.008723 -0.016525 -0.001753
   32    | -0.004383 -0.008711 -0.008723  0.000000 -0.001753
         |
   33    | -0.000137 -0.004992 -0.004994 -0.004383 -0.017338
   33    | -0.000137 -0.004992 -0.004994 -0.004383  0.000000
         |

                     Delta Factors
                     -------------

 AB - AA |     29        30        31        32        33
 BA - BB |     29        30        31        32        33
------------------------------------------------------------
   29    |  1.489889  2.069151  2.067959  2.572815  3.456980
   29    |  0.000000  2.069151  2.067959  2.572815  3.456980
         |
   30    |  1.553295  1.206579  0.572342  0.857738  2.069151
   30    |  1.553295  0.000000  0.572342  0.857738  2.069151
         |
   31    |  1.554427  0.716013  1.205860  0.856182  2.067959
   31    |  1.554427  0.716013  0.000000  0.856182  2.067959
         |
   32    |  1.713611  1.150882  1.151937  1.599230  2.572815
   32    |  1.713611  1.150882  1.151937  0.000000  2.572815
         |
   33    |  0.785043  1.553295  1.554427  1.713611  1.489889
   33    |  0.785043  1.553295  1.554427  1.713611  0.000000
         |

                   MP2(CBS) Pair Energies
                   ----------------------

 AB - AA |     29        30        31        32        33
 BA - BB |     29        30        31        32        33
------------------------------------------------------------
   29    | -0.019611 -0.002423 -0.002425 -0.001838 -0.000044
   29    |  0.000000 -0.002423 -0.002425 -0.001838 -0.000044
         |
   30    | -0.005662 -0.022128 -0.007879 -0.005964 -0.002423
   30    | -0.005662  0.000000 -0.007879 -0.005964 -0.002423
         |
   31    | -0.005665 -0.011587 -0.022136 -0.005972 -0.002425
   31    | -0.005665 -0.011587  0.000000 -0.005972 -0.002425
         |
   32    | -0.005009 -0.009697 -0.009711 -0.018786 -0.001838
   32    | -0.005009 -0.009697 -0.009711  0.000000 -0.001838
         |
   33    | -0.000149 -0.005662 -0.005665 -0.005009 -0.019611
   33    | -0.000149 -0.005662 -0.005665 -0.005009  0.000000
         |

                     Sum of ab pair energies =    -0.166090 A.U.
                     Sum of ba pair energies =    -0.063819 A.U.
                     Sum of aa pair energies =    -0.033230 A.U.
                     Sum of bb pair energies =    -0.033230 A.U.

           Sum of intraorbital pair energies =    -0.102271 A.U.
           Sum of interorbital pair energies =    -0.194099 A.U.
                                                  ----------
                         Total pair energies =    -0.296370 A.U.

                         Single Excitations  =     0.000000 A.U.

                          Total second order =    -0.296370 A.U.



            MP2(CBS) (With Interference Correction) 
            ---------------------------------------

 AB - AA |     29        30        31        32        33
 BA - BB |     29        30        31        32        33
------------------------------------------------------------
   29    | -0.019112 -0.002409 -0.002412 -0.001827 -0.000044
   29    |  0.000000 -0.002409 -0.002412 -0.001827 -0.000044
         |
   30    | -0.005569 -0.021532 -0.007864 -0.005952 -0.002409
   30    | -0.005569  0.000000 -0.007864 -0.005952 -0.002409
         |
   31    | -0.005572 -0.011407 -0.021541 -0.005959 -0.002412
   31    | -0.005572 -0.011407  0.000000 -0.005959 -0.002412
         |
   32    | -0.004930 -0.009523 -0.009537 -0.018247 -0.001827
   32    | -0.004930 -0.009523 -0.009537  0.000000 -0.001827
         |
   33    | -0.000149 -0.005569 -0.005572 -0.004930 -0.019112
   33    | -0.000149 -0.005569 -0.005572 -0.004930  0.000000
         |

                     Sum of ab pair energies =    -0.162304 A.U.
                     Sum of ba pair energies =    -0.062760 A.U.
                     Sum of aa pair energies =    -0.033115 A.U.
                     Sum of bb pair energies =    -0.033115 A.U.

           Sum of intraorbital pair energies =    -0.099544 A.U.
           Sum of interorbital pair energies =    -0.191750 A.U.
                                                  ----------
                         Total pair energies =    -0.291294 A.U.

                         Single Excitations  =     0.000000 A.U.

                          Total second order =    -0.291294 A.U.

                         E2(CBS) - E2(Dir) =      -0.009340 A.U.

 E2(CBS)=      -0.296370 CBS-Int=       0.005076 OIii=       1.433527

 **********************************************************************

            Population analysis using the SCF density.

 **********************************************************************

 Orbital symmetries:
       Occupied  (SGG) (SGU) (SGG) (SGU) (PIG) (PIG) (PIU) (PIU)
                 (SGU) (SGG) (SGG) (SGU) (PIU) (PIU) (PIG) (PIG)
                 (SGG) (SGU) (SGG) (DLTG) (DLTG) (DLTU) (DLTU)
                 (PIU) (PIU) (PIG) (PIG) (SGU) (SGG) (SGU) (SGG)
                 (PIU) (PIU)
       Virtual   (PIG) (PIG) (SGU) (SGG) (PIU) (PIU) (SGG) (PIG)
                 (PIG) (SGU) (SGU) (SGG) (PIU) (PIU) (DLTG) (DLTG)
                 (PIG) (PIG) (SGG) (SGU) (PIU) (PIU) (DLTU) (DLTU)
                 (SGU) (SGG) (PIG) (PIG) (SGG) (PHIU) (PHIU) (SGU)
                 (PIU) (PIU) (DLTG) (DLTG) (PIG) (PIG) (PIU) (PIU)
                 (PHIG) (PHIG) (DLTG) (DLTG) (SGU) (DLTU) (DLTU)
                 (SGG) (PIU) (PIU) (PIG) (PIG) (DLTU) (DLTU) (SGG)
                 (SGU) (SGU) (SGG) (PIG) (PIG) (?A) (?A) (PHIU)
                 (PHIU) (SGG) (DLTG) (DLTG) (PIU) (PIU) (PIG) (PIG)
                 (PIU) (PIU) (PHIU) (PHIU) (?B) (?B) (SGU) (PHIG)
                 (PHIG) (DLTG) (DLTG) (PHIG) (PHIG) (DLTU) (DLTU)
                 (SGG) (DLTG) (DLTG) (SGU) (PIU) (PIU) (DLTU) (DLTU)
                 (PIG) (PIG) (SGG) (SGU) (PIG) (PIG) (DLTU) (DLTU)
                 (PIU) (PIU) (SGU) (PIG) (PIG) (SGG) (SGU) (?A)
                 (?A) (SGG) (?C) (?C) (PHIU) (PHIU) (?D) (?D) (PIU)
                 (PIU) (DLTG) (DLTG) (SGG) (PHIU) (PHIU) (PIU)
                 (PIU) (PHIG) (PHIG) (?B) (?B) (SGU) (PIG) (PIG)
                 (DLTU) (DLTU) (DLTG) (DLTG) (SGG) (?A) (?A) (PHIU)
                 (PHIU) (?B) (?B) (PIG) (PIG) (PHIG) (PHIG) (SGU)
                 (PHIG) (PHIG) (DLTG) (DLTG) (PIU) (PIU) (PIG)
                 (PIG) (SGG) (SGU) (DLTU) (DLTU) (DLTU) (DLTU)
                 (SGU) (DLTG) (DLTG) (PIU) (PIU) (SGG) (PIG) (PIG)
                 (PIU) (PIU) (DLTU) (DLTU) (SGU) (SGG) (PHIU) (PHIU)
                 (DLTG) (DLTG) (PIG) (PIG) (PHIG) (PHIG) (PIU)
                 (PIU) (DLTU) (DLTU) (SGU) (?A) (?A) (PHIU) (PHIU)
                 (SGG) (?C) (?C) (?E) (?E) (?F) (?F) (PIG) (PIG)
                 (DLTG) (DLTG) (PIU) (PIU) (?D) (?D) (SGG) (?B)
                 (?B) (PIU) (PIU) (SGU) (PIG) (PIG) (SGG) (PHIG)
                 (PHIG) (?A) (?A) (PHIU) (PHIU) (SGU) (?B) (?B)
                 (?A) (?A) (?C) (?C) (SGG) (?D) (?D) (DLTU) (DLTU)
                 (DLTG) (DLTG) (PHIU) (PHIU) (?B) (?B) (PHIG) (PHIG)
                 (PIG) (PIG) (SGU) (PHIG) (PHIG) (PIU) (PIU) (PIG)
                 (PIG) (DLTG) (DLTG) (SGU) (DLTU) (DLTU) (SGG)
                 (SGG) (SGU) (PIU) (PIU) (DLTU) (DLTU) (DLTG) (DLTG)
                 (PIG) (PIG) (DLTU) (DLTU) (PIU) (PIU) (SGU) (PIG)
                 (PIG) (SGG) (SGU) (PIU) (PIU) (PIG) (PIG) (SGG)
                 (SGU) (SGG) (SGU)
 The electronic state is 1-SGG.
 Alpha  occ. eigenvalues -- -432.59869-432.59869 -56.32223 -56.32222 -50.16686
 Alpha  occ. eigenvalues --  -50.16686 -50.16685 -50.16685 -50.16557 -50.16557
 Alpha  occ. eigenvalues --   -8.04293  -8.04267  -5.89581  -5.89581  -5.89563
 Alpha  occ. eigenvalues --   -5.89563  -5.89328  -5.89188  -2.13208  -2.13018
 Alpha  occ. eigenvalues --   -2.13018  -2.12916  -2.12916  -2.12806  -2.12806
 Alpha  occ. eigenvalues --   -2.12219  -2.12219  -2.11751  -0.86056  -0.60902
 Alpha  occ. eigenvalues --   -0.38005  -0.34180  -0.34180
 Alpha virt. eigenvalues --    0.00133   0.00133   0.03594   0.04780   0.05105
 Alpha virt. eigenvalues --    0.05105   0.06968   0.07362   0.07362   0.12455
 Alpha virt. eigenvalues --    0.15646   0.20840   0.21338   0.21338   0.22168
 Alpha virt. eigenvalues --    0.22168   0.25551   0.25551   0.27844   0.29451
 Alpha virt. eigenvalues --    0.29457   0.29457   0.33329   0.33329   0.38779
 Alpha virt. eigenvalues --    0.44410   0.44858   0.44858   0.56020   0.58024
 Alpha virt. eigenvalues --    0.58024   0.59847   0.59848   0.59848   0.61085
 Alpha virt. eigenvalues --    0.61085   0.64643   0.64643   0.65903   0.65903
 Alpha virt. eigenvalues --    0.70127   0.70127   0.70137   0.70137   0.72704
 Alpha virt. eigenvalues --    0.76816   0.76816   0.82079   0.86015   0.86015
 Alpha virt. eigenvalues --    0.87068   0.87068   0.87199   0.87199   0.87805
 Alpha virt. eigenvalues --    0.98698   1.10396   1.12817   1.13089   1.13089
 Alpha virt. eigenvalues --    1.28333   1.28333   1.28588   1.28588   1.31230
 Alpha virt. eigenvalues --    1.32234   1.32234   1.35544   1.35544   1.39239
 Alpha virt. eigenvalues --    1.39239   1.39427   1.39427   1.40054   1.40054
 Alpha virt. eigenvalues --    1.41230   1.41230   1.41231   1.48085   1.48085
 Alpha virt. eigenvalues --    1.57728   1.57728   1.62923   1.62923   1.63877
 Alpha virt. eigenvalues --    1.63877   1.65701   1.65983   1.65983   1.67245
 Alpha virt. eigenvalues --    1.68344   1.68344   1.71358   1.71358   1.75225
 Alpha virt. eigenvalues --    1.75225   1.81964   1.85241   1.89534   1.89534
 Alpha virt. eigenvalues --    1.96562   1.96562   1.99959   1.99959   2.08698
 Alpha virt. eigenvalues --    2.26659   2.26659   2.29606   2.44803   2.47643
 Alpha virt. eigenvalues --    2.47643   2.53819   2.56522   2.56522   2.58776
 Alpha virt. eigenvalues --    2.58776   2.65659   2.65659   2.68075   2.68075
 Alpha virt. eigenvalues --    2.69540   2.69540   2.71930   2.80124   2.80124
 Alpha virt. eigenvalues --    2.84523   2.84523   2.85879   2.85879   2.86595
 Alpha virt. eigenvalues --    2.86595   2.86612   2.87866   2.87866   2.96808
 Alpha virt. eigenvalues --    2.96808   2.96916   2.96916   2.97142   3.09412
 Alpha virt. eigenvalues --    3.09412   3.10743   3.10743   3.16611   3.16611
 Alpha virt. eigenvalues --    3.18622   3.18622   3.27237   3.27237   3.33109
 Alpha virt. eigenvalues --    3.33407   3.33407   3.35889   3.35889   3.39639
 Alpha virt. eigenvalues --    3.39639   3.42089   3.42089   3.46835   3.47098
 Alpha virt. eigenvalues --    3.53775   3.53775   3.70130   3.70130   3.70328
 Alpha virt. eigenvalues --    3.72573   3.72573   3.74646   3.74646   3.80229
 Alpha virt. eigenvalues --    3.80739   3.80739   3.91906   3.91906   3.98914
 Alpha virt. eigenvalues --    3.98914   4.11088   4.42544   4.84622   4.84622
 Alpha virt. eigenvalues --    4.85773   4.85773   4.87382   4.87382   4.92017
 Alpha virt. eigenvalues --    4.92017   5.01355   5.01355   5.04698   5.04698
 Alpha virt. eigenvalues --    5.11084   5.20991   5.20991   5.23693   5.23693
 Alpha virt. eigenvalues --    5.25442   5.34787   5.34787   5.41940   5.41940
 Alpha virt. eigenvalues --    5.43879   5.43879   5.45454   5.45454   5.49541
 Alpha virt. eigenvalues --    5.49541   5.51775   5.51775   5.52919   5.52919
 Alpha virt. eigenvalues --    5.69300   5.81584   5.81584   5.99291   5.99291
 Alpha virt. eigenvalues --    6.01292   6.01494   6.01494   6.14804   6.19355
 Alpha virt. eigenvalues --    6.19355   6.23142   6.23142   6.24393   6.24393
 Alpha virt. eigenvalues --    6.27424   6.28542   6.28542   6.29976   6.29976
 Alpha virt. eigenvalues --    6.30690   6.30690   6.31107   6.34817   6.34817
 Alpha virt. eigenvalues --    6.38132   6.38132   6.39287   6.39287   6.43091
 Alpha virt. eigenvalues --    6.43091   6.47371   6.47371   6.57895   6.57895
 Alpha virt. eigenvalues --    6.58265   6.58265   6.75141   6.76739   6.76739
 Alpha virt. eigenvalues --    6.76829   6.76829   6.81256   6.81256   6.86915
 Alpha virt. eigenvalues --    6.86915   6.95316   6.97010   6.97010   7.16547
 Alpha virt. eigenvalues --    7.36080   7.41737   7.50077   7.50077   7.56847
 Alpha virt. eigenvalues --    7.56847   8.05987   8.05987   8.07315   8.07315
 Alpha virt. eigenvalues --    8.23027   8.23027   8.38031   8.38031   8.57206
 Alpha virt. eigenvalues --    9.65727   9.65727  10.12251  10.80975  14.11747
 Alpha virt. eigenvalues --   14.11747  14.18652  14.18652  14.44588  15.07072
 Alpha virt. eigenvalues --   49.03858  58.85053
          Condensed to atoms (all electrons):
              1          2
     1  As  32.071403   0.928597
     2  As   0.928597  32.071403
 Mulliken atomic charges:
              1
     1  As   0.000000
     2  As   0.000000
 Sum of Mulliken atomic charges =   0.00000
 Mulliken charges with hydrogens summed into heavy atoms:
              1
     1  As   0.000000
     2  As   0.000000
 Sum of Mulliken charges with hydrogens summed into heavy atoms =   0.00000
          Atomic-Atomic Spin Densities.
              1          2
     1  As   0.000000   0.000000
     2  As   0.000000   0.000000
 Mulliken atomic spin densities:
              1
     1  As   0.000000
     2  As   0.000000
 Sum of Mulliken atomic spin densities =   0.00000
 Electronic spatial extent (au):  <R**2>=            340.9827
 Charge=              0.0000 electrons
 Dipole moment (field-independent basis, Debye):
    X=              0.0000    Y=              0.0000    Z=              0.0000  Tot=              0.0000
 Quadrupole moment (field-independent basis, Debye-Ang):
   XX=            -36.7153   YY=            -36.7153   ZZ=            -34.8317
   XY=              0.0000   XZ=              0.0000   YZ=              0.0000
 Traceless Quadrupole moment (field-independent basis, Debye-Ang):
   XX=             -0.6279   YY=             -0.6279   ZZ=              1.2557
   XY=              0.0000   XZ=              0.0000   YZ=              0.0000
 Octapole moment (field-independent basis, Debye-Ang**2):
  XXX=              0.0000  YYY=              0.0000  ZZZ=              0.0000  XYY=              0.0000
  XXY=              0.0000  XXZ=              0.0000  XZZ=              0.0000  YZZ=              0.0000
  YYZ=              0.0000  XYZ=              0.0000
 Hexadecapole moment (field-independent basis, Debye-Ang**3):
 XXXX=            -58.6037 YYYY=            -58.6037 ZZZZ=           -294.3708 XXXY=              0.0000
 XXXZ=              0.0000 YYYX=              0.0000 YYYZ=              0.0000 ZZZX=              0.0000
 ZZZY=              0.0000 XXYY=            -19.5346 XXZZ=            -55.6518 YYZZ=            -55.6518
 XXYZ=              0.0000 YYXZ=              0.0000 ZZXY=              0.0000
 N-N= 2.740768477858D+02 E-N=-1.686803366468D+04  KE= 6.702594458798D+03
                          Isotropic Fermi Contact Couplings
        Atom                 a.u.       MegaHertz       Gauss      10(-4) cm-1
     1  As(75)             0.00000       0.00000       0.00000       0.00000
     2  As(75)             0.00000       0.00000       0.00000       0.00000
 --------------------------------------------------------
       Center         ----  Spin Dipole Couplings  ----
                      3XX-RR        3YY-RR        3ZZ-RR
 --------------------------------------------------------
     1   Atom        0.000000      0.000000      0.000000
     2   Atom        0.000000      0.000000      0.000000
 --------------------------------------------------------
                        XY            XZ            YZ
 --------------------------------------------------------
     1   Atom        0.000000      0.000000      0.000000
     2   Atom        0.000000      0.000000      0.000000
 --------------------------------------------------------


 ---------------------------------------------------------------------------------
              Anisotropic Spin Dipole Couplings in Principal Axis System
 ---------------------------------------------------------------------------------

       Atom             a.u.   MegaHertz   Gauss  10(-4) cm-1        Axes

              Baa     0.0000     0.000     0.000     0.000  1.0000  0.0000  0.0000
     1 As(75) Bbb     0.0000     0.000     0.000     0.000  0.0000  1.0000  0.0000
              Bcc     0.0000     0.000     0.000     0.000  0.0000  0.0000  1.0000
 
              Baa     0.0000     0.000     0.000     0.000  1.0000  0.0000  0.0000
     2 As(75) Bbb     0.0000     0.000     0.000     0.000  0.0000  1.0000  0.0000
              Bcc     0.0000     0.000     0.000     0.000  0.0000  0.0000  1.0000
 

 ---------------------------------------------------------------------------------


 Test job not archived.
 1\1\GINC-C17\SP\ROMP2-RW\Gen\As2\GPETERSSON\21-Aug-2012\0\\# ROMP2(RW)
  Gen GFinput Int=NoBasisTransform Int(Grid=Ultrafine) IOp(3/32=2,5/6=1
 0,8/11=1,9/33=1) Maxdisk=128GB CBSextrapolate(Nmin=20,MinPop)\\As2\\0,
 1\As\As,1,2.1026\\Version=EM64L-G09RevA.02\State=1-SGG\HF=-4468.498919
 1\MP2=-4468.7859488\E2(CBS)=-0.2963698\CBS-Int=-0.2912939\OIii=1.43352
 67\RMSD=4.324e-11\PG=D*H [C*(As1.As1)]\\@


 OPTIMIST - A PESSIMIST WHO LACKS EXPERIENCE
 Job cpu time:  0 days  9 hours 47 minutes 39.3 seconds.
 File lengths (MBytes):  RWF=   1631 Int=      0 D2E=      0 Chk=      9 Scr=      1
 Normal termination of Gaussian 09 at Tue Aug 21 00:05:12 2012.
