 Entering Gaussian System, Link 0=g09
 AtFile(1): 7ZaP-NR.gbs
 Initial command:
 /share/apps/gaussian/g09root/g09/l1.exe /localscratch/737442/Gau-21247.inp -scrdir=/localscratch/737442/
 Entering Link 1 = /share/apps/gaussian/g09root/g09/l1.exe PID=     21248.
  
 Copyright (c) 1988,1990,1992,1993,1995,1998,2003,2009, Gaussian, Inc.
                  All Rights Reserved.
  
 This is part of the Gaussian(R) 09 program.  It is based on
 the Gaussian(R) 03 system (copyright 2003, Gaussian, Inc.),
 the Gaussian(R) 98 system (copyright 1998, Gaussian, Inc.),
 the Gaussian(R) 94 system (copyright 1995, Gaussian, Inc.),
 the Gaussian 92(TM) system (copyright 1992, Gaussian, Inc.),
 the Gaussian 90(TM) system (copyright 1990, Gaussian, Inc.),
 the Gaussian 88(TM) system (copyright 1988, Gaussian, Inc.),
 the Gaussian 86(TM) system (copyright 1986, Carnegie Mellon
 University), and the Gaussian 82(TM) system (copyright 1983,
 Carnegie Mellon University). Gaussian is a federally registered
 trademark of Gaussian, Inc.
  
 This software contains proprietary and confidential information,
 including trade secrets, belonging to Gaussian, Inc.
  
 This software is provided under written license and may be
 used, copied, transmitted, or stored only in accord with that
 written license.
  
 The following legend is applicable only to US Government
 contracts under FAR:
  
                    RESTRICTED RIGHTS LEGEND
  
 Use, reproduction and disclosure by the US Government is
 subject to restrictions as set forth in subparagraphs (a)
 and (c) of the Commercial Computer Software - Restricted
 Rights clause in FAR 52.227-19.
  
 Gaussian, Inc.
 340 Quinnipiac St., Bldg. 40, Wallingford CT 06492
  
  
 ---------------------------------------------------------------
 Warning -- This program may not be used in any manner that
 competes with the business of Gaussian, Inc. or will provide
 assistance to any competitor of Gaussian, Inc.  The licensee
 of this program is prohibited from giving any competitor of
 Gaussian, Inc. access to this program.  By using this program,
 the user acknowledges that Gaussian, Inc. is engaged in the
 business of creating and licensing software in the field of
 computational chemistry and represents and warrants to the
 licensee that it is not a competitor of Gaussian, Inc. and that
 it will not use this program in any manner prohibited above.
 ---------------------------------------------------------------
  

 Cite this work as:
 Gaussian 09, Revision A.02,
 M. J. Frisch, G. W. Trucks, H. B. Schlegel, G. E. Scuseria, 
 M. A. Robb, J. R. Cheeseman, G. Scalmani, V. Barone, B. Mennucci, 
 G. A. Petersson, H. Nakatsuji, M. Caricato, X. Li, H. P. Hratchian, 
 A. F. Izmaylov, J. Bloino, G. Zheng, J. L. Sonnenberg, M. Hada, 
 M. Ehara, K. Toyota, R. Fukuda, J. Hasegawa, M. Ishida, T. Nakajima, 
 Y. Honda, O. Kitao, H. Nakai, T. Vreven, J. A. Montgomery, Jr., 
 J. E. Peralta, F. Ogliaro, M. Bearpark, J. J. Heyd, E. Brothers, 
 K. N. Kudin, V. N. Staroverov, R. Kobayashi, J. Normand, 
 K. Raghavachari, A. Rendell, J. C. Burant, S. S. Iyengar, J. Tomasi, 
 M. Cossi, N. Rega, J. M. Millam, M. Klene, J. E. Knox, J. B. Cross, 
 V. Bakken, C. Adamo, J. Jaramillo, R. Gomperts, R. E. Stratmann, 
 O. Yazyev, A. J. Austin, R. Cammi, C. Pomelli, J. W. Ochterski, 
 R. L. Martin, K. Morokuma, V. G. Zakrzewski, G. A. Voth, 
 P. Salvador, J. J. Dannenberg, S. Dapprich, A. D. Daniels, 
 O. Farkas, J. B. Foresman, J. V. Ortiz, J. Cioslowski, 
 and D. J. Fox, Gaussian, Inc., Wallingford CT, 2009.
 
 ******************************************
 Gaussian 09:  EM64L-G09RevA.02 11-Jun-2009
                20-Aug-2012 
 ******************************************
 % Mem=12GB
 % Nproc=8
 Will use up to    8 processors via shared memory.
 ----------------------------------------------------------------------
 # ROMP2(RW) Gen GFinput Int=NoBasisTransform Int(Grid=Ultrafine) IOp(3
 /32=2,5/6=10,8/11=1,9/33=1) Maxdisk=128GB CBSextrapolate(Nmin=25,MinPo
 p)
 ----------------------------------------------------------------------
 1/38=1/1;
 2/12=2,17=6,18=5,40=1/2;
 3/5=7,11=2,16=1,24=10,25=1,30=1,32=2,60=-1,75=-5,116=101/1,2,3;
 4//1;
 5/5=2,6=10,38=5/2;
 8/5=-1,10=91,11=1/1;
 9/16=-3,33=1,75=2,81=25,83=4/6,4;
 6/7=2,8=2,9=2,10=2/1;
 99/5=1,9=1/99;
 ----
 AsH3
 ----
 Symbolic Z-matrix:
 Charge =  0 Multiplicity = 1
 X
 As                   1     1. 
 H                    2    Rash     1    AhAsx
 H                    2    Rash     1    AhAsx    3     120.     0
 H                    2    Rash     1    AhAsx    3    -120.     0
       Variables:
  Rash                  1.52308                  
  AhAsx               123.42691                  
 
                          Input orientation:                          
 ---------------------------------------------------------------------
 Center     Atomic      Atomic             Coordinates (Angstroms)
 Number     Number       Type             X           Y           Z
 ---------------------------------------------------------------------
      1         33           0        0.000000    0.000000    1.000000
      2          1           0        1.271147    0.000000    1.839024
      3          1           0       -0.635574    1.100846    1.839024
      4          1           0       -0.635574   -1.100846    1.839024
 ---------------------------------------------------------------------
                    Distance matrix (angstroms):
                    1          2          3          4
     1  As   0.000000
     2  H    1.523081   0.000000
     3  H    1.523081   2.201692   0.000000
     4  H    1.523081   2.201692   2.201692   0.000000
 Stoichiometry    AsH3
 Framework group  C3V[C3(As),3SGV(H)]
 Deg. of freedom     2
 Full point group                 C3V     NOp   6
 Largest Abelian subgroup         CS      NOp   2
 Largest concise Abelian subgroup CS      NOp   2
                         Standard orientation:                         
 ---------------------------------------------------------------------
 Center     Atomic      Atomic             Coordinates (Angstroms)
 Number     Number       Type             X           Y           Z
 ---------------------------------------------------------------------
      1         33           0        0.000000    0.000000    0.069919
      2          1           0        0.000000    1.271147   -0.769105
      3          1           0        1.100846   -0.635574   -0.769105
      4          1           0       -1.100846   -0.635574   -0.769105
 ---------------------------------------------------------------------
 Rotational constants (GHZ):    112.5932550    112.5932550    103.4472852
 General basis read from cards:  (5D, 7F)
 AO basis set in the form of general basis input (Overlap normalization):
      1 0
 S  19 1.00       0.000000000000
      0.8650451530D+08  0.3300655124D-06
      0.1628168380D+08  0.2044443866D-05
      0.3747703670D+07  0.1154070357D-04
      0.1021359720D+07  0.5186212928D-04
      0.3203359010D+06  0.1980363441D-03
      0.1128004270D+06  0.6592990918D-03
      0.4365492760D+05  0.1967820252D-02
      0.1823316230D+05  0.5373513002D-02
      0.8093021230D+04  0.1361405918D-01
      0.3768715480D+04  0.3218167547D-01
      0.1821795630D+04  0.7046321339D-01
      0.9062961930D+03  0.1393760946D+00
      0.4607567010D+03  0.2356460856D+00
      0.2380523900D+03  0.3052203077D+00
      0.1244279870D+03  0.2463339057D+00
      0.6555498500D+02  0.8883839465D-01
      0.3470247800D+02  0.8436057777D-02
      0.1840391500D+02  0.8969998273D-03
      0.9749020000D+01 -0.1634633792D-04
 S  15 1.00       0.000000000000
      0.1823316230D+05 -0.1075407502D-04
      0.8093021230D+04 -0.5163809444D-04
      0.3768715480D+04 -0.3116450839D-03
      0.1821795630D+04 -0.1392899174D-02
      0.9062961930D+03 -0.5826934199D-02
      0.4607567010D+03 -0.2005173173D-01
      0.2380523900D+03 -0.5519948761D-01
      0.1244279870D+03 -0.8931625917D-01
      0.6555498500D+02 -0.7681709220D-02
      0.3470247800D+02  0.2994520646D+00
      0.1840391500D+02  0.5139876625D+00
      0.9749020000D+01  0.2694413671D+00
      0.5141291000D+01  0.3732476805D-01
      0.2688638000D+01  0.2126411459D-02
      0.1387503000D+01 -0.4374603707D-03
 P  17 1.00       0.000000000000
      0.1270486630D+06  0.2908665223D-05
      0.3383589630D+05  0.2308522329D-04
      0.1079826630D+05  0.1487140281D-03
      0.3990275130D+04  0.7333736933D-03
      0.1657360270D+04  0.2944593625D-02
      0.7542497550D+03  0.9896016561D-02
      0.3680268710D+03  0.2845947159D-01
      0.1890566260D+03  0.7062396426D-01
      0.1007096710D+03  0.1477086082D+00
      0.5494271700D+02  0.2487758530D+00
      0.3038872200D+02  0.3147722141D+00
      0.1690166700D+02  0.2489544237D+00
      0.9390696000D+01  0.9772138151D-01
      0.5184120000D+01  0.1548410760D-01
      0.2830598000D+01  0.1350578766D-02
      0.1522368000D+01  0.2302604066D-03
      0.8032380000D+00  0.1566076893D-04
 S  11 1.00       0.000000000000
      0.2380523900D+03  0.6267477406D-03
      0.1244279870D+03  0.2438415568D-02
      0.6555498500D+02  0.2123420768D-02
      0.3470247800D+02 -0.3360031026D-01
      0.1840391500D+02 -0.1702762447D+00
      0.9749020000D+01 -0.1407439079D+00
      0.5141291000D+01  0.2662757245D+00
      0.2688638000D+01  0.5844492732D+00
      0.1387503000D+01  0.3405739287D+00
      0.7023420000D+00  0.3721768841D-01
      0.3461010000D+00  0.1820752711D-02
 P  14 1.00       0.000000000000
      0.7542497550D+03 -0.3479424059D-04
      0.3680268710D+03 -0.2215335236D-03
      0.1890566260D+03 -0.1180225478D-02
      0.1007096710D+03 -0.4452205246D-02
      0.5494271700D+02 -0.1178521590D-01
      0.3038872200D+02 -0.2198598209D-01
      0.1690166700D+02  0.2208057327D-02
      0.9390696000D+01  0.1327932072D+00
      0.5184120000D+01  0.3112525746D+00
      0.2830598000D+01  0.3783531746D+00
      0.1522368000D+01  0.2368181203D+00
      0.8032380000D+00  0.5628763891D-01
      0.4139680000D+00  0.4181683333D-02
      0.2073520000D+00  0.4945473986D-03
 D  16 1.00       0.000000000000
      0.3935057380D+04  0.6658747933D-05
      0.1231408950D+04  0.6620479445D-04
      0.4868924300D+03  0.4088972204D-03
      0.2242100730D+03  0.1802995078D-02
      0.1133345490D+03  0.6440508421D-02
      0.6039109000D+02  0.1912265063D-01
      0.3307289700D+02  0.4806286143D-01
      0.1835928800D+02  0.1043746713D+00
      0.1027002900D+02  0.1818481736D+00
      0.5780470000D+01  0.2434629020D+00
      0.3271235000D+01  0.2609256884D+00
      0.1854725000D+01  0.2262380742D+00
      0.1043163000D+01  0.1466007219D+00
      0.5705330000D+00  0.6184849393D-01
      0.2934450000D+00  0.1265731408D-01
      0.1349280000D+00  0.9703401441D-03
 S  10 1.00       0.000000000000
      0.3470247800D+02  0.1511943432D-03
      0.1840391500D+02  0.2606893701D-02
      0.9749020000D+01  0.2382588455D-02
      0.5141291000D+01 -0.1010241098D-01
      0.2688638000D+01 -0.6873666774D-01
      0.1387503000D+01 -0.1896156945D+00
      0.7023420000D+00  0.2529798556D-01
      0.3461010000D+00  0.4476449179D+00
      0.1644960000D+00  0.5350838366D+00
      0.7455300000D-01  0.1637862519D+00
 S   1 1.00       0.000000000000
      0.3584180297D-01  0.1000000000D+01
 P  11 1.00       0.000000000000
      0.3038872200D+02  0.9689603129D-04
      0.1690166700D+02 -0.3491934347D-03
      0.9390696000D+01 -0.2763946553D-02
      0.5184120000D+01 -0.7042864955D-02
      0.2830598000D+01 -0.1609648048D-01
      0.1522368000D+01 -0.2477584807D-01
      0.8032380000D+00  0.6264801904D-01
      0.4139680000D+00  0.2634837480D+00
      0.2073520000D+00  0.4127647139D+00
      0.1003300000D+00  0.3233714430D+00
      0.4654600000D-01  0.7992207825D-01
 P   1 1.00       0.000000000000
      0.2662990033D-01  0.1000000000D+01
 S   1 1.00       0.000000000000
      0.4130607000D+01  0.1000000000D+01
 S   1 1.00       0.000000000000
      0.2248043000D+01  0.1000000000D+01
 S   1 1.00       0.000000000000
      0.1223476000D+01  0.1000000000D+01
 S   1 1.00       0.000000000000
      0.6658650000D+00  0.1000000000D+01
 S   1 1.00       0.000000000000
      0.3623910000D+00  0.1000000000D+01
 S   1 1.00       0.000000000000
      0.1972280000D+00  0.1000000000D+01
 P   1 1.00       0.000000000000
      0.2061443000D+01  0.1000000000D+01
 P   1 1.00       0.000000000000
      0.1240995000D+01  0.1000000000D+01
 P   1 1.00       0.000000000000
      0.7470830000D+00  0.1000000000D+01
 P   1 1.00       0.000000000000
      0.4497470000D+00  0.1000000000D+01
 P   1 1.00       0.000000000000
      0.2707490000D+00  0.1000000000D+01
 P   1 1.00       0.000000000000
      0.1629920000D+00  0.1000000000D+01
 D   1 1.00       0.000000000000
      0.2172717000D+01  0.1000000000D+01
 D   1 1.00       0.000000000000
      0.1200925000D+01  0.1000000000D+01
 D   1 1.00       0.000000000000
      0.6637870000D+00  0.1000000000D+01
 D   1 1.00       0.000000000000
      0.3668950000D+00  0.1000000000D+01
 D   1 1.00       0.000000000000
      0.2027940000D+00  0.1000000000D+01
 D   1 1.00       0.000000000000
      0.1120900000D+00  0.1000000000D+01
 F   1 1.00       0.000000000000
      0.2434959000D+01  0.1000000000D+01
 F   1 1.00       0.000000000000
      0.1305072000D+01  0.1000000000D+01
 F   1 1.00       0.000000000000
      0.6994830000D+00  0.1000000000D+01
 F   1 1.00       0.000000000000
      0.3749040000D+00  0.1000000000D+01
 F   1 1.00       0.000000000000
      0.2009380000D+00  0.1000000000D+01
 G   1 1.00       0.000000000000
      0.1148666000D+01  0.1000000000D+01
 G   1 1.00       0.000000000000
      0.7139930000D+00  0.1000000000D+01
 G   1 1.00       0.000000000000
      0.4438070000D+00  0.1000000000D+01
 G   1 1.00       0.000000000000
      0.2758630000D+00  0.1000000000D+01
 H   1 1.00       0.000000000000
      0.1101614000D+01  0.1000000000D+01
 H   1 1.00       0.000000000000
      0.6542220000D+00  0.1000000000D+01
 H   1 1.00       0.000000000000
      0.3885260000D+00  0.1000000000D+01
 I   1 1.00       0.000000000000
      0.1063087000D+01  0.1000000000D+01
 I   1 1.00       0.000000000000
      0.5892140000D+00  0.1000000000D+01
 J   1 1.00       0.000000000000
      0.8915241263D+00  0.1000000000D+01
 ****
      2 0
 S  12 1.00       0.000000000000
      0.5381780160D+04  0.1012686299D-04
      0.9139887390D+03  0.7169476206D-04
      0.2020220330D+03  0.4090344007D-03
      0.5529293400D+02  0.1775146749D-02
      0.1792053700D+02  0.6303908266D-02
      0.6611010000D+01  0.1916649659D-01
      0.2682085000D+01  0.5121491647D-01
      0.1162104000D+01  0.1213171629D+00
      0.5249190000D+00  0.2420085149D+00
      0.2425210000D+00  0.3592427208D+00
      0.1130260000D+00  0.2831494728D+00
      0.5267100000D-01  0.6030267546D-01
 S   1 1.00       0.000000000000
      0.2553700000D-01  0.1000000000D+01
 S   1 1.00       0.000000000000
      0.9448000000D-02  0.1000000000D+01
 S   1 1.00       0.000000000000
      0.3873663000D+01  0.1000000000D+01
 S   1 1.00       0.000000000000
      0.1681599000D+01  0.1000000000D+01
 S   1 1.00       0.000000000000
      0.7300000000D+00  0.1000000000D+01
 S   1 1.00       0.000000000000
      0.3169010000D+00  0.1000000000D+01
 S   1 1.00       0.000000000000
      0.1375700000D+00  0.1000000000D+01
 S   1 1.00       0.000000000000
      0.5972100000D-01  0.1000000000D+01
 P   1 1.00       0.000000000000
      0.7901081000D+01  0.1000000000D+01
 P   1 1.00       0.000000000000
      0.3743343000D+01  0.1000000000D+01
 P   1 1.00       0.000000000000
      0.1773506000D+01  0.1000000000D+01
 P   1 1.00       0.000000000000
      0.8402450000D+00  0.1000000000D+01
 P   1 1.00       0.000000000000
      0.3980880000D+00  0.1000000000D+01
 P   1 1.00       0.000000000000
      0.1886040000D+00  0.1000000000D+01
 D   1 1.00       0.000000000000
      0.6793936000D+01  0.1000000000D+01
 D   1 1.00       0.000000000000
      0.3278394000D+01  0.1000000000D+01
 D   1 1.00       0.000000000000
      0.1581979000D+01  0.1000000000D+01
 D   1 1.00       0.000000000000
      0.7633790000D+00  0.1000000000D+01
 D   1 1.00       0.000000000000
      0.3683670000D+00  0.1000000000D+01
 F   1 1.00       0.000000000000
      0.5541324000D+01  0.1000000000D+01
 F   1 1.00       0.000000000000
      0.2486224000D+01  0.1000000000D+01
 F   1 1.00       0.000000000000
      0.1115494000D+01  0.1000000000D+01
 F   1 1.00       0.000000000000
      0.5004880000D+00  0.1000000000D+01
 G   1 1.00       0.000000000000
      0.5708716000D+01  0.1000000000D+01
 G   1 1.00       0.000000000000
      0.2571411000D+01  0.1000000000D+01
 G   1 1.00       0.000000000000
      0.1158256000D+01  0.1000000000D+01
 H   1 1.00       0.000000000000
      0.3367163000D+01  0.1000000000D+01
 H   1 1.00       0.000000000000
      0.1196260000D+01  0.1000000000D+01
 I   1 1.00       0.000000000000
      0.3091020597D+01  0.1000000000D+01
 ****
      3 0
 S  12 1.00       0.000000000000
      0.5381780160D+04  0.1012686299D-04
      0.9139887390D+03  0.7169476206D-04
      0.2020220330D+03  0.4090344007D-03
      0.5529293400D+02  0.1775146749D-02
      0.1792053700D+02  0.6303908266D-02
      0.6611010000D+01  0.1916649659D-01
      0.2682085000D+01  0.5121491647D-01
      0.1162104000D+01  0.1213171629D+00
      0.5249190000D+00  0.2420085149D+00
      0.2425210000D+00  0.3592427208D+00
      0.1130260000D+00  0.2831494728D+00
      0.5267100000D-01  0.6030267546D-01
 S   1 1.00       0.000000000000
      0.2553700000D-01  0.1000000000D+01
 S   1 1.00       0.000000000000
      0.9448000000D-02  0.1000000000D+01
 S   1 1.00       0.000000000000
      0.3873663000D+01  0.1000000000D+01
 S   1 1.00       0.000000000000
      0.1681599000D+01  0.1000000000D+01
 S   1 1.00       0.000000000000
      0.7300000000D+00  0.1000000000D+01
 S   1 1.00       0.000000000000
      0.3169010000D+00  0.1000000000D+01
 S   1 1.00       0.000000000000
      0.1375700000D+00  0.1000000000D+01
 S   1 1.00       0.000000000000
      0.5972100000D-01  0.1000000000D+01
 P   1 1.00       0.000000000000
      0.7901081000D+01  0.1000000000D+01
 P   1 1.00       0.000000000000
      0.3743343000D+01  0.1000000000D+01
 P   1 1.00       0.000000000000
      0.1773506000D+01  0.1000000000D+01
 P   1 1.00       0.000000000000
      0.8402450000D+00  0.1000000000D+01
 P   1 1.00       0.000000000000
      0.3980880000D+00  0.1000000000D+01
 P   1 1.00       0.000000000000
      0.1886040000D+00  0.1000000000D+01
 D   1 1.00       0.000000000000
      0.6793936000D+01  0.1000000000D+01
 D   1 1.00       0.000000000000
      0.3278394000D+01  0.1000000000D+01
 D   1 1.00       0.000000000000
      0.1581979000D+01  0.1000000000D+01
 D   1 1.00       0.000000000000
      0.7633790000D+00  0.1000000000D+01
 D   1 1.00       0.000000000000
      0.3683670000D+00  0.1000000000D+01
 F   1 1.00       0.000000000000
      0.5541324000D+01  0.1000000000D+01
 F   1 1.00       0.000000000000
      0.2486224000D+01  0.1000000000D+01
 F   1 1.00       0.000000000000
      0.1115494000D+01  0.1000000000D+01
 F   1 1.00       0.000000000000
      0.5004880000D+00  0.1000000000D+01
 G   1 1.00       0.000000000000
      0.5708716000D+01  0.1000000000D+01
 G   1 1.00       0.000000000000
      0.2571411000D+01  0.1000000000D+01
 G   1 1.00       0.000000000000
      0.1158256000D+01  0.1000000000D+01
 H   1 1.00       0.000000000000
      0.3367163000D+01  0.1000000000D+01
 H   1 1.00       0.000000000000
      0.1196260000D+01  0.1000000000D+01
 I   1 1.00       0.000000000000
      0.3091020597D+01  0.1000000000D+01
 ****
      4 0
 S  12 1.00       0.000000000000
      0.5381780160D+04  0.1012686299D-04
      0.9139887390D+03  0.7169476206D-04
      0.2020220330D+03  0.4090344007D-03
      0.5529293400D+02  0.1775146749D-02
      0.1792053700D+02  0.6303908266D-02
      0.6611010000D+01  0.1916649659D-01
      0.2682085000D+01  0.5121491647D-01
      0.1162104000D+01  0.1213171629D+00
      0.5249190000D+00  0.2420085149D+00
      0.2425210000D+00  0.3592427208D+00
      0.1130260000D+00  0.2831494728D+00
      0.5267100000D-01  0.6030267546D-01
 S   1 1.00       0.000000000000
      0.2553700000D-01  0.1000000000D+01
 S   1 1.00       0.000000000000
      0.9448000000D-02  0.1000000000D+01
 S   1 1.00       0.000000000000
      0.3873663000D+01  0.1000000000D+01
 S   1 1.00       0.000000000000
      0.1681599000D+01  0.1000000000D+01
 S   1 1.00       0.000000000000
      0.7300000000D+00  0.1000000000D+01
 S   1 1.00       0.000000000000
      0.3169010000D+00  0.1000000000D+01
 S   1 1.00       0.000000000000
      0.1375700000D+00  0.1000000000D+01
 S   1 1.00       0.000000000000
      0.5972100000D-01  0.1000000000D+01
 P   1 1.00       0.000000000000
      0.7901081000D+01  0.1000000000D+01
 P   1 1.00       0.000000000000
      0.3743343000D+01  0.1000000000D+01
 P   1 1.00       0.000000000000
      0.1773506000D+01  0.1000000000D+01
 P   1 1.00       0.000000000000
      0.8402450000D+00  0.1000000000D+01
 P   1 1.00       0.000000000000
      0.3980880000D+00  0.1000000000D+01
 P   1 1.00       0.000000000000
      0.1886040000D+00  0.1000000000D+01
 D   1 1.00       0.000000000000
      0.6793936000D+01  0.1000000000D+01
 D   1 1.00       0.000000000000
      0.3278394000D+01  0.1000000000D+01
 D   1 1.00       0.000000000000
      0.1581979000D+01  0.1000000000D+01
 D   1 1.00       0.000000000000
      0.7633790000D+00  0.1000000000D+01
 D   1 1.00       0.000000000000
      0.3683670000D+00  0.1000000000D+01
 F   1 1.00       0.000000000000
      0.5541324000D+01  0.1000000000D+01
 F   1 1.00       0.000000000000
      0.2486224000D+01  0.1000000000D+01
 F   1 1.00       0.000000000000
      0.1115494000D+01  0.1000000000D+01
 F   1 1.00       0.000000000000
      0.5004880000D+00  0.1000000000D+01
 G   1 1.00       0.000000000000
      0.5708716000D+01  0.1000000000D+01
 G   1 1.00       0.000000000000
      0.2571411000D+01  0.1000000000D+01
 G   1 1.00       0.000000000000
      0.1158256000D+01  0.1000000000D+01
 H   1 1.00       0.000000000000
      0.3367163000D+01  0.1000000000D+01
 H   1 1.00       0.000000000000
      0.1196260000D+01  0.1000000000D+01
 I   1 1.00       0.000000000000
      0.3091020597D+01  0.1000000000D+01
 ****

 There are   360 symmetry adapted basis functions of A'  symmetry.
 There are   287 symmetry adapted basis functions of A"  symmetry.
 Integral buffers will be    131072 words long.
 Raffenetti 2 integral format.
 Two-electron integral symmetry is turned on.
   647 basis functions,  1275 primitive gaussians,   984 cartesian basis functions
    18 alpha electrons       18 beta electrons
       nuclear repulsion energy        35.1174721680 Hartrees.
 NAtoms=    4 NActive=    4 NUniq=    2 SFac= 3.00D+00 NAtFMM=   80 NAOKFM=F Big=F
 One-electron integrals computed using PRISM.
 NBasis=   647 RedAO= F  NBF=   360   287
 NBsUse=   647 1.00D-04 NBFU=   360   287
 Harris functional with IExCor=  205 diagonalized for initial guess.
 ExpMin= 9.45D-03 ExpMax= 8.65D+07 ExpMxC= 8.09D+03 IAcc=3 IRadAn=         5 AccDes= 0.00D+00
 HarFok:  IExCor=  205 AccDes= 0.00D+00 IRadAn=         5 IDoV= 1
 ScaDFX=  1.000000  1.000000  1.000000  1.000000
 FoFCou: FMM=F IPFlag=           0 FMFlag=      100000 FMFlg1=           0
         NFxFlg=           0 DoJE=T BraDBF=F KetDBF=T FulRan=T
         Omega=  0.000000  0.000000  1.000000  0.000000  0.000000 ICntrl=     500 IOpCl=  0
         NMat0=    1 NMatS0=    1 NMatT0=    0 NMatD0=    1 NMtDS0=    0 NMtDT0=    0
         I1Cent=           4 NGrid=           0.
 Petite list used in FoFCou.
 Initial guess orbital symmetries:
       Occupied  (A1) (A1) (E) (E) (A1) (A1) (E) (E) (A1) (E) (E)
                 (E) (E) (A1) (A1) (E) (E) (A1)
       Virtual   (E) (E) (A1) (E) (E) (A1) (A1) (E) (E) (A1) (E)
                 (E) (E) (E) (A1) (A1) (E) (E) (A1) (E) (E) (E)
                 (E) (A1) (A2) (E) (E) (A1) (E) (E) (A1) (A1) (E)
                 (E) (A1) (E) (E) (A1) (A2) (E) (E) (E) (E) (A1)
                 (E) (E) (E) (E) (A1) (A1) (E) (E) (A2) (E) (E)
                 (E) (E) (A1) (A1) (E) (E) (A1) (E) (E) (A2) (E)
                 (E) (A1) (E) (E) (E) (E) (E) (E) (A2) (A1) (A1)
                 (E) (E) (E) (E) (A1) (A2) (E) (E) (E) (E) (A1)
                 (A1) (E) (E) (A1) (A1) (E) (E) (A2) (E) (E) (A1)
                 (E) (E) (E) (E) (A2) (A1) (E) (E) (E) (E) (A1)
                 (E) (E) (A2) (A1) (E) (E) (E) (E) (E) (E) (A1)
                 (A2) (E) (E) (A1) (E) (E) (A1) (E) (E) (A1) (A2)
                 (E) (E) (E) (E) (A1) (A2) (E) (E) (A1) (E) (E)
                 (E) (E) (A1) (E) (E) (E) (E) (A2) (E) (E) (A1)
                 (A1) (E) (E) (A1) (A1) (E) (E) (A2) (E) (E) (A1)
                 (E) (E) (A2) (E) (E) (E) (E) (A1) (A1) (E) (E)
                 (A2) (E) (E) (E) (E) (A1) (E) (E) (A2) (A1) (A1)
                 (E) (E) (E) (E) (A2) (A1) (E) (E) (E) (E) (A1)
                 (E) (E) (E) (E) (A1) (A1) (E) (E) (E) (E) (A2)
                 (A1) (E) (E) (E) (E) (A2) (A1) (E) (E) (A2) (E)
                 (E) (A1) (A1) (E) (E) (E) (E) (A2) (E) (E) (A1)
                 (A2) (E) (E) (A1) (E) (E) (E) (E) (A2) (A1) (E)
                 (E) (A1) (E) (E) (E) (E) (A1) (A2) (E) (E) (E)
                 (E) (A1) (E) (E) (E) (E) (A2) (A1) (E) (E) (A1)
                 (E) (E) (E) (E) (A1) (E) (E) (E) (E) (A2) (E)
                 (E) (A1) (A2) (E) (E) (E) (E) (A1) (E) (E) (A2)
                 (A2) (E) (E) (A1) (E) (E) (E) (E) (A1) (A2) (E)
                 (E) (A1) (A1) (A2) (E) (E) (A2) (E) (E) (A1) (E)
                 (E) (A1) (E) (E) (A1) (E) (E) (A2) (A1) (E) (E)
                 (E) (E) (E) (E) (A1) (A1) (E) (E) (A1) (E) (E)
                 (A2) (E) (E) (A1) (E) (E) (A1) (A2) (E) (E) (E)
                 (E) (E) (E) (E) (E) (A2) (A1) (E) (E) (E) (E)
                 (A1) (A1) (E) (E) (E) (E) (A2) (A1) (E) (E) (A2)
                 (E) (E) (A1) (E) (E) (E) (E) (A1) (E) (E) (E)
                 (E) (A1) (A2) (A2) (E) (E) (A1) (A2) (A1) (E)
                 (E) (E) (E) (A1) (E) (E) (A1) (E) (E) (A2) (E)
                 (E) (A1) (A2) (E) (E) (A1) (E) (E) (A1) (E) (E)
                 (E) (E) (A1) (E) (E) (E) (E) (A2) (A1) (E) (E)
                 (E) (E) (A1) (A2) (E) (E) (A2) (E) (E) (A1) (A1)
                 (E) (E) (E) (E) (A2) (E) (E) (E) (E) (A1) (E)
                 (E) (A2) (E) (E) (A1) (A1) (E) (E) (A2) (E) (E)
                 (A1) (E) (E) (A2) (A1) (E) (E) (E) (E) (A2) (E)
                 (E) (A1) (A1) (E) (E) (E) (E) (A1) (E) (E) (A1)
                 (E) (E) (A2) (E) (E) (A1) (E) (E) (A1) (A2) (E)
                 (E) (E) (E) (A1) (A2) (E) (E) (A1) (A2) (E) (E)
                 (E) (E) (A1) (E) (E) (E) (E) (A1) (E) (E) (A2)
                 (E) (E) (E) (E) (A1) (A2) (E) (E) (E) (E) (A2)
                 (A1) (E) (E) (A2) (E) (E) (E) (E) (A2) (A1) (A1)
                 (A1) (E) (E) (E) (E) (E) (E) (A2) (E) (E) (A1)
                 (A1) (E) (E) (A2) (E) (E) (A2) (E) (E) (E) (E)
                 (A1) (A1) (E) (E) (A2) (E) (E) (A1) (E) (E) (A1)
                 (E) (E) (E) (E) (A2) (A1) (E) (E) (A1) (A2) (E)
                 (E) (E) (E) (E) (E) (A2) (A1) (E) (E) (A1) (E)
                 (E) (A1) (E) (E) (A2) (E) (E) (E) (E) (A2) (A1)
                 (E) (E) (A2) (E) (E) (A1) (E) (E) (A2) (E) (E)
                 (A1) (E) (E) (E) (E) (A1) (A1) (E) (E) (A2) (E)
                 (E) (A1) (E) (E) (E) (E) (A2) (A1) (E) (E) (A1)
                 (E) (E) (A1)
 The electronic state of the initial guess is 1-A1.
 Requested convergence on RMS density matrix=1.00D-10 within 128 cycles.
 Requested convergence on MAX density matrix=1.00D-08.
 Requested convergence on             energy=1.00D-08.
 No special actions if energy rises.
 Initial convergence to 1.0D-05 achieved.  Increase integral accuracy.
 SCF Done:  E(ROHF) =  -2235.97796603     A.U. after   15 cycles
             Convg  =    0.1226D-10             -V/T =  2.0000
 <Sx>= 0.0000 <Sy>= 0.0000 <Sz>= 0.0000 <S**2>= 0.0000 S= 0.0000
 <L.S>= 0.000000000000E+00
 Annihilation of the first spin contaminant:
 S**2 before annihilation     0.0000,   after     0.0000
 DiagDN has N=   647 LTot=  1973 but NE2=     3 cannot use DSYEVD.
 GenMOA:  NOpAll=  6 NOp2=2 NOpUse=  6 JSym2X=1
 <Sx>= 0.0000 <Sy>= 0.0000 <Sz>= 0.0000 <S**2>= 0.0000 S= 0.0000
 Range of M.O.s used for correlation:    15   647
 NBasis=   647 NAE=    18 NBE=    18 NFC=    14 NFV=     0
 NROrb=    633 NOA=     4 NOB=     4 NVA=   629 NVB=   629

 **** Warning!!: The largest alpha MO coefficient is  0.19025701D+03


 **** Warning!!: The largest beta MO coefficient is  0.19025701D+03

 Singles contribution to E2=   -0.1060116719D-15
 Disk-based method using OVN memory for  4 occupieds at a time.
 Permanent disk used for amplitudes and <ij||ab> integrals=    17400656 words.
 Estimated scratch disk usage=  2056264364 words.
 IUseRI=2 ITolRI= 6 IR12RI=0
 Actual    scratch disk usage=  2054854828 words.
 GetIJB would need an additional  1691747874 words of memory to use all   8 processors.
 JobTyp=2 Pass  1:  I=   1 to   4 NPSUse=  1 ParTrn=F ParDer=F DoDerP=F.
 (rs|ai) integrals will be sorted in core.
 T,EIJ(AA): I=   1 J=   2      0.4254577E-03     -0.1158725E-02
 T,EIJ(AA): I=   1 J=   3      0.4254577E-03     -0.1158725E-02
 T,EIJ(AA): I=   1 J=   4      0.5503349E-03     -0.1402818E-02
 T,EIJ(AA): I=   2 J=   3      0.1208973E-02     -0.2423586E-02
 T,EIJ(AA): I=   2 J=   4      0.1810820E-02     -0.3329437E-02
 T,EIJ(AA): I=   3 J=   4      0.1810820E-02     -0.3329437E-02
 T,EIJ(AB): I=   1 J=   1      0.2842913E-02     -0.9599765E-02
 T,EIJ(AB): I=   1 J=   2      0.2390415E-02     -0.7832706E-02
 T,EIJ(AB): I=   1 J=   3      0.2390415E-02     -0.7832706E-02
 T,EIJ(AB): I=   1 J=   4      0.2086324E-02     -0.6122502E-02
 T,EIJ(AB): I=   2 J=   1      0.2390415E-02     -0.7832706E-02
 T,EIJ(AB): I=   2 J=   2      0.7749933E-02     -0.1885257E-01
 T,EIJ(AB): I=   2 J=   3      0.2793235E-02     -0.6934196E-02
 T,EIJ(AB): I=   2 J=   4      0.3027626E-02     -0.6480247E-02
 T,EIJ(AB): I=   3 J=   1      0.2390415E-02     -0.7832706E-02
 T,EIJ(AB): I=   3 J=   2      0.2793235E-02     -0.6934196E-02
 T,EIJ(AB): I=   3 J=   3      0.7749933E-02     -0.1885257E-01
 T,EIJ(AB): I=   3 J=   4      0.3027626E-02     -0.6480247E-02
 T,EIJ(AB): I=   4 J=   1      0.2086324E-02     -0.6122502E-02
 T,EIJ(AB): I=   4 J=   2      0.3027626E-02     -0.6480247E-02
 T,EIJ(AB): I=   4 J=   3      0.3027626E-02     -0.6480247E-02
 T,EIJ(AB): I=   4 J=   4      0.1045702E-01     -0.1994109E-01
 Actual    scratch disk usage=  2054854828 words.
 GetIJB would need an additional  1691747874 words of memory to use all   8 processors.
 JobTyp=3 Pass  1:  I=   1 to   4 NPSUse=  1 ParTrn=F ParDer=F DoDerP=F.
 (rs|ai) integrals will be sorted in core.
 T,EIJ(BB): I=   1 J=   2      0.4254577E-03     -0.1158725E-02
 T,EIJ(BB): I=   1 J=   3      0.4254577E-03     -0.1158725E-02
 T,EIJ(BB): I=   1 J=   4      0.5503349E-03     -0.1402818E-02
 T,EIJ(BB): I=   2 J=   3      0.1208973E-02     -0.2423586E-02
 T,EIJ(BB): I=   2 J=   4      0.1810820E-02     -0.3329437E-02
 T,EIJ(BB): I=   3 J=   4      0.1810820E-02     -0.3329437E-02
 Spin components of T(2) and E(2):
     alpha-alpha T2 =       0.6231862197D-02 E2=     -0.1280272891D-01
     alpha-beta  T2 =       0.6023107635D-01 E2=     -0.1506111976D+00
     beta-beta   T2 =       0.6231862197D-02 E2=     -0.1280272891D-01
 ANorm=    0.1035709805D+01
 E2 =    -0.1762166554D+00 EUMP2 =    -0.22361541826884D+04

 Complete Basis Set (CBS) Extrapolation:
 M. R. Nyden and G. A. Petersson, JCP 75, 1843 (1981)
 G. A. Petersson and M. A. Al-Laham, JCP 94, 6081 (1991)
 G. A. Petersson, T. Tensfeldt, and J. A. Montgomery, JCP 94, 6091 (1991)
 J. A. Montgomery, J. W. Ochterski, and G. A. Petersson, JCP 101, 5900 (1994)
 
 Minimum Number of PNO for Extrapolation =  25
 Absolute Overlaps: IRadAn =         5
 LocTrn: ILocal=3 LocCor=F DoCore=F.
 Entering OneElI...
 Overlap between basis sets.
 Requested accuracy = 0.1000D-12
 PrsmSu:  NPrtUS=   1 ThrOK=F IAlg=1
 PRISM was handed  1608790871 working-precision words and    81 shell-pairs
 IPart=  0 NShTot=          81 NBatch=          10 AvBLen=         8.1
 CnvPC2: ToCart=F DoDens=F IPureD=0 IPureF=0.
 Transformed matrix in CnvPC2: 
                 1             2             3             4             5 
      1   0.100000D+01  0.403730D+00  0.000000D+00  0.000000D+00  0.000000D+00
      2   0.403730D+00  0.100000D+01  0.000000D+00  0.000000D+00  0.000000D+00
      3   0.000000D+00  0.000000D+00  0.100000D+01  0.000000D+00  0.000000D+00
      4   0.000000D+00  0.000000D+00  0.000000D+00  0.100000D+01  0.000000D+00
      5   0.000000D+00  0.000000D+00  0.000000D+00  0.000000D+00  0.100000D+01
      6   0.292129D-01  0.339068D+00  0.000000D+00  0.000000D+00  0.000000D+00
      7   0.000000D+00  0.000000D+00  0.351981D+00  0.000000D+00  0.000000D+00
      8   0.000000D+00  0.000000D+00  0.000000D+00  0.351981D+00  0.000000D+00
      9   0.000000D+00  0.000000D+00  0.000000D+00  0.000000D+00  0.351981D+00
     10   0.000000D+00  0.000000D+00  0.000000D+00  0.000000D+00  0.000000D+00
     11   0.000000D+00  0.000000D+00  0.000000D+00  0.000000D+00  0.000000D+00
     12   0.000000D+00  0.000000D+00  0.000000D+00  0.000000D+00  0.000000D+00
     13   0.000000D+00  0.000000D+00  0.000000D+00  0.000000D+00  0.000000D+00
     14   0.000000D+00  0.000000D+00  0.000000D+00  0.000000D+00  0.000000D+00
     15  -0.382798D-03  0.488481D-02  0.000000D+00  0.000000D+00  0.000000D+00
     16   0.000000D+00  0.000000D+00  0.130758D-01  0.000000D+00  0.000000D+00
     17   0.000000D+00  0.000000D+00  0.000000D+00  0.130758D-01  0.000000D+00
     18   0.000000D+00  0.000000D+00  0.000000D+00  0.000000D+00  0.130758D-01
     19   0.000000D+00  0.000000D+00  0.000000D+00  0.000000D+00  0.000000D+00
     20   0.000000D+00  0.000000D+00  0.000000D+00  0.000000D+00  0.000000D+00
     21   0.000000D+00  0.000000D+00  0.000000D+00  0.000000D+00  0.000000D+00
     22   0.000000D+00  0.000000D+00  0.000000D+00  0.000000D+00  0.000000D+00
     23   0.000000D+00  0.000000D+00  0.000000D+00  0.000000D+00  0.000000D+00
     24   0.165424D-02  0.101749D-01  0.000000D+00  0.163903D-02 -0.108184D-02
     25   0.165424D-02  0.101749D-01  0.141944D-02 -0.819513D-03 -0.108184D-02
     26   0.165424D-02  0.101749D-01 -0.141944D-02 -0.819513D-03 -0.108184D-02
                 6             7             8             9            10 
      1   0.292129D-01  0.000000D+00  0.000000D+00  0.000000D+00  0.000000D+00
      2   0.339068D+00  0.000000D+00  0.000000D+00  0.000000D+00  0.000000D+00
      3   0.000000D+00  0.351981D+00  0.000000D+00  0.000000D+00  0.000000D+00
      4   0.000000D+00  0.000000D+00  0.351981D+00  0.000000D+00  0.000000D+00
      5   0.000000D+00  0.000000D+00  0.000000D+00  0.351981D+00  0.000000D+00
      6   0.100000D+01  0.000000D+00  0.000000D+00  0.000000D+00  0.000000D+00
      7   0.000000D+00  0.100000D+01  0.000000D+00  0.000000D+00  0.000000D+00
      8   0.000000D+00  0.000000D+00  0.100000D+01  0.000000D+00  0.000000D+00
      9   0.000000D+00  0.000000D+00  0.000000D+00  0.100000D+01  0.000000D+00
     10   0.000000D+00  0.000000D+00  0.000000D+00  0.000000D+00  0.100000D+01
     11   0.000000D+00  0.000000D+00  0.000000D+00  0.000000D+00  0.000000D+00
     12   0.000000D+00  0.000000D+00  0.000000D+00  0.000000D+00  0.000000D+00
     13   0.000000D+00  0.000000D+00  0.000000D+00  0.000000D+00  0.000000D+00
     14   0.000000D+00  0.000000D+00  0.000000D+00  0.000000D+00  0.000000D+00
     15   0.195676D+00  0.000000D+00  0.000000D+00  0.000000D+00  0.000000D+00
     16   0.000000D+00  0.212222D+00  0.000000D+00  0.000000D+00  0.000000D+00
     17   0.000000D+00  0.000000D+00  0.212222D+00  0.000000D+00  0.000000D+00
     18   0.000000D+00  0.000000D+00  0.000000D+00  0.212222D+00  0.000000D+00
     19   0.000000D+00  0.000000D+00  0.000000D+00  0.000000D+00  0.556204D-01
     20   0.000000D+00  0.000000D+00  0.000000D+00  0.000000D+00  0.000000D+00
     21   0.000000D+00  0.000000D+00  0.000000D+00  0.000000D+00  0.000000D+00
     22   0.000000D+00  0.000000D+00  0.000000D+00  0.000000D+00  0.000000D+00
     23   0.000000D+00  0.000000D+00  0.000000D+00  0.000000D+00  0.000000D+00
     24   0.579981D-01  0.000000D+00  0.275692D-01 -0.181971D-01 -0.601522D-03
     25   0.579981D-01  0.238756D-01 -0.137846D-01 -0.181971D-01 -0.601522D-03
     26   0.579981D-01 -0.238756D-01 -0.137846D-01 -0.181971D-01 -0.601522D-03
                11            12            13            14            15 
      1   0.000000D+00  0.000000D+00  0.000000D+00  0.000000D+00 -0.382798D-03
      2   0.000000D+00  0.000000D+00  0.000000D+00  0.000000D+00  0.488481D-02
      3   0.000000D+00  0.000000D+00  0.000000D+00  0.000000D+00  0.000000D+00
      4   0.000000D+00  0.000000D+00  0.000000D+00  0.000000D+00  0.000000D+00
      5   0.000000D+00  0.000000D+00  0.000000D+00  0.000000D+00  0.000000D+00
      6   0.000000D+00  0.000000D+00  0.000000D+00  0.000000D+00  0.195676D+00
      7   0.000000D+00  0.000000D+00  0.000000D+00  0.000000D+00  0.000000D+00
      8   0.000000D+00  0.000000D+00  0.000000D+00  0.000000D+00  0.000000D+00
      9   0.000000D+00  0.000000D+00  0.000000D+00  0.000000D+00  0.000000D+00
     10   0.000000D+00  0.000000D+00  0.000000D+00  0.000000D+00  0.000000D+00
     11   0.100000D+01  0.000000D+00  0.000000D+00  0.000000D+00  0.000000D+00
     12   0.000000D+00  0.100000D+01  0.000000D+00  0.000000D+00  0.000000D+00
     13   0.000000D+00  0.000000D+00  0.100000D+01  0.000000D+00  0.000000D+00
     14   0.000000D+00  0.000000D+00  0.000000D+00  0.100000D+01  0.000000D+00
     15   0.000000D+00  0.000000D+00  0.000000D+00  0.000000D+00  0.100000D+01
     16   0.000000D+00  0.000000D+00  0.000000D+00  0.000000D+00  0.000000D+00
     17   0.000000D+00  0.000000D+00  0.000000D+00  0.000000D+00  0.000000D+00
     18   0.000000D+00  0.000000D+00  0.000000D+00  0.000000D+00  0.000000D+00
     19   0.000000D+00  0.000000D+00  0.000000D+00  0.000000D+00  0.000000D+00
     20   0.556204D-01  0.000000D+00  0.000000D+00  0.000000D+00  0.000000D+00
     21   0.000000D+00  0.556204D-01  0.000000D+00  0.000000D+00  0.000000D+00
     22   0.000000D+00  0.000000D+00  0.556204D-01  0.000000D+00  0.000000D+00
     23   0.000000D+00  0.000000D+00  0.000000D+00  0.556204D-01  0.000000D+00
     24   0.000000D+00 -0.106899D-01 -0.809775D-02  0.000000D+00  0.376430D+00
     25  -0.925770D-02  0.534494D-02  0.404887D-02 -0.701285D-02  0.376430D+00
     26   0.925770D-02  0.534494D-02  0.404887D-02  0.701285D-02  0.376430D+00
                16            17            18            19            20 
      1   0.000000D+00  0.000000D+00  0.000000D+00  0.000000D+00  0.000000D+00
      2   0.000000D+00  0.000000D+00  0.000000D+00  0.000000D+00  0.000000D+00
      3   0.130758D-01  0.000000D+00  0.000000D+00  0.000000D+00  0.000000D+00
      4   0.000000D+00  0.130758D-01  0.000000D+00  0.000000D+00  0.000000D+00
      5   0.000000D+00  0.000000D+00  0.130758D-01  0.000000D+00  0.000000D+00
      6   0.000000D+00  0.000000D+00  0.000000D+00  0.000000D+00  0.000000D+00
      7   0.212222D+00  0.000000D+00  0.000000D+00  0.000000D+00  0.000000D+00
      8   0.000000D+00  0.212222D+00  0.000000D+00  0.000000D+00  0.000000D+00
      9   0.000000D+00  0.000000D+00  0.212222D+00  0.000000D+00  0.000000D+00
     10   0.000000D+00  0.000000D+00  0.000000D+00  0.556204D-01  0.000000D+00
     11   0.000000D+00  0.000000D+00  0.000000D+00  0.000000D+00  0.556204D-01
     12   0.000000D+00  0.000000D+00  0.000000D+00  0.000000D+00  0.000000D+00
     13   0.000000D+00  0.000000D+00  0.000000D+00  0.000000D+00  0.000000D+00
     14   0.000000D+00  0.000000D+00  0.000000D+00  0.000000D+00  0.000000D+00
     15   0.000000D+00  0.000000D+00  0.000000D+00  0.000000D+00  0.000000D+00
     16   0.100000D+01  0.000000D+00  0.000000D+00  0.000000D+00  0.000000D+00
     17   0.000000D+00  0.100000D+01  0.000000D+00  0.000000D+00  0.000000D+00
     18   0.000000D+00  0.000000D+00  0.100000D+01  0.000000D+00  0.000000D+00
     19   0.000000D+00  0.000000D+00  0.000000D+00  0.100000D+01  0.000000D+00
     20   0.000000D+00  0.000000D+00  0.000000D+00  0.000000D+00  0.100000D+01
     21   0.000000D+00  0.000000D+00  0.000000D+00  0.000000D+00  0.000000D+00
     22   0.000000D+00  0.000000D+00  0.000000D+00  0.000000D+00  0.000000D+00
     23   0.000000D+00  0.000000D+00  0.000000D+00  0.000000D+00  0.000000D+00
     24   0.000000D+00  0.379911D+00 -0.250761D+00 -0.212902D-01  0.000000D+00
     25   0.329013D+00 -0.189956D+00 -0.250761D+00 -0.212902D-01 -0.327667D+00
     26  -0.329013D+00 -0.189956D+00 -0.250761D+00 -0.212902D-01  0.327667D+00
                21            22            23            24            25 
      1   0.000000D+00  0.000000D+00  0.000000D+00  0.165424D-02  0.165424D-02
      2   0.000000D+00  0.000000D+00  0.000000D+00  0.101749D-01  0.101749D-01
      3   0.000000D+00  0.000000D+00  0.000000D+00  0.000000D+00  0.141944D-02
      4   0.000000D+00  0.000000D+00  0.000000D+00  0.163903D-02 -0.819513D-03
      5   0.000000D+00  0.000000D+00  0.000000D+00 -0.108184D-02 -0.108184D-02
      6   0.000000D+00  0.000000D+00  0.000000D+00  0.579981D-01  0.579981D-01
      7   0.000000D+00  0.000000D+00  0.000000D+00  0.000000D+00  0.238756D-01
      8   0.000000D+00  0.000000D+00  0.000000D+00  0.275692D-01 -0.137846D-01
      9   0.000000D+00  0.000000D+00  0.000000D+00 -0.181971D-01 -0.181971D-01
     10   0.000000D+00  0.000000D+00  0.000000D+00 -0.601522D-03 -0.601522D-03
     11   0.000000D+00  0.000000D+00  0.000000D+00  0.000000D+00 -0.925770D-02
     12   0.556204D-01  0.000000D+00  0.000000D+00 -0.106899D-01  0.534494D-02
     13   0.000000D+00  0.556204D-01  0.000000D+00 -0.809775D-02  0.404887D-02
     14   0.000000D+00  0.000000D+00  0.556204D-01  0.000000D+00 -0.701285D-02
     15   0.000000D+00  0.000000D+00  0.000000D+00  0.376430D+00  0.376430D+00
     16   0.000000D+00  0.000000D+00  0.000000D+00  0.000000D+00  0.329013D+00
     17   0.000000D+00  0.000000D+00  0.000000D+00  0.379911D+00 -0.189956D+00
     18   0.000000D+00  0.000000D+00  0.000000D+00 -0.250761D+00 -0.250761D+00
     19   0.000000D+00  0.000000D+00  0.000000D+00 -0.212902D-01 -0.212902D-01
     20   0.000000D+00  0.000000D+00  0.000000D+00  0.000000D+00 -0.327667D+00
     21   0.100000D+01  0.000000D+00  0.000000D+00 -0.378357D+00  0.189178D+00
     22   0.000000D+00  0.100000D+01  0.000000D+00 -0.286611D+00  0.143306D+00
     23   0.000000D+00  0.000000D+00  0.100000D+01  0.000000D+00 -0.248213D+00
     24  -0.378357D+00 -0.286611D+00  0.000000D+00  0.100000D+01  0.848320D-01
     25   0.189178D+00  0.143306D+00 -0.248213D+00  0.848320D-01  0.100000D+01
     26   0.189178D+00  0.143306D+00  0.248213D+00  0.848320D-01  0.848320D-01
                26 
      1   0.165424D-02
      2   0.101749D-01
      3  -0.141944D-02
      4  -0.819513D-03
      5  -0.108184D-02
      6   0.579981D-01
      7  -0.238756D-01
      8  -0.137846D-01
      9  -0.181971D-01
     10  -0.601522D-03
     11   0.925770D-02
     12   0.534494D-02
     13   0.404887D-02
     14   0.701285D-02
     15   0.376430D+00
     16  -0.329013D+00
     17  -0.189956D+00
     18  -0.250761D+00
     19  -0.212902D-01
     20   0.327667D+00
     21   0.189178D+00
     22   0.143306D+00
     23   0.248213D+00
     24   0.848320D-01
     25   0.848320D-01
     26   0.100000D+01
 Entering OneElI...
 Overlap between basis sets.
 Requested accuracy = 0.1000D-12
 PrsmSu:  NPrtUS=   1 ThrOK=F IAlg=1
 PRISM was handed  1607545586 working-precision words and  1191 shell-pairs
 IPart=  0 NShTot=        1191 NBatch=          74 AvBLen=        16.1
 CnvPC2: ToCart=F DoDens=F IPureD=0 IPureF=0.
 Transformed matrix in CnvPC2: 
                 1             2             3             4             5 
      1   0.999796D+00  0.411773D+00  0.000000D+00  0.000000D+00  0.000000D+00
      2   0.289972D+00  0.988508D+00  0.000000D+00  0.000000D+00  0.000000D+00
      3   0.000000D+00  0.000000D+00  0.999253D+00  0.000000D+00  0.000000D+00
      4   0.000000D+00  0.000000D+00  0.000000D+00  0.999253D+00  0.000000D+00
      5   0.000000D+00  0.000000D+00  0.000000D+00  0.000000D+00  0.999253D+00
      6   0.134764D-01  0.325040D+00  0.000000D+00  0.000000D+00  0.000000D+00
      7   0.000000D+00  0.000000D+00  0.349152D+00  0.000000D+00  0.000000D+00
      8   0.000000D+00  0.000000D+00  0.000000D+00  0.349152D+00  0.000000D+00
      9   0.000000D+00  0.000000D+00  0.000000D+00  0.000000D+00  0.349152D+00
     10   0.000000D+00  0.000000D+00  0.000000D+00  0.000000D+00  0.000000D+00
     11   0.000000D+00  0.000000D+00  0.000000D+00  0.000000D+00  0.000000D+00
     12   0.000000D+00  0.000000D+00  0.000000D+00  0.000000D+00  0.000000D+00
     13   0.000000D+00  0.000000D+00  0.000000D+00  0.000000D+00  0.000000D+00
     14   0.000000D+00  0.000000D+00  0.000000D+00  0.000000D+00  0.000000D+00
     15   0.136505D-03  0.112901D-01  0.000000D+00  0.000000D+00  0.000000D+00
     16   0.438220D-02  0.266691D-01  0.000000D+00  0.000000D+00  0.000000D+00
     17   0.000000D+00  0.000000D+00  0.817497D-02  0.000000D+00  0.000000D+00
     18   0.000000D+00  0.000000D+00  0.000000D+00  0.817497D-02  0.000000D+00
     19   0.000000D+00  0.000000D+00  0.000000D+00  0.000000D+00  0.817497D-02
     20   0.000000D+00  0.000000D+00  0.116279D-02  0.000000D+00  0.000000D+00
     21   0.000000D+00  0.000000D+00  0.000000D+00  0.116279D-02  0.000000D+00
     22   0.000000D+00  0.000000D+00  0.000000D+00  0.000000D+00  0.116279D-02
     23   0.148177D+00  0.678734D+00  0.000000D+00  0.000000D+00  0.000000D+00
     24   0.955899D-01  0.493951D+00  0.000000D+00  0.000000D+00  0.000000D+00
     25   0.611725D-01  0.339847D+00  0.000000D+00  0.000000D+00  0.000000D+00
     26   0.389725D-01  0.225748D+00  0.000000D+00  0.000000D+00  0.000000D+00
     27   0.247680D-01  0.146878D+00  0.000000D+00  0.000000D+00  0.000000D+00
     28   0.157195D-01  0.944404D-01  0.000000D+00  0.000000D+00  0.000000D+00
     29   0.000000D+00  0.000000D+00  0.206184D+00  0.000000D+00  0.000000D+00
     30   0.000000D+00  0.000000D+00  0.000000D+00  0.206184D+00  0.000000D+00
     31   0.000000D+00  0.000000D+00  0.000000D+00  0.000000D+00  0.206184D+00
     32   0.000000D+00  0.000000D+00  0.120751D+00  0.000000D+00  0.000000D+00
     33   0.000000D+00  0.000000D+00  0.000000D+00  0.120751D+00  0.000000D+00
     34   0.000000D+00  0.000000D+00  0.000000D+00  0.000000D+00  0.120751D+00
     35   0.000000D+00  0.000000D+00  0.681853D-01  0.000000D+00  0.000000D+00
     36   0.000000D+00  0.000000D+00  0.000000D+00  0.681853D-01  0.000000D+00
     37   0.000000D+00  0.000000D+00  0.000000D+00  0.000000D+00  0.681853D-01
     38   0.000000D+00  0.000000D+00  0.375966D-01  0.000000D+00  0.000000D+00
     39   0.000000D+00  0.000000D+00  0.000000D+00  0.375966D-01  0.000000D+00
     40   0.000000D+00  0.000000D+00  0.000000D+00  0.000000D+00  0.375966D-01
     41   0.000000D+00  0.000000D+00  0.204200D-01  0.000000D+00  0.000000D+00
     42   0.000000D+00  0.000000D+00  0.000000D+00  0.204200D-01  0.000000D+00
     43   0.000000D+00  0.000000D+00  0.000000D+00  0.000000D+00  0.204200D-01
     44   0.000000D+00  0.000000D+00  0.109874D-01  0.000000D+00  0.000000D+00
     45   0.000000D+00  0.000000D+00  0.000000D+00  0.109874D-01  0.000000D+00
     46   0.000000D+00  0.000000D+00  0.000000D+00  0.000000D+00  0.109874D-01
     47   0.000000D+00  0.000000D+00  0.000000D+00  0.000000D+00  0.000000D+00
     48   0.000000D+00  0.000000D+00  0.000000D+00  0.000000D+00  0.000000D+00
     49   0.000000D+00  0.000000D+00  0.000000D+00  0.000000D+00  0.000000D+00
     50   0.000000D+00  0.000000D+00  0.000000D+00  0.000000D+00  0.000000D+00
     51   0.000000D+00  0.000000D+00  0.000000D+00  0.000000D+00  0.000000D+00
     52   0.000000D+00  0.000000D+00  0.000000D+00  0.000000D+00  0.000000D+00
     53   0.000000D+00  0.000000D+00  0.000000D+00  0.000000D+00  0.000000D+00
     54   0.000000D+00  0.000000D+00  0.000000D+00  0.000000D+00  0.000000D+00
     55   0.000000D+00  0.000000D+00  0.000000D+00  0.000000D+00  0.000000D+00
     56   0.000000D+00  0.000000D+00  0.000000D+00  0.000000D+00  0.000000D+00
     57   0.000000D+00  0.000000D+00  0.000000D+00  0.000000D+00  0.000000D+00
     58   0.000000D+00  0.000000D+00  0.000000D+00  0.000000D+00  0.000000D+00
     59   0.000000D+00  0.000000D+00  0.000000D+00  0.000000D+00  0.000000D+00
     60   0.000000D+00  0.000000D+00  0.000000D+00  0.000000D+00  0.000000D+00
     61   0.000000D+00  0.000000D+00  0.000000D+00  0.000000D+00  0.000000D+00
     62   0.000000D+00  0.000000D+00  0.000000D+00  0.000000D+00  0.000000D+00
     63   0.000000D+00  0.000000D+00  0.000000D+00  0.000000D+00  0.000000D+00
     64   0.000000D+00  0.000000D+00  0.000000D+00  0.000000D+00  0.000000D+00
     65   0.000000D+00  0.000000D+00  0.000000D+00  0.000000D+00  0.000000D+00
     66   0.000000D+00  0.000000D+00  0.000000D+00  0.000000D+00  0.000000D+00
     67   0.000000D+00  0.000000D+00  0.000000D+00  0.000000D+00  0.000000D+00
     68   0.000000D+00  0.000000D+00  0.000000D+00  0.000000D+00  0.000000D+00
     69   0.000000D+00  0.000000D+00  0.000000D+00  0.000000D+00  0.000000D+00
     70   0.000000D+00  0.000000D+00  0.000000D+00  0.000000D+00  0.000000D+00
     71   0.000000D+00  0.000000D+00  0.000000D+00  0.000000D+00  0.000000D+00
     72   0.000000D+00  0.000000D+00  0.000000D+00  0.000000D+00  0.000000D+00
     73   0.000000D+00  0.000000D+00  0.000000D+00  0.000000D+00  0.000000D+00
     74   0.000000D+00  0.000000D+00  0.000000D+00  0.000000D+00  0.000000D+00
     75   0.000000D+00  0.000000D+00  0.000000D+00  0.000000D+00  0.000000D+00
     76   0.000000D+00  0.000000D+00  0.000000D+00  0.000000D+00  0.000000D+00
     77   0.000000D+00  0.000000D+00  0.000000D+00  0.000000D+00  0.000000D+00
     78   0.000000D+00  0.000000D+00  0.000000D+00  0.000000D+00  0.000000D+00
     79   0.000000D+00  0.000000D+00  0.000000D+00  0.000000D+00  0.000000D+00
     80   0.000000D+00  0.000000D+00  0.000000D+00  0.000000D+00  0.000000D+00
     81   0.000000D+00  0.000000D+00  0.000000D+00  0.000000D+00  0.000000D+00
     82   0.000000D+00  0.000000D+00  0.000000D+00  0.000000D+00  0.000000D+00
     83   0.000000D+00  0.000000D+00  0.000000D+00  0.000000D+00  0.000000D+00
     84   0.000000D+00  0.000000D+00  0.000000D+00  0.000000D+00  0.000000D+00
     85   0.000000D+00  0.000000D+00  0.000000D+00  0.000000D+00  0.000000D+00
     86   0.000000D+00  0.000000D+00  0.000000D+00  0.000000D+00  0.000000D+00
     87   0.000000D+00  0.000000D+00  0.000000D+00  0.000000D+00  0.000000D+00
     88   0.000000D+00  0.000000D+00  0.000000D+00  0.000000D+00  0.000000D+00
     89   0.000000D+00  0.000000D+00  0.000000D+00  0.000000D+00  0.000000D+00
     90   0.000000D+00  0.000000D+00  0.000000D+00  0.000000D+00  0.000000D+00
     91   0.000000D+00  0.000000D+00  0.000000D+00  0.000000D+00  0.000000D+00
     92   0.000000D+00  0.000000D+00  0.000000D+00  0.000000D+00  0.000000D+00
     93   0.000000D+00  0.000000D+00  0.000000D+00  0.000000D+00  0.000000D+00
     94   0.000000D+00  0.000000D+00  0.000000D+00  0.000000D+00  0.000000D+00
     95   0.000000D+00  0.000000D+00  0.000000D+00  0.000000D+00  0.000000D+00
     96   0.000000D+00  0.000000D+00  0.000000D+00  0.000000D+00  0.000000D+00
     97   0.000000D+00  0.000000D+00  0.000000D+00  0.000000D+00  0.000000D+00
     98   0.000000D+00  0.000000D+00  0.000000D+00  0.000000D+00  0.000000D+00
     99   0.000000D+00  0.000000D+00  0.000000D+00  0.000000D+00  0.000000D+00
    100   0.000000D+00  0.000000D+00  0.000000D+00  0.000000D+00  0.000000D+00
    101   0.000000D+00  0.000000D+00  0.000000D+00  0.000000D+00  0.000000D+00
    102   0.000000D+00  0.000000D+00  0.000000D+00  0.000000D+00  0.000000D+00
    103   0.000000D+00  0.000000D+00  0.000000D+00  0.000000D+00  0.000000D+00
    104   0.000000D+00  0.000000D+00  0.000000D+00  0.000000D+00  0.000000D+00
    105   0.000000D+00  0.000000D+00  0.000000D+00  0.000000D+00  0.000000D+00
    106   0.000000D+00  0.000000D+00  0.000000D+00  0.000000D+00  0.000000D+00
    107   0.000000D+00  0.000000D+00  0.000000D+00  0.000000D+00  0.000000D+00
    108   0.000000D+00  0.000000D+00  0.000000D+00  0.000000D+00  0.000000D+00
    109   0.000000D+00  0.000000D+00  0.000000D+00  0.000000D+00  0.000000D+00
    110   0.000000D+00  0.000000D+00  0.000000D+00  0.000000D+00  0.000000D+00
    111   0.000000D+00  0.000000D+00  0.000000D+00  0.000000D+00  0.000000D+00
    112   0.000000D+00  0.000000D+00  0.000000D+00  0.000000D+00  0.000000D+00
    113   0.000000D+00  0.000000D+00  0.000000D+00  0.000000D+00  0.000000D+00
    114   0.000000D+00  0.000000D+00  0.000000D+00  0.000000D+00  0.000000D+00
    115   0.000000D+00  0.000000D+00  0.000000D+00  0.000000D+00  0.000000D+00
    116   0.000000D+00  0.000000D+00  0.000000D+00  0.000000D+00  0.000000D+00
    117   0.000000D+00  0.000000D+00  0.000000D+00  0.000000D+00  0.000000D+00
    118   0.000000D+00  0.000000D+00  0.000000D+00  0.000000D+00  0.000000D+00
    119   0.000000D+00  0.000000D+00  0.000000D+00  0.000000D+00  0.000000D+00
    120   0.000000D+00  0.000000D+00  0.000000D+00  0.000000D+00  0.000000D+00
    121   0.000000D+00  0.000000D+00  0.000000D+00  0.000000D+00  0.000000D+00
    122   0.000000D+00  0.000000D+00  0.000000D+00  0.000000D+00  0.000000D+00
    123   0.000000D+00  0.000000D+00  0.000000D+00  0.000000D+00  0.000000D+00
    124   0.000000D+00  0.000000D+00  0.000000D+00  0.000000D+00  0.000000D+00
    125   0.000000D+00  0.000000D+00  0.000000D+00  0.000000D+00  0.000000D+00
    126   0.000000D+00  0.000000D+00  0.000000D+00  0.000000D+00  0.000000D+00
    127   0.000000D+00  0.000000D+00  0.000000D+00  0.000000D+00  0.000000D+00
    128   0.000000D+00  0.000000D+00  0.000000D+00  0.000000D+00  0.000000D+00
    129   0.000000D+00  0.000000D+00  0.000000D+00  0.000000D+00  0.000000D+00
    130   0.000000D+00  0.000000D+00  0.000000D+00  0.000000D+00  0.000000D+00
    131   0.000000D+00  0.000000D+00  0.000000D+00  0.000000D+00  0.000000D+00
    132   0.000000D+00  0.000000D+00  0.000000D+00  0.000000D+00  0.000000D+00
    133   0.000000D+00  0.000000D+00  0.000000D+00  0.000000D+00  0.000000D+00
    134   0.000000D+00  0.000000D+00  0.000000D+00  0.000000D+00  0.000000D+00
    135   0.000000D+00  0.000000D+00  0.000000D+00  0.000000D+00  0.000000D+00
    136   0.000000D+00  0.000000D+00  0.000000D+00  0.000000D+00  0.000000D+00
    137   0.000000D+00  0.000000D+00  0.000000D+00  0.000000D+00  0.000000D+00
    138   0.000000D+00  0.000000D+00  0.000000D+00  0.000000D+00  0.000000D+00
    139   0.000000D+00  0.000000D+00  0.000000D+00  0.000000D+00  0.000000D+00
    140   0.000000D+00  0.000000D+00  0.000000D+00  0.000000D+00  0.000000D+00
    141   0.000000D+00  0.000000D+00  0.000000D+00  0.000000D+00  0.000000D+00
    142   0.000000D+00  0.000000D+00  0.000000D+00  0.000000D+00  0.000000D+00
    143   0.000000D+00  0.000000D+00  0.000000D+00  0.000000D+00  0.000000D+00
    144   0.000000D+00  0.000000D+00  0.000000D+00  0.000000D+00  0.000000D+00
    145   0.000000D+00  0.000000D+00  0.000000D+00  0.000000D+00  0.000000D+00
    146   0.000000D+00  0.000000D+00  0.000000D+00  0.000000D+00  0.000000D+00
    147   0.000000D+00  0.000000D+00  0.000000D+00  0.000000D+00  0.000000D+00
    148   0.000000D+00  0.000000D+00  0.000000D+00  0.000000D+00  0.000000D+00
    149   0.000000D+00  0.000000D+00  0.000000D+00  0.000000D+00  0.000000D+00
    150   0.000000D+00  0.000000D+00  0.000000D+00  0.000000D+00  0.000000D+00
    151   0.000000D+00  0.000000D+00  0.000000D+00  0.000000D+00  0.000000D+00
    152   0.000000D+00  0.000000D+00  0.000000D+00  0.000000D+00  0.000000D+00
    153   0.000000D+00  0.000000D+00  0.000000D+00  0.000000D+00  0.000000D+00
    154   0.000000D+00  0.000000D+00  0.000000D+00  0.000000D+00  0.000000D+00
    155   0.000000D+00  0.000000D+00  0.000000D+00  0.000000D+00  0.000000D+00
    156   0.000000D+00  0.000000D+00  0.000000D+00  0.000000D+00  0.000000D+00
    157   0.000000D+00  0.000000D+00  0.000000D+00  0.000000D+00  0.000000D+00
    158   0.000000D+00  0.000000D+00  0.000000D+00  0.000000D+00  0.000000D+00
    159   0.000000D+00  0.000000D+00  0.000000D+00  0.000000D+00  0.000000D+00
    160   0.000000D+00  0.000000D+00  0.000000D+00  0.000000D+00  0.000000D+00
    161   0.000000D+00  0.000000D+00  0.000000D+00  0.000000D+00  0.000000D+00
    162   0.000000D+00  0.000000D+00  0.000000D+00  0.000000D+00  0.000000D+00
    163   0.000000D+00  0.000000D+00  0.000000D+00  0.000000D+00  0.000000D+00
    164   0.000000D+00  0.000000D+00  0.000000D+00  0.000000D+00  0.000000D+00
    165   0.000000D+00  0.000000D+00  0.000000D+00  0.000000D+00  0.000000D+00
    166   0.000000D+00  0.000000D+00  0.000000D+00  0.000000D+00  0.000000D+00
    167   0.000000D+00  0.000000D+00  0.000000D+00  0.000000D+00  0.000000D+00
    168   0.000000D+00  0.000000D+00  0.000000D+00  0.000000D+00  0.000000D+00
    169   0.000000D+00  0.000000D+00  0.000000D+00  0.000000D+00  0.000000D+00
    170   0.000000D+00  0.000000D+00  0.000000D+00  0.000000D+00  0.000000D+00
    171   0.000000D+00  0.000000D+00  0.000000D+00  0.000000D+00  0.000000D+00
    172   0.000000D+00  0.000000D+00  0.000000D+00  0.000000D+00  0.000000D+00
    173   0.000000D+00  0.000000D+00  0.000000D+00  0.000000D+00  0.000000D+00
    174   0.000000D+00  0.000000D+00  0.000000D+00  0.000000D+00  0.000000D+00
    175   0.000000D+00  0.000000D+00  0.000000D+00  0.000000D+00  0.000000D+00
    176   0.000000D+00  0.000000D+00  0.000000D+00  0.000000D+00  0.000000D+00
    177   0.000000D+00  0.000000D+00  0.000000D+00  0.000000D+00  0.000000D+00
    178   0.000000D+00  0.000000D+00  0.000000D+00  0.000000D+00  0.000000D+00
    179   0.000000D+00  0.000000D+00  0.000000D+00  0.000000D+00  0.000000D+00
    180   0.000000D+00  0.000000D+00  0.000000D+00  0.000000D+00  0.000000D+00
    181   0.000000D+00  0.000000D+00  0.000000D+00  0.000000D+00  0.000000D+00
    182   0.000000D+00  0.000000D+00  0.000000D+00  0.000000D+00  0.000000D+00
    183   0.000000D+00  0.000000D+00  0.000000D+00  0.000000D+00  0.000000D+00
    184   0.000000D+00  0.000000D+00  0.000000D+00  0.000000D+00  0.000000D+00
    185   0.000000D+00  0.000000D+00  0.000000D+00  0.000000D+00  0.000000D+00
    186   0.000000D+00  0.000000D+00  0.000000D+00  0.000000D+00  0.000000D+00
    187   0.000000D+00  0.000000D+00  0.000000D+00  0.000000D+00  0.000000D+00
    188   0.000000D+00  0.000000D+00  0.000000D+00  0.000000D+00  0.000000D+00
    189   0.000000D+00  0.000000D+00  0.000000D+00  0.000000D+00  0.000000D+00
    190   0.000000D+00  0.000000D+00  0.000000D+00  0.000000D+00  0.000000D+00
    191   0.000000D+00  0.000000D+00  0.000000D+00  0.000000D+00  0.000000D+00
    192   0.000000D+00  0.000000D+00  0.000000D+00  0.000000D+00  0.000000D+00
    193   0.000000D+00  0.000000D+00  0.000000D+00  0.000000D+00  0.000000D+00
    194   0.000000D+00  0.000000D+00  0.000000D+00  0.000000D+00  0.000000D+00
    195   0.000000D+00  0.000000D+00  0.000000D+00  0.000000D+00  0.000000D+00
    196   0.000000D+00  0.000000D+00  0.000000D+00  0.000000D+00  0.000000D+00
    197   0.000000D+00  0.000000D+00  0.000000D+00  0.000000D+00  0.000000D+00
    198   0.000000D+00  0.000000D+00  0.000000D+00  0.000000D+00  0.000000D+00
    199   0.000000D+00  0.000000D+00  0.000000D+00  0.000000D+00  0.000000D+00
    200   0.000000D+00  0.000000D+00  0.000000D+00  0.000000D+00  0.000000D+00
    201   0.000000D+00  0.000000D+00  0.000000D+00  0.000000D+00  0.000000D+00
    202   0.000000D+00  0.000000D+00  0.000000D+00  0.000000D+00  0.000000D+00
    203   0.000000D+00  0.000000D+00  0.000000D+00  0.000000D+00  0.000000D+00
    204   0.000000D+00  0.000000D+00  0.000000D+00  0.000000D+00  0.000000D+00
    205   0.000000D+00  0.000000D+00  0.000000D+00  0.000000D+00  0.000000D+00
    206   0.000000D+00  0.000000D+00  0.000000D+00  0.000000D+00  0.000000D+00
    207   0.000000D+00  0.000000D+00  0.000000D+00  0.000000D+00  0.000000D+00
    208   0.000000D+00  0.000000D+00  0.000000D+00  0.000000D+00  0.000000D+00
    209   0.000000D+00  0.000000D+00  0.000000D+00  0.000000D+00  0.000000D+00
    210   0.000000D+00  0.000000D+00  0.000000D+00  0.000000D+00  0.000000D+00
    211   0.000000D+00  0.000000D+00  0.000000D+00  0.000000D+00  0.000000D+00
    212   0.000000D+00  0.000000D+00  0.000000D+00  0.000000D+00  0.000000D+00
    213   0.000000D+00  0.000000D+00  0.000000D+00  0.000000D+00  0.000000D+00
    214   0.000000D+00  0.000000D+00  0.000000D+00  0.000000D+00  0.000000D+00
    215   0.000000D+00  0.000000D+00  0.000000D+00  0.000000D+00  0.000000D+00
    216   0.000000D+00  0.000000D+00  0.000000D+00  0.000000D+00  0.000000D+00
    217   0.000000D+00  0.000000D+00  0.000000D+00  0.000000D+00  0.000000D+00
    218   0.000000D+00  0.000000D+00  0.000000D+00  0.000000D+00  0.000000D+00
    219   0.000000D+00  0.000000D+00  0.000000D+00  0.000000D+00  0.000000D+00
    220   0.000000D+00  0.000000D+00  0.000000D+00  0.000000D+00  0.000000D+00
    221   0.000000D+00  0.000000D+00  0.000000D+00  0.000000D+00  0.000000D+00
    222   0.237013D-02  0.145245D-01  0.000000D+00  0.201685D-02 -0.133123D-02
    223   0.275082D-02  0.167596D-01  0.000000D+00  0.342967D-03 -0.226376D-03
    224   0.149117D-02  0.909460D-02  0.000000D+00  0.689103D-04 -0.454844D-04
    225   0.000000D+00  0.000000D+00  0.000000D+00  0.000000D+00  0.000000D+00
    226   0.000000D+00  0.137524D-05  0.000000D+00  0.157016D-05 -0.103639D-05
    227   0.101535D-03  0.733980D-03  0.000000D+00  0.406780D-03 -0.268496D-03
    228   0.163168D-02  0.101443D-01  0.000000D+00  0.253057D-02 -0.167031D-02
    229   0.384472D-02  0.234026D-01  0.000000D+00  0.256436D-02 -0.169261D-02
    230   0.391848D-02  0.238389D-01  0.000000D+00  0.113888D-02 -0.751719D-03
    231   0.000000D+00  0.000000D+00  0.000000D+00  0.000000D+00  0.000000D+00
    232   0.000000D+00  0.000000D+00  0.000000D+00  0.000000D+00  0.000000D+00
    233   0.000000D+00  0.000000D+00  0.000000D+00  0.000000D+00  0.000000D+00
    234   0.000000D+00  0.000000D+00  0.000000D+00  0.000000D+00  0.000000D+00
    235   0.000000D+00  0.000000D+00  0.000000D+00  0.000000D+00  0.000000D+00
    236   0.000000D+00  0.000000D+00  0.000000D+00  0.000000D+00  0.000000D+00
    237   0.000000D+00  0.000000D+00  0.000000D+00  0.000000D+00  0.000000D+00
    238   0.000000D+00 -0.439852D-05  0.000000D+00 -0.497869D-05  0.347441D-05
    239   0.000000D+00  0.290326D-05  0.000000D+00  0.347441D-05 -0.200815D-05
    240   0.000000D+00  0.000000D+00  0.100708D-03  0.000000D+00  0.000000D+00
    241  -0.199904D-03 -0.147277D-02  0.000000D+00 -0.831715D-03  0.615448D-03
    242   0.131947D-03  0.972103D-03  0.000000D+00  0.615448D-03 -0.305520D-03
    243   0.000000D+00  0.000000D+00  0.128910D-02  0.000000D+00  0.000000D+00
    244  -0.299459D-02 -0.185691D-01  0.000000D+00 -0.450595D-02  0.382504D-02
    245   0.197658D-02  0.122566D-01  0.000000D+00  0.382504D-02 -0.123563D-02
    246   0.000000D+00  0.000000D+00  0.279915D-02  0.000000D+00  0.000000D+00
    247  -0.665376D-02 -0.402247D-01  0.000000D+00 -0.323081D-02  0.398009D-02
    248   0.439183D-02  0.265504D-01  0.000000D+00  0.398009D-02  0.172083D-03
    249   0.000000D+00  0.000000D+00  0.000000D+00  0.000000D+00  0.000000D+00
    250   0.000000D+00  0.000000D+00  0.000000D+00  0.000000D+00  0.000000D+00
    251   0.000000D+00  0.000000D+00  0.000000D+00  0.000000D+00  0.000000D+00
    252   0.000000D+00  0.000000D+00  0.000000D+00  0.000000D+00  0.000000D+00
    253   0.000000D+00  0.000000D+00  0.000000D+00  0.000000D+00  0.000000D+00
    254   0.000000D+00  0.000000D+00  0.000000D+00  0.000000D+00  0.000000D+00
    255   0.000000D+00  0.000000D+00  0.000000D+00  0.000000D+00  0.000000D+00
    256   0.000000D+00  0.000000D+00  0.000000D+00  0.000000D+00  0.000000D+00
    257   0.000000D+00  0.000000D+00  0.000000D+00  0.000000D+00  0.000000D+00
    258   0.000000D+00  0.000000D+00  0.000000D+00  0.000000D+00  0.000000D+00
    259   0.000000D+00 -0.291982D-05  0.000000D+00  0.000000D+00  0.606414D-05
    260   0.000000D+00  0.000000D+00  0.341781D-05  0.000000D+00  0.000000D+00
    261  -0.406470D-05 -0.518892D-04  0.000000D+00 -0.535969D-04  0.324546D-04
    262  -0.307907D-05 -0.393069D-04  0.000000D+00 -0.380114D-04  0.285073D-04
    263   0.000000D+00  0.000000D+00 -0.517808D-05  0.000000D+00  0.000000D+00
    264  -0.517146D-04 -0.351127D-03  0.000000D+00  0.171527D-03  0.631004D-03
    265   0.000000D+00  0.000000D+00  0.429676D-03  0.000000D+00  0.000000D+00
    266  -0.919040D-03 -0.624002D-02  0.000000D+00 -0.320123D-02  0.174562D-02
    267  -0.696187D-03 -0.472691D-02  0.000000D+00 -0.209950D-02  0.181545D-02
    268   0.000000D+00  0.000000D+00 -0.650973D-03  0.000000D+00  0.000000D+00
    269  -0.375312D-03 -0.226894D-02  0.000000D+00  0.179648D-02  0.367429D-02
    270   0.000000D+00  0.000000D+00  0.280596D-02  0.000000D+00  0.000000D+00
    271  -0.666982D-02 -0.403222D-01  0.000000D+00 -0.888585D-02  0.346610D-02
    272  -0.505249D-02 -0.305447D-01  0.000000D+00 -0.460561D-02  0.584590D-02
    273   0.000000D+00  0.000000D+00 -0.425111D-02  0.000000D+00  0.000000D+00
    274   0.000000D+00  0.000000D+00  0.000000D+00  0.000000D+00  0.000000D+00
    275   0.000000D+00  0.000000D+00  0.000000D+00  0.000000D+00  0.000000D+00
    276   0.000000D+00  0.000000D+00  0.000000D+00  0.000000D+00  0.000000D+00
    277   0.000000D+00  0.000000D+00  0.000000D+00  0.000000D+00  0.000000D+00
    278   0.000000D+00  0.000000D+00  0.000000D+00  0.000000D+00  0.000000D+00
    279   0.000000D+00  0.000000D+00  0.000000D+00  0.000000D+00  0.000000D+00
    280   0.000000D+00  0.000000D+00  0.000000D+00  0.000000D+00  0.000000D+00
    281   0.000000D+00  0.000000D+00  0.000000D+00  0.000000D+00  0.000000D+00
    282   0.000000D+00  0.000000D+00  0.000000D+00  0.000000D+00  0.000000D+00
    283   0.000000D+00  0.000000D+00  0.000000D+00  0.000000D+00  0.000000D+00
    284   0.000000D+00  0.000000D+00  0.000000D+00 -0.127715D-05  0.000000D+00
    285   0.000000D+00  0.000000D+00  0.000000D+00  0.000000D+00  0.000000D+00
    286   0.000000D+00  0.000000D+00  0.000000D+00  0.000000D+00  0.000000D+00
    287   0.000000D+00  0.000000D+00  0.000000D+00  0.000000D+00  0.000000D+00
    288  -0.137408D-03 -0.108313D-02  0.000000D+00 -0.684327D-03  0.568518D-03
    289   0.000000D+00  0.000000D+00  0.476940D-04  0.000000D+00  0.000000D+00
    290  -0.889555D-04 -0.701197D-03  0.000000D+00 -0.658199D-03  0.420473D-04
    291  -0.250006D-03 -0.197069D-02  0.000000D+00 -0.135483D-02  0.868133D-03
    292   0.000000D+00  0.000000D+00 -0.268085D-03  0.000000D+00  0.000000D+00
    293   0.000000D+00  0.000000D+00 -0.248719D-03  0.000000D+00  0.000000D+00
    294   0.154631D-03  0.121889D-02  0.000000D+00  0.755070D-03 -0.662554D-03
    295  -0.356482D-02 -0.215136D-01  0.000000D+00 -0.419687D-02  0.514463D-02
    296   0.000000D+00  0.000000D+00  0.969376D-03  0.000000D+00  0.000000D+00
    297  -0.230780D-02 -0.139276D-01  0.000000D+00 -0.709045D-02 -0.329539D-02
    298  -0.648600D-02 -0.391429D-01  0.000000D+00 -0.986637D-02  0.598127D-02
    299   0.000000D+00  0.000000D+00 -0.544879D-02  0.000000D+00  0.000000D+00
    300   0.000000D+00  0.000000D+00 -0.505519D-02  0.000000D+00  0.000000D+00
    301   0.401165D-02  0.242102D-01  0.000000D+00  0.441737D-02 -0.625239D-02
    302   0.000000D+00  0.000000D+00  0.000000D+00  0.000000D+00  0.000000D+00
    303   0.000000D+00  0.000000D+00  0.000000D+00  0.000000D+00  0.000000D+00
    304   0.000000D+00  0.000000D+00  0.000000D+00  0.000000D+00  0.000000D+00
    305   0.000000D+00  0.000000D+00  0.000000D+00  0.000000D+00  0.000000D+00
    306   0.000000D+00  0.000000D+00  0.000000D+00  0.000000D+00  0.000000D+00
    307   0.000000D+00  0.000000D+00  0.000000D+00  0.000000D+00  0.000000D+00
    308   0.000000D+00  0.000000D+00  0.000000D+00  0.000000D+00  0.000000D+00
    309   0.000000D+00  0.000000D+00  0.000000D+00  0.000000D+00  0.000000D+00
    310   0.000000D+00  0.000000D+00  0.000000D+00  0.000000D+00  0.000000D+00
    311   0.000000D+00  0.000000D+00  0.000000D+00 -0.122258D-05  0.000000D+00
    312   0.000000D+00  0.000000D+00  0.000000D+00  0.000000D+00  0.000000D+00
    313   0.000000D+00  0.000000D+00  0.000000D+00  0.000000D+00  0.000000D+00
    314   0.000000D+00  0.000000D+00  0.000000D+00 -0.153213D-05  0.000000D+00
    315   0.000000D+00  0.000000D+00  0.000000D+00  0.000000D+00  0.000000D+00
    316   0.000000D+00  0.000000D+00  0.000000D+00  0.000000D+00  0.000000D+00
    317   0.000000D+00  0.150397D-05  0.000000D+00  0.213195D-05 -0.145133D-05
    318   0.000000D+00  0.000000D+00  0.000000D+00  0.109115D-05  0.000000D+00
    319   0.000000D+00  0.000000D+00  0.000000D+00  0.000000D+00  0.000000D+00
    320  -0.215871D-03 -0.164882D-02  0.000000D+00 -0.124196D-02  0.505444D-03
    321   0.000000D+00  0.000000D+00 -0.993941D-04  0.000000D+00  0.000000D+00
    322   0.190827D-03  0.145753D-02  0.000000D+00  0.673348D-03 -0.108997D-02
    323  -0.262426D-03 -0.200441D-02  0.000000D+00 -0.161096D-02  0.461182D-03
    324   0.000000D+00  0.000000D+00 -0.273375D-03  0.000000D+00  0.000000D+00
    325   0.000000D+00  0.000000D+00 -0.627457D-03  0.000000D+00  0.000000D+00
    326   0.401552D-03  0.306705D-02  0.000000D+00  0.199669D-02 -0.141520D-02
    327   0.215089D-03  0.164285D-02  0.000000D+00  0.957484D-03 -0.927776D-03
    328   0.000000D+00  0.000000D+00  0.448125D-03  0.000000D+00  0.000000D+00
    329   0.000000D+00  0.000000D+00  0.000000D+00  0.000000D+00  0.000000D+00
    330   0.000000D+00  0.000000D+00  0.000000D+00  0.000000D+00  0.000000D+00
    331   0.000000D+00  0.000000D+00  0.000000D+00  0.000000D+00  0.000000D+00
    332   0.000000D+00  0.000000D+00  0.000000D+00  0.000000D+00  0.000000D+00
    333   0.000000D+00  0.000000D+00  0.000000D+00  0.000000D+00  0.000000D+00
    334   0.000000D+00  0.000000D+00  0.000000D+00  0.000000D+00  0.000000D+00
    335   0.000000D+00  0.000000D+00  0.000000D+00  0.000000D+00  0.000000D+00
    336   0.000000D+00  0.000000D+00  0.000000D+00  0.000000D+00  0.000000D+00
    337   0.000000D+00  0.000000D+00  0.000000D+00  0.000000D+00  0.000000D+00
    338   0.000000D+00  0.000000D+00  0.000000D+00  0.000000D+00  0.000000D+00
    339   0.000000D+00  0.000000D+00  0.000000D+00  0.000000D+00  0.000000D+00
    340  -0.303203D-04 -0.223082D-03  0.000000D+00 -0.619895D-03 -0.625361D-03
    341   0.000000D+00  0.000000D+00 -0.267113D-03  0.000000D+00  0.000000D+00
    342   0.530721D-03  0.390479D-02  0.000000D+00  0.255199D-02 -0.162635D-02
    343   0.880179D-04  0.647593D-03  0.000000D+00 -0.204134D-03 -0.122021D-02
    344   0.000000D+00  0.000000D+00  0.885992D-04  0.000000D+00  0.000000D+00
    345   0.000000D+00  0.000000D+00 -0.793922D-03  0.000000D+00  0.000000D+00
    346   0.525808D-03  0.386864D-02  0.000000D+00  0.284261D-02 -0.113522D-02
    347   0.592453D-03  0.435898D-02  0.000000D+00  0.266476D-02 -0.209439D-02
    348   0.000000D+00  0.000000D+00  0.119273D-02  0.000000D+00  0.000000D+00
    349   0.000000D+00  0.000000D+00  0.714290D-03  0.000000D+00  0.000000D+00
    350  -0.283841D-03 -0.208837D-02  0.000000D+00 -0.113382D-02  0.121985D-02
    351   0.000000D+00  0.000000D+00  0.000000D+00  0.000000D+00  0.000000D+00
    352   0.000000D+00  0.000000D+00  0.000000D+00  0.000000D+00  0.000000D+00
    353   0.000000D+00  0.000000D+00  0.000000D+00  0.000000D+00  0.000000D+00
    354   0.000000D+00  0.000000D+00  0.000000D+00  0.000000D+00  0.000000D+00
    355   0.000000D+00  0.000000D+00  0.000000D+00  0.000000D+00  0.000000D+00
    356   0.000000D+00  0.000000D+00  0.000000D+00  0.000000D+00  0.000000D+00
    357   0.000000D+00  0.000000D+00  0.000000D+00  0.000000D+00  0.000000D+00
    358   0.000000D+00  0.000000D+00  0.000000D+00  0.000000D+00  0.000000D+00
    359   0.000000D+00  0.000000D+00  0.000000D+00  0.000000D+00  0.000000D+00
    360   0.000000D+00  0.000000D+00  0.000000D+00  0.000000D+00  0.000000D+00
    361   0.000000D+00  0.000000D+00  0.000000D+00  0.000000D+00  0.000000D+00
    362   0.000000D+00  0.000000D+00  0.000000D+00  0.000000D+00  0.000000D+00
    363   0.000000D+00  0.000000D+00  0.000000D+00  0.000000D+00  0.000000D+00
    364   0.237013D-02  0.145245D-01  0.174665D-02 -0.100843D-02 -0.133123D-02
    365   0.275082D-02  0.167596D-01  0.297018D-03 -0.171483D-03 -0.226376D-03
    366   0.149117D-02  0.909460D-02  0.596781D-04 -0.344551D-04 -0.454844D-04
    367   0.000000D+00  0.000000D+00  0.000000D+00  0.000000D+00  0.000000D+00
    368   0.000000D+00  0.137524D-05  0.135980D-05  0.000000D+00 -0.103639D-05
    369   0.101535D-03  0.733980D-03  0.352282D-03 -0.203390D-03 -0.268496D-03
    370   0.163168D-02  0.101443D-01  0.219154D-02 -0.126529D-02 -0.167031D-02
    371   0.384472D-02  0.234026D-01  0.222080D-02 -0.128218D-02 -0.169261D-02
    372   0.391848D-02  0.238389D-01  0.986297D-03 -0.569439D-03 -0.751719D-03
    373   0.000000D+00  0.000000D+00  0.000000D+00  0.000000D+00  0.000000D+00
    374   0.000000D+00  0.000000D+00  0.000000D+00  0.000000D+00  0.000000D+00
    375   0.000000D+00  0.000000D+00  0.000000D+00  0.000000D+00  0.000000D+00
    376   0.000000D+00  0.000000D+00  0.000000D+00  0.000000D+00  0.000000D+00
    377   0.000000D+00  0.000000D+00  0.000000D+00  0.000000D+00  0.000000D+00
    378   0.000000D+00  0.000000D+00  0.000000D+00  0.000000D+00  0.000000D+00
    379   0.000000D+00 -0.380923D-05 -0.366273D-05  0.227931D-05  0.300893D-05
    380   0.000000D+00  0.219926D-05  0.227931D-05 -0.103082D-05 -0.173720D-05
    381   0.000000D+00  0.290326D-05  0.300893D-05 -0.173720D-05 -0.200815D-05
    382  -0.173122D-03 -0.127545D-02 -0.598609D-03  0.403751D-03  0.532994D-03
    383   0.999522D-04  0.736383D-03  0.403751D-03 -0.132398D-03 -0.307724D-03
    384   0.131947D-03  0.972103D-03  0.532994D-03 -0.307724D-03 -0.305520D-03
    385  -0.259339D-02 -0.160813D-01 -0.305719D-02  0.250933D-02  0.331258D-02
    386   0.149729D-02  0.928457D-02  0.250933D-02 -0.159664D-03 -0.191252D-02
    387   0.197658D-02  0.122566D-01  0.331258D-02 -0.191252D-02 -0.123563D-02
    388  -0.576232D-02 -0.348356D-01 -0.172332D-02  0.261105D-02  0.344686D-02
    389   0.332688D-02  0.201124D-01  0.261105D-02  0.129166D-02 -0.199004D-02
    390   0.439183D-02  0.265504D-01  0.344686D-02 -0.199004D-02  0.172083D-03
    391   0.000000D+00  0.000000D+00  0.000000D+00  0.000000D+00  0.000000D+00
    392   0.000000D+00  0.000000D+00  0.000000D+00  0.000000D+00  0.000000D+00
    393   0.000000D+00  0.000000D+00  0.000000D+00  0.000000D+00  0.000000D+00
    394   0.000000D+00  0.000000D+00  0.000000D+00  0.000000D+00  0.000000D+00
    395   0.000000D+00  0.000000D+00  0.000000D+00  0.000000D+00  0.000000D+00
    396   0.000000D+00  0.000000D+00  0.000000D+00  0.000000D+00  0.000000D+00
    397   0.000000D+00  0.000000D+00  0.000000D+00  0.000000D+00  0.000000D+00
    398   0.000000D+00  0.000000D+00  0.000000D+00  0.000000D+00  0.000000D+00
    399   0.000000D+00  0.000000D+00  0.000000D+00  0.000000D+00  0.000000D+00
    400   0.000000D+00  0.000000D+00  0.000000D+00  0.000000D+00  0.000000D+00
    401   0.000000D+00 -0.291982D-05  0.000000D+00  0.000000D+00  0.606414D-05
    402  -0.352013D-05 -0.449374D-04 -0.393432D-04  0.246881D-04  0.281065D-04
    403   0.203235D-05  0.259446D-04  0.246881D-04 -0.108359D-04 -0.162273D-04
    404   0.153954D-05  0.196534D-04  0.142172D-04 -0.133864D-04 -0.142537D-04
    405  -0.266655D-05 -0.340408D-04 -0.298031D-04  0.142172D-04  0.246881D-04
    406  -0.517146D-04 -0.351127D-03  0.148547D-03 -0.857635D-04  0.631004D-03
    407  -0.795912D-03 -0.540401D-02 -0.229351D-02  0.157223D-02  0.151175D-02
    408   0.459520D-03  0.312001D-02  0.157223D-02 -0.478051D-03 -0.872809D-03
    409   0.348093D-03  0.236345D-02  0.627230D-03 -0.101310D-02 -0.907727D-03
    410  -0.602915D-03 -0.409362D-02 -0.173737D-02  0.627230D-03  0.157223D-02
    411  -0.375312D-03 -0.226894D-02  0.155580D-02 -0.898240D-03  0.367429D-02
    412  -0.577623D-02 -0.349200D-01 -0.596290D-02  0.506270D-02  0.300173D-02
    413   0.333491D-02  0.201611D-01  0.506270D-02 -0.116995D-03 -0.173305D-02
    414   0.252624D-02  0.152723D-01  0.153504D-03 -0.433974D-02 -0.292295D-02
    415  -0.437558D-02 -0.264524D-01 -0.451699D-02  0.153504D-03  0.506270D-02
    416   0.000000D+00  0.000000D+00  0.000000D+00  0.000000D+00  0.000000D+00
    417   0.000000D+00  0.000000D+00  0.000000D+00  0.000000D+00  0.000000D+00
    418   0.000000D+00  0.000000D+00  0.000000D+00  0.000000D+00  0.000000D+00
    419   0.000000D+00  0.000000D+00  0.000000D+00  0.000000D+00  0.000000D+00
    420   0.000000D+00  0.000000D+00  0.000000D+00  0.000000D+00  0.000000D+00
    421   0.000000D+00  0.000000D+00  0.000000D+00  0.000000D+00  0.000000D+00
    422   0.000000D+00  0.000000D+00  0.000000D+00  0.000000D+00  0.000000D+00
    423   0.000000D+00  0.000000D+00  0.000000D+00  0.000000D+00  0.000000D+00
    424   0.000000D+00  0.000000D+00  0.000000D+00  0.000000D+00  0.000000D+00
    425   0.000000D+00  0.000000D+00  0.000000D+00  0.000000D+00  0.000000D+00
    426   0.000000D+00  0.000000D+00  0.000000D+00  0.000000D+00  0.000000D+00
    427   0.000000D+00  0.000000D+00  0.000000D+00  0.000000D+00  0.000000D+00
    428   0.000000D+00  0.000000D+00  0.000000D+00  0.000000D+00  0.000000D+00
    429   0.000000D+00  0.000000D+00  0.000000D+00  0.000000D+00  0.000000D+00
    430  -0.137408D-03 -0.108313D-02 -0.592645D-03  0.342164D-03  0.568518D-03
    431  -0.770378D-04 -0.607255D-03 -0.481726D-03  0.305661D-03  0.364141D-04
    432   0.444778D-04  0.350599D-03  0.305661D-03 -0.128779D-03 -0.210237D-04
    433   0.125003D-03  0.985345D-03  0.470576D-03 -0.539772D-03 -0.434066D-03
    434  -0.216512D-03 -0.170667D-02 -0.108315D-02  0.470576D-03  0.751825D-03
    435   0.000000D+00  0.000000D+00  0.124360D-03  0.215397D-03  0.000000D+00
    436   0.154631D-03  0.121889D-02  0.653910D-03 -0.377535D-03 -0.662554D-03
    437  -0.356482D-02 -0.215136D-01 -0.363460D-02  0.209844D-02  0.514463D-02
    438  -0.199862D-02 -0.120616D-01 -0.507549D-02  0.349001D-02 -0.285389D-02
    439   0.115390D-02  0.696378D-02  0.349001D-02 -0.104558D-02  0.164770D-02
    440   0.324300D-02  0.195715D-01  0.191287D-02 -0.655319D-02 -0.299063D-02
    441  -0.561704D-02 -0.338988D-01 -0.876198D-02  0.191287D-02  0.517993D-02
    442   0.000000D+00  0.000000D+00  0.252760D-02  0.437792D-02  0.000000D+00
    443   0.401165D-02  0.242102D-01  0.382556D-02 -0.220869D-02 -0.625239D-02
    444   0.000000D+00  0.000000D+00  0.000000D+00  0.000000D+00  0.000000D+00
    445   0.000000D+00  0.000000D+00  0.000000D+00  0.000000D+00  0.000000D+00
    446   0.000000D+00  0.000000D+00  0.000000D+00  0.000000D+00  0.000000D+00
    447   0.000000D+00  0.000000D+00  0.000000D+00  0.000000D+00  0.000000D+00
    448   0.000000D+00  0.000000D+00  0.000000D+00  0.000000D+00  0.000000D+00
    449   0.000000D+00  0.000000D+00  0.000000D+00  0.000000D+00  0.000000D+00
    450   0.000000D+00  0.000000D+00  0.000000D+00  0.000000D+00  0.000000D+00
    451   0.000000D+00  0.000000D+00  0.000000D+00  0.000000D+00  0.000000D+00
    452   0.000000D+00  0.000000D+00  0.000000D+00  0.000000D+00  0.000000D+00
    453   0.000000D+00  0.000000D+00 -0.105879D-05  0.000000D+00  0.000000D+00
    454   0.000000D+00  0.000000D+00  0.000000D+00  0.000000D+00  0.000000D+00
[...]
                 (E) (E) (A1) (A1) (E) (E) (A1) (A2) (E) (E) (E)
                 (E) (E) (E) (A1) (E) (E) (E) (E) (A2) (A1) (E)
                 (E) (A1) (A1) (E) (E) (A2) (E) (E) (A1) (E) (E)
                 (A1) (E) (E) (A1) (A1) (E) (E) (A2) (E) (E) (A1)
                 (E) (E) (E) (E) (A2) (E) (E) (A1) (E) (E) (A1)
                 (E) (E) (E) (E) (A2) (A1) (E) (E) (A1) (E) (E)
                 (E) (E) (A2) (A1) (E) (E) (A1) (E) (E) (A2) (A1)
                 (E) (E) (E) (E) (A1) (E) (E) (A2) (E) (E) (A1)
                 (E) (E) (A1) (E) (E) (E) (E) (A2) (E) (E) (A1)
                 (A1) (E) (E) (A1) (A1) (E) (E) (A2) (E) (E) (A1)
                 (A2) (E) (E) (E) (E) (E) (E) (A1) (A2) (E) (E)
                 (A1) (E) (E) (E) (E) (A1) (E) (E) (A2) (A1) (A1)
                 (E) (E) (E) (E) (E) (E) (A1) (A2) (E) (E) (A1)
                 (E) (E) (E) (E) (A1) (E) (E) (A1) (A2) (E) (E)
                 (A1) (E) (E) (E) (E) (A2) (A1) (E) (E) (A2) (E)
                 (E) (A1) (A1) (E) (E) (E) (E) (A2) (A1) (E) (E)
                 (E) (E) (A2) (A1) (A2) (E) (E) (E) (E) (E) (E)
                 (A1) (E) (E) (A1) (E) (E) (A1) (A2) (E) (E) (E)
                 (E) (E) (E) (A1) (E) (E) (A2) (A1) (E) (E) (A1)
                 (E) (E) (E) (E) (A1) (E) (E) (E) (E) (E) (E) (A1)
                 (A2) (A2) (E) (E) (A2) (E) (E) (E) (E) (A1) (A2)
                 (E) (E) (A1) (E) (E) (E) (E) (A2) (A1) (A1) (E)
                 (E) (A2) (A1) (A2) (E) (E) (E) (E) (E) (E) (A1)
                 (E) (E) (A1) (A1) (A2) (A1) (E) (E) (E) (E) (E)
                 (E) (E) (E) (A1) (E) (E) (A1) (A1) (A2) (E) (E)
                 (E) (E) (A1) (E) (E) (A1) (E) (E) (A2) (E) (E)
                 (E) (E) (E) (E) (A2) (A1) (E) (E) (A1) (E) (E)
                 (A1) (E) (E) (E) (E) (A2) (A1) (E) (E) (A2) (E)
                 (E) (A1) (E) (E) (E) (E) (A1) (E) (E) (E) (E)
                 (A1) (A2) (A2) (E) (E) (A1) (A2) (A1) (E) (E)
                 (E) (E) (A1) (E) (E) (A1) (E) (E) (A2) (E) (E)
                 (A1) (A2) (E) (E) (A1) (E) (E) (A1) (E) (E) (A1)
                 (E) (E) (E) (E) (E) (E) (A2) (E) (E) (A1) (A2)
                 (E) (E) (A1) (E) (E) (A2) (E) (E) (A1) (A1) (E)
                 (E) (A2) (E) (E) (E) (E) (E) (E) (A1) (E) (E)
                 (A2) (E) (E) (A1) (A1) (E) (E) (A2) (E) (E) (A1)
                 (A2) (E) (E) (A1) (E) (E) (E) (E) (A2) (E) (E)
                 (A1) (E) (E) (A1) (E) (E) (E) (E) (A1) (A1) (E)
                 (E) (A2) (E) (E) (A1) (E) (E) (A1) (A2) (E) (E)
                 (E) (E) (A2) (A1) (E) (E) (A1) (E) (E) (A2) (E)
                 (E) (E) (E) (A1) (E) (E) (A1) (E) (E) (A2) (E)
                 (E) (E) (E) (A1) (A2) (E) (E) (E) (E) (A2) (A1)
                 (E) (E) (A2) (E) (E) (E) (E) (A1) (A2) (A1) (E)
                 (E) (A1) (E) (E) (A2) (E) (E) (E) (E) (A1) (A1)
                 (E) (E) (A2) (E) (E) (A2) (E) (E) (E) (E) (A1)
                 (A1) (E) (E) (A2) (E) (E) (A1) (E) (E) (A1) (E)
                 (E) (E) (E) (A2) (A1) (E) (E) (A1) (A2) (E) (E)
                 (E) (E) (E) (E) (A2) (A1) (E) (E) (A1) (E) (E)
                 (A1) (E) (E) (A2) (E) (E) (E) (E) (A2) (A1) (E)
                 (E) (E) (E) (A2) (A1) (E) (E) (A2) (E) (E) (A1)
                 (E) (E) (E) (E) (A1) (A1) (E) (E) (A2) (E) (E)
                 (A1) (E) (E) (E) (E) (A2) (A1) (E) (E) (A1) (E)
                 (E) (A1)
 The electronic state is 1-A1.
 Alpha  occ. eigenvalues -- -432.57394 -56.29777 -50.14266 -50.14266 -50.14208
 Alpha  occ. eigenvalues --   -8.01951  -5.87380  -5.87380  -5.87078  -2.10816
 Alpha  occ. eigenvalues --   -2.10816  -2.10397  -2.10397  -2.10128  -0.82932
 Alpha  occ. eigenvalues --   -0.49570  -0.49570  -0.38107
 Alpha virt. eigenvalues --    0.01201   0.02002   0.02002   0.05513   0.06345
 Alpha virt. eigenvalues --    0.07127   0.07127   0.08098   0.08098   0.15286
 Alpha virt. eigenvalues --    0.15286   0.16249   0.19453   0.22682   0.22682
 Alpha virt. eigenvalues --    0.23090   0.24271   0.24271   0.28861   0.35670
 Alpha virt. eigenvalues --    0.35670   0.38296   0.38296   0.42429   0.45488
 Alpha virt. eigenvalues --    0.46177   0.46177   0.46695   0.58337   0.58337
 Alpha virt. eigenvalues --    0.60210   0.61226   0.61226   0.63103   0.63577
 Alpha virt. eigenvalues --    0.63577   0.65006   0.67784   0.73349   0.73349
 Alpha virt. eigenvalues --    0.75811   0.79047   0.79775   0.79775   0.84525
 Alpha virt. eigenvalues --    0.84525   0.91611   0.91611   0.92716   0.98525
 Alpha virt. eigenvalues --    1.07844   1.07844   1.13575   1.13575   1.14345
 Alpha virt. eigenvalues --    1.22079   1.22079   1.22219   1.24655   1.29595
 Alpha virt. eigenvalues --    1.29595   1.32119   1.37600   1.40089   1.40089
 Alpha virt. eigenvalues --    1.42177   1.42177   1.44108   1.44108   1.44512
 Alpha virt. eigenvalues --    1.44942   1.44942   1.48342   1.48342   1.51371
 Alpha virt. eigenvalues --    1.55109   1.55886   1.55886   1.58512   1.64674
 Alpha virt. eigenvalues --    1.65847   1.65847   1.68777   1.72559   1.72559
 Alpha virt. eigenvalues --    1.74239   1.79817   1.79817   1.83733   1.91194
 Alpha virt. eigenvalues --    1.91194   1.92704   2.00157   2.07851   2.07851
 Alpha virt. eigenvalues --    2.14423   2.19673   2.19673   2.20535   2.26517
 Alpha virt. eigenvalues --    2.26517   2.32085   2.32085   2.35852   2.39195
 Alpha virt. eigenvalues --    2.39195   2.40522   2.43973   2.43973   2.44283
 Alpha virt. eigenvalues --    2.47967   2.47967   2.53390   2.53390   2.54905
 Alpha virt. eigenvalues --    2.55689   2.60253   2.60253   2.65043   2.65072
 Alpha virt. eigenvalues --    2.65072   2.66965   2.66965   2.67673   2.76175
 Alpha virt. eigenvalues --    2.80071   2.80071   2.83232   2.89421   2.89421
 Alpha virt. eigenvalues --    2.93086   2.94828   2.95750   2.95750   2.98677
 Alpha virt. eigenvalues --    2.98677   3.04402   3.05518   3.05518   3.05914
 Alpha virt. eigenvalues --    3.15956   3.15956   3.18026   3.24093   3.24093
 Alpha virt. eigenvalues --    3.33451   3.33757   3.33757   3.41142   3.41142
 Alpha virt. eigenvalues --    3.47600   3.47910   3.47910   3.51794   3.55275
 Alpha virt. eigenvalues --    3.60977   3.60977   3.61275   3.64744   3.67991
 Alpha virt. eigenvalues --    3.67991   3.69328   3.82799   3.82799   3.90034
 Alpha virt. eigenvalues --    3.92129   3.92504   3.92504   3.94944   3.94944
 Alpha virt. eigenvalues --    4.08786   4.08786   4.11244   4.25534   4.26494
 Alpha virt. eigenvalues --    4.26494   4.27494   4.33758   4.33758   4.43162
 Alpha virt. eigenvalues --    4.43162   4.47200   4.51746   4.51746   4.53871
 Alpha virt. eigenvalues --    4.54437   4.63644   4.69395   4.69395   4.72518
 Alpha virt. eigenvalues --    4.72518   4.75277   4.75277   4.76107   4.76356
 Alpha virt. eigenvalues --    4.77715   4.77715   4.87266   4.88582   4.88582
 Alpha virt. eigenvalues --    4.93913   4.93913   4.95163   4.98366   4.98366
 Alpha virt. eigenvalues --    5.00110   5.14596   5.15131   5.15131   5.44821
 Alpha virt. eigenvalues --    5.48935   5.48935   5.54902   5.54902   5.61696
 Alpha virt. eigenvalues --    5.61815   5.65749   5.65749   5.69582   5.82078
 Alpha virt. eigenvalues --    5.82078   5.89016   5.96836   5.96975   5.96975
 Alpha virt. eigenvalues --    6.01352   6.01352   6.03234   6.10898   6.13584
 Alpha virt. eigenvalues --    6.13584   6.21285   6.21285   6.24308   6.31680
 Alpha virt. eigenvalues --    6.35570   6.35587   6.35587   6.38137   6.38137
 Alpha virt. eigenvalues --    6.47248   6.47248   6.51184   6.54917   6.54917
 Alpha virt. eigenvalues --    6.56155   6.68903   6.68903   6.69658   6.76810
 Alpha virt. eigenvalues --    6.81592   6.81592   6.92244   6.92244   6.97607
 Alpha virt. eigenvalues --    6.97607   7.01078   7.04995   7.04995   7.05184
 Alpha virt. eigenvalues --    7.09588   7.16382   7.16382   7.17451   7.19687
 Alpha virt. eigenvalues --    7.19687   7.30340   7.30340   7.31700   7.42154
 Alpha virt. eigenvalues --    7.42154   7.50018   7.50018   7.51482   7.51482
 Alpha virt. eigenvalues --    7.52399   7.52674   7.54195   7.56433   7.56433
 Alpha virt. eigenvalues --    7.62516   7.63561   7.63561   7.65441   7.65441
 Alpha virt. eigenvalues --    7.66101   7.67411   7.67874   7.67874   7.73731
 Alpha virt. eigenvalues --    7.74004   7.74004   7.79812   7.79812   7.90675
 Alpha virt. eigenvalues --    7.91601   7.93224   7.94999   7.94999   7.97985
 Alpha virt. eigenvalues --    8.00433   8.06315   8.07363   8.07363   8.16445
 Alpha virt. eigenvalues --    8.16445   8.22946   8.22946   8.28340   8.31073
 Alpha virt. eigenvalues --    8.31073   8.32792   8.38057   8.44378   8.48326
 Alpha virt. eigenvalues --    8.48500   8.48500   8.57364   8.57364   8.61154
 Alpha virt. eigenvalues --    8.61154   8.73238   8.73238   8.84158   8.86365
 Alpha virt. eigenvalues --    8.86365   8.87225   8.94886   8.99920   9.02653
 Alpha virt. eigenvalues --    9.02653   9.04366   9.04366   9.10260   9.14652
 Alpha virt. eigenvalues --    9.14652   9.16460   9.18352   9.18352   9.18734
 Alpha virt. eigenvalues --    9.22067   9.22067   9.30081   9.30081   9.36586
 Alpha virt. eigenvalues --    9.36586   9.37713   9.41786   9.59982   9.59982
 Alpha virt. eigenvalues --    9.63751   9.66369   9.66369   9.66535   9.73704
 Alpha virt. eigenvalues --    9.73704   9.82400   9.82400   9.85718   9.99051
 Alpha virt. eigenvalues --   10.02797  10.02797  10.09405  10.16151  10.16151
 Alpha virt. eigenvalues --   10.18409  10.35746  10.35746  10.58917  10.58917
 Alpha virt. eigenvalues --   10.63807  10.75754  10.75754  10.80037  10.80037
 Alpha virt. eigenvalues --   10.82196  10.98857  11.06729  11.12387  11.12387
 Alpha virt. eigenvalues --   11.13235  11.35801  11.54800  11.60846  11.60846
 Alpha virt. eigenvalues --   11.72496  11.72496  11.90137  11.90782  11.90782
 Alpha virt. eigenvalues --   12.11845  12.97632  12.97632  13.12739  13.17267
 Alpha virt. eigenvalues --   13.17267  13.44340  13.93256  13.98229  13.98229
 Alpha virt. eigenvalues --   14.05134  14.11321  14.11321  14.40631  14.40993
 Alpha virt. eigenvalues --   14.40993  14.86118  14.87268  14.87268  14.98008
 Alpha virt. eigenvalues --   14.98008  15.00335  15.00335  15.25324  15.42453
 Alpha virt. eigenvalues --   15.42453  15.43058  15.55562  15.58560  15.58560
 Alpha virt. eigenvalues --   15.59669  15.66782  15.66782  15.73399  15.82727
 Alpha virt. eigenvalues --   15.82727  15.95346  15.98993  16.00892  16.00892
 Alpha virt. eigenvalues --   16.44672  16.52993  16.52993  16.60500  16.60500
 Alpha virt. eigenvalues --   16.64469  16.64469  16.78721  16.80797  16.80797
 Alpha virt. eigenvalues --   16.83659  16.84369  16.84369  16.85885  17.25332
 Alpha virt. eigenvalues --   17.25622  17.25622  17.29706  17.32731  17.32731
 Alpha virt. eigenvalues --   17.54957  17.58872  17.59531  17.59531  17.61023
 Alpha virt. eigenvalues --   17.66629  17.66629  17.75750  17.75750  17.79928
 Alpha virt. eigenvalues --   17.84396  17.84396  17.95697  18.27107  18.27107
 Alpha virt. eigenvalues --   18.40128  18.48225  18.48225  18.62306  18.62306
 Alpha virt. eigenvalues --   18.70581  18.77730  18.84178  18.84178  18.91788
 Alpha virt. eigenvalues --   19.45560  19.45560  19.98247  20.75254  20.75254
 Alpha virt. eigenvalues --   22.25365  22.90242  22.92093  22.92093  22.92784
 Alpha virt. eigenvalues --   22.92784  22.93265  22.93344  22.93416  22.93416
 Alpha virt. eigenvalues --   22.93539  22.93554  22.93554  22.93826  22.98549
 Alpha virt. eigenvalues --   22.98549  22.99022  22.99022  23.00657  23.02926
 Alpha virt. eigenvalues --   23.02926  23.03900  23.08547  23.08547  23.14942
 Alpha virt. eigenvalues --   23.20487  23.20487  23.27710  23.27710  23.33219
 Alpha virt. eigenvalues --   23.36747  23.37490  23.37490  23.37977  23.37977
 Alpha virt. eigenvalues --   23.39534  23.40328  23.43559  23.43559  23.50752
 Alpha virt. eigenvalues --   23.63544  23.63544  23.66042  23.66042  23.69159
 Alpha virt. eigenvalues --   23.70518  23.73685  23.85337  23.85337  23.85726
 Alpha virt. eigenvalues --   23.88497  23.88497  23.94852  23.98032  23.98032
 Alpha virt. eigenvalues --   24.08203  24.08203  24.12158  24.16443  24.16626
 Alpha virt. eigenvalues --   24.16626  24.18725  24.20987  24.20987  24.29634
 Alpha virt. eigenvalues --   24.30691  24.30691  24.39247  24.39247  24.44633
 Alpha virt. eigenvalues --   24.61804  24.68167  24.68167  33.12745  33.17196
 Alpha virt. eigenvalues --   33.17196  33.22027  33.25566  33.25566  33.72914
 Alpha virt. eigenvalues --   33.91612  33.91612  33.98821  33.98821  34.16904
 Alpha virt. eigenvalues --   34.54562  34.61218  34.61218  34.61433  34.65262
 Alpha virt. eigenvalues --   34.66580  34.66580  34.77981  34.77981  37.63904
 Alpha virt. eigenvalues --   37.63904  37.73788  37.77347  37.79438  37.79438
 Alpha virt. eigenvalues --   37.99285  37.99296  37.99296  38.00617  38.15083
 Alpha virt. eigenvalues --   38.15083  38.15626  38.19589  38.19589  38.31708
 Alpha virt. eigenvalues --   38.31708  38.38709  38.41699  38.49850  38.49850
 Alpha virt. eigenvalues --   38.51411  38.51411  38.53143  38.64091  38.69561
 Alpha virt. eigenvalues --   38.69561  38.96870  39.05068  39.05068  39.09693
 Alpha virt. eigenvalues --   39.16829  39.16829  39.32069  39.32069  39.44117
 Alpha virt. eigenvalues --   39.57783  39.60735  39.60735  39.61772  39.79644
 Alpha virt. eigenvalues --   39.79644  39.84165  39.84456  39.84456  39.90318
 Alpha virt. eigenvalues --   39.90318  39.91534  40.18542  40.24646  40.24646
 Alpha virt. eigenvalues --   49.51710  49.63912  49.63912 466.42654
          Condensed to atoms (all electrons):
              1          2          3          4
     1  As  31.740789   0.352532   0.352532   0.352532
     2  H    0.352532   0.747299  -0.016313  -0.016313
     3  H    0.352532  -0.016313   0.747299  -0.016313
     4  H    0.352532  -0.016313  -0.016313   0.747299
 Mulliken atomic charges:
              1
     1  As   0.201614
     2  H   -0.067205
     3  H   -0.067205
     4  H   -0.067205
 Sum of Mulliken atomic charges =   0.00000
 Mulliken charges with hydrogens summed into heavy atoms:
              1
     1  As   0.000000
 Sum of Mulliken charges with hydrogens summed into heavy atoms =   0.00000
          Atomic-Atomic Spin Densities.
              1          2          3          4
     1  As   0.000000   0.000000   0.000000   0.000000
     2  H    0.000000   0.000000   0.000000   0.000000
     3  H    0.000000   0.000000   0.000000   0.000000
     4  H    0.000000   0.000000   0.000000   0.000000
 Mulliken atomic spin densities:
              1
     1  As   0.000000
     2  H    0.000000
     3  H    0.000000
     4  H    0.000000
 Sum of Mulliken atomic spin densities =   0.00000
 Electronic spatial extent (au):  <R**2>=             70.3245
 Charge=              0.0000 electrons
 Dipole moment (field-independent basis, Debye):
    X=              0.0000    Y=              0.0000    Z=             -0.3527  Tot=              0.3527
 Quadrupole moment (field-independent basis, Debye-Ang):
   XX=            -19.9054   YY=            -19.9054   ZZ=            -22.1964
   XY=              0.0000   XZ=              0.0000   YZ=              0.0000
 Traceless Quadrupole moment (field-independent basis, Debye-Ang):
   XX=              0.7637   YY=              0.7637   ZZ=             -1.5274
   XY=              0.0000   XZ=              0.0000   YZ=              0.0000
 Octapole moment (field-independent basis, Debye-Ang**2):
  XXX=              0.0000  YYY=             -0.4154  ZZZ=              1.8360  XYY=              0.0000
  XXY=              0.4154  XXZ=              1.1102  XZZ=              0.0000  YZZ=              0.0000
  YYZ=              1.1102  XYZ=              0.0000
 Hexadecapole moment (field-independent basis, Debye-Ang**3):
 XXXX=            -39.5537 YYYY=            -39.5537 ZZZZ=            -45.5905 XXXY=              0.0000
 XXXZ=              0.0000 YYYX=              0.0000 YYYZ=             -0.5116 ZZZX=              0.0000
 ZZZY=              0.0000 XXYY=            -13.1846 XXZZ=            -13.8092 YYZZ=            -13.8092
 XXYZ=              0.5116 YYXZ=              0.0000 ZZXY=              0.0000
 N-N= 3.511747216800D+01 E-N=-8.134203800479D+03  KE= 3.353910540887D+03
                          Isotropic Fermi Contact Couplings
        Atom                 a.u.       MegaHertz       Gauss      10(-4) cm-1
     1  As(75)             0.00000       0.00000       0.00000       0.00000
     2  H(1)               0.00000       0.00000       0.00000       0.00000
     3  H(1)               0.00000       0.00000       0.00000       0.00000
     4  H(1)               0.00000       0.00000       0.00000       0.00000
 --------------------------------------------------------
       Center         ----  Spin Dipole Couplings  ----
                      3XX-RR        3YY-RR        3ZZ-RR
 --------------------------------------------------------
     1   Atom        0.000000      0.000000      0.000000
     2   Atom        0.000000      0.000000      0.000000
     3   Atom        0.000000      0.000000      0.000000
     4   Atom        0.000000      0.000000      0.000000
 --------------------------------------------------------
                        XY            XZ            YZ
 --------------------------------------------------------
     1   Atom        0.000000      0.000000      0.000000
     2   Atom        0.000000      0.000000      0.000000
     3   Atom        0.000000      0.000000      0.000000
     4   Atom        0.000000      0.000000      0.000000
 --------------------------------------------------------


 ---------------------------------------------------------------------------------
              Anisotropic Spin Dipole Couplings in Principal Axis System
 ---------------------------------------------------------------------------------

       Atom             a.u.   MegaHertz   Gauss  10(-4) cm-1        Axes

              Baa     0.0000     0.000     0.000     0.000  1.0000  0.0000  0.0000
     1 As(75) Bbb     0.0000     0.000     0.000     0.000  0.0000  1.0000  0.0000
              Bcc     0.0000     0.000     0.000     0.000  0.0000  0.0000  1.0000
 
              Baa     0.0000     0.000     0.000     0.000  1.0000  0.0000  0.0000
     2 H(1)   Bbb     0.0000     0.000     0.000     0.000  0.0000  1.0000  0.0000
              Bcc     0.0000     0.000     0.000     0.000  0.0000  0.0000  1.0000
 
              Baa     0.0000     0.000     0.000     0.000  1.0000  0.0000  0.0000
     3 H(1)   Bbb     0.0000     0.000     0.000     0.000  0.0000  1.0000  0.0000
              Bcc     0.0000     0.000     0.000     0.000  0.0000  0.0000  1.0000
 
              Baa     0.0000     0.000     0.000     0.000  1.0000  0.0000  0.0000
     4 H(1)   Bbb     0.0000     0.000     0.000     0.000  0.0000  1.0000  0.0000
              Bcc     0.0000     0.000     0.000     0.000  0.0000  0.0000  1.0000
 

 ---------------------------------------------------------------------------------


 Test job not archived.
 1\1\GINC-C31\SP\ROMP2-RW\Gen\As1H3\GPETERSSON\21-Aug-2012\0\\# ROMP2(R
 W) Gen GFinput Int=NoBasisTransform Int(Grid=Ultrafine) IOp(3/32=2,5/6
 =10,8/11=1,9/33=1) Maxdisk=128GB CBSextrapolate(Nmin=25,MinPop)\\AsH3\
 \0,1\X\As,1,1.\H,2,1.52308123,1,123.42690817\H,2,1.52308123,1,123.4269
 0817,3,120.,0\H,2,1.52308123,1,123.42690817,3,-120.,0\\Version=EM64L-G
 09RevA.02\State=1-A1\HF=-2235.977966\MP2=-2236.1541827\E2(CBS)=-0.1791
 224\CBS-Int=-0.1776077\OIii=1.2147387\RMSD=1.226e-11\PG=C03V [C3(As1),
 3SGV(H1)]\\@


 NO MATTER HOW THIN YOU SLICE IT, IT'S STILL BALONEY

                                   -- ALFRED E. SMITH
 Job cpu time:  3 days 10 hours 53 minutes 38.6 seconds.
 File lengths (MBytes):  RWF=  15989 Int=      0 D2E=      0 Chk=     33 Scr=      1
 Normal termination of Gaussian 09 at Tue Aug 21 05:26:44 2012.
