 Entering Gaussian System, Link 0=gdv
 AtFile(1): 7ZaPa-NR.gbs
 Initial command:
 /share/apps/gaussian/gdvh12/gdv/l1.exe /localscratch/935772/Gau-5708.inp -scrdir=/localscratch/935772/
 Entering Link 1 = /share/apps/gaussian/gdvh12/gdv/l1.exe PID=      5709.
  
 Copyright (c) 1988,1990,1992,1993,1995,1998,2003,2009,2011,
            Gaussian, Inc.  All Rights Reserved.
  
 This is the private, development version of
 the Gaussian(R) DV system of programs. It is based on
 the Gaussian(R) 09 system (copyright 2009, Gaussian, Inc.),
 the Gaussian(R) 03 system (copyright 2003, Gaussian, Inc.),
 the Gaussian(R) 98 system (copyright 1998, Gaussian, Inc.),
 the Gaussian(R) 94 system (copyright 1995, Gaussian, Inc.),
 the Gaussian 92(TM) system (copyright 1992, Gaussian, Inc.),
 the Gaussian 90(TM) system (copyright 1990, Gaussian, Inc.),
 the Gaussian 88(TM) system (copyright 1988, Gaussian, Inc.),
 the Gaussian 86(TM) system (copyright 1986, Carnegie Mellon
 University), and the Gaussian 82(TM) system (copyright 1983,
 Carnegie Mellon University). Gaussian is a federally registered
 trademark of Gaussian, Inc.
  
 This software contains proprietary and confidential information,
 including trade secrets, belonging to Gaussian, Inc.
  
 This software is provided under written license and may be
 used, copied, transmitted, or stored only in accord with that
 written license.
  
 The following legend is applicable only to US Government
 contracts under FAR:
  
                    RESTRICTED RIGHTS LEGEND
  
 Use, reproduction and disclosure by the US Government is
 subject to restrictions as set forth in subparagraphs (a)
 and (c) of the Commercial Computer Software - Restricted
 Rights clause in FAR 52.227-19.
  
 Gaussian, Inc.
 340 Quinnipiac St., Bldg. 40, Wallingford CT 06492
  
  
 ---------------------------------------------------------------
 Warning -- This program may not be used in any manner that
 competes with the business of Gaussian, Inc. or will provide
 assistance to any competitor of Gaussian, Inc.  The licensee
 of this program is prohibited from giving any competitor of
 Gaussian, Inc. access to this program.  By using this program,
 the user acknowledges that Gaussian, Inc. is engaged in the
 business of creating and licensing software in the field of
 computational chemistry and represents and warrants to the
 licensee that it is not a competitor of Gaussian, Inc. and that
 it will not use this program in any manner prohibited above.
 ---------------------------------------------------------------
  

 Cite this work as:
 Gaussian Development Version, Revision H.12,
 M. J. Frisch, G. W. Trucks, H. B. Schlegel, G. E. Scuseria, 
 M. A. Robb, J. R. Cheeseman, G. Scalmani, V. Barone, B. Mennucci, 
 G. A. Petersson, H. Nakatsuji, M. Caricato, X. Li, H. P. Hratchian, 
 A. F. Izmaylov, J. Bloino, G. Zheng, J. L. Sonnenberg, M. Hada, 
 M. Ehara, K. Toyota, R. Fukuda, J. Hasegawa, M. Ishida, T. Nakajima, 
 Y. Honda, O. Kitao, H. Nakai, T. Vreven, J. A. Montgomery, Jr., 
 J. E. Peralta, F. Ogliaro, M. Bearpark, J. J. Heyd, E. Brothers, 
 K. N. Kudin, V. N. Staroverov, T. Keith, R. Kobayashi, J. Normand, 
 K. Raghavachari, A. Rendell, J. C. Burant, S. S. Iyengar, J. Tomasi, 
 M. Cossi, N. Rega, J. M. Millam, M. Klene, J. E. Knox, J. B. Cross, 
 V. Bakken, C. Adamo, J. Jaramillo, R. Gomperts, R. E. Stratmann, 
 O. Yazyev, A. J. Austin, R. Cammi, C. Pomelli, J. W. Ochterski, 
 R. L. Martin, K. Morokuma, V. G. Zakrzewski, G. A. Voth, 
 P. Salvador, J. J. Dannenberg, S. Dapprich, P. V. Parandekar, 
 N. J. Mayhall, A. D. Daniels, O. Farkas, J. B. Foresman, 
 J. V. Ortiz, J. Cioslowski, and D. J. Fox, 
 Gaussian, Inc., Wallingford CT, 2010.
 
 ******************************************
 Gaussian DV:  EM64L-GDVRevH.12  9-Jun-2011
                 2-Jun-2013 
 ******************************************
 % Mem=12GB
 % Nproc=8
 Will use up to    8 processors via shared memory.
 ----------------------------------------------------------------------
 # ROMP2(RW) Gen GFinput Int=NoBasisTransform Int(Grid=Ultrafine) IOp(3
 /32=2,5/6=10,8/11=1,9/33=1) Maxdisk=128GB CBSextrapolate(Nmin=25,MinPo
 p)
 ----------------------------------------------------------------------
 1/38=1/1;
 2/12=2,17=6,18=5,40=1/2;
 3/5=7,11=2,16=1,24=10,25=1,30=1,32=2,60=-1,75=-5,116=101/1,2,3;
 4//1;
 5/5=2,6=10,38=5/2;
 8/5=-1,10=91,11=1/1;
 9/16=-3,33=1,75=2,81=25,83=4/6,4;
 6/7=2,8=2,9=2,10=2/1;
 99/5=1,9=1/99;
 -------
 AsO 2Pi
 -------
 Charge =  0 Multiplicity = 2
 Symbolic Z-Matrix:
 As
 O                    1     1.6236 
 
                          Input orientation:                          
 ---------------------------------------------------------------------
 Center     Atomic      Atomic             Coordinates (Angstroms)
 Number     Number       Type             X           Y           Z
 ---------------------------------------------------------------------
      1         33           0        0.000000    0.000000    0.000000
      2          8           0        0.000000    0.000000    1.623600
 ---------------------------------------------------------------------
 Stoichiometry    AsO(2)
 Framework group  C*V[C*(OAs)]
 Deg. of freedom     1
 Full point group                 C*V     NOp   4
 Largest Abelian subgroup         C2V     NOp   4
 Largest concise Abelian subgroup C1      NOp   1
                         Standard orientation:                         
 ---------------------------------------------------------------------
 Center     Atomic      Atomic             Coordinates (Angstroms)
 Number     Number       Type             X           Y           Z
 ---------------------------------------------------------------------
      1         33           0        0.000000    0.000000    0.316800
      2          8           0        0.000000    0.000000   -1.306800
 ---------------------------------------------------------------------
 Rotational constants (GHZ):      0.0000000     14.5449731     14.5449731
 General basis read from cards:  (5D, 7F)
 AO basis set in the form of general basis input (Overlap normalization):
      1 0
 S  19 1.00       0.000000000000
      0.8650451530D+08  0.3300655124D-06
      0.1628168380D+08  0.2044443866D-05
      0.3747703670D+07  0.1154070357D-04
      0.1021359720D+07  0.5186212928D-04
      0.3203359010D+06  0.1980363441D-03
      0.1128004270D+06  0.6592990918D-03
      0.4365492760D+05  0.1967820252D-02
      0.1823316230D+05  0.5373513002D-02
      0.8093021230D+04  0.1361405918D-01
      0.3768715480D+04  0.3218167547D-01
      0.1821795630D+04  0.7046321339D-01
      0.9062961930D+03  0.1393760946D+00
      0.4607567010D+03  0.2356460856D+00
      0.2380523900D+03  0.3052203077D+00
      0.1244279870D+03  0.2463339057D+00
      0.6555498500D+02  0.8883839465D-01
      0.3470247800D+02  0.8436057777D-02
      0.1840391500D+02  0.8969998273D-03
      0.9749020000D+01 -0.1634633792D-04
 S  15 1.00       0.000000000000
      0.1823316230D+05 -0.1075407502D-04
      0.8093021230D+04 -0.5163809444D-04
      0.3768715480D+04 -0.3116450839D-03
      0.1821795630D+04 -0.1392899174D-02
      0.9062961930D+03 -0.5826934199D-02
      0.4607567010D+03 -0.2005173173D-01
      0.2380523900D+03 -0.5519948761D-01
      0.1244279870D+03 -0.8931625917D-01
      0.6555498500D+02 -0.7681709220D-02
      0.3470247800D+02  0.2994520646D+00
      0.1840391500D+02  0.5139876625D+00
      0.9749020000D+01  0.2694413671D+00
      0.5141291000D+01  0.3732476805D-01
      0.2688638000D+01  0.2126411459D-02
      0.1387503000D+01 -0.4374603707D-03
 P  17 1.00       0.000000000000
      0.1270486630D+06  0.2908665223D-05
      0.3383589630D+05  0.2308522329D-04
      0.1079826630D+05  0.1487140281D-03
      0.3990275130D+04  0.7333736933D-03
      0.1657360270D+04  0.2944593625D-02
      0.7542497550D+03  0.9896016561D-02
      0.3680268710D+03  0.2845947159D-01
      0.1890566260D+03  0.7062396426D-01
      0.1007096710D+03  0.1477086082D+00
      0.5494271700D+02  0.2487758530D+00
      0.3038872200D+02  0.3147722141D+00
      0.1690166700D+02  0.2489544237D+00
      0.9390696000D+01  0.9772138151D-01
      0.5184120000D+01  0.1548410760D-01
      0.2830598000D+01  0.1350578766D-02
      0.1522368000D+01  0.2302604066D-03
      0.8032380000D+00  0.1566076893D-04
 S  11 1.00       0.000000000000
      0.2380523900D+03  0.6267477406D-03
      0.1244279870D+03  0.2438415568D-02
      0.6555498500D+02  0.2123420768D-02
      0.3470247800D+02 -0.3360031026D-01
      0.1840391500D+02 -0.1702762447D+00
      0.9749020000D+01 -0.1407439079D+00
      0.5141291000D+01  0.2662757245D+00
      0.2688638000D+01  0.5844492732D+00
      0.1387503000D+01  0.3405739287D+00
      0.7023420000D+00  0.3721768841D-01
      0.3461010000D+00  0.1820752711D-02
 P  14 1.00       0.000000000000
      0.7542497550D+03 -0.3479424059D-04
      0.3680268710D+03 -0.2215335236D-03
      0.1890566260D+03 -0.1180225478D-02
      0.1007096710D+03 -0.4452205246D-02
      0.5494271700D+02 -0.1178521590D-01
      0.3038872200D+02 -0.2198598209D-01
      0.1690166700D+02  0.2208057327D-02
      0.9390696000D+01  0.1327932072D+00
      0.5184120000D+01  0.3112525746D+00
      0.2830598000D+01  0.3783531746D+00
      0.1522368000D+01  0.2368181203D+00
      0.8032380000D+00  0.5628763891D-01
      0.4139680000D+00  0.4181683333D-02
      0.2073520000D+00  0.4945473986D-03
 D  16 1.00       0.000000000000
      0.3935057380D+04  0.6658747933D-05
      0.1231408950D+04  0.6620479445D-04
      0.4868924300D+03  0.4088972204D-03
      0.2242100730D+03  0.1802995078D-02
      0.1133345490D+03  0.6440508421D-02
      0.6039109000D+02  0.1912265063D-01
      0.3307289700D+02  0.4806286143D-01
      0.1835928800D+02  0.1043746713D+00
      0.1027002900D+02  0.1818481736D+00
      0.5780470000D+01  0.2434629020D+00
      0.3271235000D+01  0.2609256884D+00
      0.1854725000D+01  0.2262380742D+00
      0.1043163000D+01  0.1466007219D+00
      0.5705330000D+00  0.6184849393D-01
      0.2934450000D+00  0.1265731408D-01
      0.1349280000D+00  0.9703401441D-03
 S  10 1.00       0.000000000000
      0.3470247800D+02  0.1511943432D-03
      0.1840391500D+02  0.2606893701D-02
      0.9749020000D+01  0.2382588455D-02
      0.5141291000D+01 -0.1010241098D-01
      0.2688638000D+01 -0.6873666774D-01
      0.1387503000D+01 -0.1896156945D+00
      0.7023420000D+00  0.2529798556D-01
      0.3461010000D+00  0.4476449179D+00
      0.1644960000D+00  0.5350838366D+00
      0.7455300000D-01  0.1637862519D+00
 S   1 1.00       0.000000000000
      0.3584180297D-01  0.1000000000D+01
 P  11 1.00       0.000000000000
      0.3038872200D+02  0.9689603129D-04
      0.1690166700D+02 -0.3491934347D-03
      0.9390696000D+01 -0.2763946553D-02
      0.5184120000D+01 -0.7042864955D-02
      0.2830598000D+01 -0.1609648048D-01
      0.1522368000D+01 -0.2477584807D-01
      0.8032380000D+00  0.6264801904D-01
      0.4139680000D+00  0.2634837480D+00
      0.2073520000D+00  0.4127647139D+00
      0.1003300000D+00  0.3233714430D+00
      0.4654600000D-01  0.7992207825D-01
 P   1 1.00       0.000000000000
      0.2662990033D-01  0.1000000000D+01
 S   1 1.00       0.000000000000
      0.4130607000D+01  0.1000000000D+01
 S   1 1.00       0.000000000000
      0.2248043000D+01  0.1000000000D+01
 S   1 1.00       0.000000000000
      0.1223476000D+01  0.1000000000D+01
 S   1 1.00       0.000000000000
      0.6658650000D+00  0.1000000000D+01
 S   1 1.00       0.000000000000
      0.3623910000D+00  0.1000000000D+01
 S   1 1.00       0.000000000000
      0.1972280000D+00  0.1000000000D+01
 P   1 1.00       0.000000000000
      0.2061443000D+01  0.1000000000D+01
 P   1 1.00       0.000000000000
      0.1240995000D+01  0.1000000000D+01
 P   1 1.00       0.000000000000
      0.7470830000D+00  0.1000000000D+01
 P   1 1.00       0.000000000000
      0.4497470000D+00  0.1000000000D+01
 P   1 1.00       0.000000000000
      0.2707490000D+00  0.1000000000D+01
 P   1 1.00       0.000000000000
      0.1629920000D+00  0.1000000000D+01
 D   1 1.00       0.000000000000
      0.2172717000D+01  0.1000000000D+01
 D   1 1.00       0.000000000000
      0.1200925000D+01  0.1000000000D+01
 D   1 1.00       0.000000000000
      0.6637870000D+00  0.1000000000D+01
 D   1 1.00       0.000000000000
      0.3668950000D+00  0.1000000000D+01
 D   1 1.00       0.000000000000
      0.2027940000D+00  0.1000000000D+01
 D   1 1.00       0.000000000000
      0.1120900000D+00  0.1000000000D+01
 D   1 1.00       0.000000000000
      0.6195500000D-01  0.1000000000D+01
 F   1 1.00       0.000000000000
      0.2434959000D+01  0.1000000000D+01
 F   1 1.00       0.000000000000
      0.1305072000D+01  0.1000000000D+01
 F   1 1.00       0.000000000000
      0.6994830000D+00  0.1000000000D+01
 F   1 1.00       0.000000000000
      0.3749040000D+00  0.1000000000D+01
 F   1 1.00       0.000000000000
      0.2009380000D+00  0.1000000000D+01
 F   1 1.00       0.000000000000
      0.1076970000D+00  0.1000000000D+01
 G   1 1.00       0.000000000000
      0.1148666000D+01  0.1000000000D+01
 G   1 1.00       0.000000000000
      0.7139930000D+00  0.1000000000D+01
 G   1 1.00       0.000000000000
      0.4438070000D+00  0.1000000000D+01
 G   1 1.00       0.000000000000
      0.2758630000D+00  0.1000000000D+01
 G   1 1.00       0.000000000000
      0.1714710000D+00  0.1000000000D+01
 H   1 1.00       0.000000000000
      0.1101614000D+01  0.1000000000D+01
 H   1 1.00       0.000000000000
      0.6542220000D+00  0.1000000000D+01
 H   1 1.00       0.000000000000
      0.3885260000D+00  0.1000000000D+01
 H   1 1.00       0.000000000000
      0.2307358000D+00  0.1000000000D+01
 I   1 1.00       0.000000000000
      0.1063087000D+01  0.1000000000D+01
 I   1 1.00       0.000000000000
      0.5892140000D+00  0.1000000000D+01
 I   1 1.00       0.000000000000
      0.3265700000D+00  0.1000000000D+01
 J   1 1.00       0.000000000000
      0.8915241263D+00  0.1000000000D+01
 ****
      2 0
 S  16 1.00       0.000000000000
      0.1411246410D+07  0.1627429822D-05
      0.2499102240D+06  0.1092621996D-04
      0.5603410580D+05  0.6238741867D-04
      0.1521153640D+05  0.2783303491D-03
      0.4812287750D+04  0.1040541872D-02
      0.1717755460D+04  0.3380392793D-02
      0.6733958240D+03  0.9828484765D-02
      0.2835101840D+03  0.2605310129D-01
      0.1258620070D+03  0.6280818057D-01
      0.5804472200D+02  0.1348202075D+00
      0.2747198500D+02  0.2435563460D+00
      0.1321062900D+02  0.3323287378D+00
      0.6399806000D+01  0.2607930483D+00
      0.3099614000D+01  0.7430834326D-01
      0.1489856000D+01  0.4189538074D-02
      0.7052010000D+00  0.8706455725D-03
 S  11 1.00       0.000000000000
      0.2835101840D+03 -0.1122588094D-03
      0.1258620070D+03 -0.5559335617D-03
      0.5804472200D+02 -0.2851687904D-02
      0.2747198500D+02 -0.1133494995D-01
      0.1321062900D+02 -0.3657977704D-01
      0.6399806000D+01 -0.7288994197D-01
      0.3099614000D+01 -0.1062032356D-01
      0.1489856000D+01  0.2196705572D+00
      0.7052010000D+00  0.4294832072D+00
      0.3258480000D+00  0.3775832849D+00
      0.1454600000D+00  0.9640261255D-01
 S   1 1.00       0.000000000000
      0.5814297870D-01  0.1000000000D+01
 P  13 1.00       0.000000000000
      0.2085279200D+04  0.1447911740D-04
      0.5101470830D+03  0.1283233588D-03
      0.1616811510D+03  0.7792790007D-03
      0.6114945200D+02  0.3400506049D-02
      0.2597660200D+02  0.1157685214D-01
      0.1187542600D+02  0.3269740339D-01
      0.5677133000D+01  0.8011404242D-01
      0.2786475000D+01  0.1605265057D+00
      0.1387844000D+01  0.2460495026D+00
      0.6952810000D+00  0.2898982926D+00
      0.3470020000D+00  0.2606799382D+00
      0.1700990000D+00  0.1479363112D+00
      0.8008000000D-01  0.2980261453D-01
 P   1 1.00       0.000000000000
      0.4261436033D-01  0.1000000000D+01
 S   1 1.00       0.000000000000
      0.4249866000D+01  0.1000000000D+01
 S   1 1.00       0.000000000000
      0.2167470000D+01  0.1000000000D+01
 S   1 1.00       0.000000000000
      0.1105429000D+01  0.1000000000D+01
 S   1 1.00       0.000000000000
      0.5637790000D+00  0.1000000000D+01
 S   1 1.00       0.000000000000
      0.2875320000D+00  0.1000000000D+01
 S   1 1.00       0.000000000000
      0.1466440000D+00  0.1000000000D+01
 P   1 1.00       0.000000000000
      0.5659724000D+01  0.1000000000D+01
 P   1 1.00       0.000000000000
      0.2575878000D+01  0.1000000000D+01
 P   1 1.00       0.000000000000
      0.1172344000D+01  0.1000000000D+01
 P   1 1.00       0.000000000000
      0.5335620000D+00  0.1000000000D+01
 P   1 1.00       0.000000000000
      0.2428370000D+00  0.1000000000D+01
 P   1 1.00       0.000000000000
      0.1105210000D+00  0.1000000000D+01
 D   1 1.00       0.000000000000
      0.9464211000D+01  0.1000000000D+01
 D   1 1.00       0.000000000000
      0.4752286000D+01  0.1000000000D+01
 D   1 1.00       0.000000000000
      0.2386276000D+01  0.1000000000D+01
 D   1 1.00       0.000000000000
      0.1198226000D+01  0.1000000000D+01
 D   1 1.00       0.000000000000
      0.6016680000D+00  0.1000000000D+01
 D   1 1.00       0.000000000000
      0.3021170000D+00  0.1000000000D+01
 D   1 1.00       0.000000000000
      0.1517020000D+00  0.1000000000D+01
 F   1 1.00       0.000000000000
      0.7001836000D+01  0.1000000000D+01
 F   1 1.00       0.000000000000
      0.3552509000D+01  0.1000000000D+01
 F   1 1.00       0.000000000000
      0.1802430000D+01  0.1000000000D+01
 F   1 1.00       0.000000000000
      0.9144960000D+00  0.1000000000D+01
 F   1 1.00       0.000000000000
      0.4639860000D+00  0.1000000000D+01
 F   1 1.00       0.000000000000
      0.2354110000D+00  0.1000000000D+01
 G   1 1.00       0.000000000000
      0.6472481000D+01  0.1000000000D+01
 G   1 1.00       0.000000000000
      0.3119071000D+01  0.1000000000D+01
 G   1 1.00       0.000000000000
      0.1503072000D+01  0.1000000000D+01
 G   1 1.00       0.000000000000
      0.7243260000D+00  0.1000000000D+01
 G   1 1.00       0.000000000000
      0.3490500000D+00  0.1000000000D+01
 H   1 1.00       0.000000000000
      0.5355083000D+01  0.1000000000D+01
 H   1 1.00       0.000000000000
      0.2414696000D+01  0.1000000000D+01
 H   1 1.00       0.000000000000
      0.1088827000D+01  0.1000000000D+01
 H   1 1.00       0.000000000000
      0.4909703000D+00  0.1000000000D+01
 I   1 1.00       0.000000000000
      0.4322113000D+01  0.1000000000D+01
 I   1 1.00       0.000000000000
      0.1716263000D+01  0.1000000000D+01
 I   1 1.00       0.000000000000
      0.6815089000D+00  0.1000000000D+01
 J   1 1.00       0.000000000000
      0.3060973723D+01  0.1000000000D+01
 ****

 There are   307 symmetry adapted cartesian basis functions of A1  symmetry.
 There are   129 symmetry adapted cartesian basis functions of A2  symmetry.
 There are   203 symmetry adapted cartesian basis functions of B1  symmetry.
 There are   203 symmetry adapted cartesian basis functions of B2  symmetry.
 There are   178 symmetry adapted basis functions of A1  symmetry.
 There are    87 symmetry adapted basis functions of A2  symmetry.
 There are   127 symmetry adapted basis functions of B1  symmetry.
 There are   127 symmetry adapted basis functions of B2  symmetry.
   519 basis functions,  1161 primitive gaussians,   842 cartesian basis functions
    21 alpha electrons       20 beta electrons
       nuclear repulsion energy        86.0450745675 Hartrees.
 NAtoms=    2 NActive=    2 NUniq=    2 SFac= 1.00D+00 NAtFMM=   60 NAOKFM=F Big=F
 Integral buffers will be    131072 words long.
 Raffenetti 2 integral format.
 Two-electron integral symmetry is turned on.
 One-electron integrals computed using PRISM.
 PrsmSu:  requested number of processors reduced to:   2 ShMem   1 Linda.
 NBasis=   519 RedAO= F EigKep=  0.00D+00  NBF=   178    87   127   127
 NBsUse=   519 1.00D-04 EigRej=  0.00D+00 NBFU=   178    87   127   127
 ExpMin= 2.66D-02 ExpMax= 8.65D+07 ExpMxC= 8.09D+03 IAcc=3 IRadAn=         5 AccDes= 0.00D+00
 Harris functional with IExCor=  205 and IRadAn=       5 diagonalized for initial guess.
 HarFok:  IExCor=  205 AccDes= 0.00D+00 IRadAn=         5 IDoV= 1 UseB2=F ITyADJ=14
 ICtDFT=  3500011 ScaDFX=  1.000000  1.000000  1.000000  1.000000
 FoFCou: FMM=F IPFlag=           0 FMFlag=      100000 FMFlg1=           0
         NFxFlg=           0 DoJE=T BraDBF=F KetDBF=T FulRan=T
         wScrn=  0.000000 ICntrl=     500 IOpCl=  0 I1Cent=   200000004 NGrid=           0
         NMat0=    1 NMatS0=      1 NMatT0=    0 NMatD0=    1 NMtDS0=    0 NMtDT0=    0
 Petite list used in FoFCou.
 DSYEVD returned Info=        1039 IAlg= 4 N=   519 NDim=   519 NE2=     3100496 trying DSYEV.
 Initial guess orbital symmetries:
       Occupied  (SG) (SG) (SG) (PI) (PI) (SG) (SG) (SG) (PI) (PI)
                 (SG) (PI) (PI) (DLTA) (DLTA) (SG) (SG) (PI) (PI)
                 (SG) (PI)
       Virtual   (PI) (SG) (SG) (PI) (PI) (SG) (PI) (PI) (DLTA)
                 (DLTA) (SG) (SG) (PI) (PI) (SG) (SG) (PI) (PI)
                 (DLTA) (DLTA) (SG) (DLTA) (DLTA) (PHI) (PHI) (PI)
                 (PI) (PI) (PI) (SG) (PI) (PI) (SG) (DLTA) (DLTA)
                 (SG) (SG) (PI) (PI) (PHI) (PHI) (?A) (?A) (DLTA)
                 (DLTA) (PI) (PI) (SG) (DLTA) (DLTA) (PI) (PI)
                 (SG) (DLTA) (DLTA) (PHI) (PHI) (SG) (PI) (PI)
                 (PI) (PI) (SG) (PHI) (PHI) (DLTA) (DLTA) (SG)
                 (PI) (PI) (?A) (?A) (?B) (?B) (SG) (SG) (DLTA)
                 (DLTA) (PI) (PI) (PHI) (PHI) (PI) (PI) (SG) (PHI)
                 (PHI) (?A) (?A) (DLTA) (DLTA) (PI) (PI) (SG) (DLTA)
                 (DLTA) (PI) (PI) (DLTA) (DLTA) (SG) (SG) (PHI)
                 (PHI) (SG) (DLTA) (DLTA) (PI) (PI) (?A) (?A) (PI)
                 (PI) (PI) (PI) (?B) (?B) (SG) (SG) (SG) (DLTA)
                 (DLTA) (SG) (PHI) (PHI) (PHI) (PHI) (?A) (?A)
                 (SG) (DLTA) (DLTA) (PI) (PI) (PI) (PI) (SG) (?A)
                 (?A) (?C) (?C) (?C) (?C) (DLTA) (DLTA) (SG) (PI)
                 (PI) (PI) (PI) (SG) (PHI) (PHI) (?A) (?A) (PHI)
                 (PHI) (SG) (DLTA) (DLTA) (PI) (PI) (DLTA) (DLTA)
                 (SG) (DLTA) (DLTA) (?B) (?B) (PI) (PI) (SG) (DLTA)
                 (DLTA) (PHI) (PHI) (PI) (PI) (SG) (?A) (?A) (SG)
                 (PI) (PI) (DLTA) (DLTA) (PHI) (PHI) (SG) (DLTA)
                 (DLTA) (PI) (PI) (SG) (PI) (PI) (?A) (?A) (SG)
                 (PHI) (PHI) (DLTA) (DLTA) (PI) (PI) (?B) (?B)
                 (SG) (SG) (SG) (PI) (PI) (?A) (?A) (SG) (SG) (PHI)
                 (PHI) (?A) (?A) (?B) (?B) (SG) (DLTA) (DLTA) (PHI)
                 (PHI) (?A) (?A) (?B) (?B) (DLTA) (DLTA) (PHI)
                 (PHI) (PI) (PI) (SG) (SG) (DLTA) (DLTA) (PI) (PI)
                 (PHI) (PHI) (PI) (PI) (SG) (DLTA) (DLTA) (?A)
                 (?A) (PI) (PI) (SG) (SG) (DLTA) (DLTA) (PHI) (PHI)
                 (SG) (DLTA) (DLTA) (PI) (PI) (PI) (PI) (SG) (PHI)
                 (PHI) (DLTA) (DLTA) (PI) (PI) (?D) (?D) (SG) (SG)
                 (DLTA) (DLTA) (SG) (?B) (?B) (?B) (?B) (?A) (?A)
                 (PHI) (PHI) (PI) (PI) (DLTA) (DLTA) (SG) (PI)
                 (PI) (?A) (?A) (SG) (PI) (PI) (SG) (PHI) (PHI)
                 (?A) (?A) (DLTA) (DLTA) (PI) (PI) (SG) (PHI) (PHI)
                 (PI) (PI) (?B) (?B) (?A) (?A) (DLTA) (DLTA) (?E)
                 (?E) (?E) (SG) (SG) (?B) (?B) (?F) (?F) (?F) (?F)
                 (SG) (?A) (?A) (SG) (PHI) (PHI) (PI) (PI) (DLTA)
                 (DLTA) (DLTA) (DLTA) (PHI) (PHI) (SG) (PHI) (PHI)
                 (PI) (PI) (DLTA) (DLTA) (SG) (PI) (PI) (SG) (DLTA)
                 (DLTA) (DLTA) (DLTA) (SG) (PHI) (PHI) (PI) (PI)
                 (SG) (PI) (PI) (DLTA) (DLTA) (SG) (SG) (?B) (?B)
                 (PI) (PI) (SG) (?A) (?A) (SG) (DLTA) (DLTA) (PHI)
                 (PHI) (DLTA) (DLTA) (PI) (PI) (SG) (PI) (PI) (SG)
                 (?B) (?B) (?A) (?A) (PHI) (PHI) (PI) (PI) (DLTA)
                 (DLTA) (SG) (PI) (PI) (SG) (PI) (PI) (?A) (?A)
                 (PHI) (PHI) (PHI) (PHI) (SG) (DLTA) (DLTA) (PI)
                 (PI) (SG) (DLTA) (DLTA) (SG) (PI) (PI) (DLTA)
                 (DLTA) (PI) (PI) (SG) (SG) (?B) (?B) (SG) (SG)
                 (?D) (?D) (?A) (?A) (PHI) (PHI) (DLTA) (DLTA)
                 (PI) (PI) (SG) (SG) (SG) (SG) (?B) (?B) (?A) (?A)
                 (PHI) (PHI) (DLTA) (DLTA) (PI) (PI) (SG) (?B)
                 (?B) (?A) (?A) (PHI) (PHI) (DLTA) (DLTA) (PI)
                 (PI) (SG) (PHI) (PHI) (DLTA) (DLTA) (PI) (PI)
                 (SG) (?A) (?A) (PHI) (PHI) (DLTA) (DLTA) (SG)
                 (PI) (PI) (DLTA) (DLTA) (PI) (PI) (SG) (PI) (PI)
                 (SG) (SG) (SG)
 Requested convergence on RMS density matrix=1.00D-10 within 128 cycles.
 Requested convergence on MAX density matrix=1.00D-08.
 Requested convergence on             energy=1.00D-08.
 No special actions if energy rises.
 Initial convergence to 1.0D-05 achieved.  Increase integral accuracy.
 SCF Done:  E(ROHF) =  -2309.09542787     A.U. after   25 cycles
            NFock= 25  Conv=0.14D-10     -V/T= 2.0001
 <Sx>= 0.0000 <Sy>= 0.0000 <Sz>= 0.5000 <S**2>= 0.7500 S= 0.5000
 <L.S>= 0.000000000000E+00
 Annihilation of the first spin contaminant:
 S**2 before annihilation     0.7500,   after     0.7500
 GenMOA:  NOpAll=  4 NOp2=4 NOpUse=  4 JSym2X=1
 <Sx>= 0.0000 <Sy>= 0.0000 <Sz>= 0.5000 <S**2>= 0.7500 S= 0.5000
 Range of M.O.s used for correlation:    16   519
 NBasis=   519 NAE=    21 NBE=    20 NFC=    15 NFV=     0
 NROrb=    504 NOA=     6 NOB=     5 NVA=   498 NVB=   499

 **** Warning!!: The largest alpha MO coefficient is  0.69236699D+03


 **** Warning!!: The largest beta MO coefficient is  0.68573852D+03

 Singles contribution to E2=   -0.2939831977D-02
 Disk-based method using OVN memory for  6 occupieds at a time.
 Permanent disk used for amplitudes and <ij||ab> integrals=    21107730 words.
 Estimated scratch disk usage=  2716971924 words.
 IUseRI=2 ITolRI= 6 IR12RI=0
 Actual    scratch disk usage=  2710099064 words.
 GetIJB would need an additional  1714778614 words of memory to use all   8 processors.
 JobTyp=2 Pass  1:  I=   1 to   6 NPSUse=  1 ParTrn=F ParDer=F DoDerP=F.
 (rs|ai) integrals will be sorted in core.
 T,EIJ(AA): I=   1 J=   2      0.2202548E-03     -0.1053108E-02
 T,EIJ(AA): I=   1 J=   3      0.4711880E-03     -0.2450225E-02
 T,EIJ(AA): I=   1 J=   4      0.3862654E-03     -0.1910891E-02
 T,EIJ(AA): I=   1 J=   5      0.8721111E-03     -0.3442222E-02
 T,EIJ(AA): I=   1 J=   6      0.2386104E-03     -0.1029091E-02
 T,EIJ(AA): I=   2 J=   3      0.7223737E-03     -0.2578006E-02
 T,EIJ(AA): I=   2 J=   4      0.4416491E-03     -0.1258131E-02
 T,EIJ(AA): I=   2 J=   5      0.1205908E-02     -0.3445019E-02
 T,EIJ(AA): I=   2 J=   6      0.8074365E-03     -0.2034577E-02
 T,EIJ(AA): I=   3 J=   4      0.1469015E-02     -0.5413205E-02
 T,EIJ(AA): I=   3 J=   5      0.2531744E-02     -0.7716799E-02
 T,EIJ(AA): I=   3 J=   6      0.3169782E-03     -0.7926827E-03
 T,EIJ(AA): I=   4 J=   5      0.4402886E-02     -0.9507167E-02
 T,EIJ(AA): I=   4 J=   6      0.1857766E-02     -0.4185379E-02
 T,EIJ(AA): I=   5 J=   6      0.2046493E-02     -0.4258041E-02
 T,EIJ(AB): I=   1 J=   1      0.1950592E-02     -0.1257515E-01
 T,EIJ(AB): I=   1 J=   2      0.8042632E-03     -0.4720445E-02
 T,EIJ(AB): I=   1 J=   3      0.1239624E-02     -0.6665878E-02
 T,EIJ(AB): I=   1 J=   4      0.2092301E-02     -0.1092614E-01
 T,EIJ(AB): I=   1 J=   5      0.2241173E-02     -0.1066672E-01
 T,EIJ(AB): I=   2 J=   1      0.6042754E-03     -0.3539826E-02
 T,EIJ(AB): I=   2 J=   2      0.4164555E-02     -0.1187530E-01
 T,EIJ(AB): I=   2 J=   3      0.3468454E-02     -0.1025498E-01
 T,EIJ(AB): I=   2 J=   4      0.1664049E-02     -0.5662014E-02
 T,EIJ(AB): I=   2 J=   5      0.2128718E-02     -0.6375843E-02
 T,EIJ(AB): I=   3 J=   1      0.1589523E-02     -0.9344142E-02
 T,EIJ(AB): I=   3 J=   2      0.1932967E-02     -0.6798819E-02
 T,EIJ(AB): I=   3 J=   3      0.1816564E-02     -0.6695667E-02
 T,EIJ(AB): I=   3 J=   4      0.5584499E-02     -0.2077282E-01
 T,EIJ(AB): I=   3 J=   5      0.3376572E-02     -0.1074906E-01
 T,EIJ(AB): I=   4 J=   1      0.1483814E-02     -0.8081929E-02
 T,EIJ(AB): I=   4 J=   2      0.3245665E-02     -0.1117576E-01
 T,EIJ(AB): I=   4 J=   3      0.7114750E-02     -0.1824539E-01
 T,EIJ(AB): I=   4 J=   4      0.4000485E-02     -0.1110818E-01
 T,EIJ(AB): I=   4 J=   5      0.4886419E-02     -0.1185432E-01
 T,EIJ(AB): I=   5 J=   1      0.2310779E-02     -0.1090997E-01
 T,EIJ(AB): I=   5 J=   2      0.2891619E-02     -0.8318101E-02
 T,EIJ(AB): I=   5 J=   3      0.4456701E-02     -0.1041488E-01
 T,EIJ(AB): I=   5 J=   4      0.8280952E-02     -0.1695133E-01
 T,EIJ(AB): I=   5 J=   5      0.1661405E-01     -0.3175615E-01
 T,EIJ(AB): I=   6 J=   1      0.5951058E-03     -0.2974536E-02
 T,EIJ(AB): I=   6 J=   2      0.3676061E-02     -0.8700501E-02
 T,EIJ(AB): I=   6 J=   3      0.4421524E-02     -0.9228261E-02
 T,EIJ(AB): I=   6 J=   4      0.2878604E-02     -0.8073557E-02
 T,EIJ(AB): I=   6 J=   5      0.2429584E-02     -0.5423019E-02
 Actual    scratch disk usage=  2715540372 words.
 GetIJB would need an additional  1714772720 words of memory to use all   8 processors.
 JobTyp=3 Pass  1:  I=   1 to   5 NPSUse=  1 ParTrn=F ParDer=F DoDerP=F.
 (rs|ai) integrals will be sorted in core.
 T,EIJ(BB): I=   1 J=   2      0.3229578E-03     -0.1513456E-02
 T,EIJ(BB): I=   1 J=   3      0.3351426E-03     -0.1632421E-02
 T,EIJ(BB): I=   1 J=   4      0.7911054E-03     -0.3427065E-02
 T,EIJ(BB): I=   1 J=   5      0.9027673E-03     -0.3548763E-02
 T,EIJ(BB): I=   2 J=   3      0.5496376E-03     -0.1451765E-02
 T,EIJ(BB): I=   2 J=   4      0.1495775E-02     -0.4619963E-02
 T,EIJ(BB): I=   2 J=   5      0.1674027E-02     -0.4738589E-02
 T,EIJ(BB): I=   3 J=   4      0.3165450E-02     -0.7573531E-02
 T,EIJ(BB): I=   3 J=   5      0.4048040E-02     -0.8437022E-02
 T,EIJ(BB): I=   4 J=   5      0.6390739E-02     -0.1264510E-01
 Spin components of T(2) and E(2):
     alpha-alpha T2 =       0.1799067882D-01 E2=     -0.5107454438D-01
     alpha-beta  T2 =       0.1039442407D+00 E2=     -0.3108386745D+00
     beta-beta   T2 =       0.1967564279D-01 E2=     -0.4958767541D-01
 ANorm=    0.1069659932D+01
 E2 =    -0.4144407263D+00 EUMP2 =    -0.23095098685942D+04

 Complete Basis Set (CBS) Extrapolation:
 M. R. Nyden and G. A. Petersson, JCP 75, 1843 (1981)
 G. A. Petersson and M. A. Al-Laham, JCP 94, 6081 (1991)
 G. A. Petersson, T. Tensfeldt, and J. A. Montgomery, JCP 94, 6091 (1991)
 J. A. Montgomery, J. W. Ochterski, and G. A. Petersson, JCP 101, 5900 (1994)
 
 Minimum Number of PNO for Extrapolation =  25
 Absolute Overlaps: IRadAn =         5
 LocTrn: ILocal=3 LocCor=F DoCore=F.
 Entering OneElI...
 Overlap between basis sets.
 Requested accuracy = 0.1000D-12
 PrsmSu:  NPrtUS=   1 ThrOK=F IAlg=1 NPAlg=1 LenDen=           0.
 Prism:   IPart=     0 DynPar=F LinDyn=F Incr=           1.
 PRISM was handed  1609350836 working-precision words and    62 shell-pairs
 IPart=  0 NShTot=          62 NBatch=          15 AvBLen=         4.1
 PrSmSu:  NxtVal=              2.
 CnvPC2: ToCart=F DoDens=F IPureD=0 IPureF=0.
 Transformed matrix in CnvPC2: 
                 1             2             3             4             5 
      1   0.100000D+01  0.403730D+00  0.000000D+00  0.000000D+00  0.000000D+00
      2   0.403730D+00  0.100000D+01  0.000000D+00  0.000000D+00  0.000000D+00
      3   0.000000D+00  0.000000D+00  0.100000D+01  0.000000D+00  0.000000D+00
      4   0.000000D+00  0.000000D+00  0.000000D+00  0.100000D+01  0.000000D+00
      5   0.000000D+00  0.000000D+00  0.000000D+00  0.000000D+00  0.100000D+01
      6   0.292129D-01  0.339068D+00  0.000000D+00  0.000000D+00  0.000000D+00
      7   0.000000D+00  0.000000D+00  0.351981D+00  0.000000D+00  0.000000D+00
      8   0.000000D+00  0.000000D+00  0.000000D+00  0.351981D+00  0.000000D+00
      9   0.000000D+00  0.000000D+00  0.000000D+00  0.000000D+00  0.351981D+00
     10   0.000000D+00  0.000000D+00  0.000000D+00  0.000000D+00  0.000000D+00
     11   0.000000D+00  0.000000D+00  0.000000D+00  0.000000D+00  0.000000D+00
     12   0.000000D+00  0.000000D+00  0.000000D+00  0.000000D+00  0.000000D+00
     13   0.000000D+00  0.000000D+00  0.000000D+00  0.000000D+00  0.000000D+00
     14   0.000000D+00  0.000000D+00  0.000000D+00  0.000000D+00  0.000000D+00
     15  -0.382798D-03  0.488481D-02  0.000000D+00  0.000000D+00  0.000000D+00
     16   0.000000D+00  0.000000D+00  0.130758D-01  0.000000D+00  0.000000D+00
     17   0.000000D+00  0.000000D+00  0.000000D+00  0.130758D-01  0.000000D+00
     18   0.000000D+00  0.000000D+00  0.000000D+00  0.000000D+00  0.130758D-01
     19   0.000000D+00  0.000000D+00  0.000000D+00  0.000000D+00  0.000000D+00
     20   0.000000D+00  0.000000D+00  0.000000D+00  0.000000D+00  0.000000D+00
     21   0.000000D+00  0.000000D+00  0.000000D+00  0.000000D+00  0.000000D+00
     22   0.000000D+00  0.000000D+00  0.000000D+00  0.000000D+00  0.000000D+00
     23   0.000000D+00  0.000000D+00  0.000000D+00  0.000000D+00  0.000000D+00
     24   0.000000D+00  0.000000D+00  0.000000D+00  0.000000D+00  0.000000D+00
     25   0.505673D-03  0.321750D-02  0.000000D+00  0.000000D+00 -0.122686D-02
     26   0.000000D+00  0.000000D+00  0.363763D-03  0.000000D+00  0.000000D+00
     27   0.000000D+00  0.000000D+00  0.000000D+00  0.363763D-03  0.000000D+00
     28   0.107212D-02  0.669749D-02  0.000000D+00  0.000000D+00 -0.221823D-02
                 6             7             8             9            10 
      1   0.292129D-01  0.000000D+00  0.000000D+00  0.000000D+00  0.000000D+00
      2   0.339068D+00  0.000000D+00  0.000000D+00  0.000000D+00  0.000000D+00
      3   0.000000D+00  0.351981D+00  0.000000D+00  0.000000D+00  0.000000D+00
      4   0.000000D+00  0.000000D+00  0.351981D+00  0.000000D+00  0.000000D+00
      5   0.000000D+00  0.000000D+00  0.000000D+00  0.351981D+00  0.000000D+00
      6   0.100000D+01  0.000000D+00  0.000000D+00  0.000000D+00  0.000000D+00
      7   0.000000D+00  0.100000D+01  0.000000D+00  0.000000D+00  0.000000D+00
      8   0.000000D+00  0.000000D+00  0.100000D+01  0.000000D+00  0.000000D+00
      9   0.000000D+00  0.000000D+00  0.000000D+00  0.100000D+01  0.000000D+00
     10   0.000000D+00  0.000000D+00  0.000000D+00  0.000000D+00  0.100000D+01
     11   0.000000D+00  0.000000D+00  0.000000D+00  0.000000D+00  0.000000D+00
     12   0.000000D+00  0.000000D+00  0.000000D+00  0.000000D+00  0.000000D+00
     13   0.000000D+00  0.000000D+00  0.000000D+00  0.000000D+00  0.000000D+00
     14   0.000000D+00  0.000000D+00  0.000000D+00  0.000000D+00  0.000000D+00
     15   0.195676D+00  0.000000D+00  0.000000D+00  0.000000D+00  0.000000D+00
     16   0.000000D+00  0.212222D+00  0.000000D+00  0.000000D+00  0.000000D+00
     17   0.000000D+00  0.000000D+00  0.212222D+00  0.000000D+00  0.000000D+00
     18   0.000000D+00  0.000000D+00  0.000000D+00  0.212222D+00  0.000000D+00
     19   0.000000D+00  0.000000D+00  0.000000D+00  0.000000D+00  0.556204D-01
     20   0.000000D+00  0.000000D+00  0.000000D+00  0.000000D+00  0.000000D+00
     21   0.000000D+00  0.000000D+00  0.000000D+00  0.000000D+00  0.000000D+00
     22   0.000000D+00  0.000000D+00  0.000000D+00  0.000000D+00  0.000000D+00
     23   0.000000D+00  0.000000D+00  0.000000D+00  0.000000D+00  0.000000D+00
     24   0.000000D+00  0.000000D+00  0.000000D+00 -0.134844D-05  0.302165D-05
     25   0.229429D-01  0.000000D+00  0.000000D+00 -0.221059D-01  0.122123D-01
     26   0.000000D+00  0.666217D-02  0.000000D+00  0.000000D+00  0.000000D+00
     27   0.000000D+00  0.000000D+00  0.666217D-02  0.000000D+00  0.000000D+00
     28   0.424012D-01  0.000000D+00  0.000000D+00 -0.368053D-01  0.188027D-01
                11            12            13            14            15 
      1   0.000000D+00  0.000000D+00  0.000000D+00  0.000000D+00 -0.382798D-03
      2   0.000000D+00  0.000000D+00  0.000000D+00  0.000000D+00  0.488481D-02
      3   0.000000D+00  0.000000D+00  0.000000D+00  0.000000D+00  0.000000D+00
      4   0.000000D+00  0.000000D+00  0.000000D+00  0.000000D+00  0.000000D+00
      5   0.000000D+00  0.000000D+00  0.000000D+00  0.000000D+00  0.000000D+00
      6   0.000000D+00  0.000000D+00  0.000000D+00  0.000000D+00  0.195676D+00
      7   0.000000D+00  0.000000D+00  0.000000D+00  0.000000D+00  0.000000D+00
      8   0.000000D+00  0.000000D+00  0.000000D+00  0.000000D+00  0.000000D+00
      9   0.000000D+00  0.000000D+00  0.000000D+00  0.000000D+00  0.000000D+00
     10   0.000000D+00  0.000000D+00  0.000000D+00  0.000000D+00  0.000000D+00
     11   0.100000D+01  0.000000D+00  0.000000D+00  0.000000D+00  0.000000D+00
     12   0.000000D+00  0.100000D+01  0.000000D+00  0.000000D+00  0.000000D+00
     13   0.000000D+00  0.000000D+00  0.100000D+01  0.000000D+00  0.000000D+00
     14   0.000000D+00  0.000000D+00  0.000000D+00  0.100000D+01  0.000000D+00
     15   0.000000D+00  0.000000D+00  0.000000D+00  0.000000D+00  0.100000D+01
     16   0.000000D+00  0.000000D+00  0.000000D+00  0.000000D+00  0.000000D+00
     17   0.000000D+00  0.000000D+00  0.000000D+00  0.000000D+00  0.000000D+00
     18   0.000000D+00  0.000000D+00  0.000000D+00  0.000000D+00  0.000000D+00
     19   0.000000D+00  0.000000D+00  0.000000D+00  0.000000D+00  0.000000D+00
     20   0.556204D-01  0.000000D+00  0.000000D+00  0.000000D+00  0.000000D+00
     21   0.000000D+00  0.556204D-01  0.000000D+00  0.000000D+00  0.000000D+00
     22   0.000000D+00  0.000000D+00  0.556204D-01  0.000000D+00  0.000000D+00
     23   0.000000D+00  0.000000D+00  0.000000D+00  0.556204D-01  0.000000D+00
     24   0.000000D+00  0.000000D+00  0.000000D+00  0.000000D+00  0.266896D-01
     25   0.000000D+00  0.000000D+00  0.000000D+00  0.000000D+00  0.268925D+00
     26  -0.650265D-02  0.000000D+00  0.000000D+00  0.000000D+00  0.000000D+00
     27   0.000000D+00 -0.650265D-02  0.000000D+00  0.000000D+00  0.000000D+00
     28   0.000000D+00  0.000000D+00  0.000000D+00  0.000000D+00  0.217381D+00
                16            17            18            19            20 
      1   0.000000D+00  0.000000D+00  0.000000D+00  0.000000D+00  0.000000D+00
      2   0.000000D+00  0.000000D+00  0.000000D+00  0.000000D+00  0.000000D+00
      3   0.130758D-01  0.000000D+00  0.000000D+00  0.000000D+00  0.000000D+00
      4   0.000000D+00  0.130758D-01  0.000000D+00  0.000000D+00  0.000000D+00
      5   0.000000D+00  0.000000D+00  0.130758D-01  0.000000D+00  0.000000D+00
      6   0.000000D+00  0.000000D+00  0.000000D+00  0.000000D+00  0.000000D+00
      7   0.212222D+00  0.000000D+00  0.000000D+00  0.000000D+00  0.000000D+00
      8   0.000000D+00  0.212222D+00  0.000000D+00  0.000000D+00  0.000000D+00
      9   0.000000D+00  0.000000D+00  0.212222D+00  0.000000D+00  0.000000D+00
     10   0.000000D+00  0.000000D+00  0.000000D+00  0.556204D-01  0.000000D+00
     11   0.000000D+00  0.000000D+00  0.000000D+00  0.000000D+00  0.556204D-01
     12   0.000000D+00  0.000000D+00  0.000000D+00  0.000000D+00  0.000000D+00
     13   0.000000D+00  0.000000D+00  0.000000D+00  0.000000D+00  0.000000D+00
     14   0.000000D+00  0.000000D+00  0.000000D+00  0.000000D+00  0.000000D+00
     15   0.000000D+00  0.000000D+00  0.000000D+00  0.000000D+00  0.000000D+00
     16   0.100000D+01  0.000000D+00  0.000000D+00  0.000000D+00  0.000000D+00
     17   0.000000D+00  0.100000D+01  0.000000D+00  0.000000D+00  0.000000D+00
     18   0.000000D+00  0.000000D+00  0.100000D+01  0.000000D+00  0.000000D+00
     19   0.000000D+00  0.000000D+00  0.000000D+00  0.100000D+01  0.000000D+00
     20   0.000000D+00  0.000000D+00  0.000000D+00  0.000000D+00  0.100000D+01
     21   0.000000D+00  0.000000D+00  0.000000D+00  0.000000D+00  0.000000D+00
     22   0.000000D+00  0.000000D+00  0.000000D+00  0.000000D+00  0.000000D+00
     23   0.000000D+00  0.000000D+00  0.000000D+00  0.000000D+00  0.000000D+00
     24   0.000000D+00  0.000000D+00 -0.449690D-01  0.880074D-01  0.000000D+00
     25   0.000000D+00  0.000000D+00 -0.390937D+00  0.498839D+00  0.000000D+00
     26   0.135314D+00  0.000000D+00  0.000000D+00  0.000000D+00 -0.312292D+00
     27   0.000000D+00  0.135314D+00  0.000000D+00  0.000000D+00  0.000000D+00
     28   0.000000D+00  0.000000D+00 -0.287147D+00  0.817162D-01  0.000000D+00
                21            22            23            24            25 
      1   0.000000D+00  0.000000D+00  0.000000D+00  0.000000D+00  0.505673D-03
      2   0.000000D+00  0.000000D+00  0.000000D+00  0.000000D+00  0.321750D-02
      3   0.000000D+00  0.000000D+00  0.000000D+00  0.000000D+00  0.000000D+00
      4   0.000000D+00  0.000000D+00  0.000000D+00  0.000000D+00  0.000000D+00
      5   0.000000D+00  0.000000D+00  0.000000D+00  0.000000D+00 -0.122686D-02
      6   0.000000D+00  0.000000D+00  0.000000D+00  0.000000D+00  0.229429D-01
      7   0.000000D+00  0.000000D+00  0.000000D+00  0.000000D+00  0.000000D+00
      8   0.000000D+00  0.000000D+00  0.000000D+00  0.000000D+00  0.000000D+00
      9   0.000000D+00  0.000000D+00  0.000000D+00 -0.134844D-05 -0.221059D-01
     10   0.000000D+00  0.000000D+00  0.000000D+00  0.302165D-05  0.122123D-01
     11   0.000000D+00  0.000000D+00  0.000000D+00  0.000000D+00  0.000000D+00
     12   0.556204D-01  0.000000D+00  0.000000D+00  0.000000D+00  0.000000D+00
     13   0.000000D+00  0.556204D-01  0.000000D+00  0.000000D+00  0.000000D+00
     14   0.000000D+00  0.000000D+00  0.556204D-01  0.000000D+00  0.000000D+00
     15   0.000000D+00  0.000000D+00  0.000000D+00  0.266896D-01  0.268925D+00
     16   0.000000D+00  0.000000D+00  0.000000D+00  0.000000D+00  0.000000D+00
     17   0.000000D+00  0.000000D+00  0.000000D+00  0.000000D+00  0.000000D+00
     18   0.000000D+00  0.000000D+00  0.000000D+00 -0.449690D-01 -0.390937D+00
     19   0.000000D+00  0.000000D+00  0.000000D+00  0.880074D-01  0.498839D+00
     20   0.000000D+00  0.000000D+00  0.000000D+00  0.000000D+00  0.000000D+00
     21   0.100000D+01  0.000000D+00  0.000000D+00  0.000000D+00  0.000000D+00
     22   0.000000D+00  0.100000D+01  0.000000D+00  0.000000D+00  0.000000D+00
     23   0.000000D+00  0.000000D+00  0.100000D+01  0.000000D+00  0.000000D+00
     24   0.000000D+00  0.000000D+00  0.000000D+00  0.100000D+01  0.236704D+00
     25   0.000000D+00  0.000000D+00  0.000000D+00  0.236704D+00  0.100000D+01
     26   0.000000D+00  0.000000D+00  0.000000D+00  0.000000D+00  0.000000D+00
     27  -0.312292D+00  0.000000D+00  0.000000D+00  0.000000D+00  0.000000D+00
     28   0.000000D+00  0.000000D+00  0.000000D+00  0.000000D+00  0.000000D+00
                26            27            28 
      1   0.000000D+00  0.000000D+00  0.107212D-02
      2   0.000000D+00  0.000000D+00  0.669749D-02
      3   0.363763D-03  0.000000D+00  0.000000D+00
      4   0.000000D+00  0.363763D-03  0.000000D+00
      5   0.000000D+00  0.000000D+00 -0.221823D-02
      6   0.000000D+00  0.000000D+00  0.424012D-01
      7   0.666217D-02  0.000000D+00  0.000000D+00
      8   0.000000D+00  0.666217D-02  0.000000D+00
      9   0.000000D+00  0.000000D+00 -0.368053D-01
     10   0.000000D+00  0.000000D+00  0.188027D-01
     11  -0.650265D-02  0.000000D+00  0.000000D+00
     12   0.000000D+00 -0.650265D-02  0.000000D+00
     13   0.000000D+00  0.000000D+00  0.000000D+00
     14   0.000000D+00  0.000000D+00  0.000000D+00
     15   0.000000D+00  0.000000D+00  0.217381D+00
     16   0.135314D+00  0.000000D+00  0.000000D+00
     17   0.000000D+00  0.135314D+00  0.000000D+00
     18   0.000000D+00  0.000000D+00 -0.287147D+00
     19   0.000000D+00  0.000000D+00  0.817162D-01
     20  -0.312292D+00  0.000000D+00  0.000000D+00
     21   0.000000D+00 -0.312292D+00  0.000000D+00
     22   0.000000D+00  0.000000D+00  0.000000D+00
     23   0.000000D+00  0.000000D+00  0.000000D+00
     24   0.000000D+00  0.000000D+00  0.000000D+00
     25   0.000000D+00  0.000000D+00  0.000000D+00
     26   0.100000D+01  0.000000D+00  0.000000D+00
     27   0.000000D+00  0.100000D+01  0.000000D+00
     28   0.000000D+00  0.000000D+00  0.100000D+01
 Entering OneElI...
 Overlap between basis sets.
 Requested accuracy = 0.1000D-12
 PrsmSu:  NPrtUS=   1 ThrOK=F IAlg=1 NPAlg=1 LenDen=           0.
 Prism:   IPart=     0 DynPar=F LinDyn=F Incr=           7.
 PRISM was handed  1608400572 working-precision words and   722 shell-pairs
 IPart=  0 NShTot=         722 NBatch=          99 AvBLen=         7.3
 PrSmSu:  NxtVal=              8.
 CnvPC2: ToCart=F DoDens=F IPureD=0 IPureF=0.
 Transformed matrix in CnvPC2: 
                 1             2             3             4             5 
      1   0.999796D+00  0.411773D+00  0.000000D+00  0.000000D+00  0.000000D+00
      2   0.289972D+00  0.988508D+00  0.000000D+00  0.000000D+00  0.000000D+00
      3   0.000000D+00  0.000000D+00  0.999253D+00  0.000000D+00  0.000000D+00
      4   0.000000D+00  0.000000D+00  0.000000D+00  0.999253D+00  0.000000D+00
      5   0.000000D+00  0.000000D+00  0.000000D+00  0.000000D+00  0.999253D+00
      6   0.134764D-01  0.325040D+00  0.000000D+00  0.000000D+00  0.000000D+00
      7   0.000000D+00  0.000000D+00  0.349152D+00  0.000000D+00  0.000000D+00
      8   0.000000D+00  0.000000D+00  0.000000D+00  0.349152D+00  0.000000D+00
      9   0.000000D+00  0.000000D+00  0.000000D+00  0.000000D+00  0.349152D+00
     10   0.000000D+00  0.000000D+00  0.000000D+00  0.000000D+00  0.000000D+00
     11   0.000000D+00  0.000000D+00  0.000000D+00  0.000000D+00  0.000000D+00
     12   0.000000D+00  0.000000D+00  0.000000D+00  0.000000D+00  0.000000D+00
     13   0.000000D+00  0.000000D+00  0.000000D+00  0.000000D+00  0.000000D+00
     14   0.000000D+00  0.000000D+00  0.000000D+00  0.000000D+00  0.000000D+00
     15   0.136505D-03  0.112901D-01  0.000000D+00  0.000000D+00  0.000000D+00
     16   0.438220D-02  0.266691D-01  0.000000D+00  0.000000D+00  0.000000D+00
     17   0.000000D+00  0.000000D+00  0.817497D-02  0.000000D+00  0.000000D+00
     18   0.000000D+00  0.000000D+00  0.000000D+00  0.817497D-02  0.000000D+00
     19   0.000000D+00  0.000000D+00  0.000000D+00  0.000000D+00  0.817497D-02
     20   0.000000D+00  0.000000D+00  0.116279D-02  0.000000D+00  0.000000D+00
     21   0.000000D+00  0.000000D+00  0.000000D+00  0.116279D-02  0.000000D+00
     22   0.000000D+00  0.000000D+00  0.000000D+00  0.000000D+00  0.116279D-02
     23   0.148177D+00  0.678734D+00  0.000000D+00  0.000000D+00  0.000000D+00
     24   0.955899D-01  0.493951D+00  0.000000D+00  0.000000D+00  0.000000D+00
     25   0.611725D-01  0.339847D+00  0.000000D+00  0.000000D+00  0.000000D+00
     26   0.389725D-01  0.225748D+00  0.000000D+00  0.000000D+00  0.000000D+00
     27   0.247680D-01  0.146878D+00  0.000000D+00  0.000000D+00  0.000000D+00
     28   0.157195D-01  0.944404D-01  0.000000D+00  0.000000D+00  0.000000D+00
     29   0.000000D+00  0.000000D+00  0.206184D+00  0.000000D+00  0.000000D+00
     30   0.000000D+00  0.000000D+00  0.000000D+00  0.206184D+00  0.000000D+00
     31   0.000000D+00  0.000000D+00  0.000000D+00  0.000000D+00  0.206184D+00
     32   0.000000D+00  0.000000D+00  0.120751D+00  0.000000D+00  0.000000D+00
     33   0.000000D+00  0.000000D+00  0.000000D+00  0.120751D+00  0.000000D+00
     34   0.000000D+00  0.000000D+00  0.000000D+00  0.000000D+00  0.120751D+00
     35   0.000000D+00  0.000000D+00  0.681853D-01  0.000000D+00  0.000000D+00
     36   0.000000D+00  0.000000D+00  0.000000D+00  0.681853D-01  0.000000D+00
     37   0.000000D+00  0.000000D+00  0.000000D+00  0.000000D+00  0.681853D-01
     38   0.000000D+00  0.000000D+00  0.375966D-01  0.000000D+00  0.000000D+00
     39   0.000000D+00  0.000000D+00  0.000000D+00  0.375966D-01  0.000000D+00
     40   0.000000D+00  0.000000D+00  0.000000D+00  0.000000D+00  0.375966D-01
     41   0.000000D+00  0.000000D+00  0.204200D-01  0.000000D+00  0.000000D+00
     42   0.000000D+00  0.000000D+00  0.000000D+00  0.204200D-01  0.000000D+00
     43   0.000000D+00  0.000000D+00  0.000000D+00  0.000000D+00  0.204200D-01
     44   0.000000D+00  0.000000D+00  0.109874D-01  0.000000D+00  0.000000D+00
     45   0.000000D+00  0.000000D+00  0.000000D+00  0.109874D-01  0.000000D+00
     46   0.000000D+00  0.000000D+00  0.000000D+00  0.000000D+00  0.109874D-01
     47   0.000000D+00  0.000000D+00  0.000000D+00  0.000000D+00  0.000000D+00
     48   0.000000D+00  0.000000D+00  0.000000D+00  0.000000D+00  0.000000D+00
     49   0.000000D+00  0.000000D+00  0.000000D+00  0.000000D+00  0.000000D+00
     50   0.000000D+00  0.000000D+00  0.000000D+00  0.000000D+00  0.000000D+00
     51   0.000000D+00  0.000000D+00  0.000000D+00  0.000000D+00  0.000000D+00
     52   0.000000D+00  0.000000D+00  0.000000D+00  0.000000D+00  0.000000D+00
     53   0.000000D+00  0.000000D+00  0.000000D+00  0.000000D+00  0.000000D+00
     54   0.000000D+00  0.000000D+00  0.000000D+00  0.000000D+00  0.000000D+00
     55   0.000000D+00  0.000000D+00  0.000000D+00  0.000000D+00  0.000000D+00
     56   0.000000D+00  0.000000D+00  0.000000D+00  0.000000D+00  0.000000D+00
     57   0.000000D+00  0.000000D+00  0.000000D+00  0.000000D+00  0.000000D+00
     58   0.000000D+00  0.000000D+00  0.000000D+00  0.000000D+00  0.000000D+00
     59   0.000000D+00  0.000000D+00  0.000000D+00  0.000000D+00  0.000000D+00
     60   0.000000D+00  0.000000D+00  0.000000D+00  0.000000D+00  0.000000D+00
     61   0.000000D+00  0.000000D+00  0.000000D+00  0.000000D+00  0.000000D+00
     62   0.000000D+00  0.000000D+00  0.000000D+00  0.000000D+00  0.000000D+00
     63   0.000000D+00  0.000000D+00  0.000000D+00  0.000000D+00  0.000000D+00
     64   0.000000D+00  0.000000D+00  0.000000D+00  0.000000D+00  0.000000D+00
     65   0.000000D+00  0.000000D+00  0.000000D+00  0.000000D+00  0.000000D+00
     66   0.000000D+00  0.000000D+00  0.000000D+00  0.000000D+00  0.000000D+00
     67   0.000000D+00  0.000000D+00  0.000000D+00  0.000000D+00  0.000000D+00
     68   0.000000D+00  0.000000D+00  0.000000D+00  0.000000D+00  0.000000D+00
     69   0.000000D+00  0.000000D+00  0.000000D+00  0.000000D+00  0.000000D+00
     70   0.000000D+00  0.000000D+00  0.000000D+00  0.000000D+00  0.000000D+00
     71   0.000000D+00  0.000000D+00  0.000000D+00  0.000000D+00  0.000000D+00
     72   0.000000D+00  0.000000D+00  0.000000D+00  0.000000D+00  0.000000D+00
     73   0.000000D+00  0.000000D+00  0.000000D+00  0.000000D+00  0.000000D+00
     74   0.000000D+00  0.000000D+00  0.000000D+00  0.000000D+00  0.000000D+00
     75   0.000000D+00  0.000000D+00  0.000000D+00  0.000000D+00  0.000000D+00
     76   0.000000D+00  0.000000D+00  0.000000D+00  0.000000D+00  0.000000D+00
     77   0.000000D+00  0.000000D+00  0.000000D+00  0.000000D+00  0.000000D+00
     78   0.000000D+00  0.000000D+00  0.000000D+00  0.000000D+00  0.000000D+00
     79   0.000000D+00  0.000000D+00  0.000000D+00  0.000000D+00  0.000000D+00
     80   0.000000D+00  0.000000D+00  0.000000D+00  0.000000D+00  0.000000D+00
     81   0.000000D+00  0.000000D+00  0.000000D+00  0.000000D+00  0.000000D+00
     82   0.000000D+00  0.000000D+00  0.000000D+00  0.000000D+00  0.000000D+00
     83   0.000000D+00  0.000000D+00  0.000000D+00  0.000000D+00  0.000000D+00
     84   0.000000D+00  0.000000D+00  0.000000D+00  0.000000D+00  0.000000D+00
     85   0.000000D+00  0.000000D+00  0.000000D+00  0.000000D+00  0.000000D+00
     86   0.000000D+00  0.000000D+00  0.000000D+00  0.000000D+00  0.000000D+00
     87   0.000000D+00  0.000000D+00  0.000000D+00  0.000000D+00  0.000000D+00
     88   0.000000D+00  0.000000D+00  0.000000D+00  0.000000D+00  0.000000D+00
     89   0.000000D+00  0.000000D+00  0.000000D+00  0.000000D+00  0.000000D+00
     90   0.000000D+00  0.000000D+00  0.000000D+00  0.000000D+00  0.000000D+00
     91   0.000000D+00  0.000000D+00  0.000000D+00  0.000000D+00  0.000000D+00
     92   0.000000D+00  0.000000D+00  0.000000D+00  0.000000D+00  0.000000D+00
     93   0.000000D+00  0.000000D+00  0.000000D+00  0.000000D+00  0.000000D+00
     94   0.000000D+00  0.000000D+00  0.000000D+00  0.000000D+00  0.000000D+00
     95   0.000000D+00  0.000000D+00  0.000000D+00  0.000000D+00  0.000000D+00
     96   0.000000D+00  0.000000D+00  0.000000D+00  0.000000D+00  0.000000D+00
     97   0.000000D+00  0.000000D+00  0.000000D+00  0.000000D+00  0.000000D+00
     98   0.000000D+00  0.000000D+00  0.000000D+00  0.000000D+00  0.000000D+00
     99   0.000000D+00  0.000000D+00  0.000000D+00  0.000000D+00  0.000000D+00
    100   0.000000D+00  0.000000D+00  0.000000D+00  0.000000D+00  0.000000D+00
    101   0.000000D+00  0.000000D+00  0.000000D+00  0.000000D+00  0.000000D+00
    102   0.000000D+00  0.000000D+00  0.000000D+00  0.000000D+00  0.000000D+00
    103   0.000000D+00  0.000000D+00  0.000000D+00  0.000000D+00  0.000000D+00
    104   0.000000D+00  0.000000D+00  0.000000D+00  0.000000D+00  0.000000D+00
    105   0.000000D+00  0.000000D+00  0.000000D+00  0.000000D+00  0.000000D+00
    106   0.000000D+00  0.000000D+00  0.000000D+00  0.000000D+00  0.000000D+00
    107   0.000000D+00  0.000000D+00  0.000000D+00  0.000000D+00  0.000000D+00
    108   0.000000D+00  0.000000D+00  0.000000D+00  0.000000D+00  0.000000D+00
    109   0.000000D+00  0.000000D+00  0.000000D+00  0.000000D+00  0.000000D+00
    110   0.000000D+00  0.000000D+00  0.000000D+00  0.000000D+00  0.000000D+00
    111   0.000000D+00  0.000000D+00  0.000000D+00  0.000000D+00  0.000000D+00
    112   0.000000D+00  0.000000D+00  0.000000D+00  0.000000D+00  0.000000D+00
    113   0.000000D+00  0.000000D+00  0.000000D+00  0.000000D+00  0.000000D+00
    114   0.000000D+00  0.000000D+00  0.000000D+00  0.000000D+00  0.000000D+00
    115   0.000000D+00  0.000000D+00  0.000000D+00  0.000000D+00  0.000000D+00
    116   0.000000D+00  0.000000D+00  0.000000D+00  0.000000D+00  0.000000D+00
    117   0.000000D+00  0.000000D+00  0.000000D+00  0.000000D+00  0.000000D+00
    118   0.000000D+00  0.000000D+00  0.000000D+00  0.000000D+00  0.000000D+00
    119   0.000000D+00  0.000000D+00  0.000000D+00  0.000000D+00  0.000000D+00
    120   0.000000D+00  0.000000D+00  0.000000D+00  0.000000D+00  0.000000D+00
    121   0.000000D+00  0.000000D+00  0.000000D+00  0.000000D+00  0.000000D+00
    122   0.000000D+00  0.000000D+00  0.000000D+00  0.000000D+00  0.000000D+00
    123   0.000000D+00  0.000000D+00  0.000000D+00  0.000000D+00  0.000000D+00
    124   0.000000D+00  0.000000D+00  0.000000D+00  0.000000D+00  0.000000D+00
    125   0.000000D+00  0.000000D+00  0.000000D+00  0.000000D+00  0.000000D+00
    126   0.000000D+00  0.000000D+00  0.000000D+00  0.000000D+00  0.000000D+00
    127   0.000000D+00  0.000000D+00  0.000000D+00  0.000000D+00  0.000000D+00
    128   0.000000D+00  0.000000D+00  0.000000D+00  0.000000D+00  0.000000D+00
    129   0.000000D+00  0.000000D+00  0.000000D+00  0.000000D+00  0.000000D+00
    130   0.000000D+00  0.000000D+00  0.000000D+00  0.000000D+00  0.000000D+00
    131   0.000000D+00  0.000000D+00  0.000000D+00  0.000000D+00  0.000000D+00
    132   0.000000D+00  0.000000D+00  0.000000D+00  0.000000D+00  0.000000D+00
    133   0.000000D+00  0.000000D+00  0.000000D+00  0.000000D+00  0.000000D+00
    134   0.000000D+00  0.000000D+00  0.000000D+00  0.000000D+00  0.000000D+00
    135   0.000000D+00  0.000000D+00  0.000000D+00  0.000000D+00  0.000000D+00
    136   0.000000D+00  0.000000D+00  0.000000D+00  0.000000D+00  0.000000D+00
    137   0.000000D+00  0.000000D+00  0.000000D+00  0.000000D+00  0.000000D+00
    138   0.000000D+00  0.000000D+00  0.000000D+00  0.000000D+00  0.000000D+00
    139   0.000000D+00  0.000000D+00  0.000000D+00  0.000000D+00  0.000000D+00
    140   0.000000D+00  0.000000D+00  0.000000D+00  0.000000D+00  0.000000D+00
    141   0.000000D+00  0.000000D+00  0.000000D+00  0.000000D+00  0.000000D+00
    142   0.000000D+00  0.000000D+00  0.000000D+00  0.000000D+00  0.000000D+00
    143   0.000000D+00  0.000000D+00  0.000000D+00  0.000000D+00  0.000000D+00
    144   0.000000D+00  0.000000D+00  0.000000D+00  0.000000D+00  0.000000D+00
    145   0.000000D+00  0.000000D+00  0.000000D+00  0.000000D+00  0.000000D+00
    146   0.000000D+00  0.000000D+00  0.000000D+00  0.000000D+00  0.000000D+00
    147   0.000000D+00  0.000000D+00  0.000000D+00  0.000000D+00  0.000000D+00
    148   0.000000D+00  0.000000D+00  0.000000D+00  0.000000D+00  0.000000D+00
    149   0.000000D+00  0.000000D+00  0.000000D+00  0.000000D+00  0.000000D+00
    150   0.000000D+00  0.000000D+00  0.000000D+00  0.000000D+00  0.000000D+00
    151   0.000000D+00  0.000000D+00  0.000000D+00  0.000000D+00  0.000000D+00
    152   0.000000D+00  0.000000D+00  0.000000D+00  0.000000D+00  0.000000D+00
    153   0.000000D+00  0.000000D+00  0.000000D+00  0.000000D+00  0.000000D+00
    154   0.000000D+00  0.000000D+00  0.000000D+00  0.000000D+00  0.000000D+00
    155   0.000000D+00  0.000000D+00  0.000000D+00  0.000000D+00  0.000000D+00
    156   0.000000D+00  0.000000D+00  0.000000D+00  0.000000D+00  0.000000D+00
    157   0.000000D+00  0.000000D+00  0.000000D+00  0.000000D+00  0.000000D+00
    158   0.000000D+00  0.000000D+00  0.000000D+00  0.000000D+00  0.000000D+00
    159   0.000000D+00  0.000000D+00  0.000000D+00  0.000000D+00  0.000000D+00
    160   0.000000D+00  0.000000D+00  0.000000D+00  0.000000D+00  0.000000D+00
    161   0.000000D+00  0.000000D+00  0.000000D+00  0.000000D+00  0.000000D+00
    162   0.000000D+00  0.000000D+00  0.000000D+00  0.000000D+00  0.000000D+00
    163   0.000000D+00  0.000000D+00  0.000000D+00  0.000000D+00  0.000000D+00
    164   0.000000D+00  0.000000D+00  0.000000D+00  0.000000D+00  0.000000D+00
    165   0.000000D+00  0.000000D+00  0.000000D+00  0.000000D+00  0.000000D+00
    166   0.000000D+00  0.000000D+00  0.000000D+00  0.000000D+00  0.000000D+00
    167   0.000000D+00  0.000000D+00  0.000000D+00  0.000000D+00  0.000000D+00
    168   0.000000D+00  0.000000D+00  0.000000D+00  0.000000D+00  0.000000D+00
    169   0.000000D+00  0.000000D+00  0.000000D+00  0.000000D+00  0.000000D+00
    170   0.000000D+00  0.000000D+00  0.000000D+00  0.000000D+00  0.000000D+00
    171   0.000000D+00  0.000000D+00  0.000000D+00  0.000000D+00  0.000000D+00
    172   0.000000D+00  0.000000D+00  0.000000D+00  0.000000D+00  0.000000D+00
    173   0.000000D+00  0.000000D+00  0.000000D+00  0.000000D+00  0.000000D+00
    174   0.000000D+00  0.000000D+00  0.000000D+00  0.000000D+00  0.000000D+00
    175   0.000000D+00  0.000000D+00  0.000000D+00  0.000000D+00  0.000000D+00
    176   0.000000D+00  0.000000D+00  0.000000D+00  0.000000D+00  0.000000D+00
    177   0.000000D+00  0.000000D+00  0.000000D+00  0.000000D+00  0.000000D+00
    178   0.000000D+00  0.000000D+00  0.000000D+00  0.000000D+00  0.000000D+00
    179   0.000000D+00  0.000000D+00  0.000000D+00  0.000000D+00  0.000000D+00
    180   0.000000D+00  0.000000D+00  0.000000D+00  0.000000D+00  0.000000D+00
    181   0.000000D+00  0.000000D+00  0.000000D+00  0.000000D+00  0.000000D+00
    182   0.000000D+00  0.000000D+00  0.000000D+00  0.000000D+00  0.000000D+00
    183   0.000000D+00  0.000000D+00  0.000000D+00  0.000000D+00  0.000000D+00
    184   0.000000D+00  0.000000D+00  0.000000D+00  0.000000D+00  0.000000D+00
    185   0.000000D+00  0.000000D+00  0.000000D+00  0.000000D+00  0.000000D+00
    186   0.000000D+00  0.000000D+00  0.000000D+00  0.000000D+00  0.000000D+00
    187   0.000000D+00  0.000000D+00  0.000000D+00  0.000000D+00  0.000000D+00
    188   0.000000D+00  0.000000D+00  0.000000D+00  0.000000D+00  0.000000D+00
    189   0.000000D+00  0.000000D+00  0.000000D+00  0.000000D+00  0.000000D+00
    190   0.000000D+00  0.000000D+00  0.000000D+00  0.000000D+00  0.000000D+00
    191   0.000000D+00  0.000000D+00  0.000000D+00  0.000000D+00  0.000000D+00
    192   0.000000D+00  0.000000D+00  0.000000D+00  0.000000D+00  0.000000D+00
    193   0.000000D+00  0.000000D+00  0.000000D+00  0.000000D+00  0.000000D+00
    194   0.000000D+00  0.000000D+00  0.000000D+00  0.000000D+00  0.000000D+00
    195   0.000000D+00  0.000000D+00  0.000000D+00  0.000000D+00  0.000000D+00
    196   0.000000D+00  0.000000D+00  0.000000D+00  0.000000D+00  0.000000D+00
    197   0.000000D+00  0.000000D+00  0.000000D+00  0.000000D+00  0.000000D+00
    198   0.000000D+00  0.000000D+00  0.000000D+00  0.000000D+00  0.000000D+00
    199   0.000000D+00  0.000000D+00  0.000000D+00  0.000000D+00  0.000000D+00
    200   0.000000D+00  0.000000D+00  0.000000D+00  0.000000D+00  0.000000D+00
    201   0.000000D+00  0.000000D+00  0.000000D+00  0.000000D+00  0.000000D+00
    202   0.000000D+00  0.000000D+00  0.000000D+00  0.000000D+00  0.000000D+00
    203   0.000000D+00  0.000000D+00  0.000000D+00  0.000000D+00  0.000000D+00
    204   0.000000D+00  0.000000D+00  0.000000D+00  0.000000D+00  0.000000D+00
    205   0.000000D+00  0.000000D+00  0.000000D+00  0.000000D+00  0.000000D+00
    206   0.000000D+00  0.000000D+00  0.000000D+00  0.000000D+00  0.000000D+00
    207   0.000000D+00  0.000000D+00  0.000000D+00  0.000000D+00  0.000000D+00
    208   0.000000D+00  0.000000D+00  0.000000D+00  0.000000D+00  0.000000D+00
    209   0.000000D+00  0.000000D+00  0.000000D+00  0.000000D+00  0.000000D+00
    210   0.000000D+00  0.000000D+00  0.000000D+00  0.000000D+00  0.000000D+00
    211   0.000000D+00  0.000000D+00  0.000000D+00  0.000000D+00  0.000000D+00
    212   0.000000D+00  0.000000D+00  0.000000D+00  0.000000D+00  0.000000D+00
    213   0.000000D+00  0.000000D+00  0.000000D+00  0.000000D+00  0.000000D+00
    214   0.000000D+00  0.000000D+00  0.000000D+00  0.000000D+00  0.000000D+00
    215   0.000000D+00  0.000000D+00  0.000000D+00  0.000000D+00  0.000000D+00
    216   0.000000D+00  0.000000D+00  0.000000D+00  0.000000D+00  0.000000D+00
    217   0.000000D+00  0.000000D+00  0.000000D+00  0.000000D+00  0.000000D+00
    218   0.000000D+00  0.000000D+00  0.000000D+00  0.000000D+00  0.000000D+00
    219   0.000000D+00  0.000000D+00  0.000000D+00  0.000000D+00  0.000000D+00
    220   0.000000D+00  0.000000D+00  0.000000D+00  0.000000D+00  0.000000D+00
    221   0.000000D+00  0.000000D+00  0.000000D+00  0.000000D+00  0.000000D+00
    222   0.000000D+00  0.000000D+00  0.000000D+00  0.000000D+00  0.000000D+00
    223   0.000000D+00  0.000000D+00  0.000000D+00  0.000000D+00  0.000000D+00
    224   0.000000D+00  0.000000D+00  0.000000D+00  0.000000D+00  0.000000D+00
    225   0.000000D+00  0.000000D+00  0.000000D+00  0.000000D+00  0.000000D+00
    226   0.000000D+00  0.000000D+00  0.000000D+00  0.000000D+00  0.000000D+00
    227   0.000000D+00  0.000000D+00  0.000000D+00  0.000000D+00  0.000000D+00
    228   0.000000D+00  0.000000D+00  0.000000D+00  0.000000D+00  0.000000D+00
    229   0.000000D+00  0.000000D+00  0.000000D+00  0.000000D+00  0.000000D+00
    230   0.000000D+00  0.000000D+00  0.000000D+00  0.000000D+00  0.000000D+00
    231   0.000000D+00  0.000000D+00  0.000000D+00  0.000000D+00  0.000000D+00
    232   0.000000D+00  0.000000D+00  0.000000D+00  0.000000D+00  0.000000D+00
    233   0.000000D+00  0.000000D+00  0.000000D+00  0.000000D+00  0.000000D+00
    234   0.000000D+00  0.000000D+00  0.000000D+00  0.000000D+00  0.000000D+00
    235   0.000000D+00  0.000000D+00  0.000000D+00  0.000000D+00  0.000000D+00
    236   0.000000D+00  0.000000D+00  0.000000D+00  0.000000D+00  0.000000D+00
    237   0.000000D+00  0.000000D+00  0.000000D+00  0.000000D+00  0.000000D+00
    238   0.000000D+00  0.000000D+00  0.000000D+00  0.000000D+00  0.000000D+00
    239   0.000000D+00  0.000000D+00  0.000000D+00  0.000000D+00  0.000000D+00
    240   0.000000D+00  0.000000D+00  0.000000D+00  0.000000D+00  0.000000D+00
    241   0.000000D+00  0.000000D+00  0.000000D+00  0.000000D+00  0.000000D+00
    242   0.000000D+00  0.000000D+00  0.000000D+00  0.000000D+00  0.000000D+00
    243   0.000000D+00  0.000000D+00  0.000000D+00  0.000000D+00  0.000000D+00
    244   0.000000D+00  0.000000D+00  0.000000D+00  0.000000D+00  0.000000D+00
    245   0.000000D+00  0.000000D+00  0.000000D+00  0.000000D+00  0.000000D+00
    246   0.000000D+00  0.000000D+00  0.000000D+00  0.000000D+00  0.000000D+00
    247   0.000000D+00  0.000000D+00  0.000000D+00  0.000000D+00  0.000000D+00
    248   0.000000D+00  0.000000D+00  0.000000D+00  0.000000D+00  0.000000D+00
    249   0.000000D+00  0.000000D+00  0.000000D+00  0.000000D+00  0.000000D+00
    250   0.000000D+00  0.000000D+00  0.000000D+00  0.000000D+00  0.000000D+00
    251   0.000000D+00  0.000000D+00  0.000000D+00  0.000000D+00  0.000000D+00
    252   0.000000D+00  0.000000D+00  0.000000D+00  0.000000D+00  0.000000D+00
    253   0.000000D+00  0.000000D+00  0.000000D+00  0.000000D+00  0.000000D+00
    254   0.000000D+00  0.000000D+00  0.000000D+00  0.000000D+00  0.000000D+00
    255   0.000000D+00  0.000000D+00  0.000000D+00  0.000000D+00  0.000000D+00
    256   0.000000D+00  0.000000D+00  0.000000D+00  0.000000D+00  0.000000D+00
    257   0.000000D+00  0.000000D+00  0.000000D+00  0.000000D+00  0.000000D+00
    258   0.000000D+00  0.000000D+00  0.000000D+00  0.000000D+00  0.000000D+00
    259   0.000000D+00  0.000000D+00  0.000000D+00  0.000000D+00  0.000000D+00
    260   0.000000D+00  0.000000D+00  0.000000D+00  0.000000D+00  0.000000D+00
    261   0.000000D+00  0.000000D+00  0.000000D+00  0.000000D+00  0.000000D+00
    262   0.000000D+00  0.000000D+00  0.000000D+00  0.000000D+00  0.000000D+00
    263   0.000000D+00  0.000000D+00  0.000000D+00  0.000000D+00  0.000000D+00
    264   0.000000D+00  0.000000D+00  0.000000D+00  0.000000D+00  0.000000D+00
    265   0.000000D+00  0.000000D+00  0.000000D+00  0.000000D+00  0.000000D+00
    266   0.000000D+00  0.000000D+00  0.000000D+00  0.000000D+00  0.000000D+00
    267   0.000000D+00  0.000000D+00  0.000000D+00  0.000000D+00  0.000000D+00
    268   0.735508D-03  0.458294D-02  0.000000D+00  0.000000D+00 -0.122568D-02
    269   0.364388D-02  0.221739D-01  0.000000D+00  0.000000D+00 -0.131738D-02
    270   0.000000D+00  0.000000D+00  0.739591D-03  0.000000D+00  0.000000D+00
    271   0.000000D+00  0.000000D+00  0.000000D+00  0.739591D-03  0.000000D+00
    272   0.221240D-02  0.135963D-01  0.000000D+00  0.000000D+00 -0.276004D-02
    273   0.000000D+00  0.000000D+00  0.139949D-02  0.000000D+00  0.000000D+00
    274   0.000000D+00  0.000000D+00  0.000000D+00  0.139949D-02  0.000000D+00
    275   0.423089D-02  0.256990D-01  0.000000D+00  0.000000D+00  0.279297D-03
    276   0.000000D+00  0.000000D+00  0.000000D+00  0.000000D+00  0.000000D+00
    277   0.000000D+00  0.000000D+00  0.000000D+00  0.000000D+00  0.000000D+00
    278   0.185080D-05  0.185609D-04  0.000000D+00  0.000000D+00 -0.189858D-04
    279   0.174016D-03  0.118615D-02  0.000000D+00  0.000000D+00 -0.657765D-03
    280   0.139811D-02  0.868854D-02  0.000000D+00  0.000000D+00 -0.251593D-02
    281   0.317088D-02  0.193338D-01  0.000000D+00  0.000000D+00 -0.288249D-02
    282   0.000000D+00  0.000000D+00  0.000000D+00  0.000000D+00  0.000000D+00
    283   0.000000D+00  0.000000D+00  0.000000D+00  0.000000D+00  0.000000D+00
    284   0.000000D+00  0.000000D+00  0.000000D+00  0.000000D+00  0.000000D+00
    285   0.000000D+00  0.000000D+00  0.000000D+00  0.000000D+00  0.000000D+00
    286   0.000000D+00  0.000000D+00  0.000000D+00  0.000000D+00  0.000000D+00
    287   0.000000D+00  0.000000D+00  0.000000D+00  0.000000D+00  0.000000D+00
    288   0.000000D+00  0.000000D+00  0.360578D-05  0.000000D+00  0.000000D+00
    289   0.000000D+00  0.000000D+00  0.000000D+00  0.360578D-05  0.000000D+00
    290   0.685176D-05  0.689258D-04  0.000000D+00  0.000000D+00 -0.708825D-04
    291   0.000000D+00  0.000000D+00  0.349827D-03  0.000000D+00  0.000000D+00
    292   0.000000D+00  0.000000D+00  0.000000D+00  0.349827D-03  0.000000D+00
    293   0.989477D-03  0.646752D-02  0.000000D+00  0.000000D+00 -0.306328D-02
    294   0.000000D+00  0.000000D+00  0.187459D-02  0.000000D+00  0.000000D+00
    295   0.000000D+00  0.000000D+00  0.000000D+00  0.187459D-02  0.000000D+00
    296   0.565810D-02  0.344291D-01  0.000000D+00  0.000000D+00 -0.658290D-02
    297   0.000000D+00  0.000000D+00  0.242098D-02  0.000000D+00  0.000000D+00
    298   0.000000D+00  0.000000D+00  0.000000D+00  0.242098D-02  0.000000D+00
    299   0.734459D-02  0.444404D-01  0.000000D+00  0.000000D+00 -0.258613D-02
    300   0.000000D+00  0.000000D+00  0.000000D+00  0.000000D+00  0.000000D+00
    301   0.000000D+00  0.000000D+00  0.000000D+00  0.000000D+00  0.000000D+00
    302   0.000000D+00  0.000000D+00  0.000000D+00  0.000000D+00  0.000000D+00
    303   0.000000D+00  0.000000D+00  0.000000D+00  0.000000D+00  0.000000D+00
    304   0.000000D+00  0.000000D+00  0.000000D+00  0.000000D+00  0.000000D+00
    305   0.000000D+00  0.000000D+00  0.000000D+00  0.000000D+00  0.000000D+00
    306   0.000000D+00  0.000000D+00  0.000000D+00  0.000000D+00  0.000000D+00
    307   0.000000D+00  0.000000D+00  0.000000D+00  0.000000D+00  0.000000D+00
    308   0.000000D+00  0.000000D+00  0.000000D+00  0.000000D+00  0.000000D+00
    309   0.000000D+00  0.000000D+00  0.000000D+00  0.000000D+00  0.000000D+00
    310   0.000000D+00  0.000000D+00  0.000000D+00  0.000000D+00  0.000000D+00
    311   0.000000D+00  0.000000D+00  0.000000D+00  0.000000D+00  0.000000D+00
    312   0.000000D+00  0.000000D+00  0.000000D+00  0.000000D+00  0.000000D+00
    313   0.000000D+00  0.000000D+00  0.000000D+00  0.000000D+00  0.000000D+00
    314   0.000000D+00  0.000000D+00  0.000000D+00  0.000000D+00  0.000000D+00
    315   0.213048D-04  0.206121D-03  0.000000D+00  0.000000D+00 -0.206409D-03
    316   0.000000D+00  0.000000D+00  0.187270D-04  0.000000D+00  0.000000D+00
    317   0.000000D+00  0.000000D+00  0.000000D+00  0.187270D-04  0.000000D+00
    318   0.000000D+00  0.000000D+00  0.000000D+00  0.000000D+00  0.000000D+00
    319   0.000000D+00  0.000000D+00  0.000000D+00  0.000000D+00  0.000000D+00
    320   0.166371D-02  0.108350D-01  0.000000D+00  0.000000D+00 -0.525419D-02
    321   0.000000D+00  0.000000D+00  0.101545D-02  0.000000D+00  0.000000D+00
    322   0.000000D+00  0.000000D+00  0.000000D+00  0.101545D-02  0.000000D+00
    323   0.000000D+00  0.000000D+00  0.000000D+00  0.000000D+00  0.000000D+00
    324   0.000000D+00  0.000000D+00  0.000000D+00  0.000000D+00  0.000000D+00
    325   0.827772D-02  0.499683D-01  0.000000D+00  0.000000D+00 -0.978869D-02
    326   0.000000D+00  0.000000D+00  0.471595D-02  0.000000D+00  0.000000D+00
    327   0.000000D+00  0.000000D+00  0.000000D+00  0.471595D-02  0.000000D+00
    328   0.000000D+00  0.000000D+00  0.000000D+00  0.000000D+00  0.000000D+00
    329   0.000000D+00  0.000000D+00  0.000000D+00  0.000000D+00  0.000000D+00
    330   0.102082D-01  0.612635D-01  0.000000D+00  0.000000D+00 -0.278064D-02
    331   0.000000D+00  0.000000D+00  0.578518D-02  0.000000D+00  0.000000D+00
    332   0.000000D+00  0.000000D+00  0.000000D+00  0.578518D-02  0.000000D+00
    333   0.000000D+00  0.000000D+00  0.000000D+00  0.000000D+00  0.000000D+00
    334   0.000000D+00  0.000000D+00  0.000000D+00  0.000000D+00  0.000000D+00
    335   0.000000D+00  0.000000D+00  0.000000D+00  0.000000D+00  0.000000D+00
    336   0.000000D+00  0.000000D+00  0.000000D+00  0.000000D+00  0.000000D+00
    337   0.000000D+00  0.000000D+00  0.000000D+00  0.000000D+00  0.000000D+00
    338   0.000000D+00  0.000000D+00  0.000000D+00  0.000000D+00  0.000000D+00
    339   0.000000D+00  0.000000D+00  0.000000D+00  0.000000D+00  0.000000D+00
    340   0.000000D+00  0.000000D+00  0.000000D+00  0.000000D+00  0.000000D+00
    341   0.000000D+00  0.000000D+00  0.000000D+00  0.000000D+00  0.000000D+00
    342   0.000000D+00  0.000000D+00  0.000000D+00  0.000000D+00  0.000000D+00
    343   0.000000D+00  0.000000D+00  0.000000D+00  0.000000D+00  0.000000D+00
    344   0.000000D+00  0.000000D+00  0.000000D+00  0.000000D+00  0.000000D+00
    345   0.000000D+00  0.000000D+00  0.000000D+00  0.000000D+00  0.000000D+00
    346   0.000000D+00  0.000000D+00  0.000000D+00  0.000000D+00  0.000000D+00
    347   0.000000D+00  0.000000D+00  0.000000D+00  0.000000D+00  0.000000D+00
    348   0.000000D+00  0.000000D+00  0.000000D+00  0.000000D+00  0.000000D+00
    349   0.000000D+00  0.106814D-04  0.000000D+00  0.000000D+00 -0.149199D-04
    350   0.000000D+00  0.000000D+00  0.132639D-05  0.000000D+00  0.000000D+00
    351   0.000000D+00  0.000000D+00  0.000000D+00  0.132639D-05  0.000000D+00
    352   0.000000D+00  0.000000D+00  0.000000D+00  0.000000D+00  0.000000D+00
    353   0.000000D+00  0.000000D+00  0.000000D+00  0.000000D+00  0.000000D+00
    354   0.000000D+00  0.000000D+00  0.000000D+00  0.000000D+00  0.000000D+00
    355   0.000000D+00  0.000000D+00  0.000000D+00  0.000000D+00  0.000000D+00
    356   0.485608D-03  0.356288D-02  0.000000D+00  0.000000D+00 -0.255228D-02
    357   0.000000D+00  0.000000D+00  0.467417D-03  0.000000D+00  0.000000D+00
    358   0.000000D+00  0.000000D+00  0.000000D+00  0.467417D-03  0.000000D+00
    359   0.000000D+00  0.000000D+00  0.000000D+00  0.000000D+00  0.000000D+00
    360   0.000000D+00  0.000000D+00  0.000000D+00  0.000000D+00  0.000000D+00
    361   0.000000D+00  0.000000D+00  0.000000D+00  0.000000D+00  0.000000D+00
    362   0.000000D+00  0.000000D+00  0.000000D+00  0.000000D+00  0.000000D+00
    363   0.714956D-02  0.434192D-01  0.000000D+00  0.000000D+00 -0.130489D-01
    364   0.000000D+00  0.000000D+00  0.579202D-02  0.000000D+00  0.000000D+00
    365   0.000000D+00  0.000000D+00  0.000000D+00  0.579202D-02  0.000000D+00
    366   0.000000D+00  0.000000D+00  0.000000D+00  0.000000D+00  0.000000D+00
    367   0.000000D+00  0.000000D+00  0.000000D+00  0.000000D+00  0.000000D+00
    368   0.000000D+00  0.000000D+00  0.000000D+00  0.000000D+00  0.000000D+00
    369   0.000000D+00  0.000000D+00  0.000000D+00  0.000000D+00  0.000000D+00
    370   0.133164D-01  0.789644D-01  0.000000D+00  0.000000D+00 -0.592924D-02
    371   0.000000D+00  0.000000D+00  0.105576D-01  0.000000D+00  0.000000D+00
    372   0.000000D+00  0.000000D+00  0.000000D+00  0.105576D-01  0.000000D+00
    373   0.000000D+00  0.000000D+00  0.000000D+00  0.000000D+00  0.000000D+00
    374   0.000000D+00  0.000000D+00  0.000000D+00  0.000000D+00  0.000000D+00
    375   0.000000D+00  0.000000D+00  0.000000D+00  0.000000D+00  0.000000D+00
    376   0.000000D+00  0.000000D+00  0.000000D+00  0.000000D+00  0.000000D+00
    377   0.000000D+00  0.000000D+00  0.000000D+00  0.000000D+00  0.000000D+00
    378   0.000000D+00  0.000000D+00  0.000000D+00  0.000000D+00  0.000000D+00
    379   0.000000D+00  0.000000D+00  0.000000D+00  0.000000D+00  0.000000D+00
    380   0.000000D+00  0.000000D+00  0.000000D+00  0.000000D+00  0.000000D+00
    381   0.000000D+00  0.000000D+00  0.000000D+00  0.000000D+00  0.000000D+00
    382   0.000000D+00  0.000000D+00  0.000000D+00  0.000000D+00  0.000000D+00
    383   0.000000D+00  0.000000D+00  0.000000D+00  0.000000D+00  0.000000D+00
    384   0.000000D+00  0.000000D+00  0.000000D+00  0.000000D+00  0.000000D+00
    385   0.000000D+00  0.000000D+00  0.000000D+00  0.000000D+00  0.000000D+00
    386   0.000000D+00  0.000000D+00  0.000000D+00  0.000000D+00  0.000000D+00
    387   0.000000D+00  0.000000D+00  0.000000D+00  0.000000D+00  0.000000D+00
    388   0.000000D+00  0.000000D+00  0.000000D+00  0.000000D+00  0.000000D+00
    389   0.000000D+00  0.000000D+00  0.000000D+00  0.000000D+00  0.000000D+00
    390   0.000000D+00  0.000000D+00  0.000000D+00  0.000000D+00  0.000000D+00
    391   0.000000D+00  0.000000D+00  0.000000D+00  0.000000D+00  0.000000D+00
    392   0.000000D+00  0.000000D+00  0.000000D+00  0.000000D+00  0.000000D+00
    393   0.000000D+00  0.000000D+00  0.000000D+00  0.000000D+00  0.000000D+00
    394   0.000000D+00  0.000000D+00  0.000000D+00  0.000000D+00  0.000000D+00
    395   0.176026D-04  0.200421D-03  0.000000D+00  0.000000D+00 -0.228849D-03
    396   0.000000D+00  0.000000D+00  0.329054D-04  0.000000D+00  0.000000D+00
    397   0.000000D+00  0.000000D+00  0.000000D+00  0.329054D-04  0.000000D+00
    398   0.000000D+00  0.000000D+00  0.000000D+00  0.000000D+00  0.000000D+00
    399   0.000000D+00  0.000000D+00  0.000000D+00  0.000000D+00  0.000000D+00
    400   0.000000D+00  0.000000D+00  0.000000D+00  0.000000D+00  0.000000D+00
    401   0.000000D+00  0.000000D+00  0.000000D+00  0.000000D+00  0.000000D+00
    402   0.000000D+00  0.000000D+00  0.000000D+00  0.000000D+00  0.000000D+00
    403   0.000000D+00  0.000000D+00  0.000000D+00  0.000000D+00  0.000000D+00
    404   0.333686D-02  0.212735D-01  0.000000D+00  0.000000D+00 -0.105104D-01
    405   0.000000D+00  0.000000D+00  0.364731D-02  0.000000D+00  0.000000D+00
    406   0.000000D+00  0.000000D+00  0.000000D+00  0.364731D-02  0.000000D+00
    407   0.000000D+00  0.000000D+00  0.000000D+00  0.000000D+00  0.000000D+00
    408   0.000000D+00  0.000000D+00  0.000000D+00  0.000000D+00  0.000000D+00
    409   0.000000D+00  0.000000D+00  0.000000D+00  0.000000D+00  0.000000D+00
    410   0.000000D+00  0.000000D+00  0.000000D+00  0.000000D+00  0.000000D+00
    411   0.000000D+00  0.000000D+00  0.000000D+00  0.000000D+00  0.000000D+00
    412   0.000000D+00  0.000000D+00  0.000000D+00  0.000000D+00  0.000000D+00
    413   0.151641D-01  0.887745D-01  0.000000D+00  0.000000D+00 -0.118797D-01
    414   0.000000D+00  0.000000D+00  0.153423D-01  0.000000D+00  0.000000D+00
    415   0.000000D+00  0.000000D+00  0.000000D+00  0.153423D-01  0.000000D+00
    416   0.000000D+00  0.000000D+00  0.000000D+00  0.000000D+00  0.000000D+00
    417   0.000000D+00  0.000000D+00  0.000000D+00  0.000000D+00  0.000000D+00
    418   0.000000D+00  0.000000D+00  0.000000D+00  0.000000D+00  0.000000D+00
    419   0.000000D+00  0.000000D+00  0.000000D+00  0.000000D+00  0.000000D+00
    420   0.000000D+00  0.000000D+00  0.000000D+00  0.000000D+00  0.000000D+00
    421   0.000000D+00  0.000000D+00  0.000000D+00  0.000000D+00  0.000000D+00
    422   0.000000D+00  0.000000D+00  0.000000D+00  0.000000D+00  0.000000D+00
    423   0.000000D+00  0.000000D+00  0.000000D+00  0.000000D+00  0.000000D+00
    424   0.000000D+00  0.000000D+00  0.000000D+00  0.000000D+00  0.000000D+00
    425   0.000000D+00  0.000000D+00  0.000000D+00  0.000000D+00  0.000000D+00
    426   0.000000D+00  0.000000D+00  0.000000D+00  0.000000D+00  0.000000D+00
    427   0.000000D+00  0.000000D+00  0.000000D+00  0.000000D+00  0.000000D+00
    428   0.000000D+00  0.000000D+00  0.000000D+00  0.000000D+00  0.000000D+00
    429   0.000000D+00  0.000000D+00  0.000000D+00  0.000000D+00  0.000000D+00
    430   0.000000D+00  0.000000D+00  0.000000D+00  0.000000D+00  0.000000D+00
    431   0.000000D+00  0.000000D+00  0.000000D+00  0.000000D+00  0.000000D+00
    432   0.000000D+00  0.000000D+00  0.000000D+00  0.000000D+00  0.000000D+00
    433   0.000000D+00  0.174042D-05  0.000000D+00  0.000000D+00 -0.295849D-05
    434   0.000000D+00  0.000000D+00  0.000000D+00  0.000000D+00  0.000000D+00
    435   0.000000D+00  0.000000D+00  0.000000D+00  0.000000D+00  0.000000D+00
    436   0.000000D+00  0.000000D+00  0.000000D+00  0.000000D+00  0.000000D+00
    437   0.000000D+00  0.000000D+00  0.000000D+00  0.000000D+00  0.000000D+00
    438   0.000000D+00  0.000000D+00  0.000000D+00  0.000000D+00  0.000000D+00
    439   0.000000D+00  0.000000D+00  0.000000D+00  0.000000D+00  0.000000D+00
    440   0.000000D+00  0.000000D+00  0.000000D+00  0.000000D+00  0.000000D+00
    441   0.000000D+00  0.000000D+00  0.000000D+00  0.000000D+00  0.000000D+00
    442   0.000000D+00  0.000000D+00  0.000000D+00  0.000000D+00  0.000000D+00
    443   0.000000D+00  0.000000D+00  0.000000D+00  0.000000D+00  0.000000D+00
    444   0.721173D-03  0.532946D-02  0.000000D+00  0.000000D+00 -0.408482D-02
    445   0.000000D+00  0.000000D+00  0.110499D-02  0.000000D+00  0.000000D+00
    446   0.000000D+00  0.000000D+00  0.000000D+00  0.110499D-02  0.000000D+00
[...]
   20    | -0.003061 -0.003128 -0.001832 -0.000222  0.000000  0.000000
         |
   21    | -0.003763 -0.004651 -0.006628 -0.002491 -0.014283  0.000000
   21    |  0.000000  0.000000  0.000000  0.000000  0.000000  0.000000
         |

                     Sum of ab pair energies =    -0.230859 A.U.
                     Sum of ba pair energies =    -0.084267 A.U.
                     Sum of aa pair energies =    -0.051444 A.U.
                     Sum of bb pair energies =    -0.049829 A.U.

           Sum of intraorbital pair energies =    -0.124537 A.U.
           Sum of interorbital pair energies =    -0.291862 A.U.
                                                  ----------
                         Total pair energies =    -0.416399 A.U.

                         Single Excitations  =    -0.002940 A.U.

                          Total second order =    -0.419339 A.U.



            MP2(CBS) (With Interference Correction) 
            ---------------------------------------

 AB - AA |     16        17        18        19        20        21
 BA - BB |     16        17        18        19        20        21
----------------------------------------------------------------------
   16    | -0.027083 -0.009851 -0.006482 -0.003163 -0.001022 -0.003111
   16    |  0.000000 -0.009807 -0.009168 -0.003284 -0.001264  0.000000
         |
   17    | -0.015344 -0.031835 -0.008369 -0.005151 -0.001464 -0.003615
   17    | -0.015348  0.000000 -0.012649 -0.005273 -0.001714  0.000000
         |
   18    | -0.010897 -0.011610 -0.022395 -0.004118 -0.000567 -0.000839
   18    | -0.014409 -0.016999  0.000000 -0.005302 -0.001213  0.000000
         |
   19    | -0.006244 -0.011130 -0.011922 -0.022042 -0.000099 -0.000964
   19    | -0.006431 -0.011407 -0.011104  0.000000 -0.000113  0.000000
         |
   20    | -0.002587 -0.002632 -0.001581 -0.000195 -0.020057 -0.002572
   20    | -0.003037 -0.003105 -0.001821 -0.000221  0.000000  0.000000
         |
   21    | -0.003751 -0.004637 -0.006595 -0.002484 -0.014082  0.000000
   21    |  0.000000  0.000000  0.000000  0.000000  0.000000  0.000000
         |

                     Sum of ab pair energies =    -0.229105 A.U.
                     Sum of ba pair energies =    -0.083884 A.U.
                     Sum of aa pair energies =    -0.051387 A.U.
                     Sum of bb pair energies =    -0.049787 A.U.

           Sum of intraorbital pair energies =    -0.123412 A.U.
           Sum of interorbital pair energies =    -0.290751 A.U.
                                                  ----------
                         Total pair energies =    -0.414163 A.U.

                         Single Excitations  =    -0.002940 A.U.

                          Total second order =    -0.417103 A.U.

                         E2(CBS) - E2(Dir) =      -0.004898 A.U.

 E2(CBS)=      -0.419339 CBS-Int=       0.002236 OIii=       1.965204

 **********************************************************************

            Population analysis using the SCF density.

 **********************************************************************

 Orbital symmetries:
       Occupied  (SG) (SG) (PI) (PI) (SG) (SG) (SG) (PI) (SG) (PI)
                 (?A) (?A) (PI) (?A) (PI) (SG) (SG) (?B) (SG) (?B)
                 (?B)
       Virtual   (?B) (SG) (SG) (?B) (?B) (?C) (PI) (PI) (?C) (?C)
                 (?C) (?B) (?B) (SG) (SG) (?B) (?B) (SG) (?D) (?D)
                 (?B) (?B) (?D) (?D) (?D) (?B) (?B) (?D) (?B) (?B)
                 (?B) (?B) (?E) (?E) (?E) (SG) (SG) (?F) (?F) (?G)
                 (?G) (?F) (?F) (DLTA) (DLTA) (?H) (?H) (?I) (?I)
                 (?I) (?H) (?H) (?I) (?I) (?I) (?H) (?H) (?I) (?H)
                 (?H) (?F) (?F) (SG) (?F) (?F) (?J) (?J) (?J) (?K)
                 (?K) (PI) (?G) (?G) (PI) (?C) (?C) (?C) (?C) (?L)
                 (?L) (?L) (?L) (?L) (?L) (?L) (?L) (?F) (?F) (?L)
                 (?L) (?L) (?L) (?F) (?F) (?L) (?L) (PI) (PI) (?L)
                 (?L) (?L) (PHI) (PHI) (?L) (?L) (PI) (PI) (?L)
                 (?L) (?L) (?L) (PI) (PI) (SG) (SG) (?K) (?K) (PI)
                 (PI) (?C) (?C) (?C) (?C) (PHI) (PHI) (PHI) (PHI)
                 (?G) (?G) (?L) (?L) (?L) (?L) (?L) (?L) (?L) (?L)
                 (?L) (?L) (?L) (?L) (?L) (?L) (?L) (?L) (?L) (PI)
                 (PI) (?F) (?F) (?G) (?G) (PHI) (PHI) (?C) (?F)
                 (?F) (?C) (?C) (?C) (PI) (PI) (?K) (?K) (?L) (?L)
                 (?L) (?L) (?L) (?L) (?F) (?F) (?L) (?L) (?F) (?F)
                 (PI) (PI) (?G) (?G) (SG) (PI) (SG) (PI) (DLTA)
                 (DLTA) (?L) (?L) (?F) (?F) (?L) (?F) (?F) (SG)
                 (PI) (PI) (?G) (?G) (SG) (PHI) (PHI) (?K) (?K)
                 (SG) (SG) (?L) (?L) (PI) (PI) (?G) (?G) (?L) (PI)
                 (PI) (SG) (SG) (?L) (?L) (?L) (?L) (?L) (?L) (?L)
                 (?L) (?L) (?L) (?L) (?L) (?L) (?L) (?L) (?L) (?L)
                 (?L) (?L) (?L) (?L) (?L) (SG) (?F) (?F) (?F) (DLTA)
                 (DLTA) (?F) (PI) (PI) (?G) (?G) (SG) (DLTA) (DLTA)
                 (PI) (PI) (SG) (SG) (?F) (?F) (?L) (?L) (?L) (?F)
                 (?F) (?L) (?L) (PHI) (PHI) (SG) (PI) (PI) (DLTA)
                 (DLTA) (?L) (?L) (SG) (SG) (PI) (PI) (DLTA) (DLTA)
                 (SG) (?K) (?K) (?K) (?K) (?G) (?G) (?F) (?F) (?F)
                 (?F) (?L) (?L) (?L) (?G) (?G) (PI) (PI) (SG) (PI)
                 (PI) (?L) (PHI) (PHI) (?L) (?L) (?L) (?L) (?F)
                 (?F) (?F) (?F) (?L) (?K) (?K) (PI) (?L) (?L) (PI)
                 (?L) (?L) (?L) (?L) (?L) (?L) (?L) (?L) (?L) (?L)
                 (?L) (?L) (?L) (SG) (?L) (?G) (?G) (PHI) (PHI)
                 (PI) (PI) (?L) (?L) (DLTA) (DLTA) (PHI) (PHI)
                 (PHI) (PHI) (SG) (PI) (PI) (DLTA) (DLTA) (SG)
                 (PI) (PI) (?L) (?L) (?L) (DLTA) (DLTA) (SG) (PHI)
                 (PHI) (PI) (PI) (SG) (PI) (PI) (DLTA) (DLTA) (SG)
                 (SG) (?K) (?K) (PI) (PI) (?G) (?G) (SG) (SG) (PHI)
                 (PHI) (DLTA) (DLTA) (DLTA) (DLTA) (PI) (PI) (SG)
                 (PI) (PI) (SG) (?K) (?K) (?G) (?G) (PHI) (PHI)
                 (PI) (PI) (?L) (?L) (?L) (PI) (PI) (SG) (PI) (PI)
                 (?G) (?G) (PHI) (PHI) (PHI) (PHI) (?C) (?C) (?C)
                 (PI) (PI) (?C) (DLTA) (DLTA) (SG) (PI) (PI) (DLTA)
                 (DLTA) (SG) (PI) (PI) (SG) (PI) (PI) (?L) (?L)
                 (PI) (PI) (?L) (?L) (PHI) (PHI) (?L) (?L) (PI)
                 (PI) (?L) (SG) (?L) (?L) (?K) (?K) (?L) (?L) (PHI)
                 (PHI) (?L) (?L) (PI) (PI) (?L) (?K) (?K) (?G)
                 (?G) (PHI) (PHI) (?L) (?L) (PI) (PI) (?L) (PHI)
                 (PHI) (DLTA) (DLTA) (PI) (PI) (SG) (?G) (?G) (PHI)
                 (PHI) (?L) (?L) (?L) (PI) (PI) (DLTA) (DLTA) (PI)
                 (PI) (SG) (PI) (PI) (SG) (SG) (SG)
 Unable to determine electronic state:  an orbital has unidentified symmetry.
 Alpha  occ. eigenvalues -- -432.64415 -56.36541 -50.21241 -50.21050 -50.20809
 Alpha  occ. eigenvalues --  -20.57034  -8.08946  -5.94569  -5.94399  -5.93639
 Alpha  occ. eigenvalues --   -2.17916  -2.17775  -2.17390  -2.17276  -2.17004
 Alpha  occ. eigenvalues --   -1.29396  -0.75511  -0.55010  -0.51574  -0.48127
 Alpha  occ. eigenvalues --   -0.32412
 Alpha virt. eigenvalues --   -0.01917   0.04001   0.05256   0.05788   0.06265
 Alpha virt. eigenvalues --    0.11881   0.13285   0.13357   0.13592   0.13885
 Alpha virt. eigenvalues --    0.13942   0.19691   0.19907   0.20913   0.25003
 Alpha virt. eigenvalues --    0.27301   0.27887   0.29498   0.35132   0.35143
 Alpha virt. eigenvalues --    0.36753   0.36754   0.36923   0.36944   0.39086
 Alpha virt. eigenvalues --    0.40379   0.40776   0.42522   0.43632   0.43660
 Alpha virt. eigenvalues --    0.45383   0.45463   0.54473   0.54596   0.55300
 Alpha virt. eigenvalues --    0.58048   0.65251   0.67607   0.67789   0.69873
 Alpha virt. eigenvalues --    0.69873   0.70603   0.70604   0.78634   0.78647
 Alpha virt. eigenvalues --    0.80385   0.80643   0.81350   0.82885   0.82936
 Alpha virt. eigenvalues --    0.83736   0.84047   0.87408   0.87428   0.88247
 Alpha virt. eigenvalues --    0.89289   0.89294   0.91848   0.92426   0.92935
 Alpha virt. eigenvalues --    0.99920   0.99954   1.03038   1.07514   1.07514
 Alpha virt. eigenvalues --    1.12649   1.12656   1.18103   1.21034   1.21034
 Alpha virt. eigenvalues --    1.21374   1.21768   1.21768   1.21866   1.26593
 Alpha virt. eigenvalues --    1.30354   1.32480   1.32606   1.38791   1.38797
 Alpha virt. eigenvalues --    1.40108   1.40297   1.44870   1.45511   1.55330
 Alpha virt. eigenvalues --    1.55330   1.55943   1.55943   1.58379   1.59262
 Alpha virt. eigenvalues --    1.59425   1.63260   1.64378   1.64975   1.65186
 Alpha virt. eigenvalues --    1.65258   1.71081   1.71982   1.76166   1.76207
 Alpha virt. eigenvalues --    1.78063   1.80598   1.80598   1.81309   1.84315
 Alpha virt. eigenvalues --    1.85122   1.85913   1.86946   1.87026   1.89695
 Alpha virt. eigenvalues --    1.89695   1.99297   2.00165   2.11908   2.11908
 Alpha virt. eigenvalues --    2.12492   2.12492   2.17469   2.18096   2.19935
 Alpha virt. eigenvalues --    2.22624   2.22801   2.23072   2.25473   2.25474
 Alpha virt. eigenvalues --    2.33355   2.33355   2.34989   2.34989   2.46366
 Alpha virt. eigenvalues --    2.51933   2.51945   2.52939   2.53932   2.60061
 Alpha virt. eigenvalues --    2.62750   2.62751   2.63393   2.63393   2.63416
 Alpha virt. eigenvalues --    2.63421   2.65571   2.65583   2.66078   2.66992
 Alpha virt. eigenvalues --    2.72555   2.73558   2.74671   2.84574   2.85354
 Alpha virt. eigenvalues --    2.89287   2.89287   2.89550   2.89550   2.93827
 Alpha virt. eigenvalues --    3.00329   3.00330   3.00836   3.00922   3.05518
 Alpha virt. eigenvalues --    3.10746   3.11922   3.14341   3.14341   3.15491
 Alpha virt. eigenvalues --    3.15545   3.18621   3.20558   3.20602   3.30603
 Alpha virt. eigenvalues --    3.30832   3.31912   3.33560   3.33810   3.39482
 Alpha virt. eigenvalues --    3.39483   3.56855   3.57886   3.58848   3.58848
 Alpha virt. eigenvalues --    3.66308   3.80375   3.81095   3.81693   3.94191
 Alpha virt. eigenvalues --    3.94205   4.05516   4.05969   4.06142   4.06145
 Alpha virt. eigenvalues --    4.06146   4.12690   4.13977   4.27009   4.29178
 Alpha virt. eigenvalues --    4.30306   4.38745   4.38745   4.46262   4.49263
 Alpha virt. eigenvalues --    4.49263   4.61632   4.61632   4.62726   4.62726
 Alpha virt. eigenvalues --    4.63451   4.63460   4.64373   4.65525   4.83491
 Alpha virt. eigenvalues --    4.83491   4.84464   4.88014   4.89395   4.96309
 Alpha virt. eigenvalues --    4.96309   4.97108   4.97108   4.97837   4.97837
 Alpha virt. eigenvalues --    4.98760   4.98760   5.08073   5.08419   5.10335
 Alpha virt. eigenvalues --    5.12097   5.12097   5.12190   5.12204   5.15809
 Alpha virt. eigenvalues --    5.16228   5.16229   5.17680   5.20121   5.20507
 Alpha virt. eigenvalues --    5.21434   5.29833   5.29834   5.44052   5.51249
 Alpha virt. eigenvalues --    5.51250   5.55519   5.57048   5.57056   5.57066
 Alpha virt. eigenvalues --    5.71431   5.72758   5.77977   5.77977   5.80476
 Alpha virt. eigenvalues --    5.86488   5.86491   5.96503   5.97530   6.18529
 Alpha virt. eigenvalues --    6.28331   6.42316   6.42317   6.44027   6.44030
 Alpha virt. eigenvalues --    6.48328   6.51600   6.52730   6.54634   6.54732
 Alpha virt. eigenvalues --    6.64714   6.64715   6.69751   6.69845   6.71331
 Alpha virt. eigenvalues --    6.80824   6.80838   7.11273   7.11273   7.14779
 Alpha virt. eigenvalues --    7.14779   7.15539   7.16813   7.32501   7.32504
 Alpha virt. eigenvalues --    7.41415   7.41874   7.41874   7.60446   7.60446
 Alpha virt. eigenvalues --    7.73365   7.73365   7.86508   7.86510   7.91532
 Alpha virt. eigenvalues --    7.92547   8.06917   8.07006   8.14967   8.19006
 Alpha virt. eigenvalues --    8.19006   8.25204   8.27286   8.32483   8.47393
 Alpha virt. eigenvalues --    8.48642   8.67186   8.69854   8.69855   8.71484
 Alpha virt. eigenvalues --    8.71484   8.77912   8.77928   8.89267   8.90805
 Alpha virt. eigenvalues --    8.91919   8.91996   8.98231   9.05602   9.05602
 Alpha virt. eigenvalues --    9.08607   9.09686   9.09686   9.10372   9.16537
 Alpha virt. eigenvalues --    9.16566   9.18221   9.18221   9.20657   9.20657
 Alpha virt. eigenvalues --    9.24467   9.24467   9.26895   9.28737   9.30466
 Alpha virt. eigenvalues --    9.30511   9.31667   9.46731   9.58665   9.61390
 Alpha virt. eigenvalues --    9.61390   9.62787   9.62788   9.81066   9.82849
 Alpha virt. eigenvalues --    9.84797   9.84849  10.14679  10.14689  10.27649
 Alpha virt. eigenvalues --   10.27649  10.33276  10.33276  10.44471  10.53482
 Alpha virt. eigenvalues --   10.55012  10.71407  10.71412  10.80423  10.88361
 Alpha virt. eigenvalues --   10.89661  11.22355  11.23982  11.24016  11.46736
 Alpha virt. eigenvalues --   11.46741  11.49259  11.84590  11.84590  11.96448
 Alpha virt. eigenvalues --   11.97557  12.28745  12.46816  12.48150  12.64246
 Alpha virt. eigenvalues --   12.64256  13.30457  13.30457  13.36037  13.36037
 Alpha virt. eigenvalues --   13.42599  13.43919  13.51206  13.51206  13.52252
 Alpha virt. eigenvalues --   13.83248  13.85022  13.85022  14.01184  14.01200
 Alpha virt. eigenvalues --   14.62378  14.62378  14.70582  14.71793  15.18369
 Alpha virt. eigenvalues --   15.66097  15.67327  16.69344  17.10215  17.10215
 Alpha virt. eigenvalues --   17.26563  17.26563  17.60042  17.60042  17.97679
 Alpha virt. eigenvalues --   17.99095  18.09963  18.09991  18.35955  18.53129
 Alpha virt. eigenvalues --   18.54277  19.25720  19.57001  19.58971  19.87934
 Alpha virt. eigenvalues --   19.87934  20.18938  20.18938  20.30471  20.30471
 Alpha virt. eigenvalues --   20.44849  20.50896  20.50929  20.71912  20.73599
 Alpha virt. eigenvalues --   20.75706  21.17984  21.17999  21.77594  22.39560
 Alpha virt. eigenvalues --   22.41043  22.60311  22.60313  23.10972  23.11692
 Alpha virt. eigenvalues --   23.13118  24.37368  25.29544  25.29544  25.29824
 Alpha virt. eigenvalues --   25.29824  25.30980  25.30980  25.35046  25.35046
 Alpha virt. eigenvalues --   25.53785  25.53786  25.76401  25.76477  25.88389
 Alpha virt. eigenvalues --   25.90124  25.94323  27.03956  33.91742  33.91742
 Alpha virt. eigenvalues --   33.94123  33.94123  34.00896  34.00896  34.13722
 Alpha virt. eigenvalues --   34.13723  34.39965  34.40045  34.49649  34.51568
 Alpha virt. eigenvalues --   34.62134  38.90404  38.90404  39.00281  39.00281
 Alpha virt. eigenvalues --   39.19918  39.19919  39.47477  39.47604  39.54844
 Alpha virt. eigenvalues --   39.56780  39.61360  41.70162  41.70162  42.17324
 Alpha virt. eigenvalues --   42.17348  42.55296  42.57062  42.71748  42.78883
 Alpha virt. eigenvalues --   42.78883  43.03128  43.03128  43.49472  43.49518
 Alpha virt. eigenvalues --   43.83154  43.94035  43.95947  47.01023  47.01027
 Alpha virt. eigenvalues --   47.25527  47.27003  48.31272  53.76494  53.77854
 Alpha virt. eigenvalues --   55.35127 109.71536 464.45384
          Condensed to atoms (all electrons):
              1          2
     1  As  32.077690   0.337541
     2  O    0.337541   8.247229
          Atomic-Atomic Spin Densities.
              1          2
     1  As   1.080005  -0.153782
     2  O   -0.153782   0.227560
 Mulliken charges and spin densities:
              1          2
     1  As   0.584769   0.926223
     2  O   -0.584769   0.073777
 Sum of Mulliken charges =   0.00000 spin densities =   1.000000
 Mulliken charges and spin densities with hydrogens summed into heavy atoms:
              1          2
     1  As   0.584769   0.926223
     2  O   -0.584769   0.073777
 Sum of Mulliken charges with hydrogens summed into heavy atoms =   0.00000 spin densities =   1.000000
 Electronic spatial extent (au):  <R**2>=            113.4945
 Charge=              0.0000 electrons
 Dipole moment (field-independent basis, Debye):
    X=              0.0000    Y=              0.0000    Z=              3.4076  Tot=              3.4076
 Quadrupole moment (field-independent basis, Debye-Ang):
   XX=            -23.5827   YY=            -20.4134   ZZ=            -27.1293
   XY=              0.0000   XZ=              0.0000   YZ=              0.0000
 Traceless Quadrupole moment (field-independent basis, Debye-Ang):
   XX=              0.1258   YY=              3.2950   ZZ=             -3.4208
   XY=              0.0000   XZ=              0.0000   YZ=              0.0000
 Octapole moment (field-independent basis, Debye-Ang**2):
  XXX=              0.0000  YYY=              0.0000  ZZZ=             12.3414  XYY=              0.0000
  XXY=              0.0000  XXZ=              1.0853  XZZ=              0.0000  YZZ=              0.0000
  YYZ=              3.2230  XYZ=              0.0000
 Hexadecapole moment (field-independent basis, Debye-Ang**3):
 XXXX=            -32.4749 YYYY=            -21.9995 ZZZZ=           -104.9125 XXXY=              0.0000
 XXXZ=              0.0000 YYYX=              0.0000 YYYZ=              0.0000 ZZZX=              0.0000
 ZZZY=              0.0000 XXYY=             -9.0563 XXZZ=            -23.2696 YYZZ=            -20.1268
 XXYZ=              0.0000 YYXZ=              0.0000 ZZXY=              0.0000
 N-N= 8.604507456748D+01 E-N=-8.537485039917D+03  KE= 3.462463417198D+03
                          Isotropic Fermi Contact Couplings
        Atom                 a.u.       MegaHertz       Gauss      10(-4) cm-1
     1  As(75)             0.00000       0.00000       0.00000       0.00000
     2  O(17)              0.00000       0.00000       0.00000       0.00000
 --------------------------------------------------------
       Center         ----  Spin Dipole Couplings  ----
                      3XX-RR        3YY-RR        3ZZ-RR
 --------------------------------------------------------
     1   Atom        4.881970     -2.457588     -2.424382
     2   Atom        0.544255     -0.285303     -0.258951
 --------------------------------------------------------
                        XY            XZ            YZ
 --------------------------------------------------------
     1   Atom        0.000000      0.000000      0.000000
     2   Atom        0.000000      0.000000      0.000000
 --------------------------------------------------------


 ---------------------------------------------------------------------------------
              Anisotropic Spin Dipole Couplings in Principal Axis System
 ---------------------------------------------------------------------------------

       Atom             a.u.   MegaHertz   Gauss  10(-4) cm-1        Axes

              Baa    -2.4576  -225.279   -80.385   -75.145  0.0000  1.0000  0.0000
     1 As(75) Bbb    -2.4244  -222.235   -79.299   -74.130  0.0000  0.0000  1.0000
              Bcc     4.8820   447.514   159.684   149.275  1.0000  0.0000  0.0000
 
              Baa    -0.2853    20.644     7.366     6.886  0.0000  1.0000  0.0000
     2 O(17)  Bbb    -0.2590    18.738     6.686     6.250  0.0000  0.0000  1.0000
              Bcc     0.5443   -39.382   -14.052   -13.136  1.0000  0.0000  0.0000
 

 ---------------------------------------------------------------------------------


 Test job not archived.
 1\1\GINC-C31\SP\ROMP2-RW\Gen\As1O1(2)\GPETERSSON\03-Jun-2013\0\\# ROMP
 2(RW) Gen GFinput Int=NoBasisTransform Int(Grid=Ultrafine) IOp(3/32=2,
 5/6=10,8/11=1,9/33=1) Maxdisk=128GB CBSextrapolate(Nmin=25,MinPop)\\As
 O 2Pi\\0,2\As\O,1,1.6236\\Version=EM64L-GDVRevH.12\HF=-2309.0954279\MP
 2=-2309.5098686\E2(CBS)=-0.4193391\CBS-Int=-0.4171029\OIii=1.965204\RM
 SD=1.424e-11\PG=C*V [C*(O1As1)]\\@


 THE REASON MAN'S BEST FRIEND IS A DOG IS BECAUSE
 HE WAGS HIS TAIL INSTEAD OF HIS TONGUE.
 Job cpu time:  8 days  5 hours 45 minutes 20.1 seconds.
 File lengths (MBytes):  RWF=  20978 Int=      0 D2E=      0 Chk=     22 Scr=      1
 Normal termination of Gaussian DV at Mon Jun  3 09:34:42 2013.
