 Entering Gaussian System, Link 0=g09
 AtFile(1): 6ZaP-NR.gbs
 Initial command:
 /share/apps/gaussian/g09root/g09/l1.exe /localscratch/735150/Gau-14436.inp -scrdir=/localscratch/735150/
 Entering Link 1 = /share/apps/gaussian/g09root/g09/l1.exe PID=     14437.
  
 Copyright (c) 1988,1990,1992,1993,1995,1998,2003,2009, Gaussian, Inc.
                  All Rights Reserved.
  
 This is part of the Gaussian(R) 09 program.  It is based on
 the Gaussian(R) 03 system (copyright 2003, Gaussian, Inc.),
 the Gaussian(R) 98 system (copyright 1998, Gaussian, Inc.),
 the Gaussian(R) 94 system (copyright 1995, Gaussian, Inc.),
 the Gaussian 92(TM) system (copyright 1992, Gaussian, Inc.),
 the Gaussian 90(TM) system (copyright 1990, Gaussian, Inc.),
 the Gaussian 88(TM) system (copyright 1988, Gaussian, Inc.),
 the Gaussian 86(TM) system (copyright 1986, Carnegie Mellon
 University), and the Gaussian 82(TM) system (copyright 1983,
 Carnegie Mellon University). Gaussian is a federally registered
 trademark of Gaussian, Inc.
  
 This software contains proprietary and confidential information,
 including trade secrets, belonging to Gaussian, Inc.
  
 This software is provided under written license and may be
 used, copied, transmitted, or stored only in accord with that
 written license.
  
 The following legend is applicable only to US Government
 contracts under FAR:
  
                    RESTRICTED RIGHTS LEGEND
  
 Use, reproduction and disclosure by the US Government is
 subject to restrictions as set forth in subparagraphs (a)
 and (c) of the Commercial Computer Software - Restricted
 Rights clause in FAR 52.227-19.
  
 Gaussian, Inc.
 340 Quinnipiac St., Bldg. 40, Wallingford CT 06492
  
  
 ---------------------------------------------------------------
 Warning -- This program may not be used in any manner that
 competes with the business of Gaussian, Inc. or will provide
 assistance to any competitor of Gaussian, Inc.  The licensee
 of this program is prohibited from giving any competitor of
 Gaussian, Inc. access to this program.  By using this program,
 the user acknowledges that Gaussian, Inc. is engaged in the
 business of creating and licensing software in the field of
 computational chemistry and represents and warrants to the
 licensee that it is not a competitor of Gaussian, Inc. and that
 it will not use this program in any manner prohibited above.
 ---------------------------------------------------------------
  

 Cite this work as:
 Gaussian 09, Revision A.02,
 M. J. Frisch, G. W. Trucks, H. B. Schlegel, G. E. Scuseria, 
 M. A. Robb, J. R. Cheeseman, G. Scalmani, V. Barone, B. Mennucci, 
 G. A. Petersson, H. Nakatsuji, M. Caricato, X. Li, H. P. Hratchian, 
 A. F. Izmaylov, J. Bloino, G. Zheng, J. L. Sonnenberg, M. Hada, 
 M. Ehara, K. Toyota, R. Fukuda, J. Hasegawa, M. Ishida, T. Nakajima, 
 Y. Honda, O. Kitao, H. Nakai, T. Vreven, J. A. Montgomery, Jr., 
 J. E. Peralta, F. Ogliaro, M. Bearpark, J. J. Heyd, E. Brothers, 
 K. N. Kudin, V. N. Staroverov, R. Kobayashi, J. Normand, 
 K. Raghavachari, A. Rendell, J. C. Burant, S. S. Iyengar, J. Tomasi, 
 M. Cossi, N. Rega, J. M. Millam, M. Klene, J. E. Knox, J. B. Cross, 
 V. Bakken, C. Adamo, J. Jaramillo, R. Gomperts, R. E. Stratmann, 
 O. Yazyev, A. J. Austin, R. Cammi, C. Pomelli, J. W. Ochterski, 
 R. L. Martin, K. Morokuma, V. G. Zakrzewski, G. A. Voth, 
 P. Salvador, J. J. Dannenberg, S. Dapprich, A. D. Daniels, 
 O. Farkas, J. B. Foresman, J. V. Ortiz, J. Cioslowski, 
 and D. J. Fox, Gaussian, Inc., Wallingford CT, 2009.
 
 ******************************************
 Gaussian 09:  EM64L-G09RevA.02 11-Jun-2009
                25-Jul-2012 
 ******************************************
 % Mem=12GB
 % Nproc=8
 Will use up to    8 processors via shared memory.
 ----------------------------------------------------------------------
 # ROMP2(RW) Gen GFinput Int=NoBasisTransform Int(Grid=Ultrafine) IOp(3
 /32=2,5/6=10,8/11=1,9/33=1) Maxdisk=128GB CBSextrapolate(Nmin=20,MinPo
 p)
 ----------------------------------------------------------------------
 1/38=1/1;
 2/12=2,17=6,18=5,40=1/2;
 3/5=7,11=2,16=1,24=10,25=1,30=1,32=2,60=-1,75=-5,116=101/1,2,3;
 4//1;
 5/5=2,6=10,38=5/2;
 8/5=-1,10=91,11=1/1;
 9/16=-3,33=1,75=2,81=20,83=4/6,4;
 6/7=2,8=2,9=2,10=2/1;
 99/5=1,9=1/99;
 ---
 Br2
 ---
 Symbolic Z-matrix:
 Charge =  0 Multiplicity = 1
 Br
 Br                   1     2.28105 
 
                          Input orientation:                          
 ---------------------------------------------------------------------
 Center     Atomic      Atomic             Coordinates (Angstroms)
 Number     Number       Type             X           Y           Z
 ---------------------------------------------------------------------
      1         35           0        0.000000    0.000000    0.000000
      2         35           0        0.000000    0.000000    2.281050
 ---------------------------------------------------------------------
 Stoichiometry    Br2
 Framework group  D*H[C*(Br.Br)]
 Deg. of freedom     1
 Full point group                 D*H     NOp   8
 Largest Abelian subgroup         D2H     NOp   8
 Largest concise Abelian subgroup C2      NOp   2
                         Standard orientation:                         
 ---------------------------------------------------------------------
 Center     Atomic      Atomic             Coordinates (Angstroms)
 Number     Number       Type             X           Y           Z
 ---------------------------------------------------------------------
      1         35           0        0.000000    0.000000    1.140525
      2         35           0        0.000000    0.000000   -1.140525
 ---------------------------------------------------------------------
 Rotational constants (GHZ):      0.0000000      2.4614990      2.4614990
 General basis read from cards:  (5D, 7F)
 AO basis set in the form of general basis input (Overlap normalization):
      1 0
 S  16 1.00       0.000000000000
      0.5684648560D+08  0.6461982724D-06
      0.1070969180D+08  0.4005500493D-05
      0.2456425350D+07  0.2277878063D-04
      0.6647482010D+06  0.1035662382D-03
      0.2064956430D+06  0.4011375332D-03
      0.7189551160D+05  0.1355986885D-02
      0.2748497400D+05  0.4104177960D-02
      0.1133574500D+05  0.1131546454D-01
      0.4969149570D+04  0.2866241650D-01
      0.2286280560D+04  0.6644315418D-01
      0.1092489510D+04  0.1375496636D+00
      0.5374293450D+03  0.2406966575D+00
      0.2701678280D+03  0.3168699633D+00
      0.1379196500D+03  0.2518244622D+00
      0.7110757600D+02  0.8280521486D-01
      0.3684081000D+02  0.6542890731D-02
 S  14 1.00       0.000000000000
      0.2748497400D+05 -0.6093054753D-05
      0.1133574500D+05 -0.3526718420D-04
      0.4969149570D+04 -0.2414967175D-03
      0.2286280560D+04 -0.1187029023D-02
      0.1092489510D+04 -0.5437094163D-02
      0.5374293450D+03 -0.1987875033D-01
      0.2701678280D+03 -0.5745326396D-01
      0.1379196500D+03 -0.9302247978D-01
      0.7110757600D+02  0.5798615338D-02
      0.3684081000D+02  0.3524059167D+00
      0.1908826000D+02  0.5228863039D+00
      0.9841610000D+01  0.2160299707D+00
      0.5021928000D+01  0.2029741651D-01
      0.2520512000D+01  0.2169092730D-02
 P  13 1.00       0.000000000000
      0.7647864790D+05  0.8881482810D-05
      0.2007186980D+05  0.7202235278D-04
      0.6380605010D+04  0.4617884143D-03
      0.2362210840D+04  0.2232576784D-02
      0.9848457380D+03  0.8658544211D-02
      0.4494150820D+03  0.2760695825D-01
      0.2191768780D+03  0.7376891535D-01
      0.1120008830D+03  0.1611575383D+00
      0.5900481100D+02  0.2746963459D+00
      0.3162813000D+02  0.3325788021D+00
      0.1706692700D+02  0.2292429281D+00
      0.9191294000D+01  0.6843844634D-01
      0.4904821000D+01  0.7129076349D-02
 S  11 1.00       0.000000000000
      0.5374293450D+03  0.8213361056D-04
      0.2701678280D+03  0.8357169029D-03
      0.1379196500D+03  0.2902379033D-02
      0.7110757600D+02  0.2266751943D-02
      0.3684081000D+02 -0.5035507061D-01
      0.1908826000D+02 -0.2012033165D+00
      0.9841610000D+01 -0.9315614959D-01
      0.5021928000D+01  0.4275136099D+00
      0.2520512000D+01  0.6154100442D+00
      0.1235271000D+01  0.1765274465D+00
      0.5860430000D+00  0.3277643624D-02
 P  13 1.00       0.000000000000
      0.9848457380D+03 -0.2419340892D-04
      0.4494150820D+03 -0.2195902096D-03
      0.2191768780D+03 -0.1244189158D-02
      0.1120008830D+03 -0.5263181475D-02
      0.5900481100D+02 -0.1416768709D-01
      0.3162813000D+02 -0.2494638541D-01
      0.1706692700D+02  0.2423108274D-01
      0.9191294000D+01  0.1994660171D+00
      0.4904821000D+01  0.3883673950D+00
      0.2577482000D+01  0.3653043231D+00
      0.1326123000D+01  0.1312759511D+00
      0.6641100000D+00  0.1172791979D-01
      0.3216260000D+00  0.1101700462D-02
 D  14 1.00       0.000000000000
      0.3044286830D+04  0.1715183017D-04
      0.9351975360D+03  0.1771874450D-03
      0.3603600190D+03  0.1142833880D-02
      0.1609205760D+03  0.5231818246D-02
      0.7876521700D+02  0.1831916879D-01
      0.4072731600D+02  0.5045969538D-01
      0.2174776800D+02  0.1146611056D+00
      0.1183677500D+02  0.2025367676D+00
      0.6513457000D+01  0.2693992046D+00
      0.3595593000D+01  0.2822073474D+00
      0.1967334000D+01  0.2191258632D+00
      0.1044822000D+01  0.1060328283D+00
      0.5203620000D+00  0.2387745972D-01
      0.2305910000D+00  0.1937178744D-02
 S  10 1.00       0.000000000000
      0.7110757600D+02  0.2131624171D-03
      0.3684081000D+02 -0.1057071914D-02
      0.1908826000D+02  0.1417625393D-02
      0.9841610000D+01 -0.2693840005D-02
      0.5021928000D+01 -0.7677885625D-02
      0.2520512000D+01 -0.1629806187D+00
      0.1235271000D+01 -0.1451413265D+00
      0.5860430000D+00  0.3946545406D+00
      0.2663730000D+00  0.6178179660D+00
      0.1145700000D+00  0.2143606702D+00
 S   1 1.00       0.000000000000
      0.1327410000D+00  0.1000000000D+01
 S   1 1.00       0.000000000000
      0.4839900000D-01  0.1000000000D+01
 P   9 1.00       0.000000000000
      0.1706692700D+02 -0.6673224653D-03
      0.9191294000D+01 -0.5142336034D-02
      0.4904821000D+01 -0.1172459570D-01
      0.2577482000D+01 -0.3593519161D-01
      0.1326123000D+01  0.3009539528D-01
      0.6641100000D+00  0.2597617720D+00
      0.3216260000D+00  0.4199856864D+00
      0.1494910000D+00  0.3417519990D+00
      0.6607100000D-01  0.9544524524D-01
 P   1 1.00       0.000000000000
      0.6757500000D-01  0.1000000000D+01
 P   1 1.00       0.000000000000
      0.2741200000D-01  0.1000000000D+01
 S   1 1.00       0.000000000000
      0.1647296000D+01  0.1000000000D+01
 S   1 1.00       0.000000000000
      0.8600990000D+00  0.1000000000D+01
 S   1 1.00       0.000000000000
      0.4490810000D+00  0.1000000000D+01
 S   1 1.00       0.000000000000
      0.2344780000D+00  0.1000000000D+01
 S   1 1.00       0.000000000000
      0.1224270000D+00  0.1000000000D+01
 P   1 1.00       0.000000000000
      0.2151995000D+01  0.1000000000D+01
 P   1 1.00       0.000000000000
      0.1213378000D+01  0.1000000000D+01
 P   1 1.00       0.000000000000
      0.6841500000D+00  0.1000000000D+01
 P   1 1.00       0.000000000000
      0.3857500000D+00  0.1000000000D+01
 P   1 1.00       0.000000000000
      0.2175010000D+00  0.1000000000D+01
 D   1 1.00       0.000000000000
      0.2311612000D+01  0.1000000000D+01
 D   1 1.00       0.000000000000
      0.1200445000D+01  0.1000000000D+01
 D   1 1.00       0.000000000000
      0.6234040000D+00  0.1000000000D+01
 D   1 1.00       0.000000000000
      0.3237400000D+00  0.1000000000D+01
 D   1 1.00       0.000000000000
      0.1681220000D+00  0.1000000000D+01
 F   1 1.00       0.000000000000
      0.1094075000D+01  0.1000000000D+01
 F   1 1.00       0.000000000000
      0.6731320000D+00  0.1000000000D+01
 F   1 1.00       0.000000000000
      0.4141460000D+00  0.1000000000D+01
 F   1 1.00       0.000000000000
      0.2548050000D+00  0.1000000000D+01
 G   1 1.00       0.000000000000
      0.1346554000D+01  0.1000000000D+01
 G   1 1.00       0.000000000000
      0.7282520000D+00  0.1000000000D+01
 G   1 1.00       0.000000000000
      0.3938580000D+00  0.1000000000D+01
 H   1 1.00       0.000000000000
      0.1116980000D+01  0.1000000000D+01
 H   1 1.00       0.000000000000
      0.5698070000D+00  0.1000000000D+01
 I   1 1.00       0.000000000000
      0.9601700123D+00  0.1000000000D+01
 ****
      2 0
 S  16 1.00       0.000000000000
      0.5684648560D+08  0.6461982724D-06
      0.1070969180D+08  0.4005500493D-05
      0.2456425350D+07  0.2277878063D-04
      0.6647482010D+06  0.1035662382D-03
      0.2064956430D+06  0.4011375332D-03
      0.7189551160D+05  0.1355986885D-02
      0.2748497400D+05  0.4104177960D-02
      0.1133574500D+05  0.1131546454D-01
      0.4969149570D+04  0.2866241650D-01
      0.2286280560D+04  0.6644315418D-01
      0.1092489510D+04  0.1375496636D+00
      0.5374293450D+03  0.2406966575D+00
      0.2701678280D+03  0.3168699633D+00
      0.1379196500D+03  0.2518244622D+00
      0.7110757600D+02  0.8280521486D-01
      0.3684081000D+02  0.6542890731D-02
 S  14 1.00       0.000000000000
      0.2748497400D+05 -0.6093054753D-05
      0.1133574500D+05 -0.3526718420D-04
      0.4969149570D+04 -0.2414967175D-03
      0.2286280560D+04 -0.1187029023D-02
      0.1092489510D+04 -0.5437094163D-02
      0.5374293450D+03 -0.1987875033D-01
      0.2701678280D+03 -0.5745326396D-01
      0.1379196500D+03 -0.9302247978D-01
      0.7110757600D+02  0.5798615338D-02
      0.3684081000D+02  0.3524059167D+00
      0.1908826000D+02  0.5228863039D+00
      0.9841610000D+01  0.2160299707D+00
      0.5021928000D+01  0.2029741651D-01
      0.2520512000D+01  0.2169092730D-02
 P  13 1.00       0.000000000000
      0.7647864790D+05  0.8881482810D-05
      0.2007186980D+05  0.7202235278D-04
      0.6380605010D+04  0.4617884143D-03
      0.2362210840D+04  0.2232576784D-02
      0.9848457380D+03  0.8658544211D-02
      0.4494150820D+03  0.2760695825D-01
      0.2191768780D+03  0.7376891535D-01
      0.1120008830D+03  0.1611575383D+00
      0.5900481100D+02  0.2746963459D+00
      0.3162813000D+02  0.3325788021D+00
      0.1706692700D+02  0.2292429281D+00
      0.9191294000D+01  0.6843844634D-01
      0.4904821000D+01  0.7129076349D-02
 S  11 1.00       0.000000000000
      0.5374293450D+03  0.8213361056D-04
      0.2701678280D+03  0.8357169029D-03
      0.1379196500D+03  0.2902379033D-02
      0.7110757600D+02  0.2266751943D-02
      0.3684081000D+02 -0.5035507061D-01
      0.1908826000D+02 -0.2012033165D+00
      0.9841610000D+01 -0.9315614959D-01
      0.5021928000D+01  0.4275136099D+00
      0.2520512000D+01  0.6154100442D+00
      0.1235271000D+01  0.1765274465D+00
      0.5860430000D+00  0.3277643624D-02
 P  13 1.00       0.000000000000
      0.9848457380D+03 -0.2419340892D-04
      0.4494150820D+03 -0.2195902096D-03
      0.2191768780D+03 -0.1244189158D-02
      0.1120008830D+03 -0.5263181475D-02
      0.5900481100D+02 -0.1416768709D-01
      0.3162813000D+02 -0.2494638541D-01
      0.1706692700D+02  0.2423108274D-01
      0.9191294000D+01  0.1994660171D+00
      0.4904821000D+01  0.3883673950D+00
      0.2577482000D+01  0.3653043231D+00
      0.1326123000D+01  0.1312759511D+00
      0.6641100000D+00  0.1172791979D-01
      0.3216260000D+00  0.1101700462D-02
 D  14 1.00       0.000000000000
      0.3044286830D+04  0.1715183017D-04
      0.9351975360D+03  0.1771874450D-03
      0.3603600190D+03  0.1142833880D-02
      0.1609205760D+03  0.5231818246D-02
      0.7876521700D+02  0.1831916879D-01
      0.4072731600D+02  0.5045969538D-01
      0.2174776800D+02  0.1146611056D+00
      0.1183677500D+02  0.2025367676D+00
      0.6513457000D+01  0.2693992046D+00
      0.3595593000D+01  0.2822073474D+00
      0.1967334000D+01  0.2191258632D+00
      0.1044822000D+01  0.1060328283D+00
      0.5203620000D+00  0.2387745972D-01
      0.2305910000D+00  0.1937178744D-02
 S  10 1.00       0.000000000000
      0.7110757600D+02  0.2131624171D-03
      0.3684081000D+02 -0.1057071914D-02
      0.1908826000D+02  0.1417625393D-02
      0.9841610000D+01 -0.2693840005D-02
      0.5021928000D+01 -0.7677885625D-02
      0.2520512000D+01 -0.1629806187D+00
      0.1235271000D+01 -0.1451413265D+00
      0.5860430000D+00  0.3946545406D+00
      0.2663730000D+00  0.6178179660D+00
      0.1145700000D+00  0.2143606702D+00
 S   1 1.00       0.000000000000
      0.1327410000D+00  0.1000000000D+01
 S   1 1.00       0.000000000000
      0.4839900000D-01  0.1000000000D+01
 P   9 1.00       0.000000000000
      0.1706692700D+02 -0.6673224653D-03
      0.9191294000D+01 -0.5142336034D-02
      0.4904821000D+01 -0.1172459570D-01
      0.2577482000D+01 -0.3593519161D-01
      0.1326123000D+01  0.3009539528D-01
      0.6641100000D+00  0.2597617720D+00
      0.3216260000D+00  0.4199856864D+00
      0.1494910000D+00  0.3417519990D+00
      0.6607100000D-01  0.9544524524D-01
 P   1 1.00       0.000000000000
      0.6757500000D-01  0.1000000000D+01
 P   1 1.00       0.000000000000
      0.2741200000D-01  0.1000000000D+01
 S   1 1.00       0.000000000000
      0.1647296000D+01  0.1000000000D+01
 S   1 1.00       0.000000000000
      0.8600990000D+00  0.1000000000D+01
 S   1 1.00       0.000000000000
      0.4490810000D+00  0.1000000000D+01
 S   1 1.00       0.000000000000
      0.2344780000D+00  0.1000000000D+01
 S   1 1.00       0.000000000000
      0.1224270000D+00  0.1000000000D+01
 P   1 1.00       0.000000000000
      0.2151995000D+01  0.1000000000D+01
 P   1 1.00       0.000000000000
      0.1213378000D+01  0.1000000000D+01
 P   1 1.00       0.000000000000
      0.6841500000D+00  0.1000000000D+01
 P   1 1.00       0.000000000000
      0.3857500000D+00  0.1000000000D+01
 P   1 1.00       0.000000000000
      0.2175010000D+00  0.1000000000D+01
 D   1 1.00       0.000000000000
      0.2311612000D+01  0.1000000000D+01
 D   1 1.00       0.000000000000
      0.1200445000D+01  0.1000000000D+01
 D   1 1.00       0.000000000000
      0.6234040000D+00  0.1000000000D+01
 D   1 1.00       0.000000000000
      0.3237400000D+00  0.1000000000D+01
 D   1 1.00       0.000000000000
      0.1681220000D+00  0.1000000000D+01
 F   1 1.00       0.000000000000
      0.1094075000D+01  0.1000000000D+01
 F   1 1.00       0.000000000000
      0.6731320000D+00  0.1000000000D+01
 F   1 1.00       0.000000000000
      0.4141460000D+00  0.1000000000D+01
 F   1 1.00       0.000000000000
      0.2548050000D+00  0.1000000000D+01
 G   1 1.00       0.000000000000
      0.1346554000D+01  0.1000000000D+01
 G   1 1.00       0.000000000000
      0.7282520000D+00  0.1000000000D+01
 G   1 1.00       0.000000000000
      0.3938580000D+00  0.1000000000D+01
 H   1 1.00       0.000000000000
      0.1116980000D+01  0.1000000000D+01
 H   1 1.00       0.000000000000
      0.5698070000D+00  0.1000000000D+01
 I   1 1.00       0.000000000000
      0.9601700123D+00  0.1000000000D+01
 ****

 There are    60 symmetry adapted basis functions of AG  symmetry.
 There are    23 symmetry adapted basis functions of B1G symmetry.
 There are    39 symmetry adapted basis functions of B2G symmetry.
 There are    39 symmetry adapted basis functions of B3G symmetry.
 There are    23 symmetry adapted basis functions of AU  symmetry.
 There are    60 symmetry adapted basis functions of B1U symmetry.
 There are    39 symmetry adapted basis functions of B2U symmetry.
 There are    39 symmetry adapted basis functions of B3U symmetry.
 Integral buffers will be    131072 words long.
 Raffenetti 2 integral format.
 Two-electron integral symmetry is turned on.
   322 basis functions,   906 primitive gaussians,   464 cartesian basis functions
    35 alpha electrons       35 beta electrons
       nuclear repulsion energy       284.1858269318 Hartrees.
 NAtoms=    2 NActive=    2 NUniq=    1 SFac= 3.00D+00 NAtFMM=   80 NAOKFM=F Big=F
 One-electron integrals computed using PRISM.
 NBasis=   322 RedAO= F  NBF=    60    23    39    39    23    60    39    39
 NBsUse=   322 1.00D-04 NBFU=    60    23    39    39    23    60    39    39
 Harris functional with IExCor=  205 diagonalized for initial guess.
 ExpMin= 2.74D-02 ExpMax= 5.68D+07 ExpMxC= 1.13D+04 IAcc=3 IRadAn=         5 AccDes= 0.00D+00
 HarFok:  IExCor=  205 AccDes= 0.00D+00 IRadAn=         5 IDoV= 1
 ScaDFX=  1.000000  1.000000  1.000000  1.000000
 FoFCou: FMM=F IPFlag=           0 FMFlag=      100000 FMFlg1=           0
         NFxFlg=           0 DoJE=T BraDBF=F KetDBF=T FulRan=T
         Omega=  0.000000  0.000000  1.000000  0.000000  0.000000 ICntrl=     500 IOpCl=  0
         NMat0=    1 NMatS0=    1 NMatT0=    0 NMatD0=    1 NMtDS0=    0 NMtDT0=    0
         I1Cent=           4 NGrid=           0.
 Petite list used in FoFCou.
 Initial guess orbital symmetries:
       Occupied  (SGU) (SGG) (SGU) (SGG) (SGU) (SGG) (PIG) (PIG)
                 (PIU) (PIU) (SGG) (SGU) (SGG) (SGU) (PIU) (PIU)
                 (PIG) (PIG) (SGG) (PIU) (PIU) (SGU) (PIG) (PIG)
                 (DLTG) (DLTG) (DLTU) (DLTU) (SGG) (SGU) (SGG)
                 (PIU) (PIU) (PIG) (PIG)
       Virtual   (SGU) (SGG) (SGU) (PIU) (PIU) (SGG) (PIG) (PIG)
                 (DLTG) (DLTG) (SGU) (PIU) (PIU) (SGG) (PIU) (PIU)
                 (SGU) (PIG) (PIG) (DLTU) (DLTU) (SGG) (SGU) (SGG)
                 (PIG) (PIG) (SGU) (SGG) (PHIU) (PHIU) (DLTG) (DLTG)
                 (PIU) (PIU) (PIU) (PIU) (PIG) (PIG) (PHIG) (PHIG)
                 (DLTG) (DLTG) (SGU) (SGG) (DLTU) (DLTU) (SGG)
                 (SGU) (PIU) (PIU) (DLTU) (DLTU) (PIG) (PIG) (SGU)
                 (PIG) (PIG) (SGG) (PIU) (PIU) (SGG) (DLTG) (DLTG)
                 (PHIU) (PHIU) (PIG) (PIG) (PIU) (PIU) (?A) (?A)
                 (SGU) (PHIU) (PHIU) (?B) (?B) (SGG) (PHIG) (PHIG)
                 (SGU) (DLTG) (DLTG) (DLTU) (DLTU) (PHIG) (PHIG)
                 (SGG) (PIG) (PIG) (SGU) (PIU) (PIU) (DLTU) (DLTU)
                 (DLTG) (DLTG) (SGG) (SGU) (PIG) (PIG) (PIU) (PIU)
                 (DLTU) (DLTU) (SGG) (SGU) (PIG) (PIG) (PHIU) (PHIU)
                 (?A) (?A) (DLTG) (DLTG) (PIU) (PIU) (?C) (?C)
                 (?D) (?D) (SGU) (SGG) (PIG) (PIG) (?B) (?B) (SGG)
                 (PIU) (PIU) (PHIU) (PHIU) (DLTG) (DLTG) (PHIG)
                 (PHIG) (DLTU) (DLTU) (PHIG) (PHIG) (PIG) (PIG)
                 (PIU) (PIU) (SGU) (SGU) (PHIU) (PHIU) (?A) (?A)
                 (?B) (?B) (DLTU) (DLTU) (SGG) (DLTG) (DLTG) (PHIG)
                 (PHIG) (SGG) (DLTU) (DLTU) (PIG) (PIG) (SGU) (PIU)
                 (PIU) (SGU) (SGG) (PIG) (PIG) (DLTG) (DLTG) (PIU)
                 (PIU) (DLTU) (DLTU) (SGU) (PIG) (PIG) (PIU) (PIU)
                 (SGG) (DLTG) (DLTG) (PHIU) (PHIU) (SGG) (PHIG)
                 (PHIG) (DLTU) (DLTU) (SGU) (DLTG) (DLTG) (PHIU)
                 (PHIU) (PIG) (PIG) (?A) (?A) (?C) (?C) (?E) (?E)
                 (?F) (?F) (?D) (?D) (SGU) (?B) (?B) (PIU) (PIU)
                 (SGG) (PIU) (PIU) (PIG) (PIG) (PHIG) (PHIG) (DLTU)
                 (DLTU) (SGG) (PIG) (PIG) (?A) (?A) (PHIU) (PHIU)
                 (?C) (?C) (?D) (?D) (SGU) (?B) (?B) (DLTG) (DLTG)
                 (PHIG) (PHIG) (SGU) (PIU) (PIU) (PHIU) (PHIU)
                 (?A) (?A) (?B) (?B) (DLTG) (DLTG) (PHIG) (PHIG)
                 (DLTU) (DLTU) (SGU) (SGG) (DLTU) (DLTU) (PIG)
                 (PIG) (PIU) (PIU) (SGG) (PIG) (PIG) (SGU) (SGG)
                 (SGU) (DLTG) (DLTG) (DLTU) (DLTU) (PIU) (PIU)
                 (PIG) (PIG) (SGG) (SGU) (PIU) (PIU) (PIG) (PIG)
                 (SGG) (SGU) (SGG) (SGU)
 The electronic state of the initial guess is 1-SGG.
 Requested convergence on RMS density matrix=1.00D-10 within 128 cycles.
 Requested convergence on MAX density matrix=1.00D-08.
 Requested convergence on             energy=1.00D-08.
 No special actions if energy rises.
 Initial convergence to 1.0D-05 achieved.  Increase integral accuracy.
 SCF Done:  E(ROHF) =  -5144.92251713     A.U. after   14 cycles
             Convg  =    0.4859D-10             -V/T =  2.0000
 <Sx>= 0.0000 <Sy>= 0.0000 <Sz>= 0.0000 <S**2>= 0.0000 S= 0.0000
 <L.S>= 0.000000000000E+00
 Annihilation of the first spin contaminant:
 S**2 before annihilation     0.0000,   after     0.0000
 GenMOA:  NOpAll=  8 NOp2=8 NOpUse=  8 JSym2X=1
 <Sx>= 0.0000 <Sy>= 0.0000 <Sz>= 0.0000 <S**2>= 0.0000 S= 0.0000
 Range of M.O.s used for correlation:    29   322
 NBasis=   322 NAE=    35 NBE=    35 NFC=    28 NFV=     0
 NROrb=    294 NOA=     7 NOB=     7 NVA=   287 NVB=   287

 **** Warning!!: The largest alpha MO coefficient is  0.69806154D+03


 **** Warning!!: The largest beta MO coefficient is  0.69806154D+03

 Singles contribution to E2=   -0.8121950747D-14
 Disk-based method using OVN memory for  7 occupieds at a time.
 Permanent disk used for amplitudes and <ij||ab> integrals=    11519606 words.
 Estimated scratch disk usage=   287910015 words.
 IUseRI=2 ITolRI= 6 IR12RI=0
 Actual    scratch disk usage=   286338175 words.
 GetIJB would need an additional  1385455282 words of memory to use all   8 processors.
 JobTyp=2 Pass  1:  I=   1 to   7 NPSUse=  1 ParTrn=F ParDer=F DoDerP=F.
 (rs|ai) integrals will be sorted in core.
 T,EIJ(AA): I=   1 J=   2      0.1000235E-03     -0.3472778E-03
 T,EIJ(AA): I=   1 J=   3      0.2335678E-03     -0.7992979E-03
 T,EIJ(AA): I=   1 J=   4      0.2836983E-03     -0.9529638E-03
 T,EIJ(AA): I=   1 J=   5      0.2836983E-03     -0.9529638E-03
 T,EIJ(AA): I=   1 J=   6      0.2427835E-03     -0.8523059E-03
 T,EIJ(AA): I=   1 J=   7      0.2427835E-03     -0.8523059E-03
 T,EIJ(AA): I=   2 J=   3      0.7869677E-03     -0.2048883E-02
 T,EIJ(AA): I=   2 J=   4      0.4815767E-03     -0.1293302E-02
 T,EIJ(AA): I=   2 J=   5      0.4815767E-03     -0.1293302E-02
 T,EIJ(AA): I=   2 J=   6      0.3821638E-03     -0.1125303E-02
 T,EIJ(AA): I=   2 J=   7      0.3821638E-03     -0.1125303E-02
 T,EIJ(AA): I=   3 J=   4      0.1505939E-02     -0.3512768E-02
 T,EIJ(AA): I=   3 J=   5      0.1505939E-02     -0.3512768E-02
 T,EIJ(AA): I=   3 J=   6      0.2515761E-02     -0.4820514E-02
 T,EIJ(AA): I=   3 J=   7      0.2515761E-02     -0.4820514E-02
 T,EIJ(AA): I=   4 J=   5      0.1347728E-02     -0.3137178E-02
 T,EIJ(AA): I=   4 J=   6      0.2772407E-03     -0.5674323E-03
 T,EIJ(AA): I=   4 J=   7      0.1287609E-02     -0.3045825E-02
 T,EIJ(AA): I=   5 J=   6      0.1287609E-02     -0.3045825E-02
 T,EIJ(AA): I=   5 J=   7      0.2772407E-03     -0.5674323E-03
 T,EIJ(AA): I=   6 J=   7      0.1598696E-02     -0.3575639E-02
 T,EIJ(AB): I=   1 J=   1      0.1588912E-02     -0.6436453E-02
 T,EIJ(AB): I=   1 J=   2      0.8956316E-03     -0.4120785E-02
 T,EIJ(AB): I=   1 J=   3      0.1410255E-02     -0.5428274E-02
 T,EIJ(AB): I=   1 J=   4      0.1058946E-02     -0.4077534E-02
 T,EIJ(AB): I=   1 J=   5      0.1058946E-02     -0.4077534E-02
 T,EIJ(AB): I=   1 J=   6      0.9707784E-03     -0.3723388E-02
 T,EIJ(AB): I=   1 J=   7      0.9707784E-03     -0.3723388E-02
 T,EIJ(AB): I=   2 J=   1      0.8956316E-03     -0.4120785E-02
 T,EIJ(AB): I=   2 J=   2      0.1980934E-02     -0.6901083E-02
 T,EIJ(AB): I=   2 J=   3      0.1815131E-02     -0.5856774E-02
 T,EIJ(AB): I=   2 J=   4      0.1368270E-02     -0.4617343E-02
 T,EIJ(AB): I=   2 J=   5      0.1368270E-02     -0.4617343E-02
 T,EIJ(AB): I=   2 J=   6      0.1507966E-02     -0.5207411E-02
 T,EIJ(AB): I=   2 J=   7      0.1507966E-02     -0.5207411E-02
 T,EIJ(AB): I=   3 J=   1      0.1410255E-02     -0.5428274E-02
 T,EIJ(AB): I=   3 J=   2      0.1815131E-02     -0.5856774E-02
 T,EIJ(AB): I=   3 J=   3      0.1185534E-01     -0.2062553E-01
 T,EIJ(AB): I=   3 J=   4      0.1968024E-02     -0.5178554E-02
 T,EIJ(AB): I=   3 J=   5      0.1968024E-02     -0.5178554E-02
 T,EIJ(AB): I=   3 J=   6      0.2844731E-02     -0.6226937E-02
 T,EIJ(AB): I=   3 J=   7      0.2844731E-02     -0.6226937E-02
 T,EIJ(AB): I=   4 J=   1      0.1058946E-02     -0.4077534E-02
 T,EIJ(AB): I=   4 J=   2      0.1368270E-02     -0.4617343E-02
 T,EIJ(AB): I=   4 J=   3      0.1968024E-02     -0.5178554E-02
 T,EIJ(AB): I=   4 J=   4      0.3923756E-02     -0.9933648E-02
 T,EIJ(AB): I=   4 J=   5      0.1739675E-02     -0.4430665E-02
 T,EIJ(AB): I=   4 J=   6      0.3519714E-02     -0.9412378E-02
 T,EIJ(AB): I=   4 J=   7      0.1649812E-02     -0.4284825E-02
 T,EIJ(AB): I=   5 J=   1      0.1058946E-02     -0.4077534E-02
 T,EIJ(AB): I=   5 J=   2      0.1368270E-02     -0.4617343E-02
 T,EIJ(AB): I=   5 J=   3      0.1968024E-02     -0.5178554E-02
 T,EIJ(AB): I=   5 J=   4      0.1739675E-02     -0.4430665E-02
 T,EIJ(AB): I=   5 J=   5      0.3923756E-02     -0.9933648E-02
 T,EIJ(AB): I=   5 J=   6      0.1649812E-02     -0.4284825E-02
 T,EIJ(AB): I=   5 J=   7      0.3519714E-02     -0.9412378E-02
 T,EIJ(AB): I=   6 J=   1      0.9707784E-03     -0.3723388E-02
 T,EIJ(AB): I=   6 J=   2      0.1507966E-02     -0.5207411E-02
 T,EIJ(AB): I=   6 J=   3      0.2844731E-02     -0.6226937E-02
 T,EIJ(AB): I=   6 J=   4      0.3519714E-02     -0.9412378E-02
 T,EIJ(AB): I=   6 J=   5      0.1649812E-02     -0.4284825E-02
 T,EIJ(AB): I=   6 J=   6      0.4753812E-02     -0.1141309E-01
 T,EIJ(AB): I=   6 J=   7      0.2081232E-02     -0.5113689E-02
 T,EIJ(AB): I=   7 J=   1      0.9707784E-03     -0.3723388E-02
 T,EIJ(AB): I=   7 J=   2      0.1507966E-02     -0.5207411E-02
 T,EIJ(AB): I=   7 J=   3      0.2844731E-02     -0.6226937E-02
 T,EIJ(AB): I=   7 J=   4      0.1649812E-02     -0.4284825E-02
 T,EIJ(AB): I=   7 J=   5      0.3519714E-02     -0.9412378E-02
 T,EIJ(AB): I=   7 J=   6      0.2081232E-02     -0.5113689E-02
 T,EIJ(AB): I=   7 J=   7      0.4753812E-02     -0.1141309E-01
 Actual    scratch disk usage=   286338175 words.
 GetIJB would need an additional  1385455282 words of memory to use all   8 processors.
 JobTyp=3 Pass  1:  I=   1 to   7 NPSUse=  1 ParTrn=F ParDer=F DoDerP=F.
 (rs|ai) integrals will be sorted in core.
 T,EIJ(BB): I=   1 J=   2      0.1000235E-03     -0.3472778E-03
 T,EIJ(BB): I=   1 J=   3      0.2335678E-03     -0.7992979E-03
 T,EIJ(BB): I=   1 J=   4      0.2836983E-03     -0.9529638E-03
 T,EIJ(BB): I=   1 J=   5      0.2836983E-03     -0.9529638E-03
 T,EIJ(BB): I=   1 J=   6      0.2427835E-03     -0.8523059E-03
 T,EIJ(BB): I=   1 J=   7      0.2427835E-03     -0.8523059E-03
 T,EIJ(BB): I=   2 J=   3      0.7869677E-03     -0.2048883E-02
 T,EIJ(BB): I=   2 J=   4      0.4815767E-03     -0.1293302E-02
 T,EIJ(BB): I=   2 J=   5      0.4815767E-03     -0.1293302E-02
 T,EIJ(BB): I=   2 J=   6      0.3821638E-03     -0.1125303E-02
 T,EIJ(BB): I=   2 J=   7      0.3821638E-03     -0.1125303E-02
 T,EIJ(BB): I=   3 J=   4      0.1505939E-02     -0.3512768E-02
 T,EIJ(BB): I=   3 J=   5      0.1505939E-02     -0.3512768E-02
 T,EIJ(BB): I=   3 J=   6      0.2515761E-02     -0.4820514E-02
 T,EIJ(BB): I=   3 J=   7      0.2515761E-02     -0.4820514E-02
 T,EIJ(BB): I=   4 J=   5      0.1347728E-02     -0.3137178E-02
 T,EIJ(BB): I=   4 J=   6      0.2772407E-03     -0.5674323E-03
 T,EIJ(BB): I=   4 J=   7      0.1287609E-02     -0.3045825E-02
 T,EIJ(BB): I=   5 J=   6      0.1287609E-02     -0.3045825E-02
 T,EIJ(BB): I=   5 J=   7      0.2772407E-03     -0.5674323E-03
 T,EIJ(BB): I=   6 J=   7      0.1598696E-02     -0.3575639E-02
 Spin components of T(2) and E(2):
     alpha-alpha T2 =       0.1802052588D-01 E2=     -0.4224910453D-01
     alpha-beta  T2 =       0.1082171412D+00 E2=     -0.2974704007D+00
     beta-beta   T2 =       0.1802052588D-01 E2=     -0.4224910453D-01
 ANorm=    0.1069700048D+01
 E2 =    -0.3819686098D+00 EUMP2 =    -0.51453044857359D+04

 Complete Basis Set (CBS) Extrapolation:
 M. R. Nyden and G. A. Petersson, JCP 75, 1843 (1981)
 G. A. Petersson and M. A. Al-Laham, JCP 94, 6081 (1991)
 G. A. Petersson, T. Tensfeldt, and J. A. Montgomery, JCP 94, 6091 (1991)
 J. A. Montgomery, J. W. Ochterski, and G. A. Petersson, JCP 101, 5900 (1994)
 
 Minimum Number of PNO for Extrapolation =  20
 Absolute Overlaps: IRadAn =         5
 LocTrn: ILocal=3 LocCor=F DoCore=F.
 Entering OneElI...
 Overlap between basis sets.
 Requested accuracy = 0.1000D-12
 PrsmSu:  NPrtUS=   1 ThrOK=F IAlg=1
 PRISM was handed  1610160433 working-precision words and   136 shell-pairs
 IPart=  0 NShTot=         136 NBatch=          16 AvBLen=         8.5
 CnvPC2: ToCart=F DoDens=F IPureD=0 IPureF=0.
 Transformed matrix in CnvPC2: 
                 1             2             3             4             5 
      1   0.100000D+01  0.406589D+00  0.000000D+00  0.000000D+00  0.000000D+00
      2   0.406589D+00  0.100000D+01  0.000000D+00  0.000000D+00  0.000000D+00
      3   0.000000D+00  0.000000D+00  0.100000D+01  0.000000D+00  0.000000D+00
      4   0.000000D+00  0.000000D+00  0.000000D+00  0.100000D+01  0.000000D+00
      5   0.000000D+00  0.000000D+00  0.000000D+00  0.000000D+00  0.100000D+01
      6   0.319944D-01  0.362204D+00  0.000000D+00  0.000000D+00  0.000000D+00
      7   0.000000D+00  0.000000D+00  0.375020D+00  0.000000D+00  0.000000D+00
      8   0.000000D+00  0.000000D+00  0.000000D+00  0.375020D+00  0.000000D+00
      9   0.000000D+00  0.000000D+00  0.000000D+00  0.000000D+00  0.375020D+00
     10   0.000000D+00  0.000000D+00  0.000000D+00  0.000000D+00  0.000000D+00
     11   0.000000D+00  0.000000D+00  0.000000D+00  0.000000D+00  0.000000D+00
     12   0.000000D+00  0.000000D+00  0.000000D+00  0.000000D+00  0.000000D+00
     13   0.000000D+00  0.000000D+00  0.000000D+00  0.000000D+00  0.000000D+00
     14   0.000000D+00  0.000000D+00  0.000000D+00  0.000000D+00  0.000000D+00
     15  -0.396207D-03  0.612395D-02  0.000000D+00  0.000000D+00  0.000000D+00
     16   0.000000D+00  0.000000D+00  0.149285D-01  0.000000D+00  0.000000D+00
     17   0.000000D+00  0.000000D+00  0.000000D+00  0.149285D-01  0.000000D+00
     18   0.000000D+00  0.000000D+00  0.000000D+00  0.000000D+00  0.149285D-01
     19   0.000000D+00  0.000000D+00  0.000000D+00  0.000000D+00  0.000000D+00
     20   0.000000D+00  0.000000D+00  0.000000D+00  0.000000D+00  0.000000D+00
     21   0.000000D+00  0.000000D+00  0.000000D+00  0.000000D+00  0.000000D+00
     22   0.000000D+00  0.000000D+00  0.000000D+00  0.000000D+00  0.000000D+00
     23   0.000000D+00  0.000000D+00  0.000000D+00  0.000000D+00  0.000000D+00
     24   0.000000D+00  0.000000D+00  0.000000D+00  0.000000D+00  0.000000D+00
     25   0.000000D+00  0.000000D+00  0.000000D+00  0.000000D+00  0.000000D+00
     26   0.000000D+00  0.000000D+00  0.000000D+00  0.000000D+00  0.000000D+00
     27   0.000000D+00  0.000000D+00  0.000000D+00  0.000000D+00  0.000000D+00
     28   0.000000D+00  0.000000D+00  0.000000D+00  0.000000D+00  0.000000D+00
     29   0.000000D+00  0.000000D+00  0.000000D+00  0.000000D+00  0.000000D+00
     30   0.000000D+00  0.000000D+00  0.000000D+00  0.000000D+00  0.000000D+00
     31   0.000000D+00  0.000000D+00  0.000000D+00  0.000000D+00  0.000000D+00
     32   0.000000D+00  0.000000D+00  0.000000D+00  0.000000D+00  0.000000D+00
     33   0.000000D+00  0.000000D+00  0.000000D+00  0.000000D+00  0.000000D+00
     34   0.000000D+00  0.000000D+00  0.000000D+00  0.000000D+00  0.000000D+00
     35   0.000000D+00  0.000000D+00  0.000000D+00  0.000000D+00  0.000000D+00
     36   0.000000D+00  0.000000D+00  0.000000D+00  0.000000D+00  0.000000D+00
     37   0.000000D+00  0.000000D+00  0.000000D+00  0.000000D+00  0.000000D+00
     38   0.265712D-03  0.165531D-02  0.000000D+00  0.000000D+00 -0.501541D-03
     39   0.000000D+00  0.000000D+00  0.120449D-03  0.000000D+00  0.000000D+00
     40   0.000000D+00  0.000000D+00  0.000000D+00  0.120449D-03  0.000000D+00
     41   0.537904D-03  0.332266D-02  0.000000D+00  0.000000D+00 -0.906502D-03
     42   0.399451D-02  0.241092D-01  0.000000D+00  0.000000D+00 -0.373653D-02
     43   0.000000D+00  0.000000D+00  0.151710D-02  0.000000D+00  0.000000D+00
     44   0.000000D+00  0.000000D+00  0.000000D+00  0.151710D-02  0.000000D+00
     45   0.000000D+00  0.000000D+00  0.000000D+00  0.000000D+00  0.000000D+00
     46   0.000000D+00  0.000000D+00  0.000000D+00  0.000000D+00  0.000000D+00
                 6             7             8             9            10 
      1   0.319944D-01  0.000000D+00  0.000000D+00  0.000000D+00  0.000000D+00
      2   0.362204D+00  0.000000D+00  0.000000D+00  0.000000D+00  0.000000D+00
      3   0.000000D+00  0.375020D+00  0.000000D+00  0.000000D+00  0.000000D+00
      4   0.000000D+00  0.000000D+00  0.375020D+00  0.000000D+00  0.000000D+00
      5   0.000000D+00  0.000000D+00  0.000000D+00  0.375020D+00  0.000000D+00
      6   0.100000D+01  0.000000D+00  0.000000D+00  0.000000D+00  0.000000D+00
      7   0.000000D+00  0.100000D+01  0.000000D+00  0.000000D+00  0.000000D+00
      8   0.000000D+00  0.000000D+00  0.100000D+01  0.000000D+00  0.000000D+00
      9   0.000000D+00  0.000000D+00  0.000000D+00  0.100000D+01  0.000000D+00
     10   0.000000D+00  0.000000D+00  0.000000D+00  0.000000D+00  0.100000D+01
     11   0.000000D+00  0.000000D+00  0.000000D+00  0.000000D+00  0.000000D+00
     12   0.000000D+00  0.000000D+00  0.000000D+00  0.000000D+00  0.000000D+00
     13   0.000000D+00  0.000000D+00  0.000000D+00  0.000000D+00  0.000000D+00
     14   0.000000D+00  0.000000D+00  0.000000D+00  0.000000D+00  0.000000D+00
     15   0.201919D+00  0.000000D+00  0.000000D+00  0.000000D+00  0.000000D+00
     16   0.000000D+00  0.218356D+00  0.000000D+00  0.000000D+00  0.000000D+00
     17   0.000000D+00  0.000000D+00  0.218356D+00  0.000000D+00  0.000000D+00
     18   0.000000D+00  0.000000D+00  0.000000D+00  0.218356D+00  0.000000D+00
     19   0.000000D+00  0.000000D+00  0.000000D+00  0.000000D+00  0.404997D-01
     20   0.000000D+00  0.000000D+00  0.000000D+00  0.000000D+00  0.000000D+00
     21   0.000000D+00  0.000000D+00  0.000000D+00  0.000000D+00  0.000000D+00
     22   0.000000D+00  0.000000D+00  0.000000D+00  0.000000D+00  0.000000D+00
     23   0.000000D+00  0.000000D+00  0.000000D+00  0.000000D+00  0.000000D+00
     24   0.000000D+00  0.000000D+00  0.000000D+00  0.000000D+00  0.000000D+00
     25   0.000000D+00  0.000000D+00  0.000000D+00  0.000000D+00  0.000000D+00
     26   0.000000D+00  0.000000D+00  0.000000D+00  0.000000D+00  0.000000D+00
     27   0.000000D+00  0.000000D+00  0.000000D+00  0.000000D+00  0.000000D+00
     28   0.000000D+00  0.000000D+00  0.000000D+00  0.000000D+00  0.000000D+00
     29   0.000000D+00  0.000000D+00  0.000000D+00  0.000000D+00  0.000000D+00
     30   0.000000D+00  0.000000D+00  0.000000D+00  0.000000D+00  0.000000D+00
     31   0.000000D+00  0.000000D+00  0.000000D+00  0.000000D+00  0.000000D+00
     32   0.000000D+00  0.000000D+00  0.000000D+00  0.000000D+00  0.000000D+00
     33   0.000000D+00  0.000000D+00  0.000000D+00  0.000000D+00  0.000000D+00
     34   0.000000D+00  0.000000D+00  0.000000D+00  0.000000D+00  0.000000D+00
     35   0.000000D+00  0.000000D+00  0.000000D+00  0.000000D+00  0.000000D+00
     36   0.000000D+00  0.000000D+00  0.000000D+00  0.000000D+00  0.000000D+00
     37   0.000000D+00  0.000000D+00  0.000000D+00  0.000000D+00  0.000000D+00
     38   0.101875D-01  0.000000D+00  0.000000D+00 -0.798616D-02  0.346534D-02
     39   0.000000D+00  0.195601D-02  0.000000D+00  0.000000D+00  0.000000D+00
     40   0.000000D+00  0.000000D+00  0.195601D-02  0.000000D+00  0.000000D+00
     41   0.193188D-01  0.000000D+00  0.000000D+00 -0.138766D-01  0.561335D-02
     42   0.117881D+00  0.000000D+00  0.000000D+00 -0.484556D-01  0.100601D-01
     43   0.000000D+00  0.212350D-01  0.000000D+00  0.000000D+00  0.000000D+00
     44   0.000000D+00  0.000000D+00  0.212350D-01  0.000000D+00  0.000000D+00
     45   0.000000D+00  0.000000D+00  0.000000D+00  0.000000D+00  0.000000D+00
     46   0.000000D+00  0.000000D+00  0.000000D+00  0.000000D+00  0.000000D+00
                11            12            13            14            15 
      1   0.000000D+00  0.000000D+00  0.000000D+00  0.000000D+00 -0.396207D-03
      2   0.000000D+00  0.000000D+00  0.000000D+00  0.000000D+00  0.612395D-02
      3   0.000000D+00  0.000000D+00  0.000000D+00  0.000000D+00  0.000000D+00
      4   0.000000D+00  0.000000D+00  0.000000D+00  0.000000D+00  0.000000D+00
      5   0.000000D+00  0.000000D+00  0.000000D+00  0.000000D+00  0.000000D+00
      6   0.000000D+00  0.000000D+00  0.000000D+00  0.000000D+00  0.201919D+00
      7   0.000000D+00  0.000000D+00  0.000000D+00  0.000000D+00  0.000000D+00
      8   0.000000D+00  0.000000D+00  0.000000D+00  0.000000D+00  0.000000D+00
      9   0.000000D+00  0.000000D+00  0.000000D+00  0.000000D+00  0.000000D+00
     10   0.000000D+00  0.000000D+00  0.000000D+00  0.000000D+00  0.000000D+00
     11   0.100000D+01  0.000000D+00  0.000000D+00  0.000000D+00  0.000000D+00
     12   0.000000D+00  0.100000D+01  0.000000D+00  0.000000D+00  0.000000D+00
     13   0.000000D+00  0.000000D+00  0.100000D+01  0.000000D+00  0.000000D+00
     14   0.000000D+00  0.000000D+00  0.000000D+00  0.100000D+01  0.000000D+00
     15   0.000000D+00  0.000000D+00  0.000000D+00  0.000000D+00  0.100000D+01
     16   0.000000D+00  0.000000D+00  0.000000D+00  0.000000D+00  0.000000D+00
     17   0.000000D+00  0.000000D+00  0.000000D+00  0.000000D+00  0.000000D+00
     18   0.000000D+00  0.000000D+00  0.000000D+00  0.000000D+00  0.000000D+00
     19   0.000000D+00  0.000000D+00  0.000000D+00  0.000000D+00  0.000000D+00
     20   0.404997D-01  0.000000D+00  0.000000D+00  0.000000D+00  0.000000D+00
     21   0.000000D+00  0.404997D-01  0.000000D+00  0.000000D+00  0.000000D+00
     22   0.000000D+00  0.000000D+00  0.404997D-01  0.000000D+00  0.000000D+00
     23   0.000000D+00  0.000000D+00  0.000000D+00  0.404997D-01  0.000000D+00
     24   0.000000D+00  0.000000D+00  0.000000D+00  0.000000D+00  0.265712D-03
     25   0.000000D+00  0.000000D+00  0.000000D+00  0.000000D+00  0.165531D-02
     26   0.000000D+00  0.000000D+00  0.000000D+00  0.000000D+00  0.000000D+00
     27   0.000000D+00  0.000000D+00  0.000000D+00  0.000000D+00  0.000000D+00
     28   0.000000D+00  0.000000D+00  0.000000D+00  0.000000D+00  0.501541D-03
     29   0.000000D+00  0.000000D+00  0.000000D+00  0.000000D+00  0.101875D-01
     30   0.000000D+00  0.000000D+00  0.000000D+00  0.000000D+00  0.000000D+00
     31   0.000000D+00  0.000000D+00  0.000000D+00  0.000000D+00  0.000000D+00
     32   0.000000D+00  0.000000D+00  0.000000D+00  0.000000D+00  0.798616D-02
     33   0.000000D+00  0.000000D+00  0.000000D+00  0.000000D+00  0.346534D-02
     34   0.000000D+00  0.000000D+00  0.000000D+00  0.000000D+00  0.000000D+00
     35   0.000000D+00  0.000000D+00  0.000000D+00  0.000000D+00  0.000000D+00
     36   0.000000D+00  0.000000D+00  0.000000D+00  0.000000D+00  0.000000D+00
     37   0.000000D+00  0.000000D+00  0.000000D+00  0.000000D+00  0.000000D+00
     38   0.000000D+00  0.000000D+00  0.000000D+00  0.000000D+00  0.145921D+00
     39  -0.152064D-02  0.000000D+00  0.000000D+00  0.000000D+00  0.000000D+00
     40   0.000000D+00 -0.152064D-02  0.000000D+00  0.000000D+00  0.000000D+00
     41   0.000000D+00  0.000000D+00  0.000000D+00  0.000000D+00  0.201178D+00
     42   0.000000D+00  0.000000D+00  0.000000D+00  0.000000D+00  0.389720D+00
     43  -0.101670D-01  0.000000D+00  0.000000D+00  0.000000D+00  0.000000D+00
     44   0.000000D+00 -0.101670D-01  0.000000D+00  0.000000D+00  0.000000D+00
     45   0.000000D+00  0.000000D+00  0.204758D-02  0.000000D+00  0.000000D+00
     46   0.000000D+00  0.000000D+00  0.000000D+00  0.204758D-02  0.000000D+00
                16            17            18            19            20 
      1   0.000000D+00  0.000000D+00  0.000000D+00  0.000000D+00  0.000000D+00
      2   0.000000D+00  0.000000D+00  0.000000D+00  0.000000D+00  0.000000D+00
      3   0.149285D-01  0.000000D+00  0.000000D+00  0.000000D+00  0.000000D+00
      4   0.000000D+00  0.149285D-01  0.000000D+00  0.000000D+00  0.000000D+00
      5   0.000000D+00  0.000000D+00  0.149285D-01  0.000000D+00  0.000000D+00
      6   0.000000D+00  0.000000D+00  0.000000D+00  0.000000D+00  0.000000D+00
      7   0.218356D+00  0.000000D+00  0.000000D+00  0.000000D+00  0.000000D+00
      8   0.000000D+00  0.218356D+00  0.000000D+00  0.000000D+00  0.000000D+00
      9   0.000000D+00  0.000000D+00  0.218356D+00  0.000000D+00  0.000000D+00
     10   0.000000D+00  0.000000D+00  0.000000D+00  0.404997D-01  0.000000D+00
     11   0.000000D+00  0.000000D+00  0.000000D+00  0.000000D+00  0.404997D-01
     12   0.000000D+00  0.000000D+00  0.000000D+00  0.000000D+00  0.000000D+00
     13   0.000000D+00  0.000000D+00  0.000000D+00  0.000000D+00  0.000000D+00
     14   0.000000D+00  0.000000D+00  0.000000D+00  0.000000D+00  0.000000D+00
     15   0.000000D+00  0.000000D+00  0.000000D+00  0.000000D+00  0.000000D+00
     16   0.100000D+01  0.000000D+00  0.000000D+00  0.000000D+00  0.000000D+00
     17   0.000000D+00  0.100000D+01  0.000000D+00  0.000000D+00  0.000000D+00
     18   0.000000D+00  0.000000D+00  0.100000D+01  0.000000D+00  0.000000D+00
     19   0.000000D+00  0.000000D+00  0.000000D+00  0.100000D+01  0.000000D+00
     20   0.000000D+00  0.000000D+00  0.000000D+00  0.000000D+00  0.100000D+01
     21   0.000000D+00  0.000000D+00  0.000000D+00  0.000000D+00  0.000000D+00
     22   0.000000D+00  0.000000D+00  0.000000D+00  0.000000D+00  0.000000D+00
     23   0.000000D+00  0.000000D+00  0.000000D+00  0.000000D+00  0.000000D+00
     24   0.000000D+00  0.000000D+00 -0.537904D-03  0.399451D-02  0.000000D+00
     25   0.000000D+00  0.000000D+00 -0.332266D-02  0.241092D-01  0.000000D+00
     26   0.120449D-03  0.000000D+00  0.000000D+00  0.000000D+00 -0.151710D-02
     27   0.000000D+00  0.120449D-03  0.000000D+00  0.000000D+00  0.000000D+00
     28   0.000000D+00  0.000000D+00 -0.906502D-03  0.373653D-02  0.000000D+00
     29   0.000000D+00  0.000000D+00 -0.193188D-01  0.117881D+00  0.000000D+00
     30   0.195601D-02  0.000000D+00  0.000000D+00  0.000000D+00 -0.212350D-01
     31   0.000000D+00  0.195601D-02  0.000000D+00  0.000000D+00  0.000000D+00
     32   0.000000D+00  0.000000D+00 -0.138766D-01  0.484556D-01  0.000000D+00
     33   0.000000D+00  0.000000D+00 -0.561335D-02  0.100601D-01  0.000000D+00
     34   0.152064D-02  0.000000D+00  0.000000D+00  0.000000D+00 -0.101670D-01
     35   0.000000D+00  0.152064D-02  0.000000D+00  0.000000D+00  0.000000D+00
     36   0.000000D+00  0.000000D+00  0.000000D+00  0.000000D+00  0.000000D+00
     37   0.000000D+00  0.000000D+00  0.000000D+00  0.000000D+00  0.000000D+00
     38   0.000000D+00  0.000000D+00 -0.201178D+00  0.389720D+00  0.000000D+00
     39   0.650526D-01  0.000000D+00  0.000000D+00  0.000000D+00 -0.270163D+00
     40   0.000000D+00  0.650526D-01  0.000000D+00  0.000000D+00  0.000000D+00
     41   0.000000D+00  0.000000D+00 -0.264038D+00  0.308374D+00  0.000000D+00
     42   0.000000D+00  0.000000D+00 -0.308374D+00  0.235451D-01  0.000000D+00
     43   0.270163D+00  0.000000D+00  0.000000D+00  0.000000D+00 -0.444927D+00
     44   0.000000D+00  0.270163D+00  0.000000D+00  0.000000D+00  0.000000D+00
     45   0.000000D+00  0.000000D+00  0.000000D+00  0.000000D+00  0.000000D+00
     46   0.000000D+00  0.000000D+00  0.000000D+00  0.000000D+00  0.000000D+00
                21            22            23            24            25 
      1   0.000000D+00  0.000000D+00  0.000000D+00  0.000000D+00  0.000000D+00
      2   0.000000D+00  0.000000D+00  0.000000D+00  0.000000D+00  0.000000D+00
      3   0.000000D+00  0.000000D+00  0.000000D+00  0.000000D+00  0.000000D+00
      4   0.000000D+00  0.000000D+00  0.000000D+00  0.000000D+00  0.000000D+00
      5   0.000000D+00  0.000000D+00  0.000000D+00  0.000000D+00  0.000000D+00
      6   0.000000D+00  0.000000D+00  0.000000D+00  0.000000D+00  0.000000D+00
      7   0.000000D+00  0.000000D+00  0.000000D+00  0.000000D+00  0.000000D+00
      8   0.000000D+00  0.000000D+00  0.000000D+00  0.000000D+00  0.000000D+00
      9   0.000000D+00  0.000000D+00  0.000000D+00  0.000000D+00  0.000000D+00
     10   0.000000D+00  0.000000D+00  0.000000D+00  0.000000D+00  0.000000D+00
     11   0.000000D+00  0.000000D+00  0.000000D+00  0.000000D+00  0.000000D+00
     12   0.404997D-01  0.000000D+00  0.000000D+00  0.000000D+00  0.000000D+00
     13   0.000000D+00  0.404997D-01  0.000000D+00  0.000000D+00  0.000000D+00
     14   0.000000D+00  0.000000D+00  0.404997D-01  0.000000D+00  0.000000D+00
     15   0.000000D+00  0.000000D+00  0.000000D+00  0.265712D-03  0.165531D-02
     16   0.000000D+00  0.000000D+00  0.000000D+00  0.000000D+00  0.000000D+00
     17   0.000000D+00  0.000000D+00  0.000000D+00  0.000000D+00  0.000000D+00
     18   0.000000D+00  0.000000D+00  0.000000D+00 -0.537904D-03 -0.332266D-02
     19   0.000000D+00  0.000000D+00  0.000000D+00  0.399451D-02  0.241092D-01
     20   0.000000D+00  0.000000D+00  0.000000D+00  0.000000D+00  0.000000D+00
     21   0.100000D+01  0.000000D+00  0.000000D+00  0.000000D+00  0.000000D+00
     22   0.000000D+00  0.100000D+01  0.000000D+00  0.000000D+00  0.000000D+00
     23   0.000000D+00  0.000000D+00  0.100000D+01  0.000000D+00  0.000000D+00
     24   0.000000D+00  0.000000D+00  0.000000D+00  0.100000D+01  0.406589D+00
     25   0.000000D+00  0.000000D+00  0.000000D+00  0.406589D+00  0.100000D+01
     26   0.000000D+00  0.000000D+00  0.000000D+00  0.000000D+00  0.000000D+00
     27  -0.151710D-02  0.000000D+00  0.000000D+00  0.000000D+00  0.000000D+00
     28   0.000000D+00  0.000000D+00  0.000000D+00  0.000000D+00  0.000000D+00
     29   0.000000D+00  0.000000D+00  0.000000D+00  0.319944D-01  0.362204D+00
     30   0.000000D+00  0.000000D+00  0.000000D+00  0.000000D+00  0.000000D+00
     31  -0.212350D-01  0.000000D+00  0.000000D+00  0.000000D+00  0.000000D+00
     32   0.000000D+00  0.000000D+00  0.000000D+00  0.000000D+00  0.000000D+00
     33   0.000000D+00  0.000000D+00  0.000000D+00  0.000000D+00  0.000000D+00
     34   0.000000D+00  0.000000D+00  0.000000D+00  0.000000D+00  0.000000D+00
     35  -0.101670D-01  0.000000D+00  0.000000D+00  0.000000D+00  0.000000D+00
     36   0.000000D+00  0.204758D-02  0.000000D+00  0.000000D+00  0.000000D+00
     37   0.000000D+00  0.000000D+00  0.204758D-02  0.000000D+00  0.000000D+00
     38   0.000000D+00  0.000000D+00  0.000000D+00 -0.396207D-03  0.612395D-02
     39   0.000000D+00  0.000000D+00  0.000000D+00  0.000000D+00  0.000000D+00
     40  -0.270163D+00  0.000000D+00  0.000000D+00  0.000000D+00  0.000000D+00
     41   0.000000D+00  0.000000D+00  0.000000D+00  0.000000D+00  0.000000D+00
     42   0.000000D+00  0.000000D+00  0.000000D+00  0.000000D+00  0.000000D+00
     43   0.000000D+00  0.000000D+00  0.000000D+00  0.000000D+00  0.000000D+00
     44  -0.444927D+00  0.000000D+00  0.000000D+00  0.000000D+00  0.000000D+00
     45   0.000000D+00  0.206103D+00  0.000000D+00  0.000000D+00  0.000000D+00
     46   0.000000D+00  0.000000D+00  0.206103D+00  0.000000D+00  0.000000D+00
                26            27            28            29            30 
      1   0.000000D+00  0.000000D+00  0.000000D+00  0.000000D+00  0.000000D+00
      2   0.000000D+00  0.000000D+00  0.000000D+00  0.000000D+00  0.000000D+00
      3   0.000000D+00  0.000000D+00  0.000000D+00  0.000000D+00  0.000000D+00
      4   0.000000D+00  0.000000D+00  0.000000D+00  0.000000D+00  0.000000D+00
      5   0.000000D+00  0.000000D+00  0.000000D+00  0.000000D+00  0.000000D+00
      6   0.000000D+00  0.000000D+00  0.000000D+00  0.000000D+00  0.000000D+00
      7   0.000000D+00  0.000000D+00  0.000000D+00  0.000000D+00  0.000000D+00
      8   0.000000D+00  0.000000D+00  0.000000D+00  0.000000D+00  0.000000D+00
      9   0.000000D+00  0.000000D+00  0.000000D+00  0.000000D+00  0.000000D+00
     10   0.000000D+00  0.000000D+00  0.000000D+00  0.000000D+00  0.000000D+00
     11   0.000000D+00  0.000000D+00  0.000000D+00  0.000000D+00  0.000000D+00
     12   0.000000D+00  0.000000D+00  0.000000D+00  0.000000D+00  0.000000D+00
     13   0.000000D+00  0.000000D+00  0.000000D+00  0.000000D+00  0.000000D+00
     14   0.000000D+00  0.000000D+00  0.000000D+00  0.000000D+00  0.000000D+00
     15   0.000000D+00  0.000000D+00  0.501541D-03  0.101875D-01  0.000000D+00
     16   0.120449D-03  0.000000D+00  0.000000D+00  0.000000D+00  0.195601D-02
     17   0.000000D+00  0.120449D-03  0.000000D+00  0.000000D+00  0.000000D+00
     18   0.000000D+00  0.000000D+00 -0.906502D-03 -0.193188D-01  0.000000D+00
     19   0.000000D+00  0.000000D+00  0.373653D-02  0.117881D+00  0.000000D+00
     20  -0.151710D-02  0.000000D+00  0.000000D+00  0.000000D+00 -0.212350D-01
     21   0.000000D+00 -0.151710D-02  0.000000D+00  0.000000D+00  0.000000D+00
     22   0.000000D+00  0.000000D+00  0.000000D+00  0.000000D+00  0.000000D+00
     23   0.000000D+00  0.000000D+00  0.000000D+00  0.000000D+00  0.000000D+00
     24   0.000000D+00  0.000000D+00  0.000000D+00  0.319944D-01  0.000000D+00
     25   0.000000D+00  0.000000D+00  0.000000D+00  0.362204D+00  0.000000D+00
     26   0.100000D+01  0.000000D+00  0.000000D+00  0.000000D+00  0.375020D+00
     27   0.000000D+00  0.100000D+01  0.000000D+00  0.000000D+00  0.000000D+00
     28   0.000000D+00  0.000000D+00  0.100000D+01  0.000000D+00  0.000000D+00
     29   0.000000D+00  0.000000D+00  0.000000D+00  0.100000D+01  0.000000D+00
     30   0.375020D+00  0.000000D+00  0.000000D+00  0.000000D+00  0.100000D+01
     31   0.000000D+00  0.375020D+00  0.000000D+00  0.000000D+00  0.000000D+00
     32   0.000000D+00  0.000000D+00  0.375020D+00  0.000000D+00  0.000000D+00
     33   0.000000D+00  0.000000D+00  0.000000D+00  0.000000D+00  0.000000D+00
     34   0.000000D+00  0.000000D+00  0.000000D+00  0.000000D+00  0.000000D+00
     35   0.000000D+00  0.000000D+00  0.000000D+00  0.000000D+00  0.000000D+00
     36   0.000000D+00  0.000000D+00  0.000000D+00  0.000000D+00  0.000000D+00
     37   0.000000D+00  0.000000D+00  0.000000D+00  0.000000D+00  0.000000D+00
     38   0.000000D+00  0.000000D+00  0.000000D+00  0.201919D+00  0.000000D+00
     39   0.149285D-01  0.000000D+00  0.000000D+00  0.000000D+00  0.218356D+00
     40   0.000000D+00  0.149285D-01  0.000000D+00  0.000000D+00  0.000000D+00
     41   0.000000D+00  0.000000D+00  0.149285D-01  0.000000D+00  0.000000D+00
     42   0.000000D+00  0.000000D+00  0.000000D+00  0.000000D+00  0.000000D+00
     43   0.000000D+00  0.000000D+00  0.000000D+00  0.000000D+00  0.000000D+00
     44   0.000000D+00  0.000000D+00  0.000000D+00  0.000000D+00  0.000000D+00
     45   0.000000D+00  0.000000D+00  0.000000D+00  0.000000D+00  0.000000D+00
     46   0.000000D+00  0.000000D+00  0.000000D+00  0.000000D+00  0.000000D+00
                31            32            33            34            35 
      1   0.000000D+00  0.000000D+00  0.000000D+00  0.000000D+00  0.000000D+00
      2   0.000000D+00  0.000000D+00  0.000000D+00  0.000000D+00  0.000000D+00
      3   0.000000D+00  0.000000D+00  0.000000D+00  0.000000D+00  0.000000D+00
      4   0.000000D+00  0.000000D+00  0.000000D+00  0.000000D+00  0.000000D+00
      5   0.000000D+00  0.000000D+00  0.000000D+00  0.000000D+00  0.000000D+00
      6   0.000000D+00  0.000000D+00  0.000000D+00  0.000000D+00  0.000000D+00
      7   0.000000D+00  0.000000D+00  0.000000D+00  0.000000D+00  0.000000D+00
      8   0.000000D+00  0.000000D+00  0.000000D+00  0.000000D+00  0.000000D+00
      9   0.000000D+00  0.000000D+00  0.000000D+00  0.000000D+00  0.000000D+00
     10   0.000000D+00  0.000000D+00  0.000000D+00  0.000000D+00  0.000000D+00
     11   0.000000D+00  0.000000D+00  0.000000D+00  0.000000D+00  0.000000D+00
     12   0.000000D+00  0.000000D+00  0.000000D+00  0.000000D+00  0.000000D+00
     13   0.000000D+00  0.000000D+00  0.000000D+00  0.000000D+00  0.000000D+00
     14   0.000000D+00  0.000000D+00  0.000000D+00  0.000000D+00  0.000000D+00
     15   0.000000D+00  0.798616D-02  0.346534D-02  0.000000D+00  0.000000D+00
     16   0.000000D+00  0.000000D+00  0.000000D+00  0.152064D-02  0.000000D+00
     17   0.195601D-02  0.000000D+00  0.000000D+00  0.000000D+00  0.152064D-02
     18   0.000000D+00 -0.138766D-01 -0.561335D-02  0.000000D+00  0.000000D+00
     19   0.000000D+00  0.484556D-01  0.100601D-01  0.000000D+00  0.000000D+00
     20   0.000000D+00  0.000000D+00  0.000000D+00 -0.101670D-01  0.000000D+00
     21  -0.212350D-01  0.000000D+00  0.000000D+00  0.000000D+00 -0.101670D-01
     22   0.000000D+00  0.000000D+00  0.000000D+00  0.000000D+00  0.000000D+00
     23   0.000000D+00  0.000000D+00  0.000000D+00  0.000000D+00  0.000000D+00
     24   0.000000D+00  0.000000D+00  0.000000D+00  0.000000D+00  0.000000D+00
     25   0.000000D+00  0.000000D+00  0.000000D+00  0.000000D+00  0.000000D+00
     26   0.000000D+00  0.000000D+00  0.000000D+00  0.000000D+00  0.000000D+00
     27   0.375020D+00  0.000000D+00  0.000000D+00  0.000000D+00  0.000000D+00
     28   0.000000D+00  0.375020D+00  0.000000D+00  0.000000D+00  0.000000D+00
     29   0.000000D+00  0.000000D+00  0.000000D+00  0.000000D+00  0.000000D+00
     30   0.000000D+00  0.000000D+00  0.000000D+00  0.000000D+00  0.000000D+00
     31   0.100000D+01  0.000000D+00  0.000000D+00  0.000000D+00  0.000000D+00
     32   0.000000D+00  0.100000D+01  0.000000D+00  0.000000D+00  0.000000D+00
     33   0.000000D+00  0.000000D+00  0.100000D+01  0.000000D+00  0.000000D+00
     34   0.000000D+00  0.000000D+00  0.000000D+00  0.100000D+01  0.000000D+00
     35   0.000000D+00  0.000000D+00  0.000000D+00  0.000000D+00  0.100000D+01
     36   0.000000D+00  0.000000D+00  0.000000D+00  0.000000D+00  0.000000D+00
     37   0.000000D+00  0.000000D+00  0.000000D+00  0.000000D+00  0.000000D+00
     38   0.000000D+00  0.000000D+00  0.000000D+00  0.000000D+00  0.000000D+00
     39   0.000000D+00  0.000000D+00  0.000000D+00  0.000000D+00  0.000000D+00
     40   0.218356D+00  0.000000D+00  0.000000D+00  0.000000D+00  0.000000D+00
     41   0.000000D+00  0.218356D+00  0.000000D+00  0.000000D+00  0.000000D+00
     42   0.000000D+00  0.000000D+00  0.404997D-01  0.000000D+00  0.000000D+00
     43   0.000000D+00  0.000000D+00  0.000000D+00  0.404997D-01  0.000000D+00
     44   0.000000D+00  0.000000D+00  0.000000D+00  0.000000D+00  0.404997D-01
     45   0.000000D+00  0.000000D+00  0.000000D+00  0.000000D+00  0.000000D+00
     46   0.000000D+00  0.000000D+00  0.000000D+00  0.000000D+00  0.000000D+00
                36            37            38            39            40 
      1   0.000000D+00  0.000000D+00  0.265712D-03  0.000000D+00  0.000000D+00
      2   0.000000D+00  0.000000D+00  0.165531D-02  0.000000D+00  0.000000D+00
      3   0.000000D+00  0.000000D+00  0.000000D+00  0.120449D-03  0.000000D+00
      4   0.000000D+00  0.000000D+00  0.000000D+00  0.000000D+00  0.120449D-03
      5   0.000000D+00  0.000000D+00 -0.501541D-03  0.000000D+00  0.000000D+00
      6   0.000000D+00  0.000000D+00  0.101875D-01  0.000000D+00  0.000000D+00
      7   0.000000D+00  0.000000D+00  0.000000D+00  0.195601D-02  0.000000D+00
      8   0.000000D+00  0.000000D+00  0.000000D+00  0.000000D+00  0.195601D-02
      9   0.000000D+00  0.000000D+00 -0.798616D-02  0.000000D+00  0.000000D+00
     10   0.000000D+00  0.000000D+00  0.346534D-02  0.000000D+00  0.000000D+00
     11   0.000000D+00  0.000000D+00  0.000000D+00 -0.152064D-02  0.000000D+00
     12   0.000000D+00  0.000000D+00  0.000000D+00  0.000000D+00 -0.152064D-02
     13   0.000000D+00  0.000000D+00  0.000000D+00  0.000000D+00  0.000000D+00
     14   0.000000D+00  0.000000D+00  0.000000D+00  0.000000D+00  0.000000D+00
     15   0.000000D+00  0.000000D+00  0.145921D+00  0.000000D+00  0.000000D+00
     16   0.000000D+00  0.000000D+00  0.000000D+00  0.650526D-01  0.000000D+00
     17   0.000000D+00  0.000000D+00  0.000000D+00  0.000000D+00  0.650526D-01
     18   0.000000D+00  0.000000D+00 -0.201178D+00  0.000000D+00  0.000000D+00
     19   0.000000D+00  0.000000D+00  0.389720D+00  0.000000D+00  0.000000D+00
     20   0.000000D+00  0.000000D+00  0.000000D+00 -0.270163D+00  0.000000D+00
     21   0.000000D+00  0.000000D+00  0.000000D+00  0.000000D+00 -0.270163D+00
     22   0.204758D-02  0.000000D+00  0.000000D+00  0.000000D+00  0.000000D+00
     23   0.000000D+00  0.204758D-02  0.000000D+00  0.000000D+00  0.000000D+00
     24   0.000000D+00  0.000000D+00 -0.396207D-03  0.000000D+00  0.000000D+00
     25   0.000000D+00  0.000000D+00  0.612395D-02  0.000000D+00  0.000000D+00
     26   0.000000D+00  0.000000D+00  0.000000D+00  0.149285D-01  0.000000D+00
     27   0.000000D+00  0.000000D+00  0.000000D+00  0.000000D+00  0.149285D-01
     28   0.000000D+00  0.000000D+00  0.000000D+00  0.000000D+00  0.000000D+00
     29   0.000000D+00  0.000000D+00  0.201919D+00  0.000000D+00  0.000000D+00
     30   0.000000D+00  0.000000D+00  0.000000D+00  0.218356D+00  0.000000D+00
     31   0.000000D+00  0.000000D+00  0.000000D+00  0.000000D+00  0.218356D+00
     32   0.000000D+00  0.000000D+00  0.000000D+00  0.000000D+00  0.000000D+00
     33   0.000000D+00  0.000000D+00  0.000000D+00  0.000000D+00  0.000000D+00
     34   0.000000D+00  0.000000D+00  0.000000D+00  0.000000D+00  0.000000D+00
     35   0.000000D+00  0.000000D+00  0.000000D+00  0.000000D+00  0.000000D+00
     36   0.100000D+01  0.000000D+00  0.000000D+00  0.000000D+00  0.000000D+00
     37   0.000000D+00  0.100000D+01  0.000000D+00  0.000000D+00  0.000000D+00
     38   0.000000D+00  0.000000D+00  0.100000D+01  0.000000D+00  0.000000D+00
     39   0.000000D+00  0.000000D+00  0.000000D+00  0.100000D+01  0.000000D+00
     40   0.000000D+00  0.000000D+00  0.000000D+00  0.000000D+00  0.100000D+01
     41   0.000000D+00  0.000000D+00  0.000000D+00  0.000000D+00  0.000000D+00
     42   0.000000D+00  0.000000D+00  0.000000D+00  0.000000D+00  0.000000D+00
     43   0.000000D+00  0.000000D+00  0.000000D+00  0.000000D+00  0.000000D+00
     44   0.000000D+00  0.000000D+00  0.000000D+00  0.000000D+00  0.000000D+00
     45   0.404997D-01  0.000000D+00  0.000000D+00  0.000000D+00  0.000000D+00
     46   0.000000D+00  0.404997D-01  0.000000D+00  0.000000D+00  0.000000D+00
                41            42            43            44            45 
      1   0.537904D-03  0.399451D-02  0.000000D+00  0.000000D+00  0.000000D+00
      2   0.332266D-02  0.241092D-01  0.000000D+00  0.000000D+00  0.000000D+00
      3   0.000000D+00  0.000000D+00  0.151710D-02  0.000000D+00  0.000000D+00
      4   0.000000D+00  0.000000D+00  0.000000D+00  0.151710D-02  0.000000D+00
      5  -0.906502D-03 -0.373653D-02  0.000000D+00  0.000000D+00  0.000000D+00
      6   0.193188D-01  0.117881D+00  0.000000D+00  0.000000D+00  0.000000D+00
      7   0.000000D+00  0.000000D+00  0.212350D-01  0.000000D+00  0.000000D+00
      8   0.000000D+00  0.000000D+00  0.000000D+00  0.212350D-01  0.000000D+00
      9  -0.138766D-01 -0.484556D-01  0.000000D+00  0.000000D+00  0.000000D+00
     10   0.561335D-02  0.100601D-01  0.000000D+00  0.000000D+00  0.000000D+00
     11   0.000000D+00  0.000000D+00 -0.101670D-01  0.000000D+00  0.000000D+00
     12   0.000000D+00  0.000000D+00  0.000000D+00 -0.101670D-01  0.000000D+00
     13   0.000000D+00  0.000000D+00  0.000000D+00  0.000000D+00  0.204758D-02
     14   0.000000D+00  0.000000D+00  0.000000D+00  0.000000D+00  0.000000D+00
     15   0.201178D+00  0.389720D+00  0.000000D+00  0.000000D+00  0.000000D+00
     16   0.000000D+00  0.000000D+00  0.270163D+00  0.000000D+00  0.000000D+00
     17   0.000000D+00  0.000000D+00  0.000000D+00  0.270163D+00  0.000000D+00
     18  -0.264038D+00 -0.308374D+00  0.000000D+00  0.000000D+00  0.000000D+00
     19   0.308374D+00  0.235451D-01  0.000000D+00  0.000000D+00  0.000000D+00
     20   0.000000D+00  0.000000D+00 -0.444927D+00  0.000000D+00  0.000000D+00
     21   0.000000D+00  0.000000D+00  0.000000D+00 -0.444927D+00  0.000000D+00
     22   0.000000D+00  0.000000D+00  0.000000D+00  0.000000D+00  0.206103D+00
     23   0.000000D+00  0.000000D+00  0.000000D+00  0.000000D+00  0.000000D+00
     24   0.000000D+00  0.000000D+00  0.000000D+00  0.000000D+00  0.000000D+00
     25   0.000000D+00  0.000000D+00  0.000000D+00  0.000000D+00  0.000000D+00
     26   0.000000D+00  0.000000D+00  0.000000D+00  0.000000D+00  0.000000D+00
     27   0.000000D+00  0.000000D+00  0.000000D+00  0.000000D+00  0.000000D+00
     28   0.149285D-01  0.000000D+00  0.000000D+00  0.000000D+00  0.000000D+00
     29   0.000000D+00  0.000000D+00  0.000000D+00  0.000000D+00  0.000000D+00
     30   0.000000D+00  0.000000D+00  0.000000D+00  0.000000D+00  0.000000D+00
     31   0.000000D+00  0.000000D+00  0.000000D+00  0.000000D+00  0.000000D+00
     32   0.218356D+00  0.000000D+00  0.000000D+00  0.000000D+00  0.000000D+00
     33   0.000000D+00  0.404997D-01  0.000000D+00  0.000000D+00  0.000000D+00
     34   0.000000D+00  0.000000D+00  0.404997D-01  0.000000D+00  0.000000D+00
     35   0.000000D+00  0.000000D+00  0.000000D+00  0.404997D-01  0.000000D+00
     36   0.000000D+00  0.000000D+00  0.000000D+00  0.000000D+00  0.404997D-01
     37   0.000000D+00  0.000000D+00  0.000000D+00  0.000000D+00  0.000000D+00
     38   0.000000D+00  0.000000D+00  0.000000D+00  0.000000D+00  0.000000D+00
     39   0.000000D+00  0.000000D+00  0.000000D+00  0.000000D+00  0.000000D+00
     40   0.000000D+00  0.000000D+00  0.000000D+00  0.000000D+00  0.000000D+00
     41   0.100000D+01  0.000000D+00  0.000000D+00  0.000000D+00  0.000000D+00
     42   0.000000D+00  0.100000D+01  0.000000D+00  0.000000D+00  0.000000D+00
     43   0.000000D+00  0.000000D+00  0.100000D+01  0.000000D+00  0.000000D+00
     44   0.000000D+00  0.000000D+00  0.000000D+00  0.100000D+01  0.000000D+00
     45   0.000000D+00  0.000000D+00  0.000000D+00  0.000000D+00  0.100000D+01
     46   0.000000D+00  0.000000D+00  0.000000D+00  0.000000D+00  0.000000D+00
                46 
      1   0.000000D+00
      2   0.000000D+00
      3   0.000000D+00
      4   0.000000D+00
      5   0.000000D+00
      6   0.000000D+00
      7   0.000000D+00
      8   0.000000D+00
      9   0.000000D+00
     10   0.000000D+00
     11   0.000000D+00
     12   0.000000D+00
     13   0.000000D+00
     14   0.204758D-02
     15   0.000000D+00
     16   0.000000D+00
     17   0.000000D+00
     18   0.000000D+00
     19   0.000000D+00
     20   0.000000D+00
     21   0.000000D+00
     22   0.000000D+00
     23   0.206103D+00
     24   0.000000D+00
     25   0.000000D+00
     26   0.000000D+00
     27   0.000000D+00
     28   0.000000D+00
     29   0.000000D+00
     30   0.000000D+00
     31   0.000000D+00
     32   0.000000D+00
     33   0.000000D+00
     34   0.000000D+00
     35   0.000000D+00
     36   0.000000D+00
     37   0.404997D-01
     38   0.000000D+00
     39   0.000000D+00
     40   0.000000D+00
     41   0.000000D+00
     42   0.000000D+00
     43   0.000000D+00
     44   0.000000D+00
     45   0.000000D+00
     46   0.100000D+01
 Entering OneElI...
 Overlap between basis sets.
 Requested accuracy = 0.1000D-12
 PrsmSu:  NPrtUS=   1 ThrOK=F IAlg=1
 PRISM was handed  1609756360 working-precision words and   874 shell-pairs
 IPart=  0 NShTot=         874 NBatch=          79 AvBLen=        11.1
 CnvPC2: ToCart=F DoDens=F IPureD=0 IPureF=0.
 Transformed matrix in CnvPC2: 
                 1             2             3             4             5 
      1   0.999804D+00  0.413527D+00  0.000000D+00  0.000000D+00  0.000000D+00
      2   0.291769D+00  0.988278D+00  0.000000D+00  0.000000D+00  0.000000D+00
      3   0.000000D+00  0.000000D+00  0.999290D+00  0.000000D+00  0.000000D+00
      4   0.000000D+00  0.000000D+00  0.000000D+00  0.999290D+00  0.000000D+00
      5   0.000000D+00  0.000000D+00  0.000000D+00  0.000000D+00  0.999290D+00
      6   0.131062D-01  0.329302D+00  0.000000D+00  0.000000D+00  0.000000D+00
      7   0.000000D+00  0.000000D+00  0.360301D+00  0.000000D+00  0.000000D+00
      8   0.000000D+00  0.000000D+00  0.000000D+00  0.360301D+00  0.000000D+00
      9   0.000000D+00  0.000000D+00  0.000000D+00  0.000000D+00  0.360301D+00
     10   0.000000D+00  0.000000D+00  0.000000D+00  0.000000D+00  0.000000D+00
     11   0.000000D+00  0.000000D+00  0.000000D+00  0.000000D+00  0.000000D+00
     12   0.000000D+00  0.000000D+00  0.000000D+00  0.000000D+00  0.000000D+00
     13   0.000000D+00  0.000000D+00  0.000000D+00  0.000000D+00  0.000000D+00
     14   0.000000D+00  0.000000D+00  0.000000D+00  0.000000D+00  0.000000D+00
     15   0.504482D-03  0.202677D-01  0.000000D+00  0.000000D+00  0.000000D+00
     16   0.106989D-01  0.641566D-01  0.000000D+00  0.000000D+00  0.000000D+00
     17   0.502381D-02  0.303046D-01  0.000000D+00  0.000000D+00  0.000000D+00
     18   0.000000D+00  0.000000D+00  0.121678D-01  0.000000D+00  0.000000D+00
     19   0.000000D+00  0.000000D+00  0.000000D+00  0.121678D-01  0.000000D+00
     20   0.000000D+00  0.000000D+00  0.000000D+00  0.000000D+00  0.121678D-01
     21   0.000000D+00  0.000000D+00  0.315462D-02  0.000000D+00  0.000000D+00
     22   0.000000D+00  0.000000D+00  0.000000D+00  0.315462D-02  0.000000D+00
     23   0.000000D+00  0.000000D+00  0.000000D+00  0.000000D+00  0.315462D-02
     24   0.000000D+00  0.000000D+00  0.102624D-02  0.000000D+00  0.000000D+00
     25   0.000000D+00  0.000000D+00  0.000000D+00  0.102624D-02  0.000000D+00
     26   0.000000D+00  0.000000D+00  0.000000D+00  0.000000D+00  0.102624D-02
     27   0.698171D-01  0.378499D+00  0.000000D+00  0.000000D+00  0.000000D+00
     28   0.431767D-01  0.246355D+00  0.000000D+00  0.000000D+00  0.000000D+00
     29   0.266153D-01  0.156139D+00  0.000000D+00  0.000000D+00  0.000000D+00
     30   0.163786D-01  0.975199D-01  0.000000D+00  0.000000D+00  0.000000D+00
     31   0.100701D-01  0.604294D-01  0.000000D+00  0.000000D+00  0.000000D+00
     32   0.000000D+00  0.000000D+00  0.188888D+00  0.000000D+00  0.000000D+00
     33   0.000000D+00  0.000000D+00  0.000000D+00  0.188888D+00  0.000000D+00
     34   0.000000D+00  0.000000D+00  0.000000D+00  0.000000D+00  0.188888D+00
     35   0.000000D+00  0.000000D+00  0.102114D+00  0.000000D+00  0.000000D+00
     36   0.000000D+00  0.000000D+00  0.000000D+00  0.102114D+00  0.000000D+00
     37   0.000000D+00  0.000000D+00  0.000000D+00  0.000000D+00  0.102114D+00
     38   0.000000D+00  0.000000D+00  0.529744D-01  0.000000D+00  0.000000D+00
     39   0.000000D+00  0.000000D+00  0.000000D+00  0.529744D-01  0.000000D+00
     40   0.000000D+00  0.000000D+00  0.000000D+00  0.000000D+00  0.529744D-01
     41   0.000000D+00  0.000000D+00  0.267992D-01  0.000000D+00  0.000000D+00
     42   0.000000D+00  0.000000D+00  0.000000D+00  0.267992D-01  0.000000D+00
     43   0.000000D+00  0.000000D+00  0.000000D+00  0.000000D+00  0.267992D-01
     44   0.000000D+00  0.000000D+00  0.133577D-01  0.000000D+00  0.000000D+00
     45   0.000000D+00  0.000000D+00  0.000000D+00  0.133577D-01  0.000000D+00
     46   0.000000D+00  0.000000D+00  0.000000D+00  0.000000D+00  0.133577D-01
     47   0.000000D+00  0.000000D+00  0.000000D+00  0.000000D+00  0.000000D+00
     48   0.000000D+00  0.000000D+00  0.000000D+00  0.000000D+00  0.000000D+00
     49   0.000000D+00  0.000000D+00  0.000000D+00  0.000000D+00  0.000000D+00
     50   0.000000D+00  0.000000D+00  0.000000D+00  0.000000D+00  0.000000D+00
     51   0.000000D+00  0.000000D+00  0.000000D+00  0.000000D+00  0.000000D+00
     52   0.000000D+00  0.000000D+00  0.000000D+00  0.000000D+00  0.000000D+00
     53   0.000000D+00  0.000000D+00  0.000000D+00  0.000000D+00  0.000000D+00
     54   0.000000D+00  0.000000D+00  0.000000D+00  0.000000D+00  0.000000D+00
     55   0.000000D+00  0.000000D+00  0.000000D+00  0.000000D+00  0.000000D+00
     56   0.000000D+00  0.000000D+00  0.000000D+00  0.000000D+00  0.000000D+00
     57   0.000000D+00  0.000000D+00  0.000000D+00  0.000000D+00  0.000000D+00
     58   0.000000D+00  0.000000D+00  0.000000D+00  0.000000D+00  0.000000D+00
     59   0.000000D+00  0.000000D+00  0.000000D+00  0.000000D+00  0.000000D+00
     60   0.000000D+00  0.000000D+00  0.000000D+00  0.000000D+00  0.000000D+00
     61   0.000000D+00  0.000000D+00  0.000000D+00  0.000000D+00  0.000000D+00
     62   0.000000D+00  0.000000D+00  0.000000D+00  0.000000D+00  0.000000D+00
     63   0.000000D+00  0.000000D+00  0.000000D+00  0.000000D+00  0.000000D+00
     64   0.000000D+00  0.000000D+00  0.000000D+00  0.000000D+00  0.000000D+00
     65   0.000000D+00  0.000000D+00  0.000000D+00  0.000000D+00  0.000000D+00
     66   0.000000D+00  0.000000D+00  0.000000D+00  0.000000D+00  0.000000D+00
     67   0.000000D+00  0.000000D+00  0.000000D+00  0.000000D+00  0.000000D+00
     68   0.000000D+00  0.000000D+00  0.000000D+00  0.000000D+00  0.000000D+00
     69   0.000000D+00  0.000000D+00  0.000000D+00  0.000000D+00  0.000000D+00
     70   0.000000D+00  0.000000D+00  0.000000D+00  0.000000D+00  0.000000D+00
     71   0.000000D+00  0.000000D+00  0.000000D+00  0.000000D+00  0.000000D+00
     72   0.000000D+00  0.000000D+00  0.000000D+00  0.000000D+00  0.000000D+00
     73   0.000000D+00  0.000000D+00  0.000000D+00  0.000000D+00  0.000000D+00
     74   0.000000D+00  0.000000D+00  0.000000D+00  0.000000D+00  0.000000D+00
     75   0.000000D+00  0.000000D+00  0.000000D+00  0.000000D+00  0.000000D+00
     76   0.000000D+00  0.000000D+00  0.000000D+00  0.000000D+00  0.000000D+00
     77   0.000000D+00  0.000000D+00  0.000000D+00  0.000000D+00  0.000000D+00
     78   0.000000D+00  0.000000D+00  0.000000D+00  0.000000D+00  0.000000D+00
     79   0.000000D+00  0.000000D+00  0.000000D+00  0.000000D+00  0.000000D+00
     80   0.000000D+00  0.000000D+00  0.000000D+00  0.000000D+00  0.000000D+00
     81   0.000000D+00  0.000000D+00  0.000000D+00  0.000000D+00  0.000000D+00
     82   0.000000D+00  0.000000D+00  0.000000D+00  0.000000D+00  0.000000D+00
     83   0.000000D+00  0.000000D+00  0.000000D+00  0.000000D+00  0.000000D+00
     84   0.000000D+00  0.000000D+00  0.000000D+00  0.000000D+00  0.000000D+00
     85   0.000000D+00  0.000000D+00  0.000000D+00  0.000000D+00  0.000000D+00
     86   0.000000D+00  0.000000D+00  0.000000D+00  0.000000D+00  0.000000D+00
     87   0.000000D+00  0.000000D+00  0.000000D+00  0.000000D+00  0.000000D+00
     88   0.000000D+00  0.000000D+00  0.000000D+00  0.000000D+00  0.000000D+00
     89   0.000000D+00  0.000000D+00  0.000000D+00  0.000000D+00  0.000000D+00
     90   0.000000D+00  0.000000D+00  0.000000D+00  0.000000D+00  0.000000D+00
     91   0.000000D+00  0.000000D+00  0.000000D+00  0.000000D+00  0.000000D+00
     92   0.000000D+00  0.000000D+00  0.000000D+00  0.000000D+00  0.000000D+00
     93   0.000000D+00  0.000000D+00  0.000000D+00  0.000000D+00  0.000000D+00
     94   0.000000D+00  0.000000D+00  0.000000D+00  0.000000D+00  0.000000D+00
     95   0.000000D+00  0.000000D+00  0.000000D+00  0.000000D+00  0.000000D+00
     96   0.000000D+00  0.000000D+00  0.000000D+00  0.000000D+00  0.000000D+00
     97   0.000000D+00  0.000000D+00  0.000000D+00  0.000000D+00  0.000000D+00
     98   0.000000D+00  0.000000D+00  0.000000D+00  0.000000D+00  0.000000D+00
     99   0.000000D+00  0.000000D+00  0.000000D+00  0.000000D+00  0.000000D+00
    100   0.000000D+00  0.000000D+00  0.000000D+00  0.000000D+00  0.000000D+00
    101   0.000000D+00  0.000000D+00  0.000000D+00  0.000000D+00  0.000000D+00
    102   0.000000D+00  0.000000D+00  0.000000D+00  0.000000D+00  0.000000D+00
    103   0.000000D+00  0.000000D+00  0.000000D+00  0.000000D+00  0.000000D+00
    104   0.000000D+00  0.000000D+00  0.000000D+00  0.000000D+00  0.000000D+00
    105   0.000000D+00  0.000000D+00  0.000000D+00  0.000000D+00  0.000000D+00
    106   0.000000D+00  0.000000D+00  0.000000D+00  0.000000D+00  0.000000D+00
    107   0.000000D+00  0.000000D+00  0.000000D+00  0.000000D+00  0.000000D+00
    108   0.000000D+00  0.000000D+00  0.000000D+00  0.000000D+00  0.000000D+00
    109   0.000000D+00  0.000000D+00  0.000000D+00  0.000000D+00  0.000000D+00
    110   0.000000D+00  0.000000D+00  0.000000D+00  0.000000D+00  0.000000D+00
    111   0.000000D+00  0.000000D+00  0.000000D+00  0.000000D+00  0.000000D+00
    112   0.000000D+00  0.000000D+00  0.000000D+00  0.000000D+00  0.000000D+00
    113   0.000000D+00  0.000000D+00  0.000000D+00  0.000000D+00  0.000000D+00
    114   0.000000D+00  0.000000D+00  0.000000D+00  0.000000D+00  0.000000D+00
    115   0.000000D+00  0.000000D+00  0.000000D+00  0.000000D+00  0.000000D+00
    116   0.000000D+00  0.000000D+00  0.000000D+00  0.000000D+00  0.000000D+00
    117   0.000000D+00  0.000000D+00  0.000000D+00  0.000000D+00  0.000000D+00
    118   0.000000D+00  0.000000D+00  0.000000D+00  0.000000D+00  0.000000D+00
    119   0.000000D+00  0.000000D+00  0.000000D+00  0.000000D+00  0.000000D+00
    120   0.000000D+00  0.000000D+00  0.000000D+00  0.000000D+00  0.000000D+00
    121   0.000000D+00  0.000000D+00  0.000000D+00  0.000000D+00  0.000000D+00
    122   0.000000D+00  0.000000D+00  0.000000D+00  0.000000D+00  0.000000D+00
    123   0.000000D+00  0.000000D+00  0.000000D+00  0.000000D+00  0.000000D+00
    124   0.000000D+00  0.000000D+00  0.000000D+00  0.000000D+00  0.000000D+00
    125   0.000000D+00  0.000000D+00  0.000000D+00  0.000000D+00  0.000000D+00
    126   0.000000D+00  0.000000D+00  0.000000D+00  0.000000D+00  0.000000D+00
    127   0.000000D+00  0.000000D+00  0.000000D+00  0.000000D+00  0.000000D+00
    128   0.000000D+00  0.000000D+00  0.000000D+00  0.000000D+00  0.000000D+00
    129   0.000000D+00  0.000000D+00  0.000000D+00  0.000000D+00  0.000000D+00
    130   0.000000D+00  0.000000D+00  0.000000D+00  0.000000D+00  0.000000D+00
    131   0.000000D+00  0.000000D+00  0.000000D+00  0.000000D+00  0.000000D+00
    132   0.000000D+00  0.000000D+00  0.000000D+00  0.000000D+00  0.000000D+00
    133   0.000000D+00  0.000000D+00  0.000000D+00  0.000000D+00  0.000000D+00
    134   0.000000D+00  0.000000D+00  0.000000D+00  0.000000D+00  0.000000D+00
    135   0.000000D+00  0.000000D+00  0.000000D+00  0.000000D+00  0.000000D+00
    136   0.000000D+00  0.000000D+00  0.000000D+00  0.000000D+00  0.000000D+00
    137   0.000000D+00  0.000000D+00  0.000000D+00  0.000000D+00  0.000000D+00
    138   0.000000D+00  0.000000D+00  0.000000D+00  0.000000D+00  0.000000D+00
    139   0.000000D+00  0.000000D+00  0.000000D+00  0.000000D+00  0.000000D+00
    140   0.000000D+00  0.000000D+00  0.000000D+00  0.000000D+00  0.000000D+00
    141   0.000000D+00  0.000000D+00  0.000000D+00  0.000000D+00  0.000000D+00
    142   0.000000D+00  0.000000D+00  0.000000D+00  0.000000D+00  0.000000D+00
    143   0.000000D+00  0.000000D+00  0.000000D+00  0.000000D+00  0.000000D+00
    144   0.000000D+00  0.000000D+00  0.000000D+00  0.000000D+00  0.000000D+00
    145   0.000000D+00  0.000000D+00  0.000000D+00  0.000000D+00  0.000000D+00
    146   0.000000D+00  0.000000D+00  0.000000D+00  0.000000D+00  0.000000D+00
    147   0.000000D+00  0.000000D+00  0.000000D+00  0.000000D+00  0.000000D+00
    148   0.000000D+00  0.000000D+00  0.000000D+00  0.000000D+00  0.000000D+00
    149   0.000000D+00  0.000000D+00  0.000000D+00  0.000000D+00  0.000000D+00
    150   0.000000D+00  0.000000D+00  0.000000D+00  0.000000D+00  0.000000D+00
    151   0.000000D+00  0.000000D+00  0.000000D+00  0.000000D+00  0.000000D+00
    152   0.000000D+00  0.000000D+00  0.000000D+00  0.000000D+00  0.000000D+00
    153   0.000000D+00  0.000000D+00  0.000000D+00  0.000000D+00  0.000000D+00
    154   0.000000D+00  0.000000D+00  0.000000D+00  0.000000D+00  0.000000D+00
    155   0.000000D+00  0.000000D+00  0.000000D+00  0.000000D+00  0.000000D+00
    156   0.000000D+00  0.000000D+00  0.000000D+00  0.000000D+00  0.000000D+00
    157   0.000000D+00  0.000000D+00  0.000000D+00  0.000000D+00  0.000000D+00
    158   0.000000D+00  0.000000D+00  0.000000D+00  0.000000D+00  0.000000D+00
    159   0.000000D+00  0.000000D+00  0.000000D+00  0.000000D+00  0.000000D+00
    160   0.000000D+00  0.000000D+00  0.000000D+00  0.000000D+00  0.000000D+00
    161   0.000000D+00  0.000000D+00  0.000000D+00  0.000000D+00  0.000000D+00
[...]
         |
   33    | -0.000126
   33    | -0.000126
         |
   34    | -0.000035
   34    | -0.000035
         |
   35    | -0.010369
   35    |  0.000000
         |

                     Delta Factors
                     -------------

 AB - AA |     29        30        31        32        33        34
 BA - BB |     29        30        31        32        33        34
----------------------------------------------------------------------
   29    |  1.419337  0.850048  1.094696  1.696209  0.878542  2.389817
   29    |  0.000000  0.850048  1.094696  1.696209  0.878542  2.389817
         |
   30    |  1.222560  1.419337  1.094696  0.878542  1.696209  2.389817
   30    |  1.222560  0.000000  1.094696  0.878542  1.696209  2.389817
         |
   31    |  1.076452  1.076452  1.025588  1.094600  1.094600  2.921361
   31    |  1.076452  1.076452  0.000000  1.094600  1.094600  2.921361
         |
   32    |  1.105715  0.366013  1.076153  1.419337  0.850048  1.929705
   32    |  1.105715  0.366013  1.076153  0.000000  0.850048  1.929705
         |
   33    |  0.366013  1.105715  1.076153  1.222546  1.419337  1.929705
   33    |  0.366013  1.105715  1.076153  1.222546  0.000000  1.929705
         |
   34    |  1.833174  1.833174  2.323187  2.565385  2.565385  2.906053
   34    |  1.833174  1.833174  2.323187  2.565385  2.565385  0.000000
         |
   35    |  2.565492  2.565492  2.323187  1.832897  1.832897  2.375602
   35    |  2.565492  2.565492  2.323187  1.832897  1.832897  2.375602
         |

 AB - AA |     35
 BA - BB |     35
--------------------
   29    |  1.929611
   29    |  1.929611
         |
   30    |  1.929611
   30    |  1.929611
         |
   31    |  2.921361
   31    |  2.921361
         |
   32    |  2.389605
   32    |  2.389605
         |
   33    |  2.389605
   33    |  2.389605
         |
   34    |  3.393662
   34    |  3.393662
         |
   35    |  2.906053
   35    |  0.000000
         |

                   MP2(CBS) Pair Energies
                   ----------------------

 AB - AA |     29        30        31        32        33        34
 BA - BB |     29        30        31        32        33        34
----------------------------------------------------------------------
   29    | -0.020182 -0.006008 -0.004186 -0.000581 -0.000456 -0.000132
   29    |  0.000000 -0.006008 -0.004186 -0.000581 -0.000456 -0.000132
         |
   30    | -0.008923 -0.020182 -0.004186 -0.000456 -0.000581 -0.000132
   30    | -0.008923  0.000000 -0.004186 -0.000456 -0.000581 -0.000132
         |
   31    | -0.005634 -0.005634 -0.024106 -0.004186 -0.004186 -0.001651
   31    | -0.005634 -0.005634  0.000000 -0.004186 -0.004186 -0.001651
         |
   32    | -0.000770 -0.000491 -0.005634 -0.020182 -0.006008 -0.002070
   32    | -0.000770 -0.000491 -0.005634  0.000000 -0.006008 -0.002070
         |
   33    | -0.000491 -0.000770 -0.005634 -0.008923 -0.020182 -0.002070
   33    | -0.000491 -0.000770 -0.005634 -0.008923  0.000000 -0.002070
         |
   34    | -0.000182 -0.000182 -0.004704 -0.009423 -0.009423 -0.012501
   34    | -0.000182 -0.000182 -0.004704 -0.009423 -0.009423  0.000000
         |
   35    | -0.009423 -0.009423 -0.004704 -0.000182 -0.000182 -0.000065
   35    | -0.009423 -0.009423 -0.004704 -0.000182 -0.000182 -0.000065
         |

 AB - AA |     35
 BA - BB |     35
--------------------
   29    | -0.002070
   29    | -0.002070
         |
   30    | -0.002070
   30    | -0.002070
         |
   31    | -0.001651
   31    | -0.001651
         |
   32    | -0.000132
   32    | -0.000132
         |
   33    | -0.000132
   33    | -0.000132
         |
   34    | -0.000037
   34    | -0.000037
         |
   35    | -0.012501
   35    |  0.000000
         |

                     Sum of ab pair energies =    -0.220635 A.U.
                     Sum of ba pair energies =    -0.090799 A.U.
                     Sum of aa pair energies =    -0.042979 A.U.
                     Sum of bb pair energies =    -0.042979 A.U.

           Sum of intraorbital pair energies =    -0.129837 A.U.
           Sum of interorbital pair energies =    -0.267555 A.U.
                                                  ----------
                         Total pair energies =    -0.397392 A.U.

                         Single Excitations  =     0.000000 A.U.

                          Total second order =    -0.397392 A.U.



            MP2(CBS) (With Interference Correction) 
            ---------------------------------------

 AB - AA |     29        30        31        32        33        34
 BA - BB |     29        30        31        32        33        34
----------------------------------------------------------------------
   29    | -0.019649 -0.005993 -0.004174 -0.000580 -0.000456 -0.000132
   29    |  0.000000 -0.005993 -0.004174 -0.000580 -0.000456 -0.000132
         |
   30    | -0.008769 -0.019649 -0.004174 -0.000456 -0.000580 -0.000132
   30    | -0.008769  0.000000 -0.004174 -0.000456 -0.000580 -0.000132
         |
   31    | -0.005555 -0.005555 -0.023467 -0.004174 -0.004174 -0.001642
   31    | -0.005555 -0.005555  0.000000 -0.004174 -0.004174 -0.001642
         |
   32    | -0.000765 -0.000490 -0.005555 -0.019649 -0.005993 -0.002062
   32    | -0.000765 -0.000490 -0.005555  0.000000 -0.005993 -0.002062
         |
   33    | -0.000490 -0.000765 -0.005555 -0.008769 -0.019649 -0.002062
   33    | -0.000490 -0.000765 -0.005555 -0.008769  0.000000 -0.002062
         |
   34    | -0.000181 -0.000181 -0.004623 -0.009198 -0.009198 -0.012163
   34    | -0.000181 -0.000181 -0.004623 -0.009198 -0.009198  0.000000
         |
   35    | -0.009198 -0.009198 -0.004623 -0.000181 -0.000181 -0.000065
   35    | -0.009198 -0.009198 -0.004623 -0.000181 -0.000181 -0.000065
         |

 AB - AA |     35
 BA - BB |     35
--------------------
   29    | -0.002062
   29    | -0.002062
         |
   30    | -0.002062
   30    | -0.002062
         |
   31    | -0.001642
   31    | -0.001642
         |
   32    | -0.000132
   32    | -0.000132
         |
   33    | -0.000132
   33    | -0.000132
         |
   34    | -0.000037
   34    | -0.000037
         |
   35    | -0.012163
   35    |  0.000000
         |

                     Sum of ab pair energies =    -0.215482 A.U.
                     Sum of ba pair energies =    -0.089095 A.U.
                     Sum of aa pair energies =    -0.042849 A.U.
                     Sum of bb pair energies =    -0.042849 A.U.

           Sum of intraorbital pair energies =    -0.126387 A.U.
           Sum of interorbital pair energies =    -0.263888 A.U.
                                                  ----------
                         Total pair energies =    -0.390276 A.U.

                         Single Excitations  =     0.000000 A.U.

                          Total second order =    -0.390276 A.U.

                         E2(CBS) - E2(Dir) =      -0.015423 A.U.

 E2(CBS)=      -0.397392 CBS-Int=       0.007116 OIii=       2.787042

 **********************************************************************

            Population analysis using the SCF density.

 **********************************************************************

 Orbital symmetries:
       Occupied  (SGG) (SGU) (SGG) (SGU) (SGG) (SGU) (PIG) (PIG)
                 (PIU) (PIU) (SGG) (SGU) (SGG) (SGU) (PIU) (PIU)
                 (PIG) (PIG) (SGG) (SGU) (PIU) (PIU) (PIG) (PIG)
                 (DLTG) (DLTG) (DLTU) (DLTU) (SGG) (SGU) (SGG)
                 (PIU) (PIU) (PIG) (PIG)
       Virtual   (SGU) (SGU) (SGG) (PIU) (PIU) (PIG) (PIG) (SGG)
                 (SGU) (SGG) (PIU) (PIU) (SGU) (PIG) (PIG) (DLTG)
                 (DLTG) (PIU) (PIU) (SGG) (DLTU) (DLTU) (SGU) (SGG)
                 (PIG) (PIG) (SGU) (SGG) (PIU) (PIU) (PIG) (PIG)
                 (PHIU) (PHIU) (DLTG) (DLTG) (PIU) (PIU) (PHIG)
                 (PHIG) (SGG) (SGU) (DLTG) (DLTG) (SGG) (SGU) (DLTU)
                 (DLTU) (DLTU) (DLTU) (PIU) (PIU) (PIG) (PIG) (SGU)
                 (PIG) (PIG) (SGG) (PIU) (PIU) (SGG) (PIG) (PIG)
                 (DLTG) (DLTG) (PHIU) (PHIU) (PIU) (PIU) (SGU)
                 (?A) (?A) (PHIU) (PHIU) (?B) (?B) (SGG) (SGU)
                 (PHIG) (PHIG) (DLTG) (DLTG) (DLTU) (DLTU) (PHIG)
                 (PHIG) (SGG) (SGU) (PIG) (PIG) (PIU) (PIU) (DLTU)
                 (DLTU) (SGG) (PIG) (PIG) (SGU) (DLTG) (DLTG) (PIU)
                 (PIU) (DLTU) (DLTU) (SGU) (SGG) (PIG) (PIG) (PHIU)
                 (PHIU) (?A) (?A) (DLTG) (DLTG) (PIU) (PIU) (?C)
                 (?C) (SGU) (?D) (?D) (SGG) (PIG) (PIG) (?B) (?B)
                 (SGG) (PIU) (PIU) (DLTG) (DLTG) (PHIU) (PHIU)
                 (PHIG) (PHIG) (DLTU) (DLTU) (PHIG) (PHIG) (PIG)
                 (PIG) (PIU) (PIU) (SGU) (SGU) (PHIU) (PHIU) (?A)
                 (?A) (?B) (?B) (DLTU) (DLTU) (DLTG) (DLTG) (SGG)
                 (PHIG) (PHIG) (SGG) (DLTU) (DLTU) (PIG) (PIG)
                 (SGU) (PIU) (PIU) (SGU) (SGG) (PIG) (PIG) (SGU)
                 (DLTG) (DLTG) (PIU) (PIU) (DLTU) (DLTU) (PIG)
                 (PIG) (PIU) (PIU) (SGG) (DLTG) (DLTG) (SGG) (PHIU)
                 (PHIU) (PHIG) (PHIG) (DLTU) (DLTU) (DLTG) (DLTG)
                 (PHIU) (PHIU) (SGU) (PIG) (PIG) (?A) (?A) (?C)
                 (?C) (?D) (?D) (?E) (?E) (?F) (?F) (?B) (?B) (SGU)
                 (PIU) (PIU) (SGG) (PHIG) (PHIG) (PIU) (PIU) (PIG)
                 (PIG) (DLTU) (DLTU) (SGG) (PIG) (PIG) (?A) (?A)
                 (PHIU) (PHIU) (?C) (?C) (?D) (?D) (SGU) (?B) (?B)
                 (DLTG) (DLTG) (PHIG) (PHIG) (SGU) (PIU) (PIU)
                 (PHIU) (PHIU) (?A) (?A) (?B) (?B) (DLTG) (DLTG)
                 (PHIG) (PHIG) (DLTU) (DLTU) (SGU) (DLTU) (DLTU)
                 (SGG) (PIG) (PIG) (PIU) (PIU) (SGG) (PIG) (PIG)
                 (SGU) (SGG) (SGU) (DLTG) (DLTG) (DLTU) (DLTU)
                 (PIU) (PIU) (PIG) (PIG) (SGG) (SGU) (PIU) (PIU)
                 (PIG) (PIG) (SGG) (SGU) (SGG) (SGU)
 The electronic state is 1-SGG.
 Alpha  occ. eigenvalues -- -490.07035-490.07035 -65.20965 -65.20965 -58.56552
 Alpha  occ. eigenvalues --  -58.56552 -58.56328 -58.56328 -58.56328 -58.56328
 Alpha  occ. eigenvalues --   -9.88191  -9.88185  -7.49476  -7.49460  -7.48530
 Alpha  occ. eigenvalues --   -7.48530  -7.48528  -7.48528  -3.24039  -3.23797
 Alpha  occ. eigenvalues --   -3.23494  -3.23494  -3.23415  -3.23415  -3.22202
 Alpha  occ. eigenvalues --   -3.22202  -3.22197  -3.22197  -1.10398  -0.94815
 Alpha  occ. eigenvalues --   -0.53511  -0.50659  -0.50659  -0.40602  -0.40602
 Alpha virt. eigenvalues --   -0.00232   0.06027   0.06076   0.06148   0.06148
 Alpha virt. eigenvalues --    0.08083   0.08083   0.08516   0.17588   0.24011
 Alpha virt. eigenvalues --    0.25039   0.25039   0.25770   0.27646   0.27646
 Alpha virt. eigenvalues --    0.30080   0.30080   0.31019   0.31019   0.32488
 Alpha virt. eigenvalues --    0.40577   0.40577   0.44298   0.49672   0.55685
 Alpha virt. eigenvalues --    0.55685   0.63363   0.69930   0.70004   0.70004
 Alpha virt. eigenvalues --    0.74409   0.74409   0.75546   0.75546   0.76107
 Alpha virt. eigenvalues --    0.76107   0.79559   0.79559   0.86801   0.86801
 Alpha virt. eigenvalues --    0.88322   0.90479   0.94914   0.94914   0.96011
 Alpha virt. eigenvalues --    0.97367   0.97631   0.97631   1.06970   1.06970
 Alpha virt. eigenvalues --    1.07173   1.07173   1.10045   1.10045   1.23237
 Alpha virt. eigenvalues --    1.29958   1.29958   1.31998   1.56323   1.56323
 Alpha virt. eigenvalues --    1.56414   1.62561   1.62561   1.62750   1.62750
 Alpha virt. eigenvalues --    1.63175   1.63175   1.67208   1.67208   1.71149
 Alpha virt. eigenvalues --    1.71680   1.71680   1.77989   1.77989   1.80104
 Alpha virt. eigenvalues --    1.80104   1.81028   1.81307   1.82540   1.82540
 Alpha virt. eigenvalues --    1.87441   1.87441   1.91042   1.91042   1.97733
 Alpha virt. eigenvalues --    1.97733   2.01920   2.09319   2.11105   2.11105
 Alpha virt. eigenvalues --    2.24032   2.24032   2.29745   2.29745   2.35625
 Alpha virt. eigenvalues --    2.36810   2.36810   2.37288   2.39986   2.39986
 Alpha virt. eigenvalues --    2.41630   2.41630   2.48743   2.48743   2.81416
 Alpha virt. eigenvalues --    2.86115   2.98655   2.98655   3.03653   3.03653
 Alpha virt. eigenvalues --    3.10492   3.10492   3.18525   3.18525   3.20445
 Alpha virt. eigenvalues --    3.20445   3.21752   3.21752   3.24348   3.25215
 Alpha virt. eigenvalues --    3.25215   3.28275   3.34626   3.34626   3.35093
 Alpha virt. eigenvalues --    3.35093   3.38142   3.41375   3.41375   3.54895
 Alpha virt. eigenvalues --    3.54895   3.55007   3.55007   3.57902   3.57902
 Alpha virt. eigenvalues --    3.61064   3.61064   3.65566   3.65566   3.71611
 Alpha virt. eigenvalues --    3.71611   3.74961   3.74961   3.80616   3.90366
 Alpha virt. eigenvalues --    4.02370   4.02370   4.04808   4.04808   4.09428
 Alpha virt. eigenvalues --    4.09428   4.13838   4.13838   4.17063   4.17063
 Alpha virt. eigenvalues --    4.17514   4.21138   4.21138   4.51049   4.52603
 Alpha virt. eigenvalues --    4.52603   4.56732   4.56732   4.58087   4.58489
 Alpha virt. eigenvalues --    4.58489   4.86376   4.92052   4.97718   4.97718
 Alpha virt. eigenvalues --    5.50608   5.53733   5.53733   5.57925   5.57925
 Alpha virt. eigenvalues --    5.60982   5.60982   5.97888   5.97888   6.03005
 Alpha virt. eigenvalues --    6.03005   6.09382   6.12663   6.12663   6.12710
 Alpha virt. eigenvalues --    6.15412   6.15412   6.20528   6.20528   6.27848
 Alpha virt. eigenvalues --    6.27848   6.39594   6.39594   6.41242   6.41242
 Alpha virt. eigenvalues --    6.45297   6.52089   6.52089   6.53666   6.53666
 Alpha virt. eigenvalues --    6.62180   6.62180   6.65389   6.65389   6.65442
 Alpha virt. eigenvalues --    6.65442   6.65663   6.65663   6.71744   6.71744
 Alpha virt. eigenvalues --    6.74454   6.76660   6.76660   6.88589   6.92142
 Alpha virt. eigenvalues --    6.92142   6.92349   6.92349   6.96289   6.96289
 Alpha virt. eigenvalues --    7.20823   7.20823   7.31532   7.42927   7.42927
 Alpha virt. eigenvalues --    7.46369   7.46369   7.47970   7.47970   7.52141
 Alpha virt. eigenvalues --    7.52141   7.54147   7.54147   7.56036   7.59166
 Alpha virt. eigenvalues --    7.59166   7.66171   7.66171   7.78993   7.78993
 Alpha virt. eigenvalues --    7.87080   8.00344   8.00344   8.06291   8.06291
 Alpha virt. eigenvalues --    8.09272   8.09272   8.12796   8.12796   8.17612
 Alpha virt. eigenvalues --    8.17612   8.21497   8.21497   8.32265   8.32265
 Alpha virt. eigenvalues --    8.41785   8.45241   8.45241   8.48881   8.58365
 Alpha virt. eigenvalues --    8.58365   8.62179   8.62179   9.11280   9.43968
 Alpha virt. eigenvalues --    9.43968  10.38931  12.01796  12.09345  12.65308
 Alpha virt. eigenvalues --   12.65308  12.71416  12.71416  12.74381  12.74381
 Alpha virt. eigenvalues --   13.04982  13.04982  13.77947  13.82162  16.43321
 Alpha virt. eigenvalues --   16.43321  16.51189  16.51189  16.78677  17.86037
 Alpha virt. eigenvalues --  411.22986 411.81456
          Condensed to atoms (all electrons):
              1          2
     1  Br  34.859746   0.140254
     2  Br   0.140254  34.859746
 Mulliken atomic charges:
              1
     1  Br   0.000000
     2  Br   0.000000
 Sum of Mulliken atomic charges =   0.00000
 Mulliken charges with hydrogens summed into heavy atoms:
              1
     1  Br   0.000000
     2  Br   0.000000
 Sum of Mulliken charges with hydrogens summed into heavy atoms =   0.00000
          Atomic-Atomic Spin Densities.
              1          2
     1  Br   0.000000   0.000000
     2  Br   0.000000   0.000000
 Mulliken atomic spin densities:
              1
     1  Br   0.000000
     2  Br   0.000000
 Sum of Mulliken atomic spin densities =   0.00000
 Electronic spatial extent (au):  <R**2>=            405.0555
 Charge=              0.0000 electrons
 Dipole moment (field-independent basis, Debye):
    X=              0.0000    Y=              0.0000    Z=              0.0000  Tot=              0.0000
 Quadrupole moment (field-independent basis, Debye-Ang):
   XX=            -37.3329   YY=            -37.3329   ZZ=            -32.7881
   XY=              0.0000   XZ=              0.0000   YZ=              0.0000
 Traceless Quadrupole moment (field-independent basis, Debye-Ang):
   XX=             -1.5149   YY=             -1.5149   ZZ=              3.0298
   XY=              0.0000   XZ=              0.0000   YZ=              0.0000
 Octapole moment (field-independent basis, Debye-Ang**2):
  XXX=              0.0000  YYY=              0.0000  ZZZ=              0.0000  XYY=              0.0000
  XXY=              0.0000  XXZ=              0.0000  XZZ=              0.0000  YZZ=              0.0000
  YYZ=              0.0000  XYZ=              0.0000
 Hexadecapole moment (field-independent basis, Debye-Ang**3):
 XXXX=            -45.0535 YYYY=            -45.0535 ZZZZ=           -284.7197 XXXY=              0.0000
 XXXZ=              0.0000 YYYX=              0.0000 YYYZ=              0.0000 ZZZX=              0.0000
 ZZZY=              0.0000 XXYY=            -15.0178 XXZZ=            -63.3763 YYZZ=            -63.3763
 XXYZ=              0.0000 YYXZ=              0.0000 ZZXY=              0.0000
 N-N= 2.841858269318D+02 E-N=-1.931461613876D+04  KE= 7.717357285166D+03
                          Isotropic Fermi Contact Couplings
        Atom                 a.u.       MegaHertz       Gauss      10(-4) cm-1
     1  Br(79)             0.00000       0.00000       0.00000       0.00000
     2  Br(79)             0.00000       0.00000       0.00000       0.00000
 --------------------------------------------------------
       Center         ----  Spin Dipole Couplings  ----
                      3XX-RR        3YY-RR        3ZZ-RR
 --------------------------------------------------------
     1   Atom        0.000000      0.000000      0.000000
     2   Atom        0.000000      0.000000      0.000000
 --------------------------------------------------------
                        XY            XZ            YZ
 --------------------------------------------------------
     1   Atom        0.000000      0.000000      0.000000
     2   Atom        0.000000      0.000000      0.000000
 --------------------------------------------------------


 ---------------------------------------------------------------------------------
              Anisotropic Spin Dipole Couplings in Principal Axis System
 ---------------------------------------------------------------------------------

       Atom             a.u.   MegaHertz   Gauss  10(-4) cm-1        Axes

              Baa     0.0000     0.000     0.000     0.000  1.0000  0.0000  0.0000
     1 Br(79) Bbb     0.0000     0.000     0.000     0.000  0.0000  1.0000  0.0000
              Bcc     0.0000     0.000     0.000     0.000  0.0000  0.0000  1.0000
 
              Baa     0.0000     0.000     0.000     0.000  1.0000  0.0000  0.0000
     2 Br(79) Bbb     0.0000     0.000     0.000     0.000  0.0000  1.0000  0.0000
              Bcc     0.0000     0.000     0.000     0.000  0.0000  0.0000  1.0000
 

 ---------------------------------------------------------------------------------


 Test job not archived.
 1\1\GINC-C17\SP\ROMP2-RW\Gen\Br2\GPETERSSON\25-Jul-2012\0\\# ROMP2(RW)
  Gen GFinput Int=NoBasisTransform Int(Grid=Ultrafine) IOp(3/32=2,5/6=1
 0,8/11=1,9/33=1) Maxdisk=128GB CBSextrapolate(Nmin=20,MinPop)\\Br2\\0,
 1\Br\Br,1,2.28105\\Version=EM64L-G09RevA.02\State=1-SGG\HF=-5144.92251
 71\MP2=-5145.3044857\E2(CBS)=-0.397392\CBS-Int=-0.3902757\OIii=2.78704
 17\RMSD=4.859e-11\PG=D*H [C*(Br1.Br1)]\\@


 IF THERE IS ONE WAY BETTER THAN ANOTHER IT IS THE WAY OF NATURE.

                          -- ARISTOTLE
 Job cpu time:  0 days  9 hours 20 minutes 36.3 seconds.
 File lengths (MBytes):  RWF=   2304 Int=      0 D2E=      0 Chk=      9 Scr=      1
 Normal termination of Gaussian 09 at Wed Jul 25 13:04:05 2012.
