 Entering Gaussian System, Link 0=g09
 AtFile(1): 7ZaP-NR.gbs
 Initial command:
 /share/apps/gaussian/g09root/g09/l1.exe /localscratch/736618/Gau-6592.inp -scrdir=/localscratch/736618/
 Entering Link 1 = /share/apps/gaussian/g09root/g09/l1.exe PID=      6593.
  
 Copyright (c) 1988,1990,1992,1993,1995,1998,2003,2009, Gaussian, Inc.
                  All Rights Reserved.
  
 This is part of the Gaussian(R) 09 program.  It is based on
 the Gaussian(R) 03 system (copyright 2003, Gaussian, Inc.),
 the Gaussian(R) 98 system (copyright 1998, Gaussian, Inc.),
 the Gaussian(R) 94 system (copyright 1995, Gaussian, Inc.),
 the Gaussian 92(TM) system (copyright 1992, Gaussian, Inc.),
 the Gaussian 90(TM) system (copyright 1990, Gaussian, Inc.),
 the Gaussian 88(TM) system (copyright 1988, Gaussian, Inc.),
 the Gaussian 86(TM) system (copyright 1986, Carnegie Mellon
 University), and the Gaussian 82(TM) system (copyright 1983,
 Carnegie Mellon University). Gaussian is a federally registered
 trademark of Gaussian, Inc.
  
 This software contains proprietary and confidential information,
 including trade secrets, belonging to Gaussian, Inc.
  
 This software is provided under written license and may be
 used, copied, transmitted, or stored only in accord with that
 written license.
  
 The following legend is applicable only to US Government
 contracts under FAR:
  
                    RESTRICTED RIGHTS LEGEND
  
 Use, reproduction and disclosure by the US Government is
 subject to restrictions as set forth in subparagraphs (a)
 and (c) of the Commercial Computer Software - Restricted
 Rights clause in FAR 52.227-19.
  
 Gaussian, Inc.
 340 Quinnipiac St., Bldg. 40, Wallingford CT 06492
  
  
 ---------------------------------------------------------------
 Warning -- This program may not be used in any manner that
 competes with the business of Gaussian, Inc. or will provide
 assistance to any competitor of Gaussian, Inc.  The licensee
 of this program is prohibited from giving any competitor of
 Gaussian, Inc. access to this program.  By using this program,
 the user acknowledges that Gaussian, Inc. is engaged in the
 business of creating and licensing software in the field of
 computational chemistry and represents and warrants to the
 licensee that it is not a competitor of Gaussian, Inc. and that
 it will not use this program in any manner prohibited above.
 ---------------------------------------------------------------
  

 Cite this work as:
 Gaussian 09, Revision A.02,
 M. J. Frisch, G. W. Trucks, H. B. Schlegel, G. E. Scuseria, 
 M. A. Robb, J. R. Cheeseman, G. Scalmani, V. Barone, B. Mennucci, 
 G. A. Petersson, H. Nakatsuji, M. Caricato, X. Li, H. P. Hratchian, 
 A. F. Izmaylov, J. Bloino, G. Zheng, J. L. Sonnenberg, M. Hada, 
 M. Ehara, K. Toyota, R. Fukuda, J. Hasegawa, M. Ishida, T. Nakajima, 
 Y. Honda, O. Kitao, H. Nakai, T. Vreven, J. A. Montgomery, Jr., 
 J. E. Peralta, F. Ogliaro, M. Bearpark, J. J. Heyd, E. Brothers, 
 K. N. Kudin, V. N. Staroverov, R. Kobayashi, J. Normand, 
 K. Raghavachari, A. Rendell, J. C. Burant, S. S. Iyengar, J. Tomasi, 
 M. Cossi, N. Rega, J. M. Millam, M. Klene, J. E. Knox, J. B. Cross, 
 V. Bakken, C. Adamo, J. Jaramillo, R. Gomperts, R. E. Stratmann, 
 O. Yazyev, A. J. Austin, R. Cammi, C. Pomelli, J. W. Ochterski, 
 R. L. Martin, K. Morokuma, V. G. Zakrzewski, G. A. Voth, 
 P. Salvador, J. J. Dannenberg, S. Dapprich, A. D. Daniels, 
 O. Farkas, J. B. Foresman, J. V. Ortiz, J. Cioslowski, 
 and D. J. Fox, Gaussian, Inc., Wallingford CT, 2009.
 
 ******************************************
 Gaussian 09:  EM64L-G09RevA.02 11-Jun-2009
                14-Aug-2012 
 ******************************************
 % Mem=12GB
 % Nproc=8
 Will use up to    8 processors via shared memory.
 ----------------------------------------------------------------------
 # ROMP2(RW) Gen GFinput Int=NoBasisTransform Int(Grid=Ultrafine) IOp(3
 /32=2,5/6=10,8/11=1,9/33=1) Maxdisk=128GB CBSextrapolate(Nmin=25,MinPo
 p)
 ----------------------------------------------------------------------
 1/38=1/1;
 2/12=2,17=6,18=5,40=1/2;
 3/5=7,11=2,16=1,24=10,25=1,30=1,32=2,60=-1,75=-5,116=101/1,2,3;
 4//1;
 5/5=2,6=10,38=5/2;
 8/5=-1,10=91,11=1/1;
 9/16=-3,33=1,75=2,81=25,83=4/6,4;
 6/7=2,8=2,9=2,10=2/1;
 99/5=1,9=1/99;
 ---
 Br2
 ---
 Symbolic Z-matrix:
 Charge =  0 Multiplicity = 1
 Br
 Br                   1     2.28105 
 
                          Input orientation:                          
 ---------------------------------------------------------------------
 Center     Atomic      Atomic             Coordinates (Angstroms)
 Number     Number       Type             X           Y           Z
 ---------------------------------------------------------------------
      1         35           0        0.000000    0.000000    0.000000
      2         35           0        0.000000    0.000000    2.281050
 ---------------------------------------------------------------------
 Stoichiometry    Br2
 Framework group  D*H[C*(Br.Br)]
 Deg. of freedom     1
 Full point group                 D*H     NOp   8
 Largest Abelian subgroup         D2H     NOp   8
 Largest concise Abelian subgroup C2      NOp   2
                         Standard orientation:                         
 ---------------------------------------------------------------------
 Center     Atomic      Atomic             Coordinates (Angstroms)
 Number     Number       Type             X           Y           Z
 ---------------------------------------------------------------------
      1         35           0        0.000000    0.000000    1.140525
      2         35           0        0.000000    0.000000   -1.140525
 ---------------------------------------------------------------------
 Rotational constants (GHZ):      0.0000000      2.4614990      2.4614990
 General basis read from cards:  (5D, 7F)
 AO basis set in the form of general basis input (Overlap normalization):
      1 0
 S  19 1.00       0.000000000000
      0.1084089110D+09  0.2897699584D-06
      0.2017723730D+08  0.1824866800D-05
      0.4606851830D+07  0.1038807919D-04
      0.1247136140D+07  0.4708813254D-04
      0.3886300470D+06  0.1814051699D-03
      0.1358926290D+06  0.6102148031D-03
      0.5217333690D+05  0.1843419936D-02
      0.2159416810D+05  0.5103438024D-02
      0.9489448890D+04  0.1312406995D-01
      0.4372571600D+04  0.3150120384D-01
      0.2091443270D+04  0.6997810635D-01
      0.1030127600D+04  0.1400640193D+00
      0.5192168730D+03  0.2383775848D+00
      0.2665046050D+03  0.3080972525D+00
      0.1387733520D+03  0.2451695558D+00
      0.7308292400D+02  0.8608897484D-01
      0.3882100000D+02  0.7995888776D-02
      0.2074503800D+02  0.9489470514D-03
      0.1111965000D+02  0.4953062091D-04
 S  15 1.00       0.000000000000
      0.2159416810D+05 -0.9678985889D-05
      0.9489448890D+04 -0.4863764938D-04
      0.4372571600D+04 -0.2977365187D-03
      0.2091443270D+04 -0.1372218990D-02
      0.1030127600D+04 -0.5849453272D-02
      0.5192168730D+03 -0.2048702530D-01
      0.2665046050D+03 -0.5658275134D-01
      0.1387733520D+03 -0.9041113573D-01
      0.7308292400D+02 -0.2938125153D-02
      0.3882100000D+02  0.3072534665D+00
      0.2074503800D+02  0.5066413436D+00
      0.1111965000D+02  0.2631655220D+00
      0.5957454000D+01  0.3964223360D-01
      0.3175930000D+01  0.3292853492D-02
      0.1674973000D+01  0.4898347019D-03
 P  17 1.00       0.000000000000
      0.1489059560D+06  0.2740260182D-05
      0.3964636200D+05  0.2176321263D-04
      0.1264734410D+05  0.1403834625D-03
      0.4668245390D+04  0.6948952544D-03
      0.1934889060D+04  0.2808105022D-02
      0.8778986460D+03  0.9526976658D-02
      0.4267924460D+03  0.2770298382D-01
      0.2183954360D+03  0.6953677487D-01
      0.1159257070D+03  0.1469386723D+00
      0.6307782300D+02  0.2493208911D+00
      0.3484932500D+02  0.3157753200D+00
      0.1940052200D+02  0.2488553914D+00
      0.1081551700D+02  0.9796365660D-01
      0.6006953000D+01  0.1592384613D-01
      0.3308640000D+01  0.1533209791D-02
      0.1799357000D+01  0.3395022310D-03
      0.9616640000D+00  0.2293710392D-04
 S  11 1.00       0.000000000000
      0.2665046050D+03  0.7045882210D-03
      0.1387733520D+03  0.2554017970D-02
      0.7308292400D+02  0.2249779309D-02
      0.3882100000D+02 -0.3797473952D-01
      0.2074503800D+02 -0.1751230827D+00
      0.1111965000D+02 -0.1392406230D+00
      0.5957454000D+01  0.2628491860D+00
      0.3175930000D+01  0.5920876138D+00
      0.1674973000D+01  0.3388251456D+00
      0.8674590000D+00  0.3744989864D-01
      0.4370370000D+00  0.2232780462D-02
 P  14 1.00       0.000000000000
      0.8778986460D+03 -0.3377811447D-04
      0.4267924460D+03 -0.2222521929D-03
      0.2183954360D+03 -0.1192581069D-02
      0.1159257070D+03 -0.4604030998D-02
      0.6307782300D+02 -0.1233507946D-01
      0.3484932500D+02 -0.2302104199D-01
      0.1940052200D+02  0.3236711412D-02
      0.1081551700D+02  0.1367969390D+00
      0.6006953000D+01  0.3183466610D+00
      0.3308640000D+01  0.3836335349D+00
      0.1799357000D+01  0.2240687451D+00
      0.9616640000D+00  0.4713264893D-01
      0.5023720000D+00  0.3459205239D-02
      0.2548520000D+00  0.3310734587D-03
 D  16 1.00       0.000000000000
      0.5237200060D+04  0.5069540497D-05
      0.1612175470D+04  0.5373351511D-04
      0.6179331500D+03  0.3636041628D-03
      0.2751743010D+03  0.1742056614D-02
      0.1352802610D+03  0.6602255191D-02
      0.7083381400D+02  0.2016098071D-01
      0.3857775800D+02  0.5069376509D-01
      0.2153871200D+02  0.1079671851D+00
      0.1222546500D+02  0.1840055841D+00
      0.7018196000D+01  0.2440961743D+00
      0.4054348000D+01  0.2626492965D+00
      0.2338499000D+01  0.2241806785D+00
      0.1328367000D+01  0.1352922333D+00
      0.7265420000D+00  0.4881548799D-01
      0.3696680000D+00  0.7884050075D-02
      0.1665550000D+00  0.6446766657D-03
 S  10 1.00       0.000000000000
      0.3882100000D+02  0.2300144399D-03
      0.2074503800D+02  0.3863835953D-02
      0.1111965000D+02  0.2640130519D-02
      0.5957454000D+01 -0.8966677182D-02
      0.3175930000D+01 -0.9457293054D-01
      0.1674973000D+01 -0.2184827177D+00
      0.8674590000D+00  0.8325308406D-01
      0.4370370000D+00  0.5053966275D+00
      0.2117090000D+00  0.4987155701D+00
      0.9720500000D-01  0.1240336784D+00
 S   1 1.00       0.000000000000
      0.1209560000D+00  0.1000000000D+01
 S   1 1.00       0.000000000000
      0.4734000000D-01  0.1000000000D+01
 P  11 1.00       0.000000000000
      0.3484932500D+02  0.1184665237D-03
      0.1940052200D+02 -0.4435072015D-03
      0.1081551700D+02 -0.3741457556D-02
      0.6006953000D+01 -0.9005010777D-02
      0.3308640000D+01 -0.2542087043D-01
      0.1799357000D+01 -0.2314468429D-01
      0.9616640000D+00  0.1187990779D+00
      0.5023720000D+00  0.3164600821D+00
      0.2548520000D+00  0.3904801352D+00
      0.1245350000D+00  0.2667515036D+00
      0.5802900000D-01  0.6072639074D-01
 P   1 1.00       0.000000000000
      0.6083700000D-01  0.1000000000D+01
 P   1 1.00       0.000000000000
      0.2547600000D-01  0.1000000000D+01
 S   1 1.00       0.000000000000
      0.4239434000D+01  0.1000000000D+01
 S   1 1.00       0.000000000000
      0.2478441000D+01  0.1000000000D+01
 S   1 1.00       0.000000000000
      0.1448937000D+01  0.1000000000D+01
 S   1 1.00       0.000000000000
      0.8470720000D+00  0.1000000000D+01
 S   1 1.00       0.000000000000
      0.4952120000D+00  0.1000000000D+01
 S   1 1.00       0.000000000000
      0.2895090000D+00  0.1000000000D+01
 P   1 1.00       0.000000000000
      0.3530439000D+01  0.1000000000D+01
 P   1 1.00       0.000000000000
      0.2050080000D+01  0.1000000000D+01
 P   1 1.00       0.000000000000
      0.1190455000D+01  0.1000000000D+01
 P   1 1.00       0.000000000000
      0.6912820000D+00  0.1000000000D+01
 P   1 1.00       0.000000000000
      0.4014180000D+00  0.1000000000D+01
 P   1 1.00       0.000000000000
      0.2330980000D+00  0.1000000000D+01
 D   1 1.00       0.000000000000
      0.2746111000D+01  0.1000000000D+01
 D   1 1.00       0.000000000000
      0.1533907000D+01  0.1000000000D+01
 D   1 1.00       0.000000000000
      0.8568010000D+00  0.1000000000D+01
 D   1 1.00       0.000000000000
      0.4785870000D+00  0.1000000000D+01
 D   1 1.00       0.000000000000
      0.2673260000D+00  0.1000000000D+01
 D   1 1.00       0.000000000000
      0.1493220000D+00  0.1000000000D+01
 F   1 1.00       0.000000000000
      0.3187656000D+01  0.1000000000D+01
 F   1 1.00       0.000000000000
      0.1674453000D+01  0.1000000000D+01
 F   1 1.00       0.000000000000
      0.8795780000D+00  0.1000000000D+01
 F   1 1.00       0.000000000000
      0.4620360000D+00  0.1000000000D+01
 F   1 1.00       0.000000000000
      0.2427040000D+00  0.1000000000D+01
 G   1 1.00       0.000000000000
      0.1560226000D+01  0.1000000000D+01
 G   1 1.00       0.000000000000
      0.9434780000D+00  0.1000000000D+01
 G   1 1.00       0.000000000000
      0.5705260000D+00  0.1000000000D+01
 G   1 1.00       0.000000000000
      0.3450010000D+00  0.1000000000D+01
 H   1 1.00       0.000000000000
      0.1384770000D+01  0.1000000000D+01
 H   1 1.00       0.000000000000
      0.8134390000D+00  0.1000000000D+01
 H   1 1.00       0.000000000000
      0.4778280000D+00  0.1000000000D+01
 I   1 1.00       0.000000000000
      0.1302811000D+01  0.1000000000D+01
 I   1 1.00       0.000000000000
      0.6956320000D+00  0.1000000000D+01
 J   1 1.00       0.000000000000
      0.1102245215D+01  0.1000000000D+01
 ****
      2 0
 S  19 1.00       0.000000000000
      0.1084089110D+09  0.2897699584D-06
      0.2017723730D+08  0.1824866800D-05
      0.4606851830D+07  0.1038807919D-04
      0.1247136140D+07  0.4708813254D-04
      0.3886300470D+06  0.1814051699D-03
      0.1358926290D+06  0.6102148031D-03
      0.5217333690D+05  0.1843419936D-02
      0.2159416810D+05  0.5103438024D-02
      0.9489448890D+04  0.1312406995D-01
      0.4372571600D+04  0.3150120384D-01
      0.2091443270D+04  0.6997810635D-01
      0.1030127600D+04  0.1400640193D+00
      0.5192168730D+03  0.2383775848D+00
      0.2665046050D+03  0.3080972525D+00
      0.1387733520D+03  0.2451695558D+00
      0.7308292400D+02  0.8608897484D-01
      0.3882100000D+02  0.7995888776D-02
      0.2074503800D+02  0.9489470514D-03
      0.1111965000D+02  0.4953062091D-04
 S  15 1.00       0.000000000000
      0.2159416810D+05 -0.9678985889D-05
      0.9489448890D+04 -0.4863764938D-04
      0.4372571600D+04 -0.2977365187D-03
      0.2091443270D+04 -0.1372218990D-02
      0.1030127600D+04 -0.5849453272D-02
      0.5192168730D+03 -0.2048702530D-01
      0.2665046050D+03 -0.5658275134D-01
      0.1387733520D+03 -0.9041113573D-01
      0.7308292400D+02 -0.2938125153D-02
      0.3882100000D+02  0.3072534665D+00
      0.2074503800D+02  0.5066413436D+00
      0.1111965000D+02  0.2631655220D+00
      0.5957454000D+01  0.3964223360D-01
      0.3175930000D+01  0.3292853492D-02
      0.1674973000D+01  0.4898347019D-03
 P  17 1.00       0.000000000000
      0.1489059560D+06  0.2740260182D-05
      0.3964636200D+05  0.2176321263D-04
      0.1264734410D+05  0.1403834625D-03
      0.4668245390D+04  0.6948952544D-03
      0.1934889060D+04  0.2808105022D-02
      0.8778986460D+03  0.9526976658D-02
      0.4267924460D+03  0.2770298382D-01
      0.2183954360D+03  0.6953677487D-01
      0.1159257070D+03  0.1469386723D+00
      0.6307782300D+02  0.2493208911D+00
      0.3484932500D+02  0.3157753200D+00
      0.1940052200D+02  0.2488553914D+00
      0.1081551700D+02  0.9796365660D-01
      0.6006953000D+01  0.1592384613D-01
      0.3308640000D+01  0.1533209791D-02
      0.1799357000D+01  0.3395022310D-03
      0.9616640000D+00  0.2293710392D-04
 S  11 1.00       0.000000000000
      0.2665046050D+03  0.7045882210D-03
      0.1387733520D+03  0.2554017970D-02
      0.7308292400D+02  0.2249779309D-02
      0.3882100000D+02 -0.3797473952D-01
      0.2074503800D+02 -0.1751230827D+00
      0.1111965000D+02 -0.1392406230D+00
      0.5957454000D+01  0.2628491860D+00
      0.3175930000D+01  0.5920876138D+00
      0.1674973000D+01  0.3388251456D+00
      0.8674590000D+00  0.3744989864D-01
      0.4370370000D+00  0.2232780462D-02
 P  14 1.00       0.000000000000
      0.8778986460D+03 -0.3377811447D-04
      0.4267924460D+03 -0.2222521929D-03
      0.2183954360D+03 -0.1192581069D-02
      0.1159257070D+03 -0.4604030998D-02
      0.6307782300D+02 -0.1233507946D-01
      0.3484932500D+02 -0.2302104199D-01
      0.1940052200D+02  0.3236711412D-02
      0.1081551700D+02  0.1367969390D+00
      0.6006953000D+01  0.3183466610D+00
      0.3308640000D+01  0.3836335349D+00
      0.1799357000D+01  0.2240687451D+00
      0.9616640000D+00  0.4713264893D-01
      0.5023720000D+00  0.3459205239D-02
      0.2548520000D+00  0.3310734587D-03
 D  16 1.00       0.000000000000
      0.5237200060D+04  0.5069540497D-05
      0.1612175470D+04  0.5373351511D-04
      0.6179331500D+03  0.3636041628D-03
      0.2751743010D+03  0.1742056614D-02
      0.1352802610D+03  0.6602255191D-02
      0.7083381400D+02  0.2016098071D-01
      0.3857775800D+02  0.5069376509D-01
      0.2153871200D+02  0.1079671851D+00
      0.1222546500D+02  0.1840055841D+00
      0.7018196000D+01  0.2440961743D+00
      0.4054348000D+01  0.2626492965D+00
      0.2338499000D+01  0.2241806785D+00
      0.1328367000D+01  0.1352922333D+00
      0.7265420000D+00  0.4881548799D-01
      0.3696680000D+00  0.7884050075D-02
      0.1665550000D+00  0.6446766657D-03
 S  10 1.00       0.000000000000
      0.3882100000D+02  0.2300144399D-03
      0.2074503800D+02  0.3863835953D-02
      0.1111965000D+02  0.2640130519D-02
      0.5957454000D+01 -0.8966677182D-02
      0.3175930000D+01 -0.9457293054D-01
      0.1674973000D+01 -0.2184827177D+00
      0.8674590000D+00  0.8325308406D-01
      0.4370370000D+00  0.5053966275D+00
      0.2117090000D+00  0.4987155701D+00
      0.9720500000D-01  0.1240336784D+00
 S   1 1.00       0.000000000000
      0.1209560000D+00  0.1000000000D+01
 S   1 1.00       0.000000000000
      0.4734000000D-01  0.1000000000D+01
 P  11 1.00       0.000000000000
      0.3484932500D+02  0.1184665237D-03
      0.1940052200D+02 -0.4435072015D-03
      0.1081551700D+02 -0.3741457556D-02
      0.6006953000D+01 -0.9005010777D-02
      0.3308640000D+01 -0.2542087043D-01
      0.1799357000D+01 -0.2314468429D-01
      0.9616640000D+00  0.1187990779D+00
      0.5023720000D+00  0.3164600821D+00
      0.2548520000D+00  0.3904801352D+00
      0.1245350000D+00  0.2667515036D+00
      0.5802900000D-01  0.6072639074D-01
 P   1 1.00       0.000000000000
      0.6083700000D-01  0.1000000000D+01
 P   1 1.00       0.000000000000
      0.2547600000D-01  0.1000000000D+01
 S   1 1.00       0.000000000000
      0.4239434000D+01  0.1000000000D+01
 S   1 1.00       0.000000000000
      0.2478441000D+01  0.1000000000D+01
 S   1 1.00       0.000000000000
      0.1448937000D+01  0.1000000000D+01
 S   1 1.00       0.000000000000
      0.8470720000D+00  0.1000000000D+01
 S   1 1.00       0.000000000000
      0.4952120000D+00  0.1000000000D+01
 S   1 1.00       0.000000000000
      0.2895090000D+00  0.1000000000D+01
 P   1 1.00       0.000000000000
      0.3530439000D+01  0.1000000000D+01
 P   1 1.00       0.000000000000
      0.2050080000D+01  0.1000000000D+01
 P   1 1.00       0.000000000000
      0.1190455000D+01  0.1000000000D+01
 P   1 1.00       0.000000000000
      0.6912820000D+00  0.1000000000D+01
 P   1 1.00       0.000000000000
      0.4014180000D+00  0.1000000000D+01
 P   1 1.00       0.000000000000
      0.2330980000D+00  0.1000000000D+01
 D   1 1.00       0.000000000000
      0.2746111000D+01  0.1000000000D+01
 D   1 1.00       0.000000000000
      0.1533907000D+01  0.1000000000D+01
 D   1 1.00       0.000000000000
      0.8568010000D+00  0.1000000000D+01
 D   1 1.00       0.000000000000
      0.4785870000D+00  0.1000000000D+01
 D   1 1.00       0.000000000000
      0.2673260000D+00  0.1000000000D+01
 D   1 1.00       0.000000000000
      0.1493220000D+00  0.1000000000D+01
 F   1 1.00       0.000000000000
      0.3187656000D+01  0.1000000000D+01
 F   1 1.00       0.000000000000
      0.1674453000D+01  0.1000000000D+01
 F   1 1.00       0.000000000000
      0.8795780000D+00  0.1000000000D+01
 F   1 1.00       0.000000000000
      0.4620360000D+00  0.1000000000D+01
 F   1 1.00       0.000000000000
      0.2427040000D+00  0.1000000000D+01
 G   1 1.00       0.000000000000
      0.1560226000D+01  0.1000000000D+01
 G   1 1.00       0.000000000000
      0.9434780000D+00  0.1000000000D+01
 G   1 1.00       0.000000000000
      0.5705260000D+00  0.1000000000D+01
 G   1 1.00       0.000000000000
      0.3450010000D+00  0.1000000000D+01
 H   1 1.00       0.000000000000
      0.1384770000D+01  0.1000000000D+01
 H   1 1.00       0.000000000000
      0.8134390000D+00  0.1000000000D+01
 H   1 1.00       0.000000000000
      0.4778280000D+00  0.1000000000D+01
 I   1 1.00       0.000000000000
      0.1302811000D+01  0.1000000000D+01
 I   1 1.00       0.000000000000
      0.6956320000D+00  0.1000000000D+01
 J   1 1.00       0.000000000000
      0.1102245215D+01  0.1000000000D+01
 ****

 There are    80 symmetry adapted basis functions of AG  symmetry.
 There are    35 symmetry adapted basis functions of B1G symmetry.
 There are    55 symmetry adapted basis functions of B2G symmetry.
 There are    55 symmetry adapted basis functions of B3G symmetry.
 There are    35 symmetry adapted basis functions of AU  symmetry.
 There are    80 symmetry adapted basis functions of B1U symmetry.
 There are    55 symmetry adapted basis functions of B2U symmetry.
 There are    55 symmetry adapted basis functions of B3U symmetry.
 Integral buffers will be    131072 words long.
 Raffenetti 2 integral format.
 Two-electron integral symmetry is turned on.
   450 basis functions,  1220 primitive gaussians,   704 cartesian basis functions
    35 alpha electrons       35 beta electrons
       nuclear repulsion energy       284.1858269318 Hartrees.
 NAtoms=    2 NActive=    2 NUniq=    1 SFac= 3.00D+00 NAtFMM=   80 NAOKFM=F Big=F
 One-electron integrals computed using PRISM.
 NBasis=   450 RedAO= F  NBF=    80    35    55    55    35    80    55    55
 NBsUse=   450 1.00D-04 NBFU=    80    35    55    55    35    80    55    55
 Harris functional with IExCor=  205 diagonalized for initial guess.
 ExpMin= 2.55D-02 ExpMax= 1.08D+08 ExpMxC= 9.49D+03 IAcc=3 IRadAn=         5 AccDes= 0.00D+00
 HarFok:  IExCor=  205 AccDes= 0.00D+00 IRadAn=         5 IDoV= 1
 ScaDFX=  1.000000  1.000000  1.000000  1.000000
 FoFCou: FMM=F IPFlag=           0 FMFlag=      100000 FMFlg1=           0
         NFxFlg=           0 DoJE=T BraDBF=F KetDBF=T FulRan=T
         Omega=  0.000000  0.000000  1.000000  0.000000  0.000000 ICntrl=     500 IOpCl=  0
         NMat0=    1 NMatS0=    1 NMatT0=    0 NMatD0=    1 NMtDS0=    0 NMtDT0=    0
         I1Cent=           4 NGrid=           0.
 Petite list used in FoFCou.
 Initial guess orbital symmetries:
       Occupied  (SGU) (SGG) (SGU) (SGG) (SGU) (SGG) (PIG) (PIG)
                 (PIU) (PIU) (SGG) (SGU) (SGG) (SGU) (PIU) (PIU)
                 (PIG) (PIG) (SGG) (PIU) (PIU) (SGU) (PIG) (PIG)
                 (DLTG) (DLTG) (DLTU) (DLTU) (SGG) (SGU) (SGG)
                 (PIU) (PIU) (PIG) (PIG)
       Virtual   (SGU) (SGG) (SGU) (PIU) (PIU) (SGG) (PIG) (PIG)
                 (DLTG) (DLTG) (PIU) (PIU) (SGU) (SGG) (PIU) (PIU)
                 (SGU) (PIG) (PIG) (DLTU) (DLTU) (SGG) (SGG) (PIG)
                 (PIG) (SGU) (SGG) (SGU) (PIU) (PIU) (PIU) (PIU)
                 (PIG) (PIG) (DLTG) (DLTG) (PHIU) (PHIU) (DLTG)
                 (DLTG) (SGU) (DLTU) (DLTU) (PHIG) (PHIG) (SGG)
                 (PIG) (PIG) (PIU) (PIU) (DLTU) (DLTU) (SGU) (SGG)
                 (SGG) (PIG) (PIG) (PHIU) (PHIU) (SGU) (?A) (?A)
                 (SGG) (DLTG) (DLTG) (PIU) (PIU) (SGU) (?B) (?B)
                 (PIG) (PIG) (PIU) (PIU) (SGG) (PHIG) (PHIG) (DLTU)
                 (DLTU) (SGU) (DLTG) (DLTG) (PHIU) (PHIU) (DLTG)
                 (DLTG) (PIG) (PIG) (PIU) (PIU) (PHIG) (PHIG) (DLTU)
                 (DLTU) (SGU) (SGG) (PIG) (PIG) (DLTU) (DLTU) (PIU)
                 (PIU) (?A) (?A) (SGU) (PHIU) (PHIU) (SGG) (?C)
                 (?C) (PIG) (PIG) (?D) (?D) (SGG) (DLTG) (DLTG)
                 (SGU) (?B) (?B) (PIU) (PIU) (SGG) (PHIG) (PHIG)
                 (PHIU) (PHIU) (?A) (?A) (PIG) (PIG) (SGG) (PIU)
                 (PIU) (SGU) (?B) (?B) (DLTG) (DLTG) (PIG) (PIG)
                 (DLTU) (DLTU) (PHIG) (PHIG) (SGU) (PIU) (PIU)
                 (SGU) (SGG) (DLTU) (DLTU) (PIG) (PIG) (PHIU) (PHIU)
                 (DLTG) (DLTG) (PHIG) (PHIG) (PIU) (PIU) (SGU)
                 (DLTG) (DLTG) (DLTU) (DLTU) (DLTU) (DLTU) (SGG)
                 (PIU) (PIU) (PIG) (PIG) (?A) (?A) (PHIU) (PHIU)
                 (?C) (?C) (?E) (?E) (?F) (?F) (DLTG) (DLTG) (?D)
                 (?D) (SGG) (PIG) (PIG) (SGU) (PIU) (PIU) (?B)
                 (?B) (SGG) (SGU) (PHIG) (PHIG) (SGG) (?A) (?A)
                 (?C) (?C) (SGU) (?D) (?D) (PHIU) (PHIU) (DLTU)
                 (DLTU) (?B) (?B) (PIG) (PIG) (DLTG) (DLTG) (PHIG)
                 (PHIG) (PHIU) (PHIU) (SGG) (?A) (?A) (PIG) (PIG)
                 (?B) (?B) (DLTG) (DLTG) (PHIG) (PHIG) (SGU) (PIU)
                 (PIU) (DLTU) (DLTU) (SGG) (SGU) (PIU) (PIU) (PIG)
                 (PIG) (DLTU) (DLTU) (PIU) (PIU) (SGU) (SGG) (PIG)
                 (PIG) (SGU) (PHIU) (PHIU) (DLTG) (DLTG) (PHIG)
                 (PHIG) (PIU) (PIU) (DLTU) (DLTU) (DLTG) (DLTG)
                 (DLTU) (DLTU) (PIU) (PIU) (PIG) (PIG) (SGG) (PHIU)
                 (PHIU) (DLTG) (DLTG) (SGG) (?A) (?A) (?C) (?C)
                 (PIU) (PIU) (SGU) (?E) (?E) (?G) (?G) (?H) (?H)
                 (?F) (?F) (?D) (?D) (PIG) (PIG) (?B) (?B) (SGG)
                 (PHIG) (PHIG) (DLTU) (DLTU) (SGU) (PIG) (PIG)
                 (SGU) (SGG) (?A) (?A) (?C) (?C) (PHIU) (PHIU)
                 (?E) (?E) (?F) (?F) (?D) (?D) (DLTG) (DLTG) (SGU)
                 (PIU) (PIU) (?B) (?B) (?A) (?A) (SGG) (?C) (?C)
                 (PHIU) (PHIU) (?D) (?D) (PHIG) (PHIG) (?A) (?A)
                 (?B) (?B) (PHIU) (PHIU) (DLTU) (DLTU) (DLTG) (DLTG)
                 (?B) (?B) (PIG) (PIG) (PHIG) (PHIG) (DLTG) (DLTG)
                 (PHIG) (PHIG) (SGU) (PIU) (PIU) (PIG) (PIG) (SGG)
                 (DLTU) (DLTU) (SGG) (SGU) (PIU) (PIU) (DLTU) (DLTU)
                 (PIG) (PIG) (SGU) (PIU) (PIU) (PIG) (PIG) (SGG)
                 (SGU) (PHIU) (PHIU) (DLTG) (DLTG) (PHIG) (PHIG)
                 (DLTU) (DLTU) (PIU) (PIU) (PIG) (PIG) (SGU) (SGG)
                 (DLTG) (DLTG) (DLTU) (DLTU) (PIU) (PIU) (PIG)
                 (PIG) (SGG) (SGU) (SGG) (SGU) (PIU) (PIU) (PIG)
                 (PIG) (SGG) (SGU) (SGG) (SGU)
 The electronic state of the initial guess is 1-SGG.
 Requested convergence on RMS density matrix=1.00D-10 within 128 cycles.
 Requested convergence on MAX density matrix=1.00D-08.
 Requested convergence on             energy=1.00D-08.
 No special actions if energy rises.
 Initial convergence to 1.0D-05 achieved.  Increase integral accuracy.
 SCF Done:  E(ROHF) =  -5144.92276345     A.U. after   13 cycles
             Convg  =    0.7265D-10             -V/T =  2.0000
 <Sx>= 0.0000 <Sy>= 0.0000 <Sz>= 0.0000 <S**2>= 0.0000 S= 0.0000
 <L.S>= 0.000000000000E+00
 Annihilation of the first spin contaminant:
 S**2 before annihilation     0.0000,   after     0.0000
 GenMOA:  NOpAll=  8 NOp2=8 NOpUse=  8 JSym2X=1
 <Sx>= 0.0000 <Sy>= 0.0000 <Sz>= 0.0000 <S**2>= 0.0000 S= 0.0000
 Range of M.O.s used for correlation:    29   450
 NBasis=   450 NAE=    35 NBE=    35 NFC=    28 NFV=     0
 NROrb=    422 NOA=     7 NOB=     7 NVA=   415 NVB=   415

 **** Warning!!: The largest alpha MO coefficient is  0.67372661D+03


 **** Warning!!: The largest beta MO coefficient is  0.67372661D+03

 Singles contribution to E2=   -0.4295449185D-13
 Disk-based method using OVN memory for  7 occupieds at a time.
 Permanent disk used for amplitudes and <ij||ab> integrals=    24094070 words.
 Estimated scratch disk usage=   945977387 words.
 IUseRI=2 ITolRI= 6 IR12RI=0
 Actual    scratch disk usage=   945087531 words.
 GetIJB would need an additional  1713252799 words of memory to use all   8 processors.
 JobTyp=2 Pass  1:  I=   1 to   7 NPSUse=  1 ParTrn=F ParDer=F DoDerP=F.
 (rs|ai) integrals will be sorted in core.
 T,EIJ(AA): I=   1 J=   2      0.9985951E-04     -0.3480546E-03
 T,EIJ(AA): I=   1 J=   3      0.2337709E-03     -0.8028846E-03
 T,EIJ(AA): I=   1 J=   4      0.2838076E-03     -0.9574008E-03
 T,EIJ(AA): I=   1 J=   5      0.2838076E-03     -0.9574008E-03
 T,EIJ(AA): I=   1 J=   6      0.2429847E-03     -0.8568358E-03
 T,EIJ(AA): I=   1 J=   7      0.2429847E-03     -0.8568358E-03
 T,EIJ(AA): I=   2 J=   3      0.7863788E-03     -0.2052045E-02
 T,EIJ(AA): I=   2 J=   4      0.4816927E-03     -0.1297042E-02
 T,EIJ(AA): I=   2 J=   5      0.4816927E-03     -0.1297042E-02
 T,EIJ(AA): I=   2 J=   6      0.3823554E-03     -0.1129202E-02
 T,EIJ(AA): I=   2 J=   7      0.3823554E-03     -0.1129202E-02
 T,EIJ(AA): I=   3 J=   4      0.1507121E-02     -0.3520761E-02
 T,EIJ(AA): I=   3 J=   5      0.1507121E-02     -0.3520761E-02
 T,EIJ(AA): I=   3 J=   6      0.2517897E-02     -0.4828498E-02
 T,EIJ(AA): I=   3 J=   7      0.2517897E-02     -0.4828498E-02
 T,EIJ(AA): I=   4 J=   5      0.1350315E-02     -0.3145802E-02
 T,EIJ(AA): I=   4 J=   6      0.2783323E-03     -0.5704729E-03
 T,EIJ(AA): I=   4 J=   7      0.1289618E-02     -0.3053309E-02
 T,EIJ(AA): I=   5 J=   6      0.1289618E-02     -0.3053309E-02
 T,EIJ(AA): I=   5 J=   7      0.2783323E-03     -0.5704729E-03
 T,EIJ(AA): I=   6 J=   7      0.1601340E-02     -0.3583583E-02
 T,EIJ(AB): I=   1 J=   1      0.1592178E-02     -0.6534302E-02
 T,EIJ(AB): I=   1 J=   2      0.8975424E-03     -0.4184318E-02
 T,EIJ(AB): I=   1 J=   3      0.1417500E-02     -0.5547220E-02
 T,EIJ(AB): I=   1 J=   4      0.1064228E-02     -0.4160756E-02
 T,EIJ(AB): I=   1 J=   5      0.1064228E-02     -0.4160756E-02
 T,EIJ(AB): I=   1 J=   6      0.9745181E-03     -0.3793680E-02
 T,EIJ(AB): I=   1 J=   7      0.9745181E-03     -0.3793680E-02
 T,EIJ(AB): I=   2 J=   1      0.8975424E-03     -0.4184318E-02
 T,EIJ(AB): I=   2 J=   2      0.1982460E-02     -0.6983733E-02
 T,EIJ(AB): I=   2 J=   3      0.1817704E-02     -0.5934162E-02
 T,EIJ(AB): I=   2 J=   4      0.1371695E-02     -0.4690980E-02
 T,EIJ(AB): I=   2 J=   5      0.1371695E-02     -0.4690980E-02
 T,EIJ(AB): I=   2 J=   6      0.1512418E-02     -0.5294360E-02
 T,EIJ(AB): I=   2 J=   7      0.1512418E-02     -0.5294360E-02
 T,EIJ(AB): I=   3 J=   1      0.1417500E-02     -0.5547220E-02
 T,EIJ(AB): I=   3 J=   2      0.1817704E-02     -0.5934162E-02
 T,EIJ(AB): I=   3 J=   3      0.1185752E-01     -0.2079784E-01
 T,EIJ(AB): I=   3 J=   4      0.1975808E-02     -0.5250714E-02
 T,EIJ(AB): I=   3 J=   5      0.1975808E-02     -0.5250714E-02
 T,EIJ(AB): I=   3 J=   6      0.2850272E-02     -0.6283541E-02
 T,EIJ(AB): I=   3 J=   7      0.2850272E-02     -0.6283541E-02
 T,EIJ(AB): I=   4 J=   1      0.1064228E-02     -0.4160756E-02
 T,EIJ(AB): I=   4 J=   2      0.1371695E-02     -0.4690980E-02
 T,EIJ(AB): I=   4 J=   3      0.1975808E-02     -0.5250714E-02
 T,EIJ(AB): I=   4 J=   4      0.3940213E-02     -0.1007007E-01
 T,EIJ(AB): I=   4 J=   5      0.1748720E-02     -0.4491208E-02
 T,EIJ(AB): I=   4 J=   6      0.3533193E-02     -0.9539874E-02
 T,EIJ(AB): I=   4 J=   7      0.1656843E-02     -0.4339154E-02
 T,EIJ(AB): I=   5 J=   1      0.1064228E-02     -0.4160756E-02
 T,EIJ(AB): I=   5 J=   2      0.1371695E-02     -0.4690980E-02
 T,EIJ(AB): I=   5 J=   3      0.1975808E-02     -0.5250714E-02
 T,EIJ(AB): I=   5 J=   4      0.1748720E-02     -0.4491208E-02
 T,EIJ(AB): I=   5 J=   5      0.3940213E-02     -0.1007007E-01
 T,EIJ(AB): I=   5 J=   6      0.1656843E-02     -0.4339154E-02
 T,EIJ(AB): I=   5 J=   7      0.3533193E-02     -0.9539874E-02
 T,EIJ(AB): I=   6 J=   1      0.9745181E-03     -0.3793680E-02
 T,EIJ(AB): I=   6 J=   2      0.1512418E-02     -0.5294360E-02
 T,EIJ(AB): I=   6 J=   3      0.2850272E-02     -0.6283541E-02
 T,EIJ(AB): I=   6 J=   4      0.3533193E-02     -0.9539874E-02
 T,EIJ(AB): I=   6 J=   5      0.1656843E-02     -0.4339154E-02
 T,EIJ(AB): I=   6 J=   6      0.4771003E-02     -0.1156134E-01
 T,EIJ(AB): I=   6 J=   7      0.2090234E-02     -0.5176558E-02
 T,EIJ(AB): I=   7 J=   1      0.9745181E-03     -0.3793680E-02
 T,EIJ(AB): I=   7 J=   2      0.1512418E-02     -0.5294360E-02
 T,EIJ(AB): I=   7 J=   3      0.2850272E-02     -0.6283541E-02
 T,EIJ(AB): I=   7 J=   4      0.1656843E-02     -0.4339154E-02
 T,EIJ(AB): I=   7 J=   5      0.3533193E-02     -0.9539874E-02
 T,EIJ(AB): I=   7 J=   6      0.2090234E-02     -0.5176558E-02
 T,EIJ(AB): I=   7 J=   7      0.4771003E-02     -0.1156134E-01
 Actual    scratch disk usage=   945087531 words.
 GetIJB would need an additional  1713252799 words of memory to use all   8 processors.
 JobTyp=3 Pass  1:  I=   1 to   7 NPSUse=  1 ParTrn=F ParDer=F DoDerP=F.
 (rs|ai) integrals will be sorted in core.
 T,EIJ(BB): I=   1 J=   2      0.9985951E-04     -0.3480546E-03
 T,EIJ(BB): I=   1 J=   3      0.2337709E-03     -0.8028846E-03
 T,EIJ(BB): I=   1 J=   4      0.2838076E-03     -0.9574008E-03
 T,EIJ(BB): I=   1 J=   5      0.2838076E-03     -0.9574008E-03
 T,EIJ(BB): I=   1 J=   6      0.2429847E-03     -0.8568358E-03
 T,EIJ(BB): I=   1 J=   7      0.2429847E-03     -0.8568358E-03
 T,EIJ(BB): I=   2 J=   3      0.7863788E-03     -0.2052045E-02
 T,EIJ(BB): I=   2 J=   4      0.4816927E-03     -0.1297042E-02
 T,EIJ(BB): I=   2 J=   5      0.4816927E-03     -0.1297042E-02
 T,EIJ(BB): I=   2 J=   6      0.3823554E-03     -0.1129202E-02
 T,EIJ(BB): I=   2 J=   7      0.3823554E-03     -0.1129202E-02
 T,EIJ(BB): I=   3 J=   4      0.1507121E-02     -0.3520761E-02
 T,EIJ(BB): I=   3 J=   5      0.1507121E-02     -0.3520761E-02
 T,EIJ(BB): I=   3 J=   6      0.2517897E-02     -0.4828498E-02
 T,EIJ(BB): I=   3 J=   7      0.2517897E-02     -0.4828498E-02
 T,EIJ(BB): I=   4 J=   5      0.1350315E-02     -0.3145802E-02
 T,EIJ(BB): I=   4 J=   6      0.2783323E-03     -0.5704729E-03
 T,EIJ(BB): I=   4 J=   7      0.1289618E-02     -0.3053309E-02
 T,EIJ(BB): I=   5 J=   6      0.1289618E-02     -0.3053309E-02
 T,EIJ(BB): I=   5 J=   7      0.2783323E-03     -0.5704729E-03
 T,EIJ(BB): I=   6 J=   7      0.1601340E-02     -0.3583583E-02
 Spin components of T(2) and E(2):
     alpha-alpha T2 =       0.1803928302D-01 E2=     -0.4235941368D-01
     alpha-beta  T2 =       0.1085538855D+00 E2=     -0.3016578644D+00
     beta-beta   T2 =       0.1803928302D-01 E2=     -0.4235941368D-01
 ANorm=    0.1069874970D+01
 E2 =    -0.3863766918D+00 EUMP2 =    -0.51453091401428D+04

 Complete Basis Set (CBS) Extrapolation:
 M. R. Nyden and G. A. Petersson, JCP 75, 1843 (1981)
 G. A. Petersson and M. A. Al-Laham, JCP 94, 6081 (1991)
 G. A. Petersson, T. Tensfeldt, and J. A. Montgomery, JCP 94, 6091 (1991)
 J. A. Montgomery, J. W. Ochterski, and G. A. Petersson, JCP 101, 5900 (1994)
 
 Minimum Number of PNO for Extrapolation =  25
 Absolute Overlaps: IRadAn =         5
 LocTrn: ILocal=3 LocCor=F DoCore=F.
 Entering OneElI...
 Overlap between basis sets.
 Requested accuracy = 0.1000D-12
 PrsmSu:  NPrtUS=   1 ThrOK=F IAlg=1
 PRISM was handed  1609682353 working-precision words and   136 shell-pairs
 IPart=  0 NShTot=         136 NBatch=          16 AvBLen=         8.5
 CnvPC2: ToCart=F DoDens=F IPureD=0 IPureF=0.
 Transformed matrix in CnvPC2: 
                 1             2             3             4             5 
      1   0.100000D+01  0.406589D+00  0.000000D+00  0.000000D+00  0.000000D+00
      2   0.406589D+00  0.100000D+01  0.000000D+00  0.000000D+00  0.000000D+00
      3   0.000000D+00  0.000000D+00  0.100000D+01  0.000000D+00  0.000000D+00
      4   0.000000D+00  0.000000D+00  0.000000D+00  0.100000D+01  0.000000D+00
      5   0.000000D+00  0.000000D+00  0.000000D+00  0.000000D+00  0.100000D+01
      6   0.319944D-01  0.362204D+00  0.000000D+00  0.000000D+00  0.000000D+00
      7   0.000000D+00  0.000000D+00  0.375020D+00  0.000000D+00  0.000000D+00
      8   0.000000D+00  0.000000D+00  0.000000D+00  0.375020D+00  0.000000D+00
      9   0.000000D+00  0.000000D+00  0.000000D+00  0.000000D+00  0.375020D+00
     10   0.000000D+00  0.000000D+00  0.000000D+00  0.000000D+00  0.000000D+00
     11   0.000000D+00  0.000000D+00  0.000000D+00  0.000000D+00  0.000000D+00
     12   0.000000D+00  0.000000D+00  0.000000D+00  0.000000D+00  0.000000D+00
     13   0.000000D+00  0.000000D+00  0.000000D+00  0.000000D+00  0.000000D+00
     14   0.000000D+00  0.000000D+00  0.000000D+00  0.000000D+00  0.000000D+00
     15  -0.396207D-03  0.612395D-02  0.000000D+00  0.000000D+00  0.000000D+00
     16   0.000000D+00  0.000000D+00  0.149285D-01  0.000000D+00  0.000000D+00
     17   0.000000D+00  0.000000D+00  0.000000D+00  0.149285D-01  0.000000D+00
     18   0.000000D+00  0.000000D+00  0.000000D+00  0.000000D+00  0.149285D-01
     19   0.000000D+00  0.000000D+00  0.000000D+00  0.000000D+00  0.000000D+00
     20   0.000000D+00  0.000000D+00  0.000000D+00  0.000000D+00  0.000000D+00
     21   0.000000D+00  0.000000D+00  0.000000D+00  0.000000D+00  0.000000D+00
     22   0.000000D+00  0.000000D+00  0.000000D+00  0.000000D+00  0.000000D+00
     23   0.000000D+00  0.000000D+00  0.000000D+00  0.000000D+00  0.000000D+00
     24   0.000000D+00  0.000000D+00  0.000000D+00  0.000000D+00  0.000000D+00
     25   0.000000D+00  0.000000D+00  0.000000D+00  0.000000D+00  0.000000D+00
     26   0.000000D+00  0.000000D+00  0.000000D+00  0.000000D+00  0.000000D+00
     27   0.000000D+00  0.000000D+00  0.000000D+00  0.000000D+00  0.000000D+00
     28   0.000000D+00  0.000000D+00  0.000000D+00  0.000000D+00  0.000000D+00
     29   0.000000D+00  0.000000D+00  0.000000D+00  0.000000D+00  0.000000D+00
     30   0.000000D+00  0.000000D+00  0.000000D+00  0.000000D+00  0.000000D+00
     31   0.000000D+00  0.000000D+00  0.000000D+00  0.000000D+00  0.000000D+00
     32   0.000000D+00  0.000000D+00  0.000000D+00  0.000000D+00  0.000000D+00
     33   0.000000D+00  0.000000D+00  0.000000D+00  0.000000D+00  0.000000D+00
     34   0.000000D+00  0.000000D+00  0.000000D+00  0.000000D+00  0.000000D+00
     35   0.000000D+00  0.000000D+00  0.000000D+00  0.000000D+00  0.000000D+00
     36   0.000000D+00  0.000000D+00  0.000000D+00  0.000000D+00  0.000000D+00
     37   0.000000D+00  0.000000D+00  0.000000D+00  0.000000D+00  0.000000D+00
     38   0.265712D-03  0.165531D-02  0.000000D+00  0.000000D+00 -0.501541D-03
     39   0.000000D+00  0.000000D+00  0.120449D-03  0.000000D+00  0.000000D+00
     40   0.000000D+00  0.000000D+00  0.000000D+00  0.120449D-03  0.000000D+00
     41   0.537904D-03  0.332266D-02  0.000000D+00  0.000000D+00 -0.906502D-03
     42   0.399451D-02  0.241092D-01  0.000000D+00  0.000000D+00 -0.373653D-02
     43   0.000000D+00  0.000000D+00  0.151710D-02  0.000000D+00  0.000000D+00
     44   0.000000D+00  0.000000D+00  0.000000D+00  0.151710D-02  0.000000D+00
     45   0.000000D+00  0.000000D+00  0.000000D+00  0.000000D+00  0.000000D+00
     46   0.000000D+00  0.000000D+00  0.000000D+00  0.000000D+00  0.000000D+00
                 6             7             8             9            10 
      1   0.319944D-01  0.000000D+00  0.000000D+00  0.000000D+00  0.000000D+00
      2   0.362204D+00  0.000000D+00  0.000000D+00  0.000000D+00  0.000000D+00
      3   0.000000D+00  0.375020D+00  0.000000D+00  0.000000D+00  0.000000D+00
      4   0.000000D+00  0.000000D+00  0.375020D+00  0.000000D+00  0.000000D+00
      5   0.000000D+00  0.000000D+00  0.000000D+00  0.375020D+00  0.000000D+00
      6   0.100000D+01  0.000000D+00  0.000000D+00  0.000000D+00  0.000000D+00
      7   0.000000D+00  0.100000D+01  0.000000D+00  0.000000D+00  0.000000D+00
      8   0.000000D+00  0.000000D+00  0.100000D+01  0.000000D+00  0.000000D+00
      9   0.000000D+00  0.000000D+00  0.000000D+00  0.100000D+01  0.000000D+00
     10   0.000000D+00  0.000000D+00  0.000000D+00  0.000000D+00  0.100000D+01
     11   0.000000D+00  0.000000D+00  0.000000D+00  0.000000D+00  0.000000D+00
     12   0.000000D+00  0.000000D+00  0.000000D+00  0.000000D+00  0.000000D+00
     13   0.000000D+00  0.000000D+00  0.000000D+00  0.000000D+00  0.000000D+00
     14   0.000000D+00  0.000000D+00  0.000000D+00  0.000000D+00  0.000000D+00
     15   0.201919D+00  0.000000D+00  0.000000D+00  0.000000D+00  0.000000D+00
     16   0.000000D+00  0.218356D+00  0.000000D+00  0.000000D+00  0.000000D+00
     17   0.000000D+00  0.000000D+00  0.218356D+00  0.000000D+00  0.000000D+00
     18   0.000000D+00  0.000000D+00  0.000000D+00  0.218356D+00  0.000000D+00
     19   0.000000D+00  0.000000D+00  0.000000D+00  0.000000D+00  0.404997D-01
     20   0.000000D+00  0.000000D+00  0.000000D+00  0.000000D+00  0.000000D+00
     21   0.000000D+00  0.000000D+00  0.000000D+00  0.000000D+00  0.000000D+00
     22   0.000000D+00  0.000000D+00  0.000000D+00  0.000000D+00  0.000000D+00
     23   0.000000D+00  0.000000D+00  0.000000D+00  0.000000D+00  0.000000D+00
     24   0.000000D+00  0.000000D+00  0.000000D+00  0.000000D+00  0.000000D+00
     25   0.000000D+00  0.000000D+00  0.000000D+00  0.000000D+00  0.000000D+00
     26   0.000000D+00  0.000000D+00  0.000000D+00  0.000000D+00  0.000000D+00
     27   0.000000D+00  0.000000D+00  0.000000D+00  0.000000D+00  0.000000D+00
     28   0.000000D+00  0.000000D+00  0.000000D+00  0.000000D+00  0.000000D+00
     29   0.000000D+00  0.000000D+00  0.000000D+00  0.000000D+00  0.000000D+00
     30   0.000000D+00  0.000000D+00  0.000000D+00  0.000000D+00  0.000000D+00
     31   0.000000D+00  0.000000D+00  0.000000D+00  0.000000D+00  0.000000D+00
     32   0.000000D+00  0.000000D+00  0.000000D+00  0.000000D+00  0.000000D+00
     33   0.000000D+00  0.000000D+00  0.000000D+00  0.000000D+00  0.000000D+00
     34   0.000000D+00  0.000000D+00  0.000000D+00  0.000000D+00  0.000000D+00
     35   0.000000D+00  0.000000D+00  0.000000D+00  0.000000D+00  0.000000D+00
     36   0.000000D+00  0.000000D+00  0.000000D+00  0.000000D+00  0.000000D+00
     37   0.000000D+00  0.000000D+00  0.000000D+00  0.000000D+00  0.000000D+00
     38   0.101875D-01  0.000000D+00  0.000000D+00 -0.798616D-02  0.346534D-02
     39   0.000000D+00  0.195601D-02  0.000000D+00  0.000000D+00  0.000000D+00
     40   0.000000D+00  0.000000D+00  0.195601D-02  0.000000D+00  0.000000D+00
     41   0.193188D-01  0.000000D+00  0.000000D+00 -0.138766D-01  0.561335D-02
     42   0.117881D+00  0.000000D+00  0.000000D+00 -0.484556D-01  0.100601D-01
     43   0.000000D+00  0.212350D-01  0.000000D+00  0.000000D+00  0.000000D+00
     44   0.000000D+00  0.000000D+00  0.212350D-01  0.000000D+00  0.000000D+00
     45   0.000000D+00  0.000000D+00  0.000000D+00  0.000000D+00  0.000000D+00
     46   0.000000D+00  0.000000D+00  0.000000D+00  0.000000D+00  0.000000D+00
                11            12            13            14            15 
      1   0.000000D+00  0.000000D+00  0.000000D+00  0.000000D+00 -0.396207D-03
      2   0.000000D+00  0.000000D+00  0.000000D+00  0.000000D+00  0.612395D-02
      3   0.000000D+00  0.000000D+00  0.000000D+00  0.000000D+00  0.000000D+00
      4   0.000000D+00  0.000000D+00  0.000000D+00  0.000000D+00  0.000000D+00
      5   0.000000D+00  0.000000D+00  0.000000D+00  0.000000D+00  0.000000D+00
      6   0.000000D+00  0.000000D+00  0.000000D+00  0.000000D+00  0.201919D+00
      7   0.000000D+00  0.000000D+00  0.000000D+00  0.000000D+00  0.000000D+00
      8   0.000000D+00  0.000000D+00  0.000000D+00  0.000000D+00  0.000000D+00
      9   0.000000D+00  0.000000D+00  0.000000D+00  0.000000D+00  0.000000D+00
     10   0.000000D+00  0.000000D+00  0.000000D+00  0.000000D+00  0.000000D+00
     11   0.100000D+01  0.000000D+00  0.000000D+00  0.000000D+00  0.000000D+00
     12   0.000000D+00  0.100000D+01  0.000000D+00  0.000000D+00  0.000000D+00
     13   0.000000D+00  0.000000D+00  0.100000D+01  0.000000D+00  0.000000D+00
     14   0.000000D+00  0.000000D+00  0.000000D+00  0.100000D+01  0.000000D+00
     15   0.000000D+00  0.000000D+00  0.000000D+00  0.000000D+00  0.100000D+01
     16   0.000000D+00  0.000000D+00  0.000000D+00  0.000000D+00  0.000000D+00
     17   0.000000D+00  0.000000D+00  0.000000D+00  0.000000D+00  0.000000D+00
     18   0.000000D+00  0.000000D+00  0.000000D+00  0.000000D+00  0.000000D+00
     19   0.000000D+00  0.000000D+00  0.000000D+00  0.000000D+00  0.000000D+00
     20   0.404997D-01  0.000000D+00  0.000000D+00  0.000000D+00  0.000000D+00
     21   0.000000D+00  0.404997D-01  0.000000D+00  0.000000D+00  0.000000D+00
     22   0.000000D+00  0.000000D+00  0.404997D-01  0.000000D+00  0.000000D+00
     23   0.000000D+00  0.000000D+00  0.000000D+00  0.404997D-01  0.000000D+00
     24   0.000000D+00  0.000000D+00  0.000000D+00  0.000000D+00  0.265712D-03
     25   0.000000D+00  0.000000D+00  0.000000D+00  0.000000D+00  0.165531D-02
     26   0.000000D+00  0.000000D+00  0.000000D+00  0.000000D+00  0.000000D+00
     27   0.000000D+00  0.000000D+00  0.000000D+00  0.000000D+00  0.000000D+00
     28   0.000000D+00  0.000000D+00  0.000000D+00  0.000000D+00  0.501541D-03
     29   0.000000D+00  0.000000D+00  0.000000D+00  0.000000D+00  0.101875D-01
     30   0.000000D+00  0.000000D+00  0.000000D+00  0.000000D+00  0.000000D+00
     31   0.000000D+00  0.000000D+00  0.000000D+00  0.000000D+00  0.000000D+00
     32   0.000000D+00  0.000000D+00  0.000000D+00  0.000000D+00  0.798616D-02
     33   0.000000D+00  0.000000D+00  0.000000D+00  0.000000D+00  0.346534D-02
     34   0.000000D+00  0.000000D+00  0.000000D+00  0.000000D+00  0.000000D+00
     35   0.000000D+00  0.000000D+00  0.000000D+00  0.000000D+00  0.000000D+00
     36   0.000000D+00  0.000000D+00  0.000000D+00  0.000000D+00  0.000000D+00
     37   0.000000D+00  0.000000D+00  0.000000D+00  0.000000D+00  0.000000D+00
     38   0.000000D+00  0.000000D+00  0.000000D+00  0.000000D+00  0.145921D+00
     39  -0.152064D-02  0.000000D+00  0.000000D+00  0.000000D+00  0.000000D+00
     40   0.000000D+00 -0.152064D-02  0.000000D+00  0.000000D+00  0.000000D+00
     41   0.000000D+00  0.000000D+00  0.000000D+00  0.000000D+00  0.201178D+00
     42   0.000000D+00  0.000000D+00  0.000000D+00  0.000000D+00  0.389720D+00
     43  -0.101670D-01  0.000000D+00  0.000000D+00  0.000000D+00  0.000000D+00
     44   0.000000D+00 -0.101670D-01  0.000000D+00  0.000000D+00  0.000000D+00
     45   0.000000D+00  0.000000D+00  0.204758D-02  0.000000D+00  0.000000D+00
     46   0.000000D+00  0.000000D+00  0.000000D+00  0.204758D-02  0.000000D+00
                16            17            18            19            20 
      1   0.000000D+00  0.000000D+00  0.000000D+00  0.000000D+00  0.000000D+00
      2   0.000000D+00  0.000000D+00  0.000000D+00  0.000000D+00  0.000000D+00
      3   0.149285D-01  0.000000D+00  0.000000D+00  0.000000D+00  0.000000D+00
      4   0.000000D+00  0.149285D-01  0.000000D+00  0.000000D+00  0.000000D+00
      5   0.000000D+00  0.000000D+00  0.149285D-01  0.000000D+00  0.000000D+00
      6   0.000000D+00  0.000000D+00  0.000000D+00  0.000000D+00  0.000000D+00
      7   0.218356D+00  0.000000D+00  0.000000D+00  0.000000D+00  0.000000D+00
      8   0.000000D+00  0.218356D+00  0.000000D+00  0.000000D+00  0.000000D+00
      9   0.000000D+00  0.000000D+00  0.218356D+00  0.000000D+00  0.000000D+00
     10   0.000000D+00  0.000000D+00  0.000000D+00  0.404997D-01  0.000000D+00
     11   0.000000D+00  0.000000D+00  0.000000D+00  0.000000D+00  0.404997D-01
     12   0.000000D+00  0.000000D+00  0.000000D+00  0.000000D+00  0.000000D+00
     13   0.000000D+00  0.000000D+00  0.000000D+00  0.000000D+00  0.000000D+00
     14   0.000000D+00  0.000000D+00  0.000000D+00  0.000000D+00  0.000000D+00
     15   0.000000D+00  0.000000D+00  0.000000D+00  0.000000D+00  0.000000D+00
     16   0.100000D+01  0.000000D+00  0.000000D+00  0.000000D+00  0.000000D+00
     17   0.000000D+00  0.100000D+01  0.000000D+00  0.000000D+00  0.000000D+00
     18   0.000000D+00  0.000000D+00  0.100000D+01  0.000000D+00  0.000000D+00
     19   0.000000D+00  0.000000D+00  0.000000D+00  0.100000D+01  0.000000D+00
     20   0.000000D+00  0.000000D+00  0.000000D+00  0.000000D+00  0.100000D+01
     21   0.000000D+00  0.000000D+00  0.000000D+00  0.000000D+00  0.000000D+00
     22   0.000000D+00  0.000000D+00  0.000000D+00  0.000000D+00  0.000000D+00
     23   0.000000D+00  0.000000D+00  0.000000D+00  0.000000D+00  0.000000D+00
     24   0.000000D+00  0.000000D+00 -0.537904D-03  0.399451D-02  0.000000D+00
     25   0.000000D+00  0.000000D+00 -0.332266D-02  0.241092D-01  0.000000D+00
     26   0.120449D-03  0.000000D+00  0.000000D+00  0.000000D+00 -0.151710D-02
     27   0.000000D+00  0.120449D-03  0.000000D+00  0.000000D+00  0.000000D+00
     28   0.000000D+00  0.000000D+00 -0.906502D-03  0.373653D-02  0.000000D+00
     29   0.000000D+00  0.000000D+00 -0.193188D-01  0.117881D+00  0.000000D+00
     30   0.195601D-02  0.000000D+00  0.000000D+00  0.000000D+00 -0.212350D-01
     31   0.000000D+00  0.195601D-02  0.000000D+00  0.000000D+00  0.000000D+00
     32   0.000000D+00  0.000000D+00 -0.138766D-01  0.484556D-01  0.000000D+00
     33   0.000000D+00  0.000000D+00 -0.561335D-02  0.100601D-01  0.000000D+00
     34   0.152064D-02  0.000000D+00  0.000000D+00  0.000000D+00 -0.101670D-01
     35   0.000000D+00  0.152064D-02  0.000000D+00  0.000000D+00  0.000000D+00
     36   0.000000D+00  0.000000D+00  0.000000D+00  0.000000D+00  0.000000D+00
     37   0.000000D+00  0.000000D+00  0.000000D+00  0.000000D+00  0.000000D+00
     38   0.000000D+00  0.000000D+00 -0.201178D+00  0.389720D+00  0.000000D+00
     39   0.650526D-01  0.000000D+00  0.000000D+00  0.000000D+00 -0.270163D+00
     40   0.000000D+00  0.650526D-01  0.000000D+00  0.000000D+00  0.000000D+00
     41   0.000000D+00  0.000000D+00 -0.264038D+00  0.308374D+00  0.000000D+00
     42   0.000000D+00  0.000000D+00 -0.308374D+00  0.235451D-01  0.000000D+00
     43   0.270163D+00  0.000000D+00  0.000000D+00  0.000000D+00 -0.444927D+00
     44   0.000000D+00  0.270163D+00  0.000000D+00  0.000000D+00  0.000000D+00
     45   0.000000D+00  0.000000D+00  0.000000D+00  0.000000D+00  0.000000D+00
     46   0.000000D+00  0.000000D+00  0.000000D+00  0.000000D+00  0.000000D+00
                21            22            23            24            25 
      1   0.000000D+00  0.000000D+00  0.000000D+00  0.000000D+00  0.000000D+00
      2   0.000000D+00  0.000000D+00  0.000000D+00  0.000000D+00  0.000000D+00
      3   0.000000D+00  0.000000D+00  0.000000D+00  0.000000D+00  0.000000D+00
      4   0.000000D+00  0.000000D+00  0.000000D+00  0.000000D+00  0.000000D+00
      5   0.000000D+00  0.000000D+00  0.000000D+00  0.000000D+00  0.000000D+00
      6   0.000000D+00  0.000000D+00  0.000000D+00  0.000000D+00  0.000000D+00
      7   0.000000D+00  0.000000D+00  0.000000D+00  0.000000D+00  0.000000D+00
      8   0.000000D+00  0.000000D+00  0.000000D+00  0.000000D+00  0.000000D+00
      9   0.000000D+00  0.000000D+00  0.000000D+00  0.000000D+00  0.000000D+00
     10   0.000000D+00  0.000000D+00  0.000000D+00  0.000000D+00  0.000000D+00
     11   0.000000D+00  0.000000D+00  0.000000D+00  0.000000D+00  0.000000D+00
     12   0.404997D-01  0.000000D+00  0.000000D+00  0.000000D+00  0.000000D+00
     13   0.000000D+00  0.404997D-01  0.000000D+00  0.000000D+00  0.000000D+00
     14   0.000000D+00  0.000000D+00  0.404997D-01  0.000000D+00  0.000000D+00
     15   0.000000D+00  0.000000D+00  0.000000D+00  0.265712D-03  0.165531D-02
     16   0.000000D+00  0.000000D+00  0.000000D+00  0.000000D+00  0.000000D+00
     17   0.000000D+00  0.000000D+00  0.000000D+00  0.000000D+00  0.000000D+00
     18   0.000000D+00  0.000000D+00  0.000000D+00 -0.537904D-03 -0.332266D-02
     19   0.000000D+00  0.000000D+00  0.000000D+00  0.399451D-02  0.241092D-01
     20   0.000000D+00  0.000000D+00  0.000000D+00  0.000000D+00  0.000000D+00
     21   0.100000D+01  0.000000D+00  0.000000D+00  0.000000D+00  0.000000D+00
     22   0.000000D+00  0.100000D+01  0.000000D+00  0.000000D+00  0.000000D+00
     23   0.000000D+00  0.000000D+00  0.100000D+01  0.000000D+00  0.000000D+00
     24   0.000000D+00  0.000000D+00  0.000000D+00  0.100000D+01  0.406589D+00
     25   0.000000D+00  0.000000D+00  0.000000D+00  0.406589D+00  0.100000D+01
     26   0.000000D+00  0.000000D+00  0.000000D+00  0.000000D+00  0.000000D+00
     27  -0.151710D-02  0.000000D+00  0.000000D+00  0.000000D+00  0.000000D+00
     28   0.000000D+00  0.000000D+00  0.000000D+00  0.000000D+00  0.000000D+00
     29   0.000000D+00  0.000000D+00  0.000000D+00  0.319944D-01  0.362204D+00
     30   0.000000D+00  0.000000D+00  0.000000D+00  0.000000D+00  0.000000D+00
     31  -0.212350D-01  0.000000D+00  0.000000D+00  0.000000D+00  0.000000D+00
     32   0.000000D+00  0.000000D+00  0.000000D+00  0.000000D+00  0.000000D+00
     33   0.000000D+00  0.000000D+00  0.000000D+00  0.000000D+00  0.000000D+00
     34   0.000000D+00  0.000000D+00  0.000000D+00  0.000000D+00  0.000000D+00
     35  -0.101670D-01  0.000000D+00  0.000000D+00  0.000000D+00  0.000000D+00
     36   0.000000D+00  0.204758D-02  0.000000D+00  0.000000D+00  0.000000D+00
     37   0.000000D+00  0.000000D+00  0.204758D-02  0.000000D+00  0.000000D+00
     38   0.000000D+00  0.000000D+00  0.000000D+00 -0.396207D-03  0.612395D-02
     39   0.000000D+00  0.000000D+00  0.000000D+00  0.000000D+00  0.000000D+00
     40  -0.270163D+00  0.000000D+00  0.000000D+00  0.000000D+00  0.000000D+00
     41   0.000000D+00  0.000000D+00  0.000000D+00  0.000000D+00  0.000000D+00
     42   0.000000D+00  0.000000D+00  0.000000D+00  0.000000D+00  0.000000D+00
     43   0.000000D+00  0.000000D+00  0.000000D+00  0.000000D+00  0.000000D+00
     44  -0.444927D+00  0.000000D+00  0.000000D+00  0.000000D+00  0.000000D+00
     45   0.000000D+00  0.206103D+00  0.000000D+00  0.000000D+00  0.000000D+00
     46   0.000000D+00  0.000000D+00  0.206103D+00  0.000000D+00  0.000000D+00
                26            27            28            29            30 
      1   0.000000D+00  0.000000D+00  0.000000D+00  0.000000D+00  0.000000D+00
      2   0.000000D+00  0.000000D+00  0.000000D+00  0.000000D+00  0.000000D+00
      3   0.000000D+00  0.000000D+00  0.000000D+00  0.000000D+00  0.000000D+00
      4   0.000000D+00  0.000000D+00  0.000000D+00  0.000000D+00  0.000000D+00
      5   0.000000D+00  0.000000D+00  0.000000D+00  0.000000D+00  0.000000D+00
      6   0.000000D+00  0.000000D+00  0.000000D+00  0.000000D+00  0.000000D+00
      7   0.000000D+00  0.000000D+00  0.000000D+00  0.000000D+00  0.000000D+00
      8   0.000000D+00  0.000000D+00  0.000000D+00  0.000000D+00  0.000000D+00
      9   0.000000D+00  0.000000D+00  0.000000D+00  0.000000D+00  0.000000D+00
     10   0.000000D+00  0.000000D+00  0.000000D+00  0.000000D+00  0.000000D+00
     11   0.000000D+00  0.000000D+00  0.000000D+00  0.000000D+00  0.000000D+00
     12   0.000000D+00  0.000000D+00  0.000000D+00  0.000000D+00  0.000000D+00
     13   0.000000D+00  0.000000D+00  0.000000D+00  0.000000D+00  0.000000D+00
     14   0.000000D+00  0.000000D+00  0.000000D+00  0.000000D+00  0.000000D+00
     15   0.000000D+00  0.000000D+00  0.501541D-03  0.101875D-01  0.000000D+00
     16   0.120449D-03  0.000000D+00  0.000000D+00  0.000000D+00  0.195601D-02
     17   0.000000D+00  0.120449D-03  0.000000D+00  0.000000D+00  0.000000D+00
     18   0.000000D+00  0.000000D+00 -0.906502D-03 -0.193188D-01  0.000000D+00
     19   0.000000D+00  0.000000D+00  0.373653D-02  0.117881D+00  0.000000D+00
     20  -0.151710D-02  0.000000D+00  0.000000D+00  0.000000D+00 -0.212350D-01
     21   0.000000D+00 -0.151710D-02  0.000000D+00  0.000000D+00  0.000000D+00
     22   0.000000D+00  0.000000D+00  0.000000D+00  0.000000D+00  0.000000D+00
     23   0.000000D+00  0.000000D+00  0.000000D+00  0.000000D+00  0.000000D+00
     24   0.000000D+00  0.000000D+00  0.000000D+00  0.319944D-01  0.000000D+00
     25   0.000000D+00  0.000000D+00  0.000000D+00  0.362204D+00  0.000000D+00
     26   0.100000D+01  0.000000D+00  0.000000D+00  0.000000D+00  0.375020D+00
     27   0.000000D+00  0.100000D+01  0.000000D+00  0.000000D+00  0.000000D+00
     28   0.000000D+00  0.000000D+00  0.100000D+01  0.000000D+00  0.000000D+00
     29   0.000000D+00  0.000000D+00  0.000000D+00  0.100000D+01  0.000000D+00
     30   0.375020D+00  0.000000D+00  0.000000D+00  0.000000D+00  0.100000D+01
     31   0.000000D+00  0.375020D+00  0.000000D+00  0.000000D+00  0.000000D+00
     32   0.000000D+00  0.000000D+00  0.375020D+00  0.000000D+00  0.000000D+00
     33   0.000000D+00  0.000000D+00  0.000000D+00  0.000000D+00  0.000000D+00
     34   0.000000D+00  0.000000D+00  0.000000D+00  0.000000D+00  0.000000D+00
     35   0.000000D+00  0.000000D+00  0.000000D+00  0.000000D+00  0.000000D+00
     36   0.000000D+00  0.000000D+00  0.000000D+00  0.000000D+00  0.000000D+00
     37   0.000000D+00  0.000000D+00  0.000000D+00  0.000000D+00  0.000000D+00
     38   0.000000D+00  0.000000D+00  0.000000D+00  0.201919D+00  0.000000D+00
     39   0.149285D-01  0.000000D+00  0.000000D+00  0.000000D+00  0.218356D+00
     40   0.000000D+00  0.149285D-01  0.000000D+00  0.000000D+00  0.000000D+00
     41   0.000000D+00  0.000000D+00  0.149285D-01  0.000000D+00  0.000000D+00
     42   0.000000D+00  0.000000D+00  0.000000D+00  0.000000D+00  0.000000D+00
     43   0.000000D+00  0.000000D+00  0.000000D+00  0.000000D+00  0.000000D+00
     44   0.000000D+00  0.000000D+00  0.000000D+00  0.000000D+00  0.000000D+00
     45   0.000000D+00  0.000000D+00  0.000000D+00  0.000000D+00  0.000000D+00
     46   0.000000D+00  0.000000D+00  0.000000D+00  0.000000D+00  0.000000D+00
                31            32            33            34            35 
      1   0.000000D+00  0.000000D+00  0.000000D+00  0.000000D+00  0.000000D+00
      2   0.000000D+00  0.000000D+00  0.000000D+00  0.000000D+00  0.000000D+00
      3   0.000000D+00  0.000000D+00  0.000000D+00  0.000000D+00  0.000000D+00
      4   0.000000D+00  0.000000D+00  0.000000D+00  0.000000D+00  0.000000D+00
      5   0.000000D+00  0.000000D+00  0.000000D+00  0.000000D+00  0.000000D+00
      6   0.000000D+00  0.000000D+00  0.000000D+00  0.000000D+00  0.000000D+00
      7   0.000000D+00  0.000000D+00  0.000000D+00  0.000000D+00  0.000000D+00
      8   0.000000D+00  0.000000D+00  0.000000D+00  0.000000D+00  0.000000D+00
      9   0.000000D+00  0.000000D+00  0.000000D+00  0.000000D+00  0.000000D+00
     10   0.000000D+00  0.000000D+00  0.000000D+00  0.000000D+00  0.000000D+00
     11   0.000000D+00  0.000000D+00  0.000000D+00  0.000000D+00  0.000000D+00
     12   0.000000D+00  0.000000D+00  0.000000D+00  0.000000D+00  0.000000D+00
     13   0.000000D+00  0.000000D+00  0.000000D+00  0.000000D+00  0.000000D+00
     14   0.000000D+00  0.000000D+00  0.000000D+00  0.000000D+00  0.000000D+00
     15   0.000000D+00  0.798616D-02  0.346534D-02  0.000000D+00  0.000000D+00
     16   0.000000D+00  0.000000D+00  0.000000D+00  0.152064D-02  0.000000D+00
     17   0.195601D-02  0.000000D+00  0.000000D+00  0.000000D+00  0.152064D-02
     18   0.000000D+00 -0.138766D-01 -0.561335D-02  0.000000D+00  0.000000D+00
     19   0.000000D+00  0.484556D-01  0.100601D-01  0.000000D+00  0.000000D+00
     20   0.000000D+00  0.000000D+00  0.000000D+00 -0.101670D-01  0.000000D+00
     21  -0.212350D-01  0.000000D+00  0.000000D+00  0.000000D+00 -0.101670D-01
     22   0.000000D+00  0.000000D+00  0.000000D+00  0.000000D+00  0.000000D+00
     23   0.000000D+00  0.000000D+00  0.000000D+00  0.000000D+00  0.000000D+00
     24   0.000000D+00  0.000000D+00  0.000000D+00  0.000000D+00  0.000000D+00
     25   0.000000D+00  0.000000D+00  0.000000D+00  0.000000D+00  0.000000D+00
     26   0.000000D+00  0.000000D+00  0.000000D+00  0.000000D+00  0.000000D+00
     27   0.375020D+00  0.000000D+00  0.000000D+00  0.000000D+00  0.000000D+00
     28   0.000000D+00  0.375020D+00  0.000000D+00  0.000000D+00  0.000000D+00
     29   0.000000D+00  0.000000D+00  0.000000D+00  0.000000D+00  0.000000D+00
     30   0.000000D+00  0.000000D+00  0.000000D+00  0.000000D+00  0.000000D+00
     31   0.100000D+01  0.000000D+00  0.000000D+00  0.000000D+00  0.000000D+00
     32   0.000000D+00  0.100000D+01  0.000000D+00  0.000000D+00  0.000000D+00
     33   0.000000D+00  0.000000D+00  0.100000D+01  0.000000D+00  0.000000D+00
     34   0.000000D+00  0.000000D+00  0.000000D+00  0.100000D+01  0.000000D+00
     35   0.000000D+00  0.000000D+00  0.000000D+00  0.000000D+00  0.100000D+01
     36   0.000000D+00  0.000000D+00  0.000000D+00  0.000000D+00  0.000000D+00
     37   0.000000D+00  0.000000D+00  0.000000D+00  0.000000D+00  0.000000D+00
     38   0.000000D+00  0.000000D+00  0.000000D+00  0.000000D+00  0.000000D+00
     39   0.000000D+00  0.000000D+00  0.000000D+00  0.000000D+00  0.000000D+00
     40   0.218356D+00  0.000000D+00  0.000000D+00  0.000000D+00  0.000000D+00
     41   0.000000D+00  0.218356D+00  0.000000D+00  0.000000D+00  0.000000D+00
     42   0.000000D+00  0.000000D+00  0.404997D-01  0.000000D+00  0.000000D+00
     43   0.000000D+00  0.000000D+00  0.000000D+00  0.404997D-01  0.000000D+00
     44   0.000000D+00  0.000000D+00  0.000000D+00  0.000000D+00  0.404997D-01
     45   0.000000D+00  0.000000D+00  0.000000D+00  0.000000D+00  0.000000D+00
     46   0.000000D+00  0.000000D+00  0.000000D+00  0.000000D+00  0.000000D+00
                36            37            38            39            40 
      1   0.000000D+00  0.000000D+00  0.265712D-03  0.000000D+00  0.000000D+00
      2   0.000000D+00  0.000000D+00  0.165531D-02  0.000000D+00  0.000000D+00
      3   0.000000D+00  0.000000D+00  0.000000D+00  0.120449D-03  0.000000D+00
      4   0.000000D+00  0.000000D+00  0.000000D+00  0.000000D+00  0.120449D-03
      5   0.000000D+00  0.000000D+00 -0.501541D-03  0.000000D+00  0.000000D+00
      6   0.000000D+00  0.000000D+00  0.101875D-01  0.000000D+00  0.000000D+00
      7   0.000000D+00  0.000000D+00  0.000000D+00  0.195601D-02  0.000000D+00
      8   0.000000D+00  0.000000D+00  0.000000D+00  0.000000D+00  0.195601D-02
      9   0.000000D+00  0.000000D+00 -0.798616D-02  0.000000D+00  0.000000D+00
     10   0.000000D+00  0.000000D+00  0.346534D-02  0.000000D+00  0.000000D+00
     11   0.000000D+00  0.000000D+00  0.000000D+00 -0.152064D-02  0.000000D+00
     12   0.000000D+00  0.000000D+00  0.000000D+00  0.000000D+00 -0.152064D-02
     13   0.000000D+00  0.000000D+00  0.000000D+00  0.000000D+00  0.000000D+00
     14   0.000000D+00  0.000000D+00  0.000000D+00  0.000000D+00  0.000000D+00
     15   0.000000D+00  0.000000D+00  0.145921D+00  0.000000D+00  0.000000D+00
     16   0.000000D+00  0.000000D+00  0.000000D+00  0.650526D-01  0.000000D+00
     17   0.000000D+00  0.000000D+00  0.000000D+00  0.000000D+00  0.650526D-01
     18   0.000000D+00  0.000000D+00 -0.201178D+00  0.000000D+00  0.000000D+00
     19   0.000000D+00  0.000000D+00  0.389720D+00  0.000000D+00  0.000000D+00
     20   0.000000D+00  0.000000D+00  0.000000D+00 -0.270163D+00  0.000000D+00
     21   0.000000D+00  0.000000D+00  0.000000D+00  0.000000D+00 -0.270163D+00
     22   0.204758D-02  0.000000D+00  0.000000D+00  0.000000D+00  0.000000D+00
     23   0.000000D+00  0.204758D-02  0.000000D+00  0.000000D+00  0.000000D+00
     24   0.000000D+00  0.000000D+00 -0.396207D-03  0.000000D+00  0.000000D+00
     25   0.000000D+00  0.000000D+00  0.612395D-02  0.000000D+00  0.000000D+00
     26   0.000000D+00  0.000000D+00  0.000000D+00  0.149285D-01  0.000000D+00
     27   0.000000D+00  0.000000D+00  0.000000D+00  0.000000D+00  0.149285D-01
     28   0.000000D+00  0.000000D+00  0.000000D+00  0.000000D+00  0.000000D+00
     29   0.000000D+00  0.000000D+00  0.201919D+00  0.000000D+00  0.000000D+00
     30   0.000000D+00  0.000000D+00  0.000000D+00  0.218356D+00  0.000000D+00
     31   0.000000D+00  0.000000D+00  0.000000D+00  0.000000D+00  0.218356D+00
     32   0.000000D+00  0.000000D+00  0.000000D+00  0.000000D+00  0.000000D+00
     33   0.000000D+00  0.000000D+00  0.000000D+00  0.000000D+00  0.000000D+00
     34   0.000000D+00  0.000000D+00  0.000000D+00  0.000000D+00  0.000000D+00
     35   0.000000D+00  0.000000D+00  0.000000D+00  0.000000D+00  0.000000D+00
     36   0.100000D+01  0.000000D+00  0.000000D+00  0.000000D+00  0.000000D+00
     37   0.000000D+00  0.100000D+01  0.000000D+00  0.000000D+00  0.000000D+00
     38   0.000000D+00  0.000000D+00  0.100000D+01  0.000000D+00  0.000000D+00
     39   0.000000D+00  0.000000D+00  0.000000D+00  0.100000D+01  0.000000D+00
     40   0.000000D+00  0.000000D+00  0.000000D+00  0.000000D+00  0.100000D+01
     41   0.000000D+00  0.000000D+00  0.000000D+00  0.000000D+00  0.000000D+00
     42   0.000000D+00  0.000000D+00  0.000000D+00  0.000000D+00  0.000000D+00
     43   0.000000D+00  0.000000D+00  0.000000D+00  0.000000D+00  0.000000D+00
     44   0.000000D+00  0.000000D+00  0.000000D+00  0.000000D+00  0.000000D+00
     45   0.404997D-01  0.000000D+00  0.000000D+00  0.000000D+00  0.000000D+00
     46   0.000000D+00  0.404997D-01  0.000000D+00  0.000000D+00  0.000000D+00
                41            42            43            44            45 
      1   0.537904D-03  0.399451D-02  0.000000D+00  0.000000D+00  0.000000D+00
      2   0.332266D-02  0.241092D-01  0.000000D+00  0.000000D+00  0.000000D+00
      3   0.000000D+00  0.000000D+00  0.151710D-02  0.000000D+00  0.000000D+00
      4   0.000000D+00  0.000000D+00  0.000000D+00  0.151710D-02  0.000000D+00
      5  -0.906502D-03 -0.373653D-02  0.000000D+00  0.000000D+00  0.000000D+00
      6   0.193188D-01  0.117881D+00  0.000000D+00  0.000000D+00  0.000000D+00
      7   0.000000D+00  0.000000D+00  0.212350D-01  0.000000D+00  0.000000D+00
      8   0.000000D+00  0.000000D+00  0.000000D+00  0.212350D-01  0.000000D+00
      9  -0.138766D-01 -0.484556D-01  0.000000D+00  0.000000D+00  0.000000D+00
     10   0.561335D-02  0.100601D-01  0.000000D+00  0.000000D+00  0.000000D+00
     11   0.000000D+00  0.000000D+00 -0.101670D-01  0.000000D+00  0.000000D+00
     12   0.000000D+00  0.000000D+00  0.000000D+00 -0.101670D-01  0.000000D+00
     13   0.000000D+00  0.000000D+00  0.000000D+00  0.000000D+00  0.204758D-02
     14   0.000000D+00  0.000000D+00  0.000000D+00  0.000000D+00  0.000000D+00
     15   0.201178D+00  0.389720D+00  0.000000D+00  0.000000D+00  0.000000D+00
     16   0.000000D+00  0.000000D+00  0.270163D+00  0.000000D+00  0.000000D+00
     17   0.000000D+00  0.000000D+00  0.000000D+00  0.270163D+00  0.000000D+00
     18  -0.264038D+00 -0.308374D+00  0.000000D+00  0.000000D+00  0.000000D+00
     19   0.308374D+00  0.235451D-01  0.000000D+00  0.000000D+00  0.000000D+00
     20   0.000000D+00  0.000000D+00 -0.444927D+00  0.000000D+00  0.000000D+00
     21   0.000000D+00  0.000000D+00  0.000000D+00 -0.444927D+00  0.000000D+00
     22   0.000000D+00  0.000000D+00  0.000000D+00  0.000000D+00  0.206103D+00
     23   0.000000D+00  0.000000D+00  0.000000D+00  0.000000D+00  0.000000D+00
     24   0.000000D+00  0.000000D+00  0.000000D+00  0.000000D+00  0.000000D+00
     25   0.000000D+00  0.000000D+00  0.000000D+00  0.000000D+00  0.000000D+00
     26   0.000000D+00  0.000000D+00  0.000000D+00  0.000000D+00  0.000000D+00
     27   0.000000D+00  0.000000D+00  0.000000D+00  0.000000D+00  0.000000D+00
     28   0.149285D-01  0.000000D+00  0.000000D+00  0.000000D+00  0.000000D+00
     29   0.000000D+00  0.000000D+00  0.000000D+00  0.000000D+00  0.000000D+00
     30   0.000000D+00  0.000000D+00  0.000000D+00  0.000000D+00  0.000000D+00
     31   0.000000D+00  0.000000D+00  0.000000D+00  0.000000D+00  0.000000D+00
     32   0.218356D+00  0.000000D+00  0.000000D+00  0.000000D+00  0.000000D+00
     33   0.000000D+00  0.404997D-01  0.000000D+00  0.000000D+00  0.000000D+00
     34   0.000000D+00  0.000000D+00  0.404997D-01  0.000000D+00  0.000000D+00
     35   0.000000D+00  0.000000D+00  0.000000D+00  0.404997D-01  0.000000D+00
     36   0.000000D+00  0.000000D+00  0.000000D+00  0.000000D+00  0.404997D-01
     37   0.000000D+00  0.000000D+00  0.000000D+00  0.000000D+00  0.000000D+00
     38   0.000000D+00  0.000000D+00  0.000000D+00  0.000000D+00  0.000000D+00
     39   0.000000D+00  0.000000D+00  0.000000D+00  0.000000D+00  0.000000D+00
     40   0.000000D+00  0.000000D+00  0.000000D+00  0.000000D+00  0.000000D+00
     41   0.100000D+01  0.000000D+00  0.000000D+00  0.000000D+00  0.000000D+00
     42   0.000000D+00  0.100000D+01  0.000000D+00  0.000000D+00  0.000000D+00
     43   0.000000D+00  0.000000D+00  0.100000D+01  0.000000D+00  0.000000D+00
     44   0.000000D+00  0.000000D+00  0.000000D+00  0.100000D+01  0.000000D+00
     45   0.000000D+00  0.000000D+00  0.000000D+00  0.000000D+00  0.100000D+01
     46   0.000000D+00  0.000000D+00  0.000000D+00  0.000000D+00  0.000000D+00
                46 
      1   0.000000D+00
      2   0.000000D+00
      3   0.000000D+00
      4   0.000000D+00
      5   0.000000D+00
      6   0.000000D+00
      7   0.000000D+00
      8   0.000000D+00
      9   0.000000D+00
     10   0.000000D+00
     11   0.000000D+00
     12   0.000000D+00
     13   0.000000D+00
     14   0.204758D-02
     15   0.000000D+00
     16   0.000000D+00
     17   0.000000D+00
     18   0.000000D+00
     19   0.000000D+00
     20   0.000000D+00
     21   0.000000D+00
     22   0.000000D+00
     23   0.206103D+00
     24   0.000000D+00
     25   0.000000D+00
     26   0.000000D+00
     27   0.000000D+00
     28   0.000000D+00
     29   0.000000D+00
     30   0.000000D+00
     31   0.000000D+00
     32   0.000000D+00
     33   0.000000D+00
     34   0.000000D+00
     35   0.000000D+00
     36   0.000000D+00
     37   0.404997D-01
     38   0.000000D+00
     39   0.000000D+00
     40   0.000000D+00
     41   0.000000D+00
     42   0.000000D+00
     43   0.000000D+00
     44   0.000000D+00
     45   0.000000D+00
     46   0.100000D+01
 Entering OneElI...
 Overlap between basis sets.
 Requested accuracy = 0.1000D-12
 PrsmSu:  NPrtUS=   1 ThrOK=F IAlg=1
 PRISM was handed  1608905665 working-precision words and  1056 shell-pairs
 IPart=  0 NShTot=        1056 NBatch=          94 AvBLen=        11.2
 CnvPC2: ToCart=F DoDens=F IPureD=0 IPureF=0.
 Transformed matrix in CnvPC2: 
                 1             2             3             4             5 
      1   0.999797D+00  0.414271D+00  0.000000D+00  0.000000D+00  0.000000D+00
      2   0.291845D+00  0.988280D+00  0.000000D+00  0.000000D+00  0.000000D+00
      3   0.000000D+00  0.000000D+00  0.999269D+00  0.000000D+00  0.000000D+00
      4   0.000000D+00  0.000000D+00  0.000000D+00  0.999269D+00  0.000000D+00
      5   0.000000D+00  0.000000D+00  0.000000D+00  0.000000D+00  0.999269D+00
      6   0.140811D-01  0.332015D+00  0.000000D+00  0.000000D+00  0.000000D+00
      7   0.000000D+00  0.000000D+00  0.360400D+00  0.000000D+00  0.000000D+00
      8   0.000000D+00  0.000000D+00  0.000000D+00  0.360400D+00  0.000000D+00
      9   0.000000D+00  0.000000D+00  0.000000D+00  0.000000D+00  0.360400D+00
     10   0.000000D+00  0.000000D+00  0.000000D+00  0.000000D+00  0.000000D+00
     11   0.000000D+00  0.000000D+00  0.000000D+00  0.000000D+00  0.000000D+00
     12   0.000000D+00  0.000000D+00  0.000000D+00  0.000000D+00  0.000000D+00
     13   0.000000D+00  0.000000D+00  0.000000D+00  0.000000D+00  0.000000D+00
     14   0.000000D+00  0.000000D+00  0.000000D+00  0.000000D+00  0.000000D+00
     15   0.122173D-03  0.129367D-01  0.000000D+00  0.000000D+00  0.000000D+00
     16   0.997933D-02  0.598910D-01  0.000000D+00  0.000000D+00  0.000000D+00
     17   0.494118D-02  0.298084D-01  0.000000D+00  0.000000D+00  0.000000D+00
     18   0.000000D+00  0.000000D+00  0.111528D-01  0.000000D+00  0.000000D+00
     19   0.000000D+00  0.000000D+00  0.000000D+00  0.111528D-01  0.000000D+00
     20   0.000000D+00  0.000000D+00  0.000000D+00  0.000000D+00  0.111528D-01
     21   0.000000D+00  0.000000D+00  0.276871D-02  0.000000D+00  0.000000D+00
     22   0.000000D+00  0.000000D+00  0.000000D+00  0.276871D-02  0.000000D+00
     23   0.000000D+00  0.000000D+00  0.000000D+00  0.000000D+00  0.276871D-02
     24   0.000000D+00  0.000000D+00  0.936672D-03  0.000000D+00  0.000000D+00
     25   0.000000D+00  0.000000D+00  0.000000D+00  0.936672D-03  0.000000D+00
     26   0.000000D+00  0.000000D+00  0.000000D+00  0.000000D+00  0.936672D-03
     27   0.138765D+00  0.646375D+00  0.000000D+00  0.000000D+00  0.000000D+00
     28   0.941716D-01  0.485019D+00  0.000000D+00  0.000000D+00  0.000000D+00
     29   0.635203D-01  0.348743D+00  0.000000D+00  0.000000D+00  0.000000D+00
     30   0.426901D-01  0.243791D+00  0.000000D+00  0.000000D+00  0.000000D+00
     31   0.286291D-01  0.167423D+00  0.000000D+00  0.000000D+00  0.000000D+00
     32   0.191751D-01  0.113735D+00  0.000000D+00  0.000000D+00  0.000000D+00
     33   0.000000D+00  0.000000D+00  0.305516D+00  0.000000D+00  0.000000D+00
     34   0.000000D+00  0.000000D+00  0.000000D+00  0.305516D+00  0.000000D+00
     35   0.000000D+00  0.000000D+00  0.000000D+00  0.000000D+00  0.305516D+00
     36   0.000000D+00  0.000000D+00  0.179683D+00  0.000000D+00  0.000000D+00
     37   0.000000D+00  0.000000D+00  0.000000D+00  0.179683D+00  0.000000D+00
     38   0.000000D+00  0.000000D+00  0.000000D+00  0.000000D+00  0.179683D+00
     39   0.000000D+00  0.000000D+00  0.999632D-01  0.000000D+00  0.000000D+00
     40   0.000000D+00  0.000000D+00  0.000000D+00  0.999632D-01  0.000000D+00
     41   0.000000D+00  0.000000D+00  0.000000D+00  0.000000D+00  0.999632D-01
     42   0.000000D+00  0.000000D+00  0.536214D-01  0.000000D+00  0.000000D+00
     43   0.000000D+00  0.000000D+00  0.000000D+00  0.536214D-01  0.000000D+00
     44   0.000000D+00  0.000000D+00  0.000000D+00  0.000000D+00  0.536214D-01
     45   0.000000D+00  0.000000D+00  0.281147D-01  0.000000D+00  0.000000D+00
     46   0.000000D+00  0.000000D+00  0.000000D+00  0.281147D-01  0.000000D+00
     47   0.000000D+00  0.000000D+00  0.000000D+00  0.000000D+00  0.281147D-01
     48   0.000000D+00  0.000000D+00  0.145385D-01  0.000000D+00  0.000000D+00
     49   0.000000D+00  0.000000D+00  0.000000D+00  0.145385D-01  0.000000D+00
     50   0.000000D+00  0.000000D+00  0.000000D+00  0.000000D+00  0.145385D-01
     51   0.000000D+00  0.000000D+00  0.000000D+00  0.000000D+00  0.000000D+00
     52   0.000000D+00  0.000000D+00  0.000000D+00  0.000000D+00  0.000000D+00
     53   0.000000D+00  0.000000D+00  0.000000D+00  0.000000D+00  0.000000D+00
     54   0.000000D+00  0.000000D+00  0.000000D+00  0.000000D+00  0.000000D+00
     55   0.000000D+00  0.000000D+00  0.000000D+00  0.000000D+00  0.000000D+00
     56   0.000000D+00  0.000000D+00  0.000000D+00  0.000000D+00  0.000000D+00
     57   0.000000D+00  0.000000D+00  0.000000D+00  0.000000D+00  0.000000D+00
     58   0.000000D+00  0.000000D+00  0.000000D+00  0.000000D+00  0.000000D+00
     59   0.000000D+00  0.000000D+00  0.000000D+00  0.000000D+00  0.000000D+00
     60   0.000000D+00  0.000000D+00  0.000000D+00  0.000000D+00  0.000000D+00
     61   0.000000D+00  0.000000D+00  0.000000D+00  0.000000D+00  0.000000D+00
     62   0.000000D+00  0.000000D+00  0.000000D+00  0.000000D+00  0.000000D+00
     63   0.000000D+00  0.000000D+00  0.000000D+00  0.000000D+00  0.000000D+00
     64   0.000000D+00  0.000000D+00  0.000000D+00  0.000000D+00  0.000000D+00
     65   0.000000D+00  0.000000D+00  0.000000D+00  0.000000D+00  0.000000D+00
     66   0.000000D+00  0.000000D+00  0.000000D+00  0.000000D+00  0.000000D+00
     67   0.000000D+00  0.000000D+00  0.000000D+00  0.000000D+00  0.000000D+00
     68   0.000000D+00  0.000000D+00  0.000000D+00  0.000000D+00  0.000000D+00
     69   0.000000D+00  0.000000D+00  0.000000D+00  0.000000D+00  0.000000D+00
     70   0.000000D+00  0.000000D+00  0.000000D+00  0.000000D+00  0.000000D+00
     71   0.000000D+00  0.000000D+00  0.000000D+00  0.000000D+00  0.000000D+00
     72   0.000000D+00  0.000000D+00  0.000000D+00  0.000000D+00  0.000000D+00
     73   0.000000D+00  0.000000D+00  0.000000D+00  0.000000D+00  0.000000D+00
     74   0.000000D+00  0.000000D+00  0.000000D+00  0.000000D+00  0.000000D+00
     75   0.000000D+00  0.000000D+00  0.000000D+00  0.000000D+00  0.000000D+00
     76   0.000000D+00  0.000000D+00  0.000000D+00  0.000000D+00  0.000000D+00
     77   0.000000D+00  0.000000D+00  0.000000D+00  0.000000D+00  0.000000D+00
     78   0.000000D+00  0.000000D+00  0.000000D+00  0.000000D+00  0.000000D+00
     79   0.000000D+00  0.000000D+00  0.000000D+00  0.000000D+00  0.000000D+00
     80   0.000000D+00  0.000000D+00  0.000000D+00  0.000000D+00  0.000000D+00
     81   0.000000D+00  0.000000D+00  0.000000D+00  0.000000D+00  0.000000D+00
     82   0.000000D+00  0.000000D+00  0.000000D+00  0.000000D+00  0.000000D+00
     83   0.000000D+00  0.000000D+00  0.000000D+00  0.000000D+00  0.000000D+00
     84   0.000000D+00  0.000000D+00  0.000000D+00  0.000000D+00  0.000000D+00
     85   0.000000D+00  0.000000D+00  0.000000D+00  0.000000D+00  0.000000D+00
     86   0.000000D+00  0.000000D+00  0.000000D+00  0.000000D+00  0.000000D+00
     87   0.000000D+00  0.000000D+00  0.000000D+00  0.000000D+00  0.000000D+00
     88   0.000000D+00  0.000000D+00  0.000000D+00  0.000000D+00  0.000000D+00
     89   0.000000D+00  0.000000D+00  0.000000D+00  0.000000D+00  0.000000D+00
     90   0.000000D+00  0.000000D+00  0.000000D+00  0.000000D+00  0.000000D+00
     91   0.000000D+00  0.000000D+00  0.000000D+00  0.000000D+00  0.000000D+00
     92   0.000000D+00  0.000000D+00  0.000000D+00  0.000000D+00  0.000000D+00
     93   0.000000D+00  0.000000D+00  0.000000D+00  0.000000D+00  0.000000D+00
     94   0.000000D+00  0.000000D+00  0.000000D+00  0.000000D+00  0.000000D+00
     95   0.000000D+00  0.000000D+00  0.000000D+00  0.000000D+00  0.000000D+00
     96   0.000000D+00  0.000000D+00  0.000000D+00  0.000000D+00  0.000000D+00
     97   0.000000D+00  0.000000D+00  0.000000D+00  0.000000D+00  0.000000D+00
     98   0.000000D+00  0.000000D+00  0.000000D+00  0.000000D+00  0.000000D+00
     99   0.000000D+00  0.000000D+00  0.000000D+00  0.000000D+00  0.000000D+00
    100   0.000000D+00  0.000000D+00  0.000000D+00  0.000000D+00  0.000000D+00
    101   0.000000D+00  0.000000D+00  0.000000D+00  0.000000D+00  0.000000D+00
    102   0.000000D+00  0.000000D+00  0.000000D+00  0.000000D+00  0.000000D+00
    103   0.000000D+00  0.000000D+00  0.000000D+00  0.000000D+00  0.000000D+00
    104   0.000000D+00  0.000000D+00  0.000000D+00  0.000000D+00  0.000000D+00
    105   0.000000D+00  0.000000D+00  0.000000D+00  0.000000D+00  0.000000D+00
    106   0.000000D+00  0.000000D+00  0.000000D+00  0.000000D+00  0.000000D+00
    107   0.000000D+00  0.000000D+00  0.000000D+00  0.000000D+00  0.000000D+00
    108   0.000000D+00  0.000000D+00  0.000000D+00  0.000000D+00  0.000000D+00
    109   0.000000D+00  0.000000D+00  0.000000D+00  0.000000D+00  0.000000D+00
    110   0.000000D+00  0.000000D+00  0.000000D+00  0.000000D+00  0.000000D+00
    111   0.000000D+00  0.000000D+00  0.000000D+00  0.000000D+00  0.000000D+00
    112   0.000000D+00  0.000000D+00  0.000000D+00  0.000000D+00  0.000000D+00
    113   0.000000D+00  0.000000D+00  0.000000D+00  0.000000D+00  0.000000D+00
    114   0.000000D+00  0.000000D+00  0.000000D+00  0.000000D+00  0.000000D+00
    115   0.000000D+00  0.000000D+00  0.000000D+00  0.000000D+00  0.000000D+00
    116   0.000000D+00  0.000000D+00  0.000000D+00  0.000000D+00  0.000000D+00
    117   0.000000D+00  0.000000D+00  0.000000D+00  0.000000D+00  0.000000D+00
    118   0.000000D+00  0.000000D+00  0.000000D+00  0.000000D+00  0.000000D+00
    119   0.000000D+00  0.000000D+00  0.000000D+00  0.000000D+00  0.000000D+00
[...]
         |
   35    | -0.000182 -0.004692 -0.000065 -0.009431 -0.000182 -0.009431
   35    | -0.000182 -0.004692 -0.000065 -0.009431 -0.000182 -0.009431
         |

 AB - AA |     35
 BA - BB |     35
--------------------
   29    | -0.000131
   29    | -0.000131
         |
   30    | -0.001633
   30    | -0.001633
         |
   31    | -0.000037
   31    | -0.000037
         |
   32    | -0.002060
   32    | -0.002060
         |
   33    | -0.000131
   33    | -0.000131
         |
   34    | -0.002060
   34    | -0.002060
         |
   35    | -0.012445
   35    |  0.000000
         |

                     Sum of ab pair energies =    -0.220488 A.U.
                     Sum of ba pair energies =    -0.090722 A.U.
                     Sum of aa pair energies =    -0.042832 A.U.
                     Sum of bb pair energies =    -0.042832 A.U.

           Sum of intraorbital pair energies =    -0.129766 A.U.
           Sum of interorbital pair energies =    -0.267107 A.U.
                                                  ----------
                         Total pair energies =    -0.396873 A.U.

                         Single Excitations  =     0.000000 A.U.

                          Total second order =    -0.396873 A.U.



            MP2(CBS) (With Interference Correction) 
            ---------------------------------------

 AB - AA |     29        30        31        32        33        34
 BA - BB |     29        30        31        32        33        34
----------------------------------------------------------------------
   29    | -0.019802 -0.004165 -0.002055 -0.000551 -0.005990 -0.000484
   29    |  0.000000 -0.004165 -0.002055 -0.000551 -0.005990 -0.000484
         |
   30    | -0.005568 -0.023638 -0.001627 -0.004165 -0.004165 -0.004165
   30    | -0.005568  0.000000 -0.001627 -0.004165 -0.004165 -0.004165
         |
   31    | -0.009264 -0.004635 -0.012207 -0.000131 -0.002055 -0.000131
   31    | -0.009264 -0.004635  0.000000 -0.000131 -0.002055 -0.000131
         |
   32    | -0.000707 -0.005568 -0.000181 -0.019802 -0.000484 -0.005990
   32    | -0.000707 -0.005568 -0.000181  0.000000 -0.000484 -0.005990
         |
   33    | -0.008804 -0.005568 -0.009264 -0.000553 -0.019802 -0.000551
   33    | -0.008804 -0.005568 -0.009264 -0.000553  0.000000 -0.000551
         |
   34    | -0.000553 -0.005568 -0.000181 -0.008804 -0.000707 -0.019802
   34    | -0.000553 -0.005568 -0.000181 -0.008804 -0.000707  0.000000
         |
   35    | -0.000181 -0.004635 -0.000065 -0.009263 -0.000181 -0.009263
   35    | -0.000181 -0.004635 -0.000065 -0.009263 -0.000181 -0.009263
         |

 AB - AA |     35
 BA - BB |     35
--------------------
   29    | -0.000131
   29    | -0.000131
         |
   30    | -0.001627
   30    | -0.001627
         |
   31    | -0.000037
   31    | -0.000037
         |
   32    | -0.002055
   32    | -0.002055
         |
   33    | -0.000131
   33    | -0.000131
         |
   34    | -0.002055
   34    | -0.002055
         |
   35    | -0.012207
   35    |  0.000000
         |

                     Sum of ab pair energies =    -0.216773 A.U.
                     Sum of ba pair energies =    -0.089513 A.U.
                     Sum of aa pair energies =    -0.042747 A.U.
                     Sum of bb pair energies =    -0.042747 A.U.

           Sum of intraorbital pair energies =    -0.127260 A.U.
           Sum of interorbital pair energies =    -0.264520 A.U.
                                                  ----------
                         Total pair energies =    -0.391780 A.U.

                         Single Excitations  =     0.000000 A.U.

                          Total second order =    -0.391780 A.U.

                         E2(CBS) - E2(Dir) =      -0.010496 A.U.

 E2(CBS)=      -0.396873 CBS-Int=       0.005093 OIii=       2.625626

 **********************************************************************

            Population analysis using the SCF density.

 **********************************************************************

 Orbital symmetries:
       Occupied  (SGG) (SGU) (SGG) (SGU) (SGG) (SGU) (PIG) (PIG)
                 (PIU) (PIU) (SGG) (SGU) (SGG) (SGU) (PIU) (PIU)
                 (PIG) (PIG) (SGG) (SGU) (PIU) (PIU) (PIG) (PIG)
                 (DLTG) (DLTG) (DLTU) (DLTU) (SGG) (SGU) (SGG)
                 (PIU) (PIU) (PIG) (PIG)
       Virtual   (SGU) (PIU) (PIU) (SGU) (SGG) (PIG) (PIG) (SGG)
                 (SGU) (SGG) (PIU) (PIU) (SGU) (PIG) (PIG) (DLTG)
                 (DLTG) (PIU) (PIU) (DLTU) (DLTU) (SGG) (SGG) (SGU)
                 (PIG) (PIG) (SGG) (SGU) (PIU) (PIU) (PIG) (PIG)
                 (PIU) (PIU) (DLTG) (DLTG) (PHIU) (PHIU) (SGU)
                 (DLTG) (DLTG) (DLTU) (DLTU) (SGG) (PHIG) (PHIG)
                 (PIG) (PIG) (PIU) (PIU) (DLTU) (DLTU) (SGU) (SGG)
                 (SGG) (PIG) (PIG) (SGU) (PHIU) (PHIU) (?A) (?A)
                 (SGG) (SGU) (PIU) (PIU) (DLTG) (DLTG) (?B) (?B)
                 (PIG) (PIG) (PIU) (PIU) (PHIG) (PHIG) (SGG) (SGU)
                 (DLTU) (DLTU) (DLTG) (DLTG) (PIG) (PIG) (DLTG)
                 (DLTG) (PHIU) (PHIU) (PIU) (PIU) (PHIG) (PHIG)
                 (SGU) (DLTU) (DLTU) (SGG) (PIG) (PIG) (DLTU) (DLTU)
                 (PIU) (PIU) (SGU) (?A) (?A) (SGG) (PHIU) (PHIU)
                 (PIG) (PIG) (?C) (?C) (?D) (?D) (SGG) (SGU) (DLTG)
                 (DLTG) (?B) (?B) (PIU) (PIU) (SGG) (PHIG) (PHIG)
                 (PHIU) (PHIU) (PIG) (PIG) (?A) (?A) (SGG) (PIU)
                 (PIU) (SGU) (?B) (?B) (DLTG) (DLTG) (PIG) (PIG)
                 (DLTU) (DLTU) (PHIG) (PHIG) (SGU) (PIU) (PIU)
                 (SGU) (SGG) (DLTU) (DLTU) (PIG) (PIG) (PHIU) (PHIU)
                 (DLTG) (DLTG) (SGU) (PHIG) (PHIG) (PIU) (PIU)
                 (DLTG) (DLTG) (DLTU) (DLTU) (DLTU) (DLTU) (PIU)
                 (PIU) (SGG) (PIG) (PIG) (?A) (?A) (PHIU) (PHIU)
                 (?C) (?C) (?E) (?E) (?F) (?F) (?D) (?D) (DLTG)
                 (DLTG) (SGG) (PIG) (PIG) (?B) (?B) (SGU) (PIU)
                 (PIU) (SGG) (SGU) (PHIG) (PHIG) (SGG) (?A) (?A)
                 (?C) (?C) (SGU) (PHIU) (PHIU) (?D) (?D) (?B) (?B)
                 (DLTU) (DLTU) (PIG) (PIG) (DLTG) (DLTG) (PHIG)
                 (PHIG) (SGG) (PHIU) (PHIU) (?A) (?A) (PIG) (PIG)
                 (?B) (?B) (DLTG) (DLTG) (SGU) (PHIG) (PHIG) (PIU)
                 (PIU) (DLTU) (DLTU) (SGG) (SGU) (PIU) (PIU) (DLTU)
                 (DLTU) (PIG) (PIG) (PIU) (PIU) (SGU) (SGG) (PIG)
                 (PIG) (SGU) (PHIU) (PHIU) (DLTG) (DLTG) (PHIG)
                 (PHIG) (PIU) (PIU) (DLTU) (DLTU) (DLTG) (DLTG)
                 (DLTU) (DLTU) (PIU) (PIU) (SGG) (PIG) (PIG) (PHIU)
                 (PHIU) (DLTG) (DLTG) (?A) (?A) (SGG) (?C) (?C)
                 (PIU) (PIU) (?E) (?E) (?F) (?F) (?G) (?G) (?H)
                 (?H) (?D) (?D) (SGU) (PIG) (PIG) (?B) (?B) (PHIG)
                 (PHIG) (SGG) (DLTU) (DLTU) (SGU) (PIG) (PIG) (?A)
                 (?A) (?C) (?C) (SGU) (PHIU) (PHIU) (SGG) (?E)
                 (?E) (?F) (?F) (?D) (?D) (DLTG) (DLTG) (?B) (?B)
                 (SGU) (PIU) (PIU) (?A) (?A) (SGG) (?C) (?C) (PHIU)
                 (PHIU) (PHIG) (PHIG) (?D) (?D) (?B) (?B) (PHIU)
                 (PHIU) (?A) (?A) (DLTU) (DLTU) (?B) (?B) (DLTG)
                 (DLTG) (PIG) (PIG) (PHIG) (PHIG) (DLTG) (DLTG)
                 (PHIG) (PHIG) (PIG) (PIG) (SGU) (PIU) (PIU) (SGG)
                 (DLTU) (DLTU) (SGU) (SGG) (PIU) (PIU) (DLTU) (DLTU)
                 (PIG) (PIG) (SGU) (PIU) (PIU) (PIG) (PIG) (SGG)
                 (SGU) (PHIU) (PHIU) (DLTG) (DLTG) (PHIG) (PHIG)
                 (DLTU) (DLTU) (PIU) (PIU) (PIG) (PIG) (SGU) (SGG)
                 (DLTG) (DLTG) (DLTU) (DLTU) (PIU) (PIU) (PIG)
                 (PIG) (SGG) (SGU) (SGG) (SGU) (PIU) (PIU) (PIG)
                 (PIG) (SGG) (SGU) (SGG) (SGU)
 The electronic state is 1-SGG.
 Alpha  occ. eigenvalues -- -490.07039-490.07039 -65.20964 -65.20964 -58.56539
 Alpha  occ. eigenvalues --  -58.56539 -58.56335 -58.56335 -58.56335 -58.56335
 Alpha  occ. eigenvalues --   -9.88186  -9.88180  -7.49443  -7.49426  -7.48541
 Alpha  occ. eigenvalues --   -7.48541  -7.48540  -7.48540  -3.24013  -3.23771
 Alpha  occ. eigenvalues --   -3.23480  -3.23480  -3.23401  -3.23401  -3.22222
 Alpha  occ. eigenvalues --   -3.22222  -3.22217  -3.22217  -1.10380  -0.94823
 Alpha  occ. eigenvalues --   -0.53514  -0.50659  -0.50659  -0.40607  -0.40607
 Alpha virt. eigenvalues --   -0.00219   0.05624   0.05624   0.05863   0.06298
 Alpha virt. eigenvalues --    0.07445   0.07445   0.08704   0.18524   0.21858
 Alpha virt. eigenvalues --    0.22532   0.22532   0.23726   0.24994   0.24994
 Alpha virt. eigenvalues --    0.26752   0.26752   0.29004   0.29004   0.36812
 Alpha virt. eigenvalues --    0.36812   0.40364   0.46327   0.49510   0.50393
 Alpha virt. eigenvalues --    0.50393   0.61474   0.61504   0.63419   0.63419
 Alpha virt. eigenvalues --    0.66851   0.66851   0.70084   0.70084   0.74595
 Alpha virt. eigenvalues --    0.74595   0.77596   0.77596   0.79723   0.80986
 Alpha virt. eigenvalues --    0.80986   0.84270   0.84270   0.84991   0.88689
 Alpha virt. eigenvalues --    0.88689   0.95244   0.95244   1.00227   1.00227
 Alpha virt. eigenvalues --    1.05010   1.05010   1.06829   1.18784   1.22215
 Alpha virt. eigenvalues --    1.24852   1.24852   1.33433   1.37134   1.37134
 Alpha virt. eigenvalues --    1.41032   1.41032   1.42990   1.46853   1.48178
 Alpha virt. eigenvalues --    1.48178   1.49570   1.49570   1.51235   1.51235
 Alpha virt. eigenvalues --    1.52582   1.52582   1.60180   1.60180   1.67470
 Alpha virt. eigenvalues --    1.67470   1.68759   1.82582   1.85227   1.85227
 Alpha virt. eigenvalues --    1.87373   1.87373   1.90234   1.90234   1.91327
 Alpha virt. eigenvalues --    1.91327   1.91654   1.91654   1.93233   1.93233
 Alpha virt. eigenvalues --    1.98361   1.98361   2.00486   2.01598   2.01598
 Alpha virt. eigenvalues --    2.06457   2.10136   2.10136   2.11883   2.11883
 Alpha virt. eigenvalues --    2.13079   2.13079   2.42152   2.42891   2.42891
 Alpha virt. eigenvalues --    2.46585   2.48106   2.48106   2.53450   2.53450
 Alpha virt. eigenvalues --    2.53702   2.53702   2.60032   2.60032   2.65596
 Alpha virt. eigenvalues --    2.68898   2.70184   2.70184   2.74246   2.74246
 Alpha virt. eigenvalues --    2.91807   2.91807   3.01622   3.04666   3.04666
 Alpha virt. eigenvalues --    3.15629   3.15629   3.17564   3.17564   3.18819
 Alpha virt. eigenvalues --    3.18819   3.20025   3.22235   3.22235   3.22965
 Alpha virt. eigenvalues --    3.24394   3.24394   3.28760   3.28760   3.34357
 Alpha virt. eigenvalues --    3.34357   3.34729   3.34729   3.36398   3.36398
 Alpha virt. eigenvalues --    3.42657   3.59074   3.59074   3.60838   3.61440
 Alpha virt. eigenvalues --    3.65423   3.65423   3.72650   3.72650   3.82615
 Alpha virt. eigenvalues --    3.82615   3.82838   3.82838   3.87409   3.88498
 Alpha virt. eigenvalues --    3.88498   3.93513   3.93513   3.99524   3.99524
 Alpha virt. eigenvalues --    4.00966   4.00966   4.09327   4.09327   4.11090
 Alpha virt. eigenvalues --    4.11090   4.12033   4.31131   4.31131   4.41581
 Alpha virt. eigenvalues --    4.41581   4.45268   4.45268   4.54983   4.54983
 Alpha virt. eigenvalues --    4.63350   4.63350   4.65028   4.65028   4.70769
 Alpha virt. eigenvalues --    4.70769   4.71635   4.71635   4.73927   4.75453
 Alpha virt. eigenvalues --    4.75453   4.93481   4.93481   4.93746   4.94421
 Alpha virt. eigenvalues --    4.94421   4.96457   5.19915   5.34036   5.34036
 Alpha virt. eigenvalues --    5.36423   5.51891   5.51891   5.56164   5.56164
 Alpha virt. eigenvalues --    5.58056   5.59613   5.59613   5.59752   5.59752
 Alpha virt. eigenvalues --    5.68035   5.68035   5.68227   5.68227   5.86016
 Alpha virt. eigenvalues --    5.86016   5.89875   5.89875   5.93306   5.93306
 Alpha virt. eigenvalues --    6.03823   6.04774   6.04774   6.07541   6.07541
 Alpha virt. eigenvalues --    6.07849   6.07849   6.12631   6.12631   6.16589
 Alpha virt. eigenvalues --    6.16589   6.23197   6.23952   6.23952   6.31069
 Alpha virt. eigenvalues --    6.31069   6.32210   6.32210   6.36916   6.41409
 Alpha virt. eigenvalues --    6.45997   6.45997   6.55629   6.55629   6.55981
 Alpha virt. eigenvalues --    6.55981   6.59532   6.59532   6.69085   6.95510
 Alpha virt. eigenvalues --    7.07941   7.07941   7.36386   7.62105   7.62105
 Alpha virt. eigenvalues --    7.62375   7.62375   7.67075   7.67075   7.79683
 Alpha virt. eigenvalues --    7.79683   7.89739   7.89739   8.23122   8.23122
 Alpha virt. eigenvalues --    8.29411   8.29411   8.30291   8.30291   8.41044
 Alpha virt. eigenvalues --    8.43588   8.43588   8.54909   8.54909   8.58930
 Alpha virt. eigenvalues --    8.58930   8.65486   8.65486   8.75116   8.76771
 Alpha virt. eigenvalues --    8.76771   8.78872   8.78872   8.82083   8.82083
 Alpha virt. eigenvalues --    8.83435   8.83435   8.84317   8.84317   8.84396
 Alpha virt. eigenvalues --    8.84396   8.86218   8.86218   8.86987   8.99831
 Alpha virt. eigenvalues --    8.99831   9.00042   9.00042   9.31290   9.31290
 Alpha virt. eigenvalues --    9.37274   9.69472   9.69472   9.81043  10.01358
 Alpha virt. eigenvalues --   10.01358  10.29835  10.29835  10.34349  10.34349
 Alpha virt. eigenvalues --   10.34748  10.36925  10.36925  10.38458  10.39455
 Alpha virt. eigenvalues --   10.39455  10.40411  10.40411  10.42525  10.42525
 Alpha virt. eigenvalues --   10.49022  10.49022  10.52507  10.52507  10.54826
 Alpha virt. eigenvalues --   10.55320  10.55320  10.60567  10.60567  10.62053
 Alpha virt. eigenvalues --   10.64673  10.64673  10.66015  10.66015  10.66672
 Alpha virt. eigenvalues --   10.66672  10.67520  10.67520  10.74198  10.74198
 Alpha virt. eigenvalues --   10.75641  10.75641  10.76844  10.76844  10.78882
 Alpha virt. eigenvalues --   10.78882  10.82900  10.82900  10.84072  10.84072
 Alpha virt. eigenvalues --   10.91554  10.91554  10.94324  10.94324  11.07340
 Alpha virt. eigenvalues --   11.07340  11.07698  11.07698  11.20745  11.20745
 Alpha virt. eigenvalues --   11.20904  11.24804  11.24804  11.27426  11.36237
 Alpha virt. eigenvalues --   11.36237  11.44525  11.50965  11.63481  11.63481
 Alpha virt. eigenvalues --   11.66104  11.66104  12.53081  12.53081  13.35495
 Alpha virt. eigenvalues --   13.60475  13.60475  13.72431  13.72431  14.01784
 Alpha virt. eigenvalues --   14.14062  14.33985  14.33985  14.34736  14.34736
 Alpha virt. eigenvalues --   14.38329  14.38329  14.61869  14.61869  14.69582
 Alpha virt. eigenvalues --   14.69582  15.53545  15.53545  15.55636  15.96647
 Alpha virt. eigenvalues --   17.21946  17.21946  17.28105  17.28105  17.29832
 Alpha virt. eigenvalues --   17.29832  17.98133  17.98133  18.23892  20.10290
 Alpha virt. eigenvalues --   23.06510  23.29016  31.07689  31.07689  31.16357
 Alpha virt. eigenvalues --   31.16357  31.49466  31.69774 625.36503 626.43830
          Condensed to atoms (all electrons):
              1          2
     1  Br  34.853492   0.146508
     2  Br   0.146508  34.853492
 Mulliken atomic charges:
              1
     1  Br   0.000000
     2  Br   0.000000
 Sum of Mulliken atomic charges =   0.00000
 Mulliken charges with hydrogens summed into heavy atoms:
              1
     1  Br   0.000000
     2  Br   0.000000
 Sum of Mulliken charges with hydrogens summed into heavy atoms =   0.00000
          Atomic-Atomic Spin Densities.
              1          2
     1  Br   0.000000   0.000000
     2  Br   0.000000   0.000000
 Mulliken atomic spin densities:
              1
     1  Br   0.000000
     2  Br   0.000000
 Sum of Mulliken atomic spin densities =   0.00000
 Electronic spatial extent (au):  <R**2>=            405.0574
 Charge=              0.0000 electrons
 Dipole moment (field-independent basis, Debye):
    X=              0.0000    Y=              0.0000    Z=              0.0000  Tot=              0.0000
 Quadrupole moment (field-independent basis, Debye-Ang):
   XX=            -37.3288   YY=            -37.3288   ZZ=            -32.7987
   XY=              0.0000   XZ=              0.0000   YZ=              0.0000
 Traceless Quadrupole moment (field-independent basis, Debye-Ang):
   XX=             -1.5100   YY=             -1.5100   ZZ=              3.0201
   XY=              0.0000   XZ=              0.0000   YZ=              0.0000
 Octapole moment (field-independent basis, Debye-Ang**2):
  XXX=              0.0000  YYY=              0.0000  ZZZ=              0.0000  XYY=              0.0000
  XXY=              0.0000  XXZ=              0.0000  XZZ=              0.0000  YZZ=              0.0000
  YYZ=              0.0000  XYZ=              0.0000
 Hexadecapole moment (field-independent basis, Debye-Ang**3):
 XXXX=            -45.0312 YYYY=            -45.0312 ZZZZ=           -284.8488 XXXY=              0.0000
 XXXZ=              0.0000 YYYX=              0.0000 YYYZ=              0.0000 ZZZX=              0.0000
 ZZZY=              0.0000 XXYY=            -15.0104 XXZZ=            -63.3864 YYZZ=            -63.3864
 XXYZ=              0.0000 YYXZ=              0.0000 ZZXY=              0.0000
 N-N= 2.841858269318D+02 E-N=-1.931462596624D+04  KE= 7.717364871064D+03
                          Isotropic Fermi Contact Couplings
        Atom                 a.u.       MegaHertz       Gauss      10(-4) cm-1
     1  Br(79)             0.00000       0.00000       0.00000       0.00000
     2  Br(79)             0.00000       0.00000       0.00000       0.00000
 --------------------------------------------------------
       Center         ----  Spin Dipole Couplings  ----
                      3XX-RR        3YY-RR        3ZZ-RR
 --------------------------------------------------------
     1   Atom        0.000000      0.000000      0.000000
     2   Atom        0.000000      0.000000      0.000000
 --------------------------------------------------------
                        XY            XZ            YZ
 --------------------------------------------------------
     1   Atom        0.000000      0.000000      0.000000
     2   Atom        0.000000      0.000000      0.000000
 --------------------------------------------------------


 ---------------------------------------------------------------------------------
              Anisotropic Spin Dipole Couplings in Principal Axis System
 ---------------------------------------------------------------------------------

       Atom             a.u.   MegaHertz   Gauss  10(-4) cm-1        Axes

              Baa     0.0000     0.000     0.000     0.000  1.0000  0.0000  0.0000
     1 Br(79) Bbb     0.0000     0.000     0.000     0.000  0.0000  1.0000  0.0000
              Bcc     0.0000     0.000     0.000     0.000  0.0000  0.0000  1.0000
 
              Baa     0.0000     0.000     0.000     0.000  1.0000  0.0000  0.0000
     2 Br(79) Bbb     0.0000     0.000     0.000     0.000  0.0000  1.0000  0.0000
              Bcc     0.0000     0.000     0.000     0.000  0.0000  0.0000  1.0000
 

 ---------------------------------------------------------------------------------


 Test job not archived.
 1\1\GINC-C33\SP\ROMP2-RW\Gen\Br2\GPETERSSON\15-Aug-2012\0\\# ROMP2(RW)
  Gen GFinput Int=NoBasisTransform Int(Grid=Ultrafine) IOp(3/32=2,5/6=1
 0,8/11=1,9/33=1) Maxdisk=128GB CBSextrapolate(Nmin=25,MinPop)\\Br2\\0,
 1\Br\Br,1,2.28105\\Version=EM64L-G09RevA.02\State=1-SGG\HF=-5144.92276
 35\MP2=-5145.3091401\E2(CBS)=-0.3968728\CBS-Int=-0.3917798\OIii=2.6256
 259\RMSD=7.265e-11\PG=D*H [C*(Br1.Br1)]\\@


 REVOLUTIONS HAVE NEVER LIGHTENED THE BURDEN OF TYRANNY:
 THEY HAVE MERELY SHIFTED IT TO OTHER SHOULDERS.
                                   -- G. B. SHAW (1903)
 Job cpu time:  1 days 20 hours 40 minutes 55.4 seconds.
 File lengths (MBytes):  RWF=   7456 Int=      0 D2E=      0 Chk=     16 Scr=      1
 Normal termination of Gaussian 09 at Wed Aug 15 00:34:08 2012.
