 Entering Gaussian System, Link 0=gdv
 AtFile(1): 7ZaPa-NR.gbs
 Initial command:
 /share/apps/gaussian/gdvh12/gdv/l1.exe /localscratch/933269/Gau-16757.inp -scrdir=/localscratch/933269/
 Entering Link 1 = /share/apps/gaussian/gdvh12/gdv/l1.exe PID=     16758.
  
 Copyright (c) 1988,1990,1992,1993,1995,1998,2003,2009,2011,
            Gaussian, Inc.  All Rights Reserved.
  
 This is the private, development version of
 the Gaussian(R) DV system of programs. It is based on
 the Gaussian(R) 09 system (copyright 2009, Gaussian, Inc.),
 the Gaussian(R) 03 system (copyright 2003, Gaussian, Inc.),
 the Gaussian(R) 98 system (copyright 1998, Gaussian, Inc.),
 the Gaussian(R) 94 system (copyright 1995, Gaussian, Inc.),
 the Gaussian 92(TM) system (copyright 1992, Gaussian, Inc.),
 the Gaussian 90(TM) system (copyright 1990, Gaussian, Inc.),
 the Gaussian 88(TM) system (copyright 1988, Gaussian, Inc.),
 the Gaussian 86(TM) system (copyright 1986, Carnegie Mellon
 University), and the Gaussian 82(TM) system (copyright 1983,
 Carnegie Mellon University). Gaussian is a federally registered
 trademark of Gaussian, Inc.
  
 This software contains proprietary and confidential information,
 including trade secrets, belonging to Gaussian, Inc.
  
 This software is provided under written license and may be
 used, copied, transmitted, or stored only in accord with that
 written license.
  
 The following legend is applicable only to US Government
 contracts under FAR:
  
                    RESTRICTED RIGHTS LEGEND
  
 Use, reproduction and disclosure by the US Government is
 subject to restrictions as set forth in subparagraphs (a)
 and (c) of the Commercial Computer Software - Restricted
 Rights clause in FAR 52.227-19.
  
 Gaussian, Inc.
 340 Quinnipiac St., Bldg. 40, Wallingford CT 06492
  
  
 ---------------------------------------------------------------
 Warning -- This program may not be used in any manner that
 competes with the business of Gaussian, Inc. or will provide
 assistance to any competitor of Gaussian, Inc.  The licensee
 of this program is prohibited from giving any competitor of
 Gaussian, Inc. access to this program.  By using this program,
 the user acknowledges that Gaussian, Inc. is engaged in the
 business of creating and licensing software in the field of
 computational chemistry and represents and warrants to the
 licensee that it is not a competitor of Gaussian, Inc. and that
 it will not use this program in any manner prohibited above.
 ---------------------------------------------------------------
  

 Cite this work as:
 Gaussian Development Version, Revision H.12,
 M. J. Frisch, G. W. Trucks, H. B. Schlegel, G. E. Scuseria, 
 M. A. Robb, J. R. Cheeseman, G. Scalmani, V. Barone, B. Mennucci, 
 G. A. Petersson, H. Nakatsuji, M. Caricato, X. Li, H. P. Hratchian, 
 A. F. Izmaylov, J. Bloino, G. Zheng, J. L. Sonnenberg, M. Hada, 
 M. Ehara, K. Toyota, R. Fukuda, J. Hasegawa, M. Ishida, T. Nakajima, 
 Y. Honda, O. Kitao, H. Nakai, T. Vreven, J. A. Montgomery, Jr., 
 J. E. Peralta, F. Ogliaro, M. Bearpark, J. J. Heyd, E. Brothers, 
 K. N. Kudin, V. N. Staroverov, T. Keith, R. Kobayashi, J. Normand, 
 K. Raghavachari, A. Rendell, J. C. Burant, S. S. Iyengar, J. Tomasi, 
 M. Cossi, N. Rega, J. M. Millam, M. Klene, J. E. Knox, J. B. Cross, 
 V. Bakken, C. Adamo, J. Jaramillo, R. Gomperts, R. E. Stratmann, 
 O. Yazyev, A. J. Austin, R. Cammi, C. Pomelli, J. W. Ochterski, 
 R. L. Martin, K. Morokuma, V. G. Zakrzewski, G. A. Voth, 
 P. Salvador, J. J. Dannenberg, S. Dapprich, P. V. Parandekar, 
 N. J. Mayhall, A. D. Daniels, O. Farkas, J. B. Foresman, 
 J. V. Ortiz, J. Cioslowski, and D. J. Fox, 
 Gaussian, Inc., Wallingford CT, 2010.
 
 ******************************************
 Gaussian DV:  EM64L-GDVRevH.12  9-Jun-2011
                29-Apr-2013 
 ******************************************
 % Mem=12GB
 % Nproc=8
 Will use up to    8 processors via shared memory.
 ----------------------------------------------------------------------
 # ROMP2(RW) Gen GFinput Int=NoBasisTransform Int(Grid=Ultrafine) IOp(3
 /32=2,5/6=10,8/11=1,9/33=1) Maxdisk=128GB CBSextrapolate(Nmin=25,MinPo
 p)
 ----------------------------------------------------------------------
 1/38=1/1;
 2/12=2,17=6,18=5,40=1/2;
 3/5=7,11=2,16=1,24=10,25=1,30=1,32=2,60=-1,75=-5,116=101/1,2,3;
 4//1;
 5/5=2,6=10,38=5/2;
 8/5=-1,10=91,11=1/1;
 9/16=-3,33=1,75=2,81=25,83=4/6,4;
 6/7=2,8=2,9=2,10=2/1;
 99/5=1,9=1/99;
 ---
 Br2
 ---
 Charge =  0 Multiplicity = 1
 Symbolic Z-Matrix:
 Br
 Br                   1     2.28105 
 
                          Input orientation:                          
 ---------------------------------------------------------------------
 Center     Atomic      Atomic             Coordinates (Angstroms)
 Number     Number       Type             X           Y           Z
 ---------------------------------------------------------------------
      1         35           0        0.000000    0.000000    0.000000
      2         35           0        0.000000    0.000000    2.281050
 ---------------------------------------------------------------------
 Stoichiometry    Br2
 Framework group  D*H[C*(Br.Br)]
 Deg. of freedom     1
 Full point group                 D*H     NOp   8
 Largest Abelian subgroup         D2H     NOp   8
 Largest concise Abelian subgroup C2      NOp   2
                         Standard orientation:                         
 ---------------------------------------------------------------------
 Center     Atomic      Atomic             Coordinates (Angstroms)
 Number     Number       Type             X           Y           Z
 ---------------------------------------------------------------------
      1         35           0        0.000000    0.000000    1.140525
      2         35           0        0.000000    0.000000   -1.140525
 ---------------------------------------------------------------------
 Rotational constants (GHZ):      0.0000000      2.4614990      2.4614990
 General basis read from cards:  (5D, 7F)
 AO basis set in the form of general basis input (Overlap normalization):
      1 0
 S  19 1.00       0.000000000000
      0.1084089110D+09  0.2897699584D-06
      0.2017723730D+08  0.1824866800D-05
      0.4606851830D+07  0.1038807919D-04
      0.1247136140D+07  0.4708813254D-04
      0.3886300470D+06  0.1814051699D-03
      0.1358926290D+06  0.6102148031D-03
      0.5217333690D+05  0.1843419936D-02
      0.2159416810D+05  0.5103438024D-02
      0.9489448890D+04  0.1312406995D-01
      0.4372571600D+04  0.3150120384D-01
      0.2091443270D+04  0.6997810635D-01
      0.1030127600D+04  0.1400640193D+00
      0.5192168730D+03  0.2383775848D+00
      0.2665046050D+03  0.3080972525D+00
      0.1387733520D+03  0.2451695558D+00
      0.7308292400D+02  0.8608897484D-01
      0.3882100000D+02  0.7995888776D-02
      0.2074503800D+02  0.9489470514D-03
      0.1111965000D+02  0.4953062091D-04
 S  15 1.00       0.000000000000
      0.2159416810D+05 -0.9678985889D-05
      0.9489448890D+04 -0.4863764938D-04
      0.4372571600D+04 -0.2977365187D-03
      0.2091443270D+04 -0.1372218990D-02
      0.1030127600D+04 -0.5849453272D-02
      0.5192168730D+03 -0.2048702530D-01
      0.2665046050D+03 -0.5658275134D-01
      0.1387733520D+03 -0.9041113573D-01
      0.7308292400D+02 -0.2938125153D-02
      0.3882100000D+02  0.3072534665D+00
      0.2074503800D+02  0.5066413436D+00
      0.1111965000D+02  0.2631655220D+00
      0.5957454000D+01  0.3964223360D-01
      0.3175930000D+01  0.3292853492D-02
      0.1674973000D+01  0.4898347019D-03
 P  17 1.00       0.000000000000
      0.1489059560D+06  0.2740260182D-05
      0.3964636200D+05  0.2176321263D-04
      0.1264734410D+05  0.1403834625D-03
      0.4668245390D+04  0.6948952544D-03
      0.1934889060D+04  0.2808105022D-02
      0.8778986460D+03  0.9526976658D-02
      0.4267924460D+03  0.2770298382D-01
      0.2183954360D+03  0.6953677487D-01
      0.1159257070D+03  0.1469386723D+00
      0.6307782300D+02  0.2493208911D+00
      0.3484932500D+02  0.3157753200D+00
      0.1940052200D+02  0.2488553914D+00
      0.1081551700D+02  0.9796365660D-01
      0.6006953000D+01  0.1592384613D-01
      0.3308640000D+01  0.1533209791D-02
      0.1799357000D+01  0.3395022310D-03
      0.9616640000D+00  0.2293710392D-04
 S  11 1.00       0.000000000000
      0.2665046050D+03  0.7045882210D-03
      0.1387733520D+03  0.2554017970D-02
      0.7308292400D+02  0.2249779309D-02
      0.3882100000D+02 -0.3797473952D-01
      0.2074503800D+02 -0.1751230827D+00
      0.1111965000D+02 -0.1392406230D+00
      0.5957454000D+01  0.2628491860D+00
      0.3175930000D+01  0.5920876138D+00
      0.1674973000D+01  0.3388251456D+00
      0.8674590000D+00  0.3744989864D-01
      0.4370370000D+00  0.2232780462D-02
 P  14 1.00       0.000000000000
      0.8778986460D+03 -0.3377811447D-04
      0.4267924460D+03 -0.2222521929D-03
      0.2183954360D+03 -0.1192581069D-02
      0.1159257070D+03 -0.4604030998D-02
      0.6307782300D+02 -0.1233507946D-01
      0.3484932500D+02 -0.2302104199D-01
      0.1940052200D+02  0.3236711412D-02
      0.1081551700D+02  0.1367969390D+00
      0.6006953000D+01  0.3183466610D+00
      0.3308640000D+01  0.3836335349D+00
      0.1799357000D+01  0.2240687451D+00
      0.9616640000D+00  0.4713264893D-01
      0.5023720000D+00  0.3459205239D-02
      0.2548520000D+00  0.3310734587D-03
 D  16 1.00       0.000000000000
      0.5237200060D+04  0.5069540497D-05
      0.1612175470D+04  0.5373351511D-04
      0.6179331500D+03  0.3636041628D-03
      0.2751743010D+03  0.1742056614D-02
      0.1352802610D+03  0.6602255191D-02
      0.7083381400D+02  0.2016098071D-01
      0.3857775800D+02  0.5069376509D-01
      0.2153871200D+02  0.1079671851D+00
      0.1222546500D+02  0.1840055841D+00
      0.7018196000D+01  0.2440961743D+00
      0.4054348000D+01  0.2626492965D+00
      0.2338499000D+01  0.2241806785D+00
      0.1328367000D+01  0.1352922333D+00
      0.7265420000D+00  0.4881548799D-01
      0.3696680000D+00  0.7884050075D-02
      0.1665550000D+00  0.6446766657D-03
 S  10 1.00       0.000000000000
      0.3882100000D+02  0.2300144399D-03
      0.2074503800D+02  0.3863835953D-02
      0.1111965000D+02  0.2640130519D-02
      0.5957454000D+01 -0.8966677182D-02
      0.3175930000D+01 -0.9457293054D-01
      0.1674973000D+01 -0.2184827177D+00
      0.8674590000D+00  0.8325308406D-01
      0.4370370000D+00  0.5053966275D+00
      0.2117090000D+00  0.4987155701D+00
      0.9720500000D-01  0.1240336784D+00
 S   1 1.00       0.000000000000
      0.1209560000D+00  0.1000000000D+01
 S   1 1.00       0.000000000000
      0.4734000000D-01  0.1000000000D+01
 P  11 1.00       0.000000000000
      0.3484932500D+02  0.1184665237D-03
      0.1940052200D+02 -0.4435072015D-03
      0.1081551700D+02 -0.3741457556D-02
      0.6006953000D+01 -0.9005010777D-02
      0.3308640000D+01 -0.2542087043D-01
      0.1799357000D+01 -0.2314468429D-01
      0.9616640000D+00  0.1187990779D+00
      0.5023720000D+00  0.3164600821D+00
      0.2548520000D+00  0.3904801352D+00
      0.1245350000D+00  0.2667515036D+00
      0.5802900000D-01  0.6072639074D-01
 P   1 1.00       0.000000000000
      0.6083700000D-01  0.1000000000D+01
 P   1 1.00       0.000000000000
      0.2547600000D-01  0.1000000000D+01
 S   1 1.00       0.000000000000
      0.4239434000D+01  0.1000000000D+01
 S   1 1.00       0.000000000000
      0.2478441000D+01  0.1000000000D+01
 S   1 1.00       0.000000000000
      0.1448937000D+01  0.1000000000D+01
 S   1 1.00       0.000000000000
      0.8470720000D+00  0.1000000000D+01
 S   1 1.00       0.000000000000
      0.4952120000D+00  0.1000000000D+01
 S   1 1.00       0.000000000000
      0.2895090000D+00  0.1000000000D+01
 P   1 1.00       0.000000000000
      0.3530439000D+01  0.1000000000D+01
 P   1 1.00       0.000000000000
      0.2050080000D+01  0.1000000000D+01
 P   1 1.00       0.000000000000
      0.1190455000D+01  0.1000000000D+01
 P   1 1.00       0.000000000000
      0.6912820000D+00  0.1000000000D+01
 P   1 1.00       0.000000000000
      0.4014180000D+00  0.1000000000D+01
 P   1 1.00       0.000000000000
      0.2330980000D+00  0.1000000000D+01
 D   1 1.00       0.000000000000
      0.2746111000D+01  0.1000000000D+01
 D   1 1.00       0.000000000000
      0.1533907000D+01  0.1000000000D+01
 D   1 1.00       0.000000000000
      0.8568010000D+00  0.1000000000D+01
 D   1 1.00       0.000000000000
      0.4785870000D+00  0.1000000000D+01
 D   1 1.00       0.000000000000
      0.2673260000D+00  0.1000000000D+01
 D   1 1.00       0.000000000000
      0.1493220000D+00  0.1000000000D+01
 D   1 1.00       0.000000000000
      0.8340770000D-01  0.1000000000D+01
 F   1 1.00       0.000000000000
      0.3187656000D+01  0.1000000000D+01
 F   1 1.00       0.000000000000
      0.1674453000D+01  0.1000000000D+01
 F   1 1.00       0.000000000000
      0.8795780000D+00  0.1000000000D+01
 F   1 1.00       0.000000000000
      0.4620360000D+00  0.1000000000D+01
 F   1 1.00       0.000000000000
      0.2427040000D+00  0.1000000000D+01
 F   1 1.00       0.000000000000
      0.1274910000D+00  0.1000000000D+01
 G   1 1.00       0.000000000000
      0.1560226000D+01  0.1000000000D+01
 G   1 1.00       0.000000000000
      0.9434780000D+00  0.1000000000D+01
 G   1 1.00       0.000000000000
      0.5705260000D+00  0.1000000000D+01
 G   1 1.00       0.000000000000
      0.3450010000D+00  0.1000000000D+01
 G   1 1.00       0.000000000000
      0.2086240000D+00  0.1000000000D+01
 H   1 1.00       0.000000000000
      0.1384770000D+01  0.1000000000D+01
 H   1 1.00       0.000000000000
      0.8134390000D+00  0.1000000000D+01
 H   1 1.00       0.000000000000
      0.4778280000D+00  0.1000000000D+01
 H   1 1.00       0.000000000000
      0.2806840000D+00  0.1000000000D+01
 I   1 1.00       0.000000000000
      0.1302811000D+01  0.1000000000D+01
 I   1 1.00       0.000000000000
      0.6956320000D+00  0.1000000000D+01
 I   1 1.00       0.000000000000
      0.3714310000D+00  0.1000000000D+01
 J   1 1.00       0.000000000000
      0.1102245215D+01  0.1000000000D+01
 ****
      2 0
 S  19 1.00       0.000000000000
      0.1084089110D+09  0.2897699584D-06
      0.2017723730D+08  0.1824866800D-05
      0.4606851830D+07  0.1038807919D-04
      0.1247136140D+07  0.4708813254D-04
      0.3886300470D+06  0.1814051699D-03
      0.1358926290D+06  0.6102148031D-03
      0.5217333690D+05  0.1843419936D-02
      0.2159416810D+05  0.5103438024D-02
      0.9489448890D+04  0.1312406995D-01
      0.4372571600D+04  0.3150120384D-01
      0.2091443270D+04  0.6997810635D-01
      0.1030127600D+04  0.1400640193D+00
      0.5192168730D+03  0.2383775848D+00
      0.2665046050D+03  0.3080972525D+00
      0.1387733520D+03  0.2451695558D+00
      0.7308292400D+02  0.8608897484D-01
      0.3882100000D+02  0.7995888776D-02
      0.2074503800D+02  0.9489470514D-03
      0.1111965000D+02  0.4953062091D-04
 S  15 1.00       0.000000000000
      0.2159416810D+05 -0.9678985889D-05
      0.9489448890D+04 -0.4863764938D-04
      0.4372571600D+04 -0.2977365187D-03
      0.2091443270D+04 -0.1372218990D-02
      0.1030127600D+04 -0.5849453272D-02
      0.5192168730D+03 -0.2048702530D-01
      0.2665046050D+03 -0.5658275134D-01
      0.1387733520D+03 -0.9041113573D-01
      0.7308292400D+02 -0.2938125153D-02
      0.3882100000D+02  0.3072534665D+00
      0.2074503800D+02  0.5066413436D+00
      0.1111965000D+02  0.2631655220D+00
      0.5957454000D+01  0.3964223360D-01
      0.3175930000D+01  0.3292853492D-02
      0.1674973000D+01  0.4898347019D-03
 P  17 1.00       0.000000000000
      0.1489059560D+06  0.2740260182D-05
      0.3964636200D+05  0.2176321263D-04
      0.1264734410D+05  0.1403834625D-03
      0.4668245390D+04  0.6948952544D-03
      0.1934889060D+04  0.2808105022D-02
      0.8778986460D+03  0.9526976658D-02
      0.4267924460D+03  0.2770298382D-01
      0.2183954360D+03  0.6953677487D-01
      0.1159257070D+03  0.1469386723D+00
      0.6307782300D+02  0.2493208911D+00
      0.3484932500D+02  0.3157753200D+00
      0.1940052200D+02  0.2488553914D+00
      0.1081551700D+02  0.9796365660D-01
      0.6006953000D+01  0.1592384613D-01
      0.3308640000D+01  0.1533209791D-02
      0.1799357000D+01  0.3395022310D-03
      0.9616640000D+00  0.2293710392D-04
 S  11 1.00       0.000000000000
      0.2665046050D+03  0.7045882210D-03
      0.1387733520D+03  0.2554017970D-02
      0.7308292400D+02  0.2249779309D-02
      0.3882100000D+02 -0.3797473952D-01
      0.2074503800D+02 -0.1751230827D+00
      0.1111965000D+02 -0.1392406230D+00
      0.5957454000D+01  0.2628491860D+00
      0.3175930000D+01  0.5920876138D+00
      0.1674973000D+01  0.3388251456D+00
      0.8674590000D+00  0.3744989864D-01
      0.4370370000D+00  0.2232780462D-02
 P  14 1.00       0.000000000000
      0.8778986460D+03 -0.3377811447D-04
      0.4267924460D+03 -0.2222521929D-03
      0.2183954360D+03 -0.1192581069D-02
      0.1159257070D+03 -0.4604030998D-02
      0.6307782300D+02 -0.1233507946D-01
      0.3484932500D+02 -0.2302104199D-01
      0.1940052200D+02  0.3236711412D-02
      0.1081551700D+02  0.1367969390D+00
      0.6006953000D+01  0.3183466610D+00
      0.3308640000D+01  0.3836335349D+00
      0.1799357000D+01  0.2240687451D+00
      0.9616640000D+00  0.4713264893D-01
      0.5023720000D+00  0.3459205239D-02
      0.2548520000D+00  0.3310734587D-03
 D  16 1.00       0.000000000000
      0.5237200060D+04  0.5069540497D-05
      0.1612175470D+04  0.5373351511D-04
      0.6179331500D+03  0.3636041628D-03
      0.2751743010D+03  0.1742056614D-02
      0.1352802610D+03  0.6602255191D-02
      0.7083381400D+02  0.2016098071D-01
      0.3857775800D+02  0.5069376509D-01
      0.2153871200D+02  0.1079671851D+00
      0.1222546500D+02  0.1840055841D+00
      0.7018196000D+01  0.2440961743D+00
      0.4054348000D+01  0.2626492965D+00
      0.2338499000D+01  0.2241806785D+00
      0.1328367000D+01  0.1352922333D+00
      0.7265420000D+00  0.4881548799D-01
      0.3696680000D+00  0.7884050075D-02
      0.1665550000D+00  0.6446766657D-03
 S  10 1.00       0.000000000000
      0.3882100000D+02  0.2300144399D-03
      0.2074503800D+02  0.3863835953D-02
      0.1111965000D+02  0.2640130519D-02
      0.5957454000D+01 -0.8966677182D-02
      0.3175930000D+01 -0.9457293054D-01
      0.1674973000D+01 -0.2184827177D+00
      0.8674590000D+00  0.8325308406D-01
      0.4370370000D+00  0.5053966275D+00
      0.2117090000D+00  0.4987155701D+00
      0.9720500000D-01  0.1240336784D+00
 S   1 1.00       0.000000000000
      0.1209560000D+00  0.1000000000D+01
 S   1 1.00       0.000000000000
      0.4734000000D-01  0.1000000000D+01
 P  11 1.00       0.000000000000
      0.3484932500D+02  0.1184665237D-03
      0.1940052200D+02 -0.4435072015D-03
      0.1081551700D+02 -0.3741457556D-02
      0.6006953000D+01 -0.9005010777D-02
      0.3308640000D+01 -0.2542087043D-01
      0.1799357000D+01 -0.2314468429D-01
      0.9616640000D+00  0.1187990779D+00
      0.5023720000D+00  0.3164600821D+00
      0.2548520000D+00  0.3904801352D+00
      0.1245350000D+00  0.2667515036D+00
      0.5802900000D-01  0.6072639074D-01
 P   1 1.00       0.000000000000
      0.6083700000D-01  0.1000000000D+01
 P   1 1.00       0.000000000000
      0.2547600000D-01  0.1000000000D+01
 S   1 1.00       0.000000000000
      0.4239434000D+01  0.1000000000D+01
 S   1 1.00       0.000000000000
      0.2478441000D+01  0.1000000000D+01
 S   1 1.00       0.000000000000
      0.1448937000D+01  0.1000000000D+01
 S   1 1.00       0.000000000000
      0.8470720000D+00  0.1000000000D+01
 S   1 1.00       0.000000000000
      0.4952120000D+00  0.1000000000D+01
 S   1 1.00       0.000000000000
      0.2895090000D+00  0.1000000000D+01
 P   1 1.00       0.000000000000
      0.3530439000D+01  0.1000000000D+01
 P   1 1.00       0.000000000000
      0.2050080000D+01  0.1000000000D+01
 P   1 1.00       0.000000000000
      0.1190455000D+01  0.1000000000D+01
 P   1 1.00       0.000000000000
      0.6912820000D+00  0.1000000000D+01
 P   1 1.00       0.000000000000
      0.4014180000D+00  0.1000000000D+01
 P   1 1.00       0.000000000000
      0.2330980000D+00  0.1000000000D+01
 D   1 1.00       0.000000000000
      0.2746111000D+01  0.1000000000D+01
 D   1 1.00       0.000000000000
      0.1533907000D+01  0.1000000000D+01
 D   1 1.00       0.000000000000
      0.8568010000D+00  0.1000000000D+01
 D   1 1.00       0.000000000000
      0.4785870000D+00  0.1000000000D+01
 D   1 1.00       0.000000000000
      0.2673260000D+00  0.1000000000D+01
 D   1 1.00       0.000000000000
      0.1493220000D+00  0.1000000000D+01
 D   1 1.00       0.000000000000
      0.8340770000D-01  0.1000000000D+01
 F   1 1.00       0.000000000000
      0.3187656000D+01  0.1000000000D+01
 F   1 1.00       0.000000000000
      0.1674453000D+01  0.1000000000D+01
 F   1 1.00       0.000000000000
      0.8795780000D+00  0.1000000000D+01
 F   1 1.00       0.000000000000
      0.4620360000D+00  0.1000000000D+01
 F   1 1.00       0.000000000000
      0.2427040000D+00  0.1000000000D+01
 F   1 1.00       0.000000000000
      0.1274910000D+00  0.1000000000D+01
 G   1 1.00       0.000000000000
      0.1560226000D+01  0.1000000000D+01
 G   1 1.00       0.000000000000
      0.9434780000D+00  0.1000000000D+01
 G   1 1.00       0.000000000000
      0.5705260000D+00  0.1000000000D+01
 G   1 1.00       0.000000000000
      0.3450010000D+00  0.1000000000D+01
 G   1 1.00       0.000000000000
      0.2086240000D+00  0.1000000000D+01
 H   1 1.00       0.000000000000
      0.1384770000D+01  0.1000000000D+01
 H   1 1.00       0.000000000000
      0.8134390000D+00  0.1000000000D+01
 H   1 1.00       0.000000000000
      0.4778280000D+00  0.1000000000D+01
 H   1 1.00       0.000000000000
      0.2806840000D+00  0.1000000000D+01
 I   1 1.00       0.000000000000
      0.1302811000D+01  0.1000000000D+01
 I   1 1.00       0.000000000000
      0.6956320000D+00  0.1000000000D+01
 I   1 1.00       0.000000000000
      0.3714310000D+00  0.1000000000D+01
 J   1 1.00       0.000000000000
      0.1102245215D+01  0.1000000000D+01
 ****

 There are   159 symmetry adapted cartesian basis functions of AG  symmetry.
 There are    65 symmetry adapted cartesian basis functions of B1G symmetry.
 There are   104 symmetry adapted cartesian basis functions of B2G symmetry.
 There are   104 symmetry adapted cartesian basis functions of B3G symmetry.
 There are    65 symmetry adapted cartesian basis functions of AU  symmetry.
 There are   159 symmetry adapted cartesian basis functions of B1U symmetry.
 There are   104 symmetry adapted cartesian basis functions of B2U symmetry.
 There are   104 symmetry adapted cartesian basis functions of B3U symmetry.
 There are    94 symmetry adapted basis functions of AG  symmetry.
 There are    44 symmetry adapted basis functions of B1G symmetry.
 There are    66 symmetry adapted basis functions of B2G symmetry.
 There are    66 symmetry adapted basis functions of B3G symmetry.
 There are    44 symmetry adapted basis functions of AU  symmetry.
 There are    94 symmetry adapted basis functions of B1U symmetry.
 There are    66 symmetry adapted basis functions of B2U symmetry.
 There are    66 symmetry adapted basis functions of B3U symmetry.
   540 basis functions,  1380 primitive gaussians,   864 cartesian basis functions
    35 alpha electrons       35 beta electrons
       nuclear repulsion energy       284.1858269318 Hartrees.
 NAtoms=    2 NActive=    2 NUniq=    1 SFac= 4.00D+00 NAtFMM=   60 NAOKFM=F Big=F
 Integral buffers will be    131072 words long.
 Raffenetti 2 integral format.
 Two-electron integral symmetry is turned on.
 One-electron integrals computed using PRISM.
 PrsmSu:  requested number of processors reduced to:   2 ShMem   1 Linda.
 NBasis=   540 RedAO= F EigKep=  0.00D+00  NBF=    94    44    66    66    44    94    66    66
 NBsUse=   540 1.00D-04 EigRej=  0.00D+00 NBFU=    94    44    66    66    44    94    66    66
 ExpMin= 2.55D-02 ExpMax= 1.08D+08 ExpMxC= 9.49D+03 IAcc=3 IRadAn=         5 AccDes= 0.00D+00
 Harris functional with IExCor=  205 and IRadAn=       5 diagonalized for initial guess.
 HarFok:  IExCor=  205 AccDes= 0.00D+00 IRadAn=         5 IDoV= 1 UseB2=F ITyADJ=14
 ICtDFT=  3500011 ScaDFX=  1.000000  1.000000  1.000000  1.000000
 FoFCou: FMM=F IPFlag=           0 FMFlag=      100000 FMFlg1=           0
         NFxFlg=           0 DoJE=T BraDBF=F KetDBF=T FulRan=T
         wScrn=  0.000000 ICntrl=     500 IOpCl=  0 I1Cent=   200000004 NGrid=           0
         NMat0=    1 NMatS0=      1 NMatT0=    0 NMatD0=    1 NMtDS0=    0 NMtDT0=    0
 Petite list used in FoFCou.
 DSYEVD returned Info=        1081 IAlg= 4 N=   540 NDim=   540 NE2=     2979782 trying DSYEV.
 Initial guess orbital symmetries:
       Occupied  (SGU) (SGG) (SGU) (SGG) (SGU) (SGG) (PIG) (PIG)
                 (PIU) (PIU) (SGG) (SGU) (SGG) (SGU) (PIU) (PIU)
                 (PIG) (PIG) (SGG) (PIU) (PIU) (SGU) (PIG) (PIG)
                 (DLTG) (DLTG) (DLTU) (DLTU) (SGG) (SGU) (SGG)
                 (PIU) (PIU) (PIG) (PIG)
       Virtual   (SGU) (SGG) (SGU) (PIU) (PIU) (SGG) (DLTG) (DLTG)
                 (PIU) (PIU) (PIG) (PIG) (SGU) (DLTU) (DLTU) (SGG)
                 (PIU) (PIU) (SGU) (PIG) (PIG) (SGG) (SGG) (PIG)
                 (PIG) (SGU) (PIU) (PIU) (DLTG) (DLTG) (PHIU) (PHIU)
                 (DLTU) (DLTU) (SGG) (DLTG) (DLTG) (PHIG) (PHIG)
                 (PIG) (PIG) (SGU) (SGG) (PIU) (PIU) (SGU) (PIG)
                 (PIG) (PIU) (PIU) (DLTU) (DLTU) (SGU) (SGG) (?A)
                 (?A) (PIU) (PIU) (PHIU) (PHIU) (PIG) (PIG) (SGG)
                 (DLTG) (DLTG) (DLTG) (DLTG) (?B) (?B) (DLTU) (DLTU)
                 (PHIU) (PHIU) (PIG) (PIG) (PHIG) (PHIG) (SGU)
                 (PIU) (PIU) (SGG) (DLTG) (DLTG) (PHIG) (PHIG)
                 (DLTU) (DLTU) (SGU) (SGG) (PIG) (PIG) (SGU) (PIU)
                 (PIU) (SGU) (DLTU) (DLTU) (PIU) (PIU) (SGG) (?A)
                 (?A) (?C) (?C) (PIG) (PIG) (SGG) (?D) (?D) (PHIU)
                 (PHIU) (PIU) (PIU) (DLTG) (DLTG) (?B) (?B) (PIG)
                 (PIG) (DLTU) (DLTU) (?A) (?A) (PHIU) (PHIU) (SGG)
                 (SGU) (PIG) (PIG) (SGU) (?B) (?B) (PHIG) (PHIG)
                 (DLTG) (DLTG) (PIU) (PIU) (PHIU) (PHIU) (DLTG)
                 (DLTG) (DLTU) (DLTU) (PHIG) (PHIG) (SGG) (DLTG)
                 (DLTG) (PIG) (PIG) (PHIG) (PHIG) (PIU) (PIU) (SGG)
                 (SGU) (DLTU) (DLTU) (?C) (?C) (?E) (?E) (SGU)
                 (?A) (?A) (?F) (?F) (PIU) (PIU) (SGG) (DLTU) (DLTU)
                 (SGU) (?D) (?D) (SGG) (PIG) (PIG) (PHIU) (PHIU)
                 (PIU) (PIU) (PIG) (PIG) (DLTG) (DLTG) (?B) (?B)
                 (?A) (?A) (?C) (?C) (SGU) (SGG) (PIU) (PIU) (?D)
                 (?D) (PHIU) (PHIU) (PIU) (PIU) (DLTU) (DLTU) (SGU)
                 (PIG) (PIG) (?B) (?B) (PHIG) (PHIG) (DLTG) (DLTG)
                 (PIG) (PIG) (SGG) (PHIG) (PHIG) (?A) (?A) (PHIU)
                 (PHIU) (?B) (?B) (SGG) (PIG) (PIG) (DLTU) (DLTU)
                 (SGG) (DLTG) (DLTG) (SGU) (SGU) (PHIG) (PHIG)
                 (PIU) (PIU) (PHIU) (PHIU) (DLTU) (DLTU) (PHIG)
                 (PHIG) (DLTG) (DLTG) (PIG) (PIG) (DLTG) (DLTG)
                 (PIU) (PIU) (SGG) (DLTU) (DLTU) (SGU) (DLTU) (DLTU)
                 (PIU) (PIU) (SGU) (PIG) (PIG) (SGG) (DLTG) (DLTG)
                 (PHIU) (PHIU) (SGG) (SGU) (?A) (?A) (?C) (?C)
                 (?E) (?E) (?F) (?F) (PIU) (PIU) (PIG) (PIG) (?D)
                 (?D) (SGU) (?B) (?B) (SGG) (PHIG) (PHIG) (?A)
                 (?A) (?C) (?C) (DLTU) (DLTU) (?D) (?D) (PHIU)
                 (PHIU) (?B) (?B) (PIG) (PIG) (PIG) (PIG) (SGU)
                 (DLTG) (DLTG) (?A) (?A) (SGG) (PHIU) (PHIU) (DLTU)
                 (DLTU) (PIU) (PIU) (?B) (?B) (PHIG) (PHIG) (PIU)
                 (PIU) (SGU) (DLTG) (DLTG) (PHIG) (PHIG) (PIG)
                 (PIG) (PIU) (PIU) (SGG) (SGG) (DLTU) (DLTU) (SGU)
                 (PIG) (PIG) (SGU) (PHIU) (PHIU) (PHIG) (PHIG)
                 (DLTG) (DLTG) (DLTU) (DLTU) (PIU) (PIU) (DLTG)
                 (DLTG) (SGG) (PIU) (PIU) (DLTU) (DLTU) (SGU) (PHIU)
                 (PHIU) (?A) (?A) (?C) (?C) (?E) (?E) (?G) (?G)
                 (?H) (?H) (?F) (?F) (?D) (?D) (PIG) (PIG) (DLTG)
                 (DLTG) (?B) (?B) (PIG) (PIG) (SGG) (PHIG) (PHIG)
                 (PIU) (PIU) (SGG) (SGU) (DLTU) (DLTU) (SGU) (PIG)
                 (PIG) (SGG) (?A) (?A) (?C) (?C) (PHIU) (PHIU)
                 (?E) (?E) (DLTG) (DLTG) (SGU) (?F) (?F) (PIU)
                 (PIU) (SGG) (?D) (?D) (PHIU) (PHIU) (?A) (?A)
                 (?B) (?B) (?A) (?A) (?C) (?C) (PHIG) (PHIG) (?B)
                 (?B) (?D) (?D) (DLTU) (DLTU) (DLTG) (DLTG) (PHIU)
                 (PHIU) (?B) (?B) (PIG) (PIG) (PHIG) (PHIG) (SGU)
                 (PIG) (PIG) (DLTU) (DLTU) (SGG) (PIU) (PIU) (PHIG)
                 (PHIG) (DLTG) (DLTG) (SGU) (PIU) (PIU) (DLTU)
                 (DLTU) (SGG) (PIG) (PIG) (SGU) (PIU) (PIU) (PIG)
                 (PIG) (SGG) (SGU) (PHIU) (PHIU) (PHIG) (PHIG)
                 (DLTG) (DLTG) (DLTU) (DLTU) (SGU) (PIU) (PIU)
                 (PIG) (PIG) (SGG) (DLTG) (DLTG) (DLTU) (DLTU)
                 (PIU) (PIU) (PIG) (PIG) (SGG) (SGU) (SGU) (SGG)
                 (SGU) (PIU) (PIU) (PIG) (PIG) (SGG) (SGU) (SGG)
                 (SGU)
 The electronic state of the initial guess is 1-SGG.
 Requested convergence on RMS density matrix=1.00D-10 within 128 cycles.
 Requested convergence on MAX density matrix=1.00D-08.
 Requested convergence on             energy=1.00D-08.
 No special actions if energy rises.
 Initial convergence to 1.0D-05 achieved.  Increase integral accuracy.
 SCF Done:  E(ROHF) =  -5144.92276798     A.U. after   14 cycles
            NFock= 14  Conv=0.39D-10     -V/T= 2.0000
 <Sx>= 0.0000 <Sy>= 0.0000 <Sz>= 0.0000 <S**2>= 0.0000 S= 0.0000
 <L.S>= 0.000000000000E+00
 Annihilation of the first spin contaminant:
 S**2 before annihilation     0.0000,   after     0.0000
 GenMOA:  NOpAll=  8 NOp2=8 NOpUse=  8 JSym2X=1
 <Sx>= 0.0000 <Sy>= 0.0000 <Sz>= 0.0000 <S**2>= 0.0000 S= 0.0000
 Range of M.O.s used for correlation:    29   540
 NBasis=   540 NAE=    35 NBE=    35 NFC=    28 NFV=     0
 NROrb=    512 NOA=     7 NOB=     7 NVA=   505 NVB=   505

 **** Warning!!: The largest alpha MO coefficient is  0.93059680D+03


 **** Warning!!: The largest beta MO coefficient is  0.93059680D+03

 Singles contribution to E2=   -0.1255785715D-12
 Disk-based method using OVN memory for  7 occupieds at a time.
 Permanent disk used for amplitudes and <ij||ab> integrals=    35682290 words.
 Estimated scratch disk usage=  1720295355 words.
 IUseRI=2 ITolRI= 6 IR12RI=0
 Actual    scratch disk usage=  1719688123 words.
 GetIJB would need an additional  1736336350 words of memory to use all   8 processors.
 JobTyp=2 Pass  1:  I=   1 to   7 NPSUse=  1 ParTrn=F ParDer=F DoDerP=F.
 (rs|ai) integrals will be sorted in core.
 T,EIJ(AA): I=   1 J=   2      0.9987887E-04     -0.3482263E-03
 T,EIJ(AA): I=   1 J=   3      0.2338177E-03     -0.8031001E-03
 T,EIJ(AA): I=   1 J=   4      0.2840023E-03     -0.9580011E-03
 T,EIJ(AA): I=   1 J=   5      0.2840023E-03     -0.9580011E-03
 T,EIJ(AA): I=   1 J=   6      0.2431893E-03     -0.8574418E-03
 T,EIJ(AA): I=   1 J=   7      0.2431893E-03     -0.8574418E-03
 T,EIJ(AA): I=   2 J=   3      0.7864435E-03     -0.2052438E-02
 T,EIJ(AA): I=   2 J=   4      0.4819242E-03     -0.1297613E-02
 T,EIJ(AA): I=   2 J=   5      0.4819242E-03     -0.1297613E-02
 T,EIJ(AA): I=   2 J=   6      0.3826375E-03     -0.1129725E-02
 T,EIJ(AA): I=   2 J=   7      0.3826375E-03     -0.1129725E-02
 T,EIJ(AA): I=   3 J=   4      0.1507676E-02     -0.3521758E-02
 T,EIJ(AA): I=   3 J=   5      0.1507676E-02     -0.3521758E-02
 T,EIJ(AA): I=   3 J=   6      0.2519381E-02     -0.4829922E-02
 T,EIJ(AA): I=   3 J=   7      0.2519381E-02     -0.4829922E-02
 T,EIJ(AA): I=   4 J=   5      0.1352452E-02     -0.3148285E-02
 T,EIJ(AA): I=   4 J=   6      0.2798382E-03     -0.5726725E-03
 T,EIJ(AA): I=   4 J=   7      0.1291423E-02     -0.3055452E-02
 T,EIJ(AA): I=   5 J=   6      0.1291423E-02     -0.3055452E-02
 T,EIJ(AA): I=   5 J=   7      0.2798382E-03     -0.5726725E-03
 T,EIJ(AA): I=   6 J=   7      0.1604197E-02     -0.3586255E-02
 T,EIJ(AB): I=   1 J=   1      0.1592576E-02     -0.6541676E-02
 T,EIJ(AB): I=   1 J=   2      0.8976331E-03     -0.4187045E-02
 T,EIJ(AB): I=   1 J=   3      0.1418335E-02     -0.5557870E-02
 T,EIJ(AB): I=   1 J=   4      0.1065368E-02     -0.4168532E-02
 T,EIJ(AB): I=   1 J=   5      0.1065368E-02     -0.4168532E-02
 T,EIJ(AB): I=   1 J=   6      0.9751912E-03     -0.3798327E-02
 T,EIJ(AB): I=   1 J=   7      0.9751912E-03     -0.3798327E-02
 T,EIJ(AB): I=   2 J=   1      0.8976331E-03     -0.4187045E-02
 T,EIJ(AB): I=   2 J=   2      0.1982631E-02     -0.6987466E-02
 T,EIJ(AB): I=   2 J=   3      0.1818307E-02     -0.5939336E-02
 T,EIJ(AB): I=   2 J=   4      0.1372599E-02     -0.4696328E-02
 T,EIJ(AB): I=   2 J=   5      0.1372599E-02     -0.4696328E-02
 T,EIJ(AB): I=   2 J=   6      0.1513764E-02     -0.5301008E-02
 T,EIJ(AB): I=   2 J=   7      0.1513764E-02     -0.5301008E-02
 T,EIJ(AB): I=   3 J=   1      0.1418335E-02     -0.5557870E-02
 T,EIJ(AB): I=   3 J=   2      0.1818307E-02     -0.5939336E-02
 T,EIJ(AB): I=   3 J=   3      0.1186000E-01     -0.2081533E-01
 T,EIJ(AB): I=   3 J=   4      0.1978325E-02     -0.5260277E-02
 T,EIJ(AB): I=   3 J=   5      0.1978325E-02     -0.5260277E-02
 T,EIJ(AB): I=   3 J=   6      0.2854386E-02     -0.6291841E-02
 T,EIJ(AB): I=   3 J=   7      0.2854386E-02     -0.6291841E-02
 T,EIJ(AB): I=   4 J=   1      0.1065368E-02     -0.4168532E-02
 T,EIJ(AB): I=   4 J=   2      0.1372599E-02     -0.4696328E-02
 T,EIJ(AB): I=   4 J=   3      0.1978325E-02     -0.5260277E-02
 T,EIJ(AB): I=   4 J=   4      0.3950144E-02     -0.1009675E-01
 T,EIJ(AB): I=   4 J=   5      0.1754304E-02     -0.4503450E-02
 T,EIJ(AB): I=   4 J=   6      0.3540504E-02     -0.9558137E-02
 T,EIJ(AB): I=   4 J=   7      0.1660986E-02     -0.4347562E-02
 T,EIJ(AB): I=   5 J=   1      0.1065368E-02     -0.4168532E-02
 T,EIJ(AB): I=   5 J=   2      0.1372599E-02     -0.4696328E-02
 T,EIJ(AB): I=   5 J=   3      0.1978325E-02     -0.5260277E-02
 T,EIJ(AB): I=   5 J=   4      0.1754304E-02     -0.4503450E-02
 T,EIJ(AB): I=   5 J=   5      0.3950144E-02     -0.1009675E-01
 T,EIJ(AB): I=   5 J=   6      0.1660986E-02     -0.4347562E-02
 T,EIJ(AB): I=   5 J=   7      0.3540504E-02     -0.9558137E-02
 T,EIJ(AB): I=   6 J=   1      0.9751912E-03     -0.3798327E-02
 T,EIJ(AB): I=   6 J=   2      0.1513764E-02     -0.5301008E-02
 T,EIJ(AB): I=   6 J=   3      0.2854386E-02     -0.6291841E-02
 T,EIJ(AB): I=   6 J=   4      0.3540504E-02     -0.9558137E-02
 T,EIJ(AB): I=   6 J=   5      0.1660986E-02     -0.4347562E-02
 T,EIJ(AB): I=   6 J=   6      0.4782306E-02     -0.1158543E-01
 T,EIJ(AB): I=   6 J=   7      0.2096454E-02     -0.5187541E-02
 T,EIJ(AB): I=   7 J=   1      0.9751912E-03     -0.3798327E-02
 T,EIJ(AB): I=   7 J=   2      0.1513764E-02     -0.5301008E-02
 T,EIJ(AB): I=   7 J=   3      0.2854386E-02     -0.6291841E-02
 T,EIJ(AB): I=   7 J=   4      0.1660986E-02     -0.4347562E-02
 T,EIJ(AB): I=   7 J=   5      0.3540504E-02     -0.9558137E-02
 T,EIJ(AB): I=   7 J=   6      0.2096454E-02     -0.5187541E-02
 T,EIJ(AB): I=   7 J=   7      0.4782306E-02     -0.1158543E-01
 Actual    scratch disk usage=  1719688123 words.
 GetIJB would need an additional  1736336350 words of memory to use all   8 processors.
 JobTyp=3 Pass  1:  I=   1 to   7 NPSUse=  1 ParTrn=F ParDer=F DoDerP=F.
 (rs|ai) integrals will be sorted in core.
 T,EIJ(BB): I=   1 J=   2      0.9987887E-04     -0.3482263E-03
 T,EIJ(BB): I=   1 J=   3      0.2338177E-03     -0.8031001E-03
 T,EIJ(BB): I=   1 J=   4      0.2840023E-03     -0.9580011E-03
 T,EIJ(BB): I=   1 J=   5      0.2840023E-03     -0.9580011E-03
 T,EIJ(BB): I=   1 J=   6      0.2431893E-03     -0.8574418E-03
 T,EIJ(BB): I=   1 J=   7      0.2431893E-03     -0.8574418E-03
 T,EIJ(BB): I=   2 J=   3      0.7864435E-03     -0.2052438E-02
 T,EIJ(BB): I=   2 J=   4      0.4819242E-03     -0.1297613E-02
 T,EIJ(BB): I=   2 J=   5      0.4819242E-03     -0.1297613E-02
 T,EIJ(BB): I=   2 J=   6      0.3826375E-03     -0.1129725E-02
 T,EIJ(BB): I=   2 J=   7      0.3826375E-03     -0.1129725E-02
 T,EIJ(BB): I=   3 J=   4      0.1507676E-02     -0.3521758E-02
 T,EIJ(BB): I=   3 J=   5      0.1507676E-02     -0.3521758E-02
 T,EIJ(BB): I=   3 J=   6      0.2519381E-02     -0.4829922E-02
 T,EIJ(BB): I=   3 J=   7      0.2519381E-02     -0.4829922E-02
 T,EIJ(BB): I=   4 J=   5      0.1352452E-02     -0.3148285E-02
 T,EIJ(BB): I=   4 J=   6      0.2798382E-03     -0.5726725E-03
 T,EIJ(BB): I=   4 J=   7      0.1291423E-02     -0.3055452E-02
 T,EIJ(BB): I=   5 J=   6      0.1291423E-02     -0.3055452E-02
 T,EIJ(BB): I=   5 J=   7      0.2798382E-03     -0.5726725E-03
 T,EIJ(BB): I=   6 J=   7      0.1604197E-02     -0.3586255E-02
 Spin components of T(2) and E(2):
     alpha-alpha T2 =       0.1805693086D-01 E2=     -0.4238347268D-01
     alpha-beta  T2 =       0.1087146653D+00 E2=     -0.3021473609D+00
     beta-beta   T2 =       0.1805693086D-01 E2=     -0.4238347268D-01
 ANorm=    0.1069966601D+01
 E2 =    -0.3869143063D+00 EUMP2 =    -0.51453096822818D+04

 Complete Basis Set (CBS) Extrapolation:
 M. R. Nyden and G. A. Petersson, JCP 75, 1843 (1981)
 G. A. Petersson and M. A. Al-Laham, JCP 94, 6081 (1991)
 G. A. Petersson, T. Tensfeldt, and J. A. Montgomery, JCP 94, 6091 (1991)
 J. A. Montgomery, J. W. Ochterski, and G. A. Petersson, JCP 101, 5900 (1994)
 
 Minimum Number of PNO for Extrapolation =  25
 Absolute Overlaps: IRadAn =         5
 LocTrn: ILocal=3 LocCor=F DoCore=F.
 Entering OneElI...
 Overlap between basis sets.
 Requested accuracy = 0.1000D-12
 PrsmSu:  NPrtUS=   1 ThrOK=F IAlg=1 NPAlg=1 LenDen=           0.
 Prism:   IPart=     0 DynPar=F LinDyn=F Incr=           1.
 PRISM was handed  1609253183 working-precision words and   136 shell-pairs
 IPart=  0 NShTot=         136 NBatch=          16 AvBLen=         8.5
 PrSmSu:  NxtVal=              2.
 CnvPC2: ToCart=F DoDens=F IPureD=0 IPureF=0.
 Transformed matrix in CnvPC2: 
                 1             2             3             4             5 
      1   0.100000D+01  0.406589D+00  0.000000D+00  0.000000D+00  0.000000D+00
      2   0.406589D+00  0.100000D+01  0.000000D+00  0.000000D+00  0.000000D+00
      3   0.000000D+00  0.000000D+00  0.100000D+01  0.000000D+00  0.000000D+00
      4   0.000000D+00  0.000000D+00  0.000000D+00  0.100000D+01  0.000000D+00
      5   0.000000D+00  0.000000D+00  0.000000D+00  0.000000D+00  0.100000D+01
      6   0.319944D-01  0.362204D+00  0.000000D+00  0.000000D+00  0.000000D+00
      7   0.000000D+00  0.000000D+00  0.375020D+00  0.000000D+00  0.000000D+00
      8   0.000000D+00  0.000000D+00  0.000000D+00  0.375020D+00  0.000000D+00
      9   0.000000D+00  0.000000D+00  0.000000D+00  0.000000D+00  0.375020D+00
     10   0.000000D+00  0.000000D+00  0.000000D+00  0.000000D+00  0.000000D+00
     11   0.000000D+00  0.000000D+00  0.000000D+00  0.000000D+00  0.000000D+00
     12   0.000000D+00  0.000000D+00  0.000000D+00  0.000000D+00  0.000000D+00
     13   0.000000D+00  0.000000D+00  0.000000D+00  0.000000D+00  0.000000D+00
     14   0.000000D+00  0.000000D+00  0.000000D+00  0.000000D+00  0.000000D+00
     15  -0.396207D-03  0.612395D-02  0.000000D+00  0.000000D+00  0.000000D+00
     16   0.000000D+00  0.000000D+00  0.149285D-01  0.000000D+00  0.000000D+00
     17   0.000000D+00  0.000000D+00  0.000000D+00  0.149285D-01  0.000000D+00
     18   0.000000D+00  0.000000D+00  0.000000D+00  0.000000D+00  0.149285D-01
     19   0.000000D+00  0.000000D+00  0.000000D+00  0.000000D+00  0.000000D+00
     20   0.000000D+00  0.000000D+00  0.000000D+00  0.000000D+00  0.000000D+00
     21   0.000000D+00  0.000000D+00  0.000000D+00  0.000000D+00  0.000000D+00
     22   0.000000D+00  0.000000D+00  0.000000D+00  0.000000D+00  0.000000D+00
     23   0.000000D+00  0.000000D+00  0.000000D+00  0.000000D+00  0.000000D+00
     24   0.000000D+00  0.000000D+00  0.000000D+00  0.000000D+00  0.000000D+00
     25   0.000000D+00  0.000000D+00  0.000000D+00  0.000000D+00  0.000000D+00
     26   0.000000D+00  0.000000D+00  0.000000D+00  0.000000D+00  0.000000D+00
     27   0.000000D+00  0.000000D+00  0.000000D+00  0.000000D+00  0.000000D+00
     28   0.000000D+00  0.000000D+00  0.000000D+00  0.000000D+00  0.000000D+00
     29   0.000000D+00  0.000000D+00  0.000000D+00  0.000000D+00  0.000000D+00
     30   0.000000D+00  0.000000D+00  0.000000D+00  0.000000D+00  0.000000D+00
     31   0.000000D+00  0.000000D+00  0.000000D+00  0.000000D+00  0.000000D+00
     32   0.000000D+00  0.000000D+00  0.000000D+00  0.000000D+00  0.000000D+00
     33   0.000000D+00  0.000000D+00  0.000000D+00  0.000000D+00  0.000000D+00
     34   0.000000D+00  0.000000D+00  0.000000D+00  0.000000D+00  0.000000D+00
     35   0.000000D+00  0.000000D+00  0.000000D+00  0.000000D+00  0.000000D+00
     36   0.000000D+00  0.000000D+00  0.000000D+00  0.000000D+00  0.000000D+00
     37   0.000000D+00  0.000000D+00  0.000000D+00  0.000000D+00  0.000000D+00
     38   0.265712D-03  0.165531D-02  0.000000D+00  0.000000D+00 -0.501541D-03
     39   0.000000D+00  0.000000D+00  0.120449D-03  0.000000D+00  0.000000D+00
     40   0.000000D+00  0.000000D+00  0.000000D+00  0.120449D-03  0.000000D+00
     41   0.537904D-03  0.332266D-02  0.000000D+00  0.000000D+00 -0.906502D-03
     42   0.399451D-02  0.241092D-01  0.000000D+00  0.000000D+00 -0.373653D-02
     43   0.000000D+00  0.000000D+00  0.151710D-02  0.000000D+00  0.000000D+00
     44   0.000000D+00  0.000000D+00  0.000000D+00  0.151710D-02  0.000000D+00
     45   0.000000D+00  0.000000D+00  0.000000D+00  0.000000D+00  0.000000D+00
     46   0.000000D+00  0.000000D+00  0.000000D+00  0.000000D+00  0.000000D+00
                 6             7             8             9            10 
      1   0.319944D-01  0.000000D+00  0.000000D+00  0.000000D+00  0.000000D+00
      2   0.362204D+00  0.000000D+00  0.000000D+00  0.000000D+00  0.000000D+00
      3   0.000000D+00  0.375020D+00  0.000000D+00  0.000000D+00  0.000000D+00
      4   0.000000D+00  0.000000D+00  0.375020D+00  0.000000D+00  0.000000D+00
      5   0.000000D+00  0.000000D+00  0.000000D+00  0.375020D+00  0.000000D+00
      6   0.100000D+01  0.000000D+00  0.000000D+00  0.000000D+00  0.000000D+00
      7   0.000000D+00  0.100000D+01  0.000000D+00  0.000000D+00  0.000000D+00
      8   0.000000D+00  0.000000D+00  0.100000D+01  0.000000D+00  0.000000D+00
      9   0.000000D+00  0.000000D+00  0.000000D+00  0.100000D+01  0.000000D+00
     10   0.000000D+00  0.000000D+00  0.000000D+00  0.000000D+00  0.100000D+01
     11   0.000000D+00  0.000000D+00  0.000000D+00  0.000000D+00  0.000000D+00
     12   0.000000D+00  0.000000D+00  0.000000D+00  0.000000D+00  0.000000D+00
     13   0.000000D+00  0.000000D+00  0.000000D+00  0.000000D+00  0.000000D+00
     14   0.000000D+00  0.000000D+00  0.000000D+00  0.000000D+00  0.000000D+00
     15   0.201919D+00  0.000000D+00  0.000000D+00  0.000000D+00  0.000000D+00
     16   0.000000D+00  0.218356D+00  0.000000D+00  0.000000D+00  0.000000D+00
     17   0.000000D+00  0.000000D+00  0.218356D+00  0.000000D+00  0.000000D+00
     18   0.000000D+00  0.000000D+00  0.000000D+00  0.218356D+00  0.000000D+00
     19   0.000000D+00  0.000000D+00  0.000000D+00  0.000000D+00  0.404997D-01
     20   0.000000D+00  0.000000D+00  0.000000D+00  0.000000D+00  0.000000D+00
     21   0.000000D+00  0.000000D+00  0.000000D+00  0.000000D+00  0.000000D+00
     22   0.000000D+00  0.000000D+00  0.000000D+00  0.000000D+00  0.000000D+00
     23   0.000000D+00  0.000000D+00  0.000000D+00  0.000000D+00  0.000000D+00
     24   0.000000D+00  0.000000D+00  0.000000D+00  0.000000D+00  0.000000D+00
     25   0.000000D+00  0.000000D+00  0.000000D+00  0.000000D+00  0.000000D+00
     26   0.000000D+00  0.000000D+00  0.000000D+00  0.000000D+00  0.000000D+00
     27   0.000000D+00  0.000000D+00  0.000000D+00  0.000000D+00  0.000000D+00
     28   0.000000D+00  0.000000D+00  0.000000D+00  0.000000D+00  0.000000D+00
     29   0.000000D+00  0.000000D+00  0.000000D+00  0.000000D+00  0.000000D+00
     30   0.000000D+00  0.000000D+00  0.000000D+00  0.000000D+00  0.000000D+00
     31   0.000000D+00  0.000000D+00  0.000000D+00  0.000000D+00  0.000000D+00
     32   0.000000D+00  0.000000D+00  0.000000D+00  0.000000D+00  0.000000D+00
     33   0.000000D+00  0.000000D+00  0.000000D+00  0.000000D+00  0.000000D+00
     34   0.000000D+00  0.000000D+00  0.000000D+00  0.000000D+00  0.000000D+00
     35   0.000000D+00  0.000000D+00  0.000000D+00  0.000000D+00  0.000000D+00
     36   0.000000D+00  0.000000D+00  0.000000D+00  0.000000D+00  0.000000D+00
     37   0.000000D+00  0.000000D+00  0.000000D+00  0.000000D+00  0.000000D+00
     38   0.101875D-01  0.000000D+00  0.000000D+00 -0.798616D-02  0.346534D-02
     39   0.000000D+00  0.195601D-02  0.000000D+00  0.000000D+00  0.000000D+00
     40   0.000000D+00  0.000000D+00  0.195601D-02  0.000000D+00  0.000000D+00
     41   0.193188D-01  0.000000D+00  0.000000D+00 -0.138766D-01  0.561335D-02
     42   0.117881D+00  0.000000D+00  0.000000D+00 -0.484556D-01  0.100601D-01
     43   0.000000D+00  0.212350D-01  0.000000D+00  0.000000D+00  0.000000D+00
     44   0.000000D+00  0.000000D+00  0.212350D-01  0.000000D+00  0.000000D+00
     45   0.000000D+00  0.000000D+00  0.000000D+00  0.000000D+00  0.000000D+00
     46   0.000000D+00  0.000000D+00  0.000000D+00  0.000000D+00  0.000000D+00
                11            12            13            14            15 
      1   0.000000D+00  0.000000D+00  0.000000D+00  0.000000D+00 -0.396207D-03
      2   0.000000D+00  0.000000D+00  0.000000D+00  0.000000D+00  0.612395D-02
      3   0.000000D+00  0.000000D+00  0.000000D+00  0.000000D+00  0.000000D+00
      4   0.000000D+00  0.000000D+00  0.000000D+00  0.000000D+00  0.000000D+00
      5   0.000000D+00  0.000000D+00  0.000000D+00  0.000000D+00  0.000000D+00
      6   0.000000D+00  0.000000D+00  0.000000D+00  0.000000D+00  0.201919D+00
      7   0.000000D+00  0.000000D+00  0.000000D+00  0.000000D+00  0.000000D+00
      8   0.000000D+00  0.000000D+00  0.000000D+00  0.000000D+00  0.000000D+00
      9   0.000000D+00  0.000000D+00  0.000000D+00  0.000000D+00  0.000000D+00
     10   0.000000D+00  0.000000D+00  0.000000D+00  0.000000D+00  0.000000D+00
     11   0.100000D+01  0.000000D+00  0.000000D+00  0.000000D+00  0.000000D+00
     12   0.000000D+00  0.100000D+01  0.000000D+00  0.000000D+00  0.000000D+00
     13   0.000000D+00  0.000000D+00  0.100000D+01  0.000000D+00  0.000000D+00
     14   0.000000D+00  0.000000D+00  0.000000D+00  0.100000D+01  0.000000D+00
     15   0.000000D+00  0.000000D+00  0.000000D+00  0.000000D+00  0.100000D+01
     16   0.000000D+00  0.000000D+00  0.000000D+00  0.000000D+00  0.000000D+00
     17   0.000000D+00  0.000000D+00  0.000000D+00  0.000000D+00  0.000000D+00
     18   0.000000D+00  0.000000D+00  0.000000D+00  0.000000D+00  0.000000D+00
     19   0.000000D+00  0.000000D+00  0.000000D+00  0.000000D+00  0.000000D+00
     20   0.404997D-01  0.000000D+00  0.000000D+00  0.000000D+00  0.000000D+00
     21   0.000000D+00  0.404997D-01  0.000000D+00  0.000000D+00  0.000000D+00
     22   0.000000D+00  0.000000D+00  0.404997D-01  0.000000D+00  0.000000D+00
     23   0.000000D+00  0.000000D+00  0.000000D+00  0.404997D-01  0.000000D+00
     24   0.000000D+00  0.000000D+00  0.000000D+00  0.000000D+00  0.265712D-03
     25   0.000000D+00  0.000000D+00  0.000000D+00  0.000000D+00  0.165531D-02
     26   0.000000D+00  0.000000D+00  0.000000D+00  0.000000D+00  0.000000D+00
     27   0.000000D+00  0.000000D+00  0.000000D+00  0.000000D+00  0.000000D+00
     28   0.000000D+00  0.000000D+00  0.000000D+00  0.000000D+00  0.501541D-03
     29   0.000000D+00  0.000000D+00  0.000000D+00  0.000000D+00  0.101875D-01
     30   0.000000D+00  0.000000D+00  0.000000D+00  0.000000D+00  0.000000D+00
     31   0.000000D+00  0.000000D+00  0.000000D+00  0.000000D+00  0.000000D+00
     32   0.000000D+00  0.000000D+00  0.000000D+00  0.000000D+00  0.798616D-02
     33   0.000000D+00  0.000000D+00  0.000000D+00  0.000000D+00  0.346534D-02
     34   0.000000D+00  0.000000D+00  0.000000D+00  0.000000D+00  0.000000D+00
     35   0.000000D+00  0.000000D+00  0.000000D+00  0.000000D+00  0.000000D+00
     36   0.000000D+00  0.000000D+00  0.000000D+00  0.000000D+00  0.000000D+00
     37   0.000000D+00  0.000000D+00  0.000000D+00  0.000000D+00  0.000000D+00
     38   0.000000D+00  0.000000D+00  0.000000D+00  0.000000D+00  0.145921D+00
     39  -0.152064D-02  0.000000D+00  0.000000D+00  0.000000D+00  0.000000D+00
     40   0.000000D+00 -0.152064D-02  0.000000D+00  0.000000D+00  0.000000D+00
     41   0.000000D+00  0.000000D+00  0.000000D+00  0.000000D+00  0.201178D+00
     42   0.000000D+00  0.000000D+00  0.000000D+00  0.000000D+00  0.389720D+00
     43  -0.101670D-01  0.000000D+00  0.000000D+00  0.000000D+00  0.000000D+00
     44   0.000000D+00 -0.101670D-01  0.000000D+00  0.000000D+00  0.000000D+00
     45   0.000000D+00  0.000000D+00  0.204758D-02  0.000000D+00  0.000000D+00
     46   0.000000D+00  0.000000D+00  0.000000D+00  0.204758D-02  0.000000D+00
                16            17            18            19            20 
      1   0.000000D+00  0.000000D+00  0.000000D+00  0.000000D+00  0.000000D+00
      2   0.000000D+00  0.000000D+00  0.000000D+00  0.000000D+00  0.000000D+00
      3   0.149285D-01  0.000000D+00  0.000000D+00  0.000000D+00  0.000000D+00
      4   0.000000D+00  0.149285D-01  0.000000D+00  0.000000D+00  0.000000D+00
      5   0.000000D+00  0.000000D+00  0.149285D-01  0.000000D+00  0.000000D+00
      6   0.000000D+00  0.000000D+00  0.000000D+00  0.000000D+00  0.000000D+00
      7   0.218356D+00  0.000000D+00  0.000000D+00  0.000000D+00  0.000000D+00
      8   0.000000D+00  0.218356D+00  0.000000D+00  0.000000D+00  0.000000D+00
      9   0.000000D+00  0.000000D+00  0.218356D+00  0.000000D+00  0.000000D+00
     10   0.000000D+00  0.000000D+00  0.000000D+00  0.404997D-01  0.000000D+00
     11   0.000000D+00  0.000000D+00  0.000000D+00  0.000000D+00  0.404997D-01
     12   0.000000D+00  0.000000D+00  0.000000D+00  0.000000D+00  0.000000D+00
     13   0.000000D+00  0.000000D+00  0.000000D+00  0.000000D+00  0.000000D+00
     14   0.000000D+00  0.000000D+00  0.000000D+00  0.000000D+00  0.000000D+00
     15   0.000000D+00  0.000000D+00  0.000000D+00  0.000000D+00  0.000000D+00
     16   0.100000D+01  0.000000D+00  0.000000D+00  0.000000D+00  0.000000D+00
     17   0.000000D+00  0.100000D+01  0.000000D+00  0.000000D+00  0.000000D+00
     18   0.000000D+00  0.000000D+00  0.100000D+01  0.000000D+00  0.000000D+00
     19   0.000000D+00  0.000000D+00  0.000000D+00  0.100000D+01  0.000000D+00
     20   0.000000D+00  0.000000D+00  0.000000D+00  0.000000D+00  0.100000D+01
     21   0.000000D+00  0.000000D+00  0.000000D+00  0.000000D+00  0.000000D+00
     22   0.000000D+00  0.000000D+00  0.000000D+00  0.000000D+00  0.000000D+00
     23   0.000000D+00  0.000000D+00  0.000000D+00  0.000000D+00  0.000000D+00
     24   0.000000D+00  0.000000D+00 -0.537904D-03  0.399451D-02  0.000000D+00
     25   0.000000D+00  0.000000D+00 -0.332266D-02  0.241092D-01  0.000000D+00
     26   0.120449D-03  0.000000D+00  0.000000D+00  0.000000D+00 -0.151710D-02
     27   0.000000D+00  0.120449D-03  0.000000D+00  0.000000D+00  0.000000D+00
     28   0.000000D+00  0.000000D+00 -0.906502D-03  0.373653D-02  0.000000D+00
     29   0.000000D+00  0.000000D+00 -0.193188D-01  0.117881D+00  0.000000D+00
     30   0.195601D-02  0.000000D+00  0.000000D+00  0.000000D+00 -0.212350D-01
     31   0.000000D+00  0.195601D-02  0.000000D+00  0.000000D+00  0.000000D+00
     32   0.000000D+00  0.000000D+00 -0.138766D-01  0.484556D-01  0.000000D+00
     33   0.000000D+00  0.000000D+00 -0.561335D-02  0.100601D-01  0.000000D+00
     34   0.152064D-02  0.000000D+00  0.000000D+00  0.000000D+00 -0.101670D-01
     35   0.000000D+00  0.152064D-02  0.000000D+00  0.000000D+00  0.000000D+00
     36   0.000000D+00  0.000000D+00  0.000000D+00  0.000000D+00  0.000000D+00
     37   0.000000D+00  0.000000D+00  0.000000D+00  0.000000D+00  0.000000D+00
     38   0.000000D+00  0.000000D+00 -0.201178D+00  0.389720D+00  0.000000D+00
     39   0.650526D-01  0.000000D+00  0.000000D+00  0.000000D+00 -0.270163D+00
     40   0.000000D+00  0.650526D-01  0.000000D+00  0.000000D+00  0.000000D+00
     41   0.000000D+00  0.000000D+00 -0.264038D+00  0.308374D+00  0.000000D+00
     42   0.000000D+00  0.000000D+00 -0.308374D+00  0.235451D-01  0.000000D+00
     43   0.270163D+00  0.000000D+00  0.000000D+00  0.000000D+00 -0.444927D+00
     44   0.000000D+00  0.270163D+00  0.000000D+00  0.000000D+00  0.000000D+00
     45   0.000000D+00  0.000000D+00  0.000000D+00  0.000000D+00  0.000000D+00
     46   0.000000D+00  0.000000D+00  0.000000D+00  0.000000D+00  0.000000D+00
                21            22            23            24            25 
      1   0.000000D+00  0.000000D+00  0.000000D+00  0.000000D+00  0.000000D+00
      2   0.000000D+00  0.000000D+00  0.000000D+00  0.000000D+00  0.000000D+00
      3   0.000000D+00  0.000000D+00  0.000000D+00  0.000000D+00  0.000000D+00
      4   0.000000D+00  0.000000D+00  0.000000D+00  0.000000D+00  0.000000D+00
      5   0.000000D+00  0.000000D+00  0.000000D+00  0.000000D+00  0.000000D+00
      6   0.000000D+00  0.000000D+00  0.000000D+00  0.000000D+00  0.000000D+00
      7   0.000000D+00  0.000000D+00  0.000000D+00  0.000000D+00  0.000000D+00
      8   0.000000D+00  0.000000D+00  0.000000D+00  0.000000D+00  0.000000D+00
      9   0.000000D+00  0.000000D+00  0.000000D+00  0.000000D+00  0.000000D+00
     10   0.000000D+00  0.000000D+00  0.000000D+00  0.000000D+00  0.000000D+00
     11   0.000000D+00  0.000000D+00  0.000000D+00  0.000000D+00  0.000000D+00
     12   0.404997D-01  0.000000D+00  0.000000D+00  0.000000D+00  0.000000D+00
     13   0.000000D+00  0.404997D-01  0.000000D+00  0.000000D+00  0.000000D+00
     14   0.000000D+00  0.000000D+00  0.404997D-01  0.000000D+00  0.000000D+00
     15   0.000000D+00  0.000000D+00  0.000000D+00  0.265712D-03  0.165531D-02
     16   0.000000D+00  0.000000D+00  0.000000D+00  0.000000D+00  0.000000D+00
     17   0.000000D+00  0.000000D+00  0.000000D+00  0.000000D+00  0.000000D+00
     18   0.000000D+00  0.000000D+00  0.000000D+00 -0.537904D-03 -0.332266D-02
     19   0.000000D+00  0.000000D+00  0.000000D+00  0.399451D-02  0.241092D-01
     20   0.000000D+00  0.000000D+00  0.000000D+00  0.000000D+00  0.000000D+00
     21   0.100000D+01  0.000000D+00  0.000000D+00  0.000000D+00  0.000000D+00
     22   0.000000D+00  0.100000D+01  0.000000D+00  0.000000D+00  0.000000D+00
     23   0.000000D+00  0.000000D+00  0.100000D+01  0.000000D+00  0.000000D+00
     24   0.000000D+00  0.000000D+00  0.000000D+00  0.100000D+01  0.406589D+00
     25   0.000000D+00  0.000000D+00  0.000000D+00  0.406589D+00  0.100000D+01
     26   0.000000D+00  0.000000D+00  0.000000D+00  0.000000D+00  0.000000D+00
     27  -0.151710D-02  0.000000D+00  0.000000D+00  0.000000D+00  0.000000D+00
     28   0.000000D+00  0.000000D+00  0.000000D+00  0.000000D+00  0.000000D+00
     29   0.000000D+00  0.000000D+00  0.000000D+00  0.319944D-01  0.362204D+00
     30   0.000000D+00  0.000000D+00  0.000000D+00  0.000000D+00  0.000000D+00
     31  -0.212350D-01  0.000000D+00  0.000000D+00  0.000000D+00  0.000000D+00
     32   0.000000D+00  0.000000D+00  0.000000D+00  0.000000D+00  0.000000D+00
     33   0.000000D+00  0.000000D+00  0.000000D+00  0.000000D+00  0.000000D+00
     34   0.000000D+00  0.000000D+00  0.000000D+00  0.000000D+00  0.000000D+00
     35  -0.101670D-01  0.000000D+00  0.000000D+00  0.000000D+00  0.000000D+00
     36   0.000000D+00  0.204758D-02  0.000000D+00  0.000000D+00  0.000000D+00
     37   0.000000D+00  0.000000D+00  0.204758D-02  0.000000D+00  0.000000D+00
     38   0.000000D+00  0.000000D+00  0.000000D+00 -0.396207D-03  0.612395D-02
     39   0.000000D+00  0.000000D+00  0.000000D+00  0.000000D+00  0.000000D+00
     40  -0.270163D+00  0.000000D+00  0.000000D+00  0.000000D+00  0.000000D+00
     41   0.000000D+00  0.000000D+00  0.000000D+00  0.000000D+00  0.000000D+00
     42   0.000000D+00  0.000000D+00  0.000000D+00  0.000000D+00  0.000000D+00
     43   0.000000D+00  0.000000D+00  0.000000D+00  0.000000D+00  0.000000D+00
     44  -0.444927D+00  0.000000D+00  0.000000D+00  0.000000D+00  0.000000D+00
     45   0.000000D+00  0.206103D+00  0.000000D+00  0.000000D+00  0.000000D+00
     46   0.000000D+00  0.000000D+00  0.206103D+00  0.000000D+00  0.000000D+00
                26            27            28            29            30 
      1   0.000000D+00  0.000000D+00  0.000000D+00  0.000000D+00  0.000000D+00
      2   0.000000D+00  0.000000D+00  0.000000D+00  0.000000D+00  0.000000D+00
      3   0.000000D+00  0.000000D+00  0.000000D+00  0.000000D+00  0.000000D+00
      4   0.000000D+00  0.000000D+00  0.000000D+00  0.000000D+00  0.000000D+00
      5   0.000000D+00  0.000000D+00  0.000000D+00  0.000000D+00  0.000000D+00
      6   0.000000D+00  0.000000D+00  0.000000D+00  0.000000D+00  0.000000D+00
      7   0.000000D+00  0.000000D+00  0.000000D+00  0.000000D+00  0.000000D+00
      8   0.000000D+00  0.000000D+00  0.000000D+00  0.000000D+00  0.000000D+00
      9   0.000000D+00  0.000000D+00  0.000000D+00  0.000000D+00  0.000000D+00
     10   0.000000D+00  0.000000D+00  0.000000D+00  0.000000D+00  0.000000D+00
     11   0.000000D+00  0.000000D+00  0.000000D+00  0.000000D+00  0.000000D+00
     12   0.000000D+00  0.000000D+00  0.000000D+00  0.000000D+00  0.000000D+00
     13   0.000000D+00  0.000000D+00  0.000000D+00  0.000000D+00  0.000000D+00
     14   0.000000D+00  0.000000D+00  0.000000D+00  0.000000D+00  0.000000D+00
     15   0.000000D+00  0.000000D+00  0.501541D-03  0.101875D-01  0.000000D+00
     16   0.120449D-03  0.000000D+00  0.000000D+00  0.000000D+00  0.195601D-02
     17   0.000000D+00  0.120449D-03  0.000000D+00  0.000000D+00  0.000000D+00
     18   0.000000D+00  0.000000D+00 -0.906502D-03 -0.193188D-01  0.000000D+00
     19   0.000000D+00  0.000000D+00  0.373653D-02  0.117881D+00  0.000000D+00
     20  -0.151710D-02  0.000000D+00  0.000000D+00  0.000000D+00 -0.212350D-01
     21   0.000000D+00 -0.151710D-02  0.000000D+00  0.000000D+00  0.000000D+00
     22   0.000000D+00  0.000000D+00  0.000000D+00  0.000000D+00  0.000000D+00
     23   0.000000D+00  0.000000D+00  0.000000D+00  0.000000D+00  0.000000D+00
     24   0.000000D+00  0.000000D+00  0.000000D+00  0.319944D-01  0.000000D+00
     25   0.000000D+00  0.000000D+00  0.000000D+00  0.362204D+00  0.000000D+00
     26   0.100000D+01  0.000000D+00  0.000000D+00  0.000000D+00  0.375020D+00
     27   0.000000D+00  0.100000D+01  0.000000D+00  0.000000D+00  0.000000D+00
     28   0.000000D+00  0.000000D+00  0.100000D+01  0.000000D+00  0.000000D+00
     29   0.000000D+00  0.000000D+00  0.000000D+00  0.100000D+01  0.000000D+00
     30   0.375020D+00  0.000000D+00  0.000000D+00  0.000000D+00  0.100000D+01
     31   0.000000D+00  0.375020D+00  0.000000D+00  0.000000D+00  0.000000D+00
     32   0.000000D+00  0.000000D+00  0.375020D+00  0.000000D+00  0.000000D+00
     33   0.000000D+00  0.000000D+00  0.000000D+00  0.000000D+00  0.000000D+00
     34   0.000000D+00  0.000000D+00  0.000000D+00  0.000000D+00  0.000000D+00
     35   0.000000D+00  0.000000D+00  0.000000D+00  0.000000D+00  0.000000D+00
     36   0.000000D+00  0.000000D+00  0.000000D+00  0.000000D+00  0.000000D+00
     37   0.000000D+00  0.000000D+00  0.000000D+00  0.000000D+00  0.000000D+00
     38   0.000000D+00  0.000000D+00  0.000000D+00  0.201919D+00  0.000000D+00
     39   0.149285D-01  0.000000D+00  0.000000D+00  0.000000D+00  0.218356D+00
     40   0.000000D+00  0.149285D-01  0.000000D+00  0.000000D+00  0.000000D+00
     41   0.000000D+00  0.000000D+00  0.149285D-01  0.000000D+00  0.000000D+00
     42   0.000000D+00  0.000000D+00  0.000000D+00  0.000000D+00  0.000000D+00
     43   0.000000D+00  0.000000D+00  0.000000D+00  0.000000D+00  0.000000D+00
     44   0.000000D+00  0.000000D+00  0.000000D+00  0.000000D+00  0.000000D+00
     45   0.000000D+00  0.000000D+00  0.000000D+00  0.000000D+00  0.000000D+00
     46   0.000000D+00  0.000000D+00  0.000000D+00  0.000000D+00  0.000000D+00
                31            32            33            34            35 
      1   0.000000D+00  0.000000D+00  0.000000D+00  0.000000D+00  0.000000D+00
      2   0.000000D+00  0.000000D+00  0.000000D+00  0.000000D+00  0.000000D+00
      3   0.000000D+00  0.000000D+00  0.000000D+00  0.000000D+00  0.000000D+00
      4   0.000000D+00  0.000000D+00  0.000000D+00  0.000000D+00  0.000000D+00
      5   0.000000D+00  0.000000D+00  0.000000D+00  0.000000D+00  0.000000D+00
      6   0.000000D+00  0.000000D+00  0.000000D+00  0.000000D+00  0.000000D+00
      7   0.000000D+00  0.000000D+00  0.000000D+00  0.000000D+00  0.000000D+00
      8   0.000000D+00  0.000000D+00  0.000000D+00  0.000000D+00  0.000000D+00
      9   0.000000D+00  0.000000D+00  0.000000D+00  0.000000D+00  0.000000D+00
     10   0.000000D+00  0.000000D+00  0.000000D+00  0.000000D+00  0.000000D+00
     11   0.000000D+00  0.000000D+00  0.000000D+00  0.000000D+00  0.000000D+00
     12   0.000000D+00  0.000000D+00  0.000000D+00  0.000000D+00  0.000000D+00
     13   0.000000D+00  0.000000D+00  0.000000D+00  0.000000D+00  0.000000D+00
     14   0.000000D+00  0.000000D+00  0.000000D+00  0.000000D+00  0.000000D+00
     15   0.000000D+00  0.798616D-02  0.346534D-02  0.000000D+00  0.000000D+00
     16   0.000000D+00  0.000000D+00  0.000000D+00  0.152064D-02  0.000000D+00
     17   0.195601D-02  0.000000D+00  0.000000D+00  0.000000D+00  0.152064D-02
     18   0.000000D+00 -0.138766D-01 -0.561335D-02  0.000000D+00  0.000000D+00
     19   0.000000D+00  0.484556D-01  0.100601D-01  0.000000D+00  0.000000D+00
     20   0.000000D+00  0.000000D+00  0.000000D+00 -0.101670D-01  0.000000D+00
     21  -0.212350D-01  0.000000D+00  0.000000D+00  0.000000D+00 -0.101670D-01
     22   0.000000D+00  0.000000D+00  0.000000D+00  0.000000D+00  0.000000D+00
     23   0.000000D+00  0.000000D+00  0.000000D+00  0.000000D+00  0.000000D+00
     24   0.000000D+00  0.000000D+00  0.000000D+00  0.000000D+00  0.000000D+00
     25   0.000000D+00  0.000000D+00  0.000000D+00  0.000000D+00  0.000000D+00
     26   0.000000D+00  0.000000D+00  0.000000D+00  0.000000D+00  0.000000D+00
     27   0.375020D+00  0.000000D+00  0.000000D+00  0.000000D+00  0.000000D+00
     28   0.000000D+00  0.375020D+00  0.000000D+00  0.000000D+00  0.000000D+00
     29   0.000000D+00  0.000000D+00  0.000000D+00  0.000000D+00  0.000000D+00
     30   0.000000D+00  0.000000D+00  0.000000D+00  0.000000D+00  0.000000D+00
     31   0.100000D+01  0.000000D+00  0.000000D+00  0.000000D+00  0.000000D+00
     32   0.000000D+00  0.100000D+01  0.000000D+00  0.000000D+00  0.000000D+00
     33   0.000000D+00  0.000000D+00  0.100000D+01  0.000000D+00  0.000000D+00
     34   0.000000D+00  0.000000D+00  0.000000D+00  0.100000D+01  0.000000D+00
     35   0.000000D+00  0.000000D+00  0.000000D+00  0.000000D+00  0.100000D+01
     36   0.000000D+00  0.000000D+00  0.000000D+00  0.000000D+00  0.000000D+00
     37   0.000000D+00  0.000000D+00  0.000000D+00  0.000000D+00  0.000000D+00
     38   0.000000D+00  0.000000D+00  0.000000D+00  0.000000D+00  0.000000D+00
     39   0.000000D+00  0.000000D+00  0.000000D+00  0.000000D+00  0.000000D+00
     40   0.218356D+00  0.000000D+00  0.000000D+00  0.000000D+00  0.000000D+00
     41   0.000000D+00  0.218356D+00  0.000000D+00  0.000000D+00  0.000000D+00
     42   0.000000D+00  0.000000D+00  0.404997D-01  0.000000D+00  0.000000D+00
     43   0.000000D+00  0.000000D+00  0.000000D+00  0.404997D-01  0.000000D+00
     44   0.000000D+00  0.000000D+00  0.000000D+00  0.000000D+00  0.404997D-01
     45   0.000000D+00  0.000000D+00  0.000000D+00  0.000000D+00  0.000000D+00
     46   0.000000D+00  0.000000D+00  0.000000D+00  0.000000D+00  0.000000D+00
                36            37            38            39            40 
      1   0.000000D+00  0.000000D+00  0.265712D-03  0.000000D+00  0.000000D+00
      2   0.000000D+00  0.000000D+00  0.165531D-02  0.000000D+00  0.000000D+00
      3   0.000000D+00  0.000000D+00  0.000000D+00  0.120449D-03  0.000000D+00
      4   0.000000D+00  0.000000D+00  0.000000D+00  0.000000D+00  0.120449D-03
      5   0.000000D+00  0.000000D+00 -0.501541D-03  0.000000D+00  0.000000D+00
      6   0.000000D+00  0.000000D+00  0.101875D-01  0.000000D+00  0.000000D+00
      7   0.000000D+00  0.000000D+00  0.000000D+00  0.195601D-02  0.000000D+00
      8   0.000000D+00  0.000000D+00  0.000000D+00  0.000000D+00  0.195601D-02
      9   0.000000D+00  0.000000D+00 -0.798616D-02  0.000000D+00  0.000000D+00
     10   0.000000D+00  0.000000D+00  0.346534D-02  0.000000D+00  0.000000D+00
     11   0.000000D+00  0.000000D+00  0.000000D+00 -0.152064D-02  0.000000D+00
     12   0.000000D+00  0.000000D+00  0.000000D+00  0.000000D+00 -0.152064D-02
     13   0.000000D+00  0.000000D+00  0.000000D+00  0.000000D+00  0.000000D+00
     14   0.000000D+00  0.000000D+00  0.000000D+00  0.000000D+00  0.000000D+00
     15   0.000000D+00  0.000000D+00  0.145921D+00  0.000000D+00  0.000000D+00
     16   0.000000D+00  0.000000D+00  0.000000D+00  0.650526D-01  0.000000D+00
     17   0.000000D+00  0.000000D+00  0.000000D+00  0.000000D+00  0.650526D-01
     18   0.000000D+00  0.000000D+00 -0.201178D+00  0.000000D+00  0.000000D+00
     19   0.000000D+00  0.000000D+00  0.389720D+00  0.000000D+00  0.000000D+00
     20   0.000000D+00  0.000000D+00  0.000000D+00 -0.270163D+00  0.000000D+00
     21   0.000000D+00  0.000000D+00  0.000000D+00  0.000000D+00 -0.270163D+00
     22   0.204758D-02  0.000000D+00  0.000000D+00  0.000000D+00  0.000000D+00
     23   0.000000D+00  0.204758D-02  0.000000D+00  0.000000D+00  0.000000D+00
     24   0.000000D+00  0.000000D+00 -0.396207D-03  0.000000D+00  0.000000D+00
     25   0.000000D+00  0.000000D+00  0.612395D-02  0.000000D+00  0.000000D+00
     26   0.000000D+00  0.000000D+00  0.000000D+00  0.149285D-01  0.000000D+00
     27   0.000000D+00  0.000000D+00  0.000000D+00  0.000000D+00  0.149285D-01
     28   0.000000D+00  0.000000D+00  0.000000D+00  0.000000D+00  0.000000D+00
     29   0.000000D+00  0.000000D+00  0.201919D+00  0.000000D+00  0.000000D+00
     30   0.000000D+00  0.000000D+00  0.000000D+00  0.218356D+00  0.000000D+00
     31   0.000000D+00  0.000000D+00  0.000000D+00  0.000000D+00  0.218356D+00
     32   0.000000D+00  0.000000D+00  0.000000D+00  0.000000D+00  0.000000D+00
     33   0.000000D+00  0.000000D+00  0.000000D+00  0.000000D+00  0.000000D+00
     34   0.000000D+00  0.000000D+00  0.000000D+00  0.000000D+00  0.000000D+00
     35   0.000000D+00  0.000000D+00  0.000000D+00  0.000000D+00  0.000000D+00
     36   0.100000D+01  0.000000D+00  0.000000D+00  0.000000D+00  0.000000D+00
     37   0.000000D+00  0.100000D+01  0.000000D+00  0.000000D+00  0.000000D+00
     38   0.000000D+00  0.000000D+00  0.100000D+01  0.000000D+00  0.000000D+00
     39   0.000000D+00  0.000000D+00  0.000000D+00  0.100000D+01  0.000000D+00
     40   0.000000D+00  0.000000D+00  0.000000D+00  0.000000D+00  0.100000D+01
     41   0.000000D+00  0.000000D+00  0.000000D+00  0.000000D+00  0.000000D+00
     42   0.000000D+00  0.000000D+00  0.000000D+00  0.000000D+00  0.000000D+00
     43   0.000000D+00  0.000000D+00  0.000000D+00  0.000000D+00  0.000000D+00
     44   0.000000D+00  0.000000D+00  0.000000D+00  0.000000D+00  0.000000D+00
     45   0.404997D-01  0.000000D+00  0.000000D+00  0.000000D+00  0.000000D+00
     46   0.000000D+00  0.404997D-01  0.000000D+00  0.000000D+00  0.000000D+00
                41            42            43            44            45 
      1   0.537904D-03  0.399451D-02  0.000000D+00  0.000000D+00  0.000000D+00
      2   0.332266D-02  0.241092D-01  0.000000D+00  0.000000D+00  0.000000D+00
      3   0.000000D+00  0.000000D+00  0.151710D-02  0.000000D+00  0.000000D+00
      4   0.000000D+00  0.000000D+00  0.000000D+00  0.151710D-02  0.000000D+00
      5  -0.906502D-03 -0.373653D-02  0.000000D+00  0.000000D+00  0.000000D+00
      6   0.193188D-01  0.117881D+00  0.000000D+00  0.000000D+00  0.000000D+00
      7   0.000000D+00  0.000000D+00  0.212350D-01  0.000000D+00  0.000000D+00
      8   0.000000D+00  0.000000D+00  0.000000D+00  0.212350D-01  0.000000D+00
      9  -0.138766D-01 -0.484556D-01  0.000000D+00  0.000000D+00  0.000000D+00
     10   0.561335D-02  0.100601D-01  0.000000D+00  0.000000D+00  0.000000D+00
     11   0.000000D+00  0.000000D+00 -0.101670D-01  0.000000D+00  0.000000D+00
     12   0.000000D+00  0.000000D+00  0.000000D+00 -0.101670D-01  0.000000D+00
     13   0.000000D+00  0.000000D+00  0.000000D+00  0.000000D+00  0.204758D-02
     14   0.000000D+00  0.000000D+00  0.000000D+00  0.000000D+00  0.000000D+00
     15   0.201178D+00  0.389720D+00  0.000000D+00  0.000000D+00  0.000000D+00
     16   0.000000D+00  0.000000D+00  0.270163D+00  0.000000D+00  0.000000D+00
     17   0.000000D+00  0.000000D+00  0.000000D+00  0.270163D+00  0.000000D+00
     18  -0.264038D+00 -0.308374D+00  0.000000D+00  0.000000D+00  0.000000D+00
     19   0.308374D+00  0.235451D-01  0.000000D+00  0.000000D+00  0.000000D+00
     20   0.000000D+00  0.000000D+00 -0.444927D+00  0.000000D+00  0.000000D+00
     21   0.000000D+00  0.000000D+00  0.000000D+00 -0.444927D+00  0.000000D+00
     22   0.000000D+00  0.000000D+00  0.000000D+00  0.000000D+00  0.206103D+00
     23   0.000000D+00  0.000000D+00  0.000000D+00  0.000000D+00  0.000000D+00
     24   0.000000D+00  0.000000D+00  0.000000D+00  0.000000D+00  0.000000D+00
     25   0.000000D+00  0.000000D+00  0.000000D+00  0.000000D+00  0.000000D+00
     26   0.000000D+00  0.000000D+00  0.000000D+00  0.000000D+00  0.000000D+00
     27   0.000000D+00  0.000000D+00  0.000000D+00  0.000000D+00  0.000000D+00
     28   0.149285D-01  0.000000D+00  0.000000D+00  0.000000D+00  0.000000D+00
     29   0.000000D+00  0.000000D+00  0.000000D+00  0.000000D+00  0.000000D+00
     30   0.000000D+00  0.000000D+00  0.000000D+00  0.000000D+00  0.000000D+00
     31   0.000000D+00  0.000000D+00  0.000000D+00  0.000000D+00  0.000000D+00
     32   0.218356D+00  0.000000D+00  0.000000D+00  0.000000D+00  0.000000D+00
     33   0.000000D+00  0.404997D-01  0.000000D+00  0.000000D+00  0.000000D+00
     34   0.000000D+00  0.000000D+00  0.404997D-01  0.000000D+00  0.000000D+00
     35   0.000000D+00  0.000000D+00  0.000000D+00  0.404997D-01  0.000000D+00
     36   0.000000D+00  0.000000D+00  0.000000D+00  0.000000D+00  0.404997D-01
     37   0.000000D+00  0.000000D+00  0.000000D+00  0.000000D+00  0.000000D+00
     38   0.000000D+00  0.000000D+00  0.000000D+00  0.000000D+00  0.000000D+00
     39   0.000000D+00  0.000000D+00  0.000000D+00  0.000000D+00  0.000000D+00
     40   0.000000D+00  0.000000D+00  0.000000D+00  0.000000D+00  0.000000D+00
     41   0.100000D+01  0.000000D+00  0.000000D+00  0.000000D+00  0.000000D+00
     42   0.000000D+00  0.100000D+01  0.000000D+00  0.000000D+00  0.000000D+00
     43   0.000000D+00  0.000000D+00  0.100000D+01  0.000000D+00  0.000000D+00
     44   0.000000D+00  0.000000D+00  0.000000D+00  0.100000D+01  0.000000D+00
     45   0.000000D+00  0.000000D+00  0.000000D+00  0.000000D+00  0.100000D+01
     46   0.000000D+00  0.000000D+00  0.000000D+00  0.000000D+00  0.000000D+00
                46 
      1   0.000000D+00
      2   0.000000D+00
      3   0.000000D+00
      4   0.000000D+00
      5   0.000000D+00
      6   0.000000D+00
      7   0.000000D+00
      8   0.000000D+00
      9   0.000000D+00
     10   0.000000D+00
     11   0.000000D+00
     12   0.000000D+00
     13   0.000000D+00
     14   0.204758D-02
     15   0.000000D+00
     16   0.000000D+00
     17   0.000000D+00
     18   0.000000D+00
     19   0.000000D+00
     20   0.000000D+00
     21   0.000000D+00
     22   0.000000D+00
     23   0.206103D+00
     24   0.000000D+00
     25   0.000000D+00
     26   0.000000D+00
     27   0.000000D+00
     28   0.000000D+00
     29   0.000000D+00
     30   0.000000D+00
     31   0.000000D+00
     32   0.000000D+00
     33   0.000000D+00
     34   0.000000D+00
     35   0.000000D+00
     36   0.000000D+00
     37   0.404997D-01
     38   0.000000D+00
     39   0.000000D+00
     40   0.000000D+00
     41   0.000000D+00
     42   0.000000D+00
     43   0.000000D+00
     44   0.000000D+00
     45   0.000000D+00
     46   0.100000D+01
 Entering OneElI...
 Overlap between basis sets.
 Requested accuracy = 0.1000D-12
 PrsmSu:  NPrtUS=   1 ThrOK=F IAlg=1 NPAlg=1 LenDen=           0.
 Prism:   IPart=     0 DynPar=F LinDyn=F Incr=          11.
 PRISM was handed  1608218250 working-precision words and  1176 shell-pairs
 IPart=  0 NShTot=        1176 NBatch=          94 AvBLen=        12.5
 PrSmSu:  NxtVal=             12.
 CnvPC2: ToCart=F DoDens=F IPureD=0 IPureF=0.
 Transformed matrix in CnvPC2: 
                 1             2             3             4             5 
      1   0.999797D+00  0.414271D+00  0.000000D+00  0.000000D+00  0.000000D+00
      2   0.291845D+00  0.988280D+00  0.000000D+00  0.000000D+00  0.000000D+00
      3   0.000000D+00  0.000000D+00  0.999269D+00  0.000000D+00  0.000000D+00
      4   0.000000D+00  0.000000D+00  0.000000D+00  0.999269D+00  0.000000D+00
      5   0.000000D+00  0.000000D+00  0.000000D+00  0.000000D+00  0.999269D+00
      6   0.140811D-01  0.332015D+00  0.000000D+00  0.000000D+00  0.000000D+00
      7   0.000000D+00  0.000000D+00  0.360400D+00  0.000000D+00  0.000000D+00
      8   0.000000D+00  0.000000D+00  0.000000D+00  0.360400D+00  0.000000D+00
      9   0.000000D+00  0.000000D+00  0.000000D+00  0.000000D+00  0.360400D+00
     10   0.000000D+00  0.000000D+00  0.000000D+00  0.000000D+00  0.000000D+00
     11   0.000000D+00  0.000000D+00  0.000000D+00  0.000000D+00  0.000000D+00
     12   0.000000D+00  0.000000D+00  0.000000D+00  0.000000D+00  0.000000D+00
     13   0.000000D+00  0.000000D+00  0.000000D+00  0.000000D+00  0.000000D+00
     14   0.000000D+00  0.000000D+00  0.000000D+00  0.000000D+00  0.000000D+00
     15   0.122173D-03  0.129367D-01  0.000000D+00  0.000000D+00  0.000000D+00
     16   0.997933D-02  0.598910D-01  0.000000D+00  0.000000D+00  0.000000D+00
     17   0.494118D-02  0.298084D-01  0.000000D+00  0.000000D+00  0.000000D+00
     18   0.000000D+00  0.000000D+00  0.111528D-01  0.000000D+00  0.000000D+00
     19   0.000000D+00  0.000000D+00  0.000000D+00  0.111528D-01  0.000000D+00
     20   0.000000D+00  0.000000D+00  0.000000D+00  0.000000D+00  0.111528D-01
     21   0.000000D+00  0.000000D+00  0.276871D-02  0.000000D+00  0.000000D+00
     22   0.000000D+00  0.000000D+00  0.000000D+00  0.276871D-02  0.000000D+00
     23   0.000000D+00  0.000000D+00  0.000000D+00  0.000000D+00  0.276871D-02
     24   0.000000D+00  0.000000D+00  0.936672D-03  0.000000D+00  0.000000D+00
     25   0.000000D+00  0.000000D+00  0.000000D+00  0.936672D-03  0.000000D+00
     26   0.000000D+00  0.000000D+00  0.000000D+00  0.000000D+00  0.936672D-03
     27   0.138765D+00  0.646375D+00  0.000000D+00  0.000000D+00  0.000000D+00
     28   0.941716D-01  0.485019D+00  0.000000D+00  0.000000D+00  0.000000D+00
     29   0.635203D-01  0.348743D+00  0.000000D+00  0.000000D+00  0.000000D+00
     30   0.426901D-01  0.243791D+00  0.000000D+00  0.000000D+00  0.000000D+00
     31   0.286291D-01  0.167423D+00  0.000000D+00  0.000000D+00  0.000000D+00
     32   0.191751D-01  0.113735D+00  0.000000D+00  0.000000D+00  0.000000D+00
     33   0.000000D+00  0.000000D+00  0.305516D+00  0.000000D+00  0.000000D+00
     34   0.000000D+00  0.000000D+00  0.000000D+00  0.305516D+00  0.000000D+00
     35   0.000000D+00  0.000000D+00  0.000000D+00  0.000000D+00  0.305516D+00
     36   0.000000D+00  0.000000D+00  0.179683D+00  0.000000D+00  0.000000D+00
     37   0.000000D+00  0.000000D+00  0.000000D+00  0.179683D+00  0.000000D+00
     38   0.000000D+00  0.000000D+00  0.000000D+00  0.000000D+00  0.179683D+00
     39   0.000000D+00  0.000000D+00  0.999632D-01  0.000000D+00  0.000000D+00
     40   0.000000D+00  0.000000D+00  0.000000D+00  0.999632D-01  0.000000D+00
     41   0.000000D+00  0.000000D+00  0.000000D+00  0.000000D+00  0.999632D-01
     42   0.000000D+00  0.000000D+00  0.536214D-01  0.000000D+00  0.000000D+00
     43   0.000000D+00  0.000000D+00  0.000000D+00  0.536214D-01  0.000000D+00
     44   0.000000D+00  0.000000D+00  0.000000D+00  0.000000D+00  0.536214D-01
     45   0.000000D+00  0.000000D+00  0.281147D-01  0.000000D+00  0.000000D+00
     46   0.000000D+00  0.000000D+00  0.000000D+00  0.281147D-01  0.000000D+00
     47   0.000000D+00  0.000000D+00  0.000000D+00  0.000000D+00  0.281147D-01
     48   0.000000D+00  0.000000D+00  0.145385D-01  0.000000D+00  0.000000D+00
     49   0.000000D+00  0.000000D+00  0.000000D+00  0.145385D-01  0.000000D+00
     50   0.000000D+00  0.000000D+00  0.000000D+00  0.000000D+00  0.145385D-01
     51   0.000000D+00  0.000000D+00  0.000000D+00  0.000000D+00  0.000000D+00
     52   0.000000D+00  0.000000D+00  0.000000D+00  0.000000D+00  0.000000D+00
     53   0.000000D+00  0.000000D+00  0.000000D+00  0.000000D+00  0.000000D+00
     54   0.000000D+00  0.000000D+00  0.000000D+00  0.000000D+00  0.000000D+00
     55   0.000000D+00  0.000000D+00  0.000000D+00  0.000000D+00  0.000000D+00
     56   0.000000D+00  0.000000D+00  0.000000D+00  0.000000D+00  0.000000D+00
     57   0.000000D+00  0.000000D+00  0.000000D+00  0.000000D+00  0.000000D+00
     58   0.000000D+00  0.000000D+00  0.000000D+00  0.000000D+00  0.000000D+00
     59   0.000000D+00  0.000000D+00  0.000000D+00  0.000000D+00  0.000000D+00
     60   0.000000D+00  0.000000D+00  0.000000D+00  0.000000D+00  0.000000D+00
     61   0.000000D+00  0.000000D+00  0.000000D+00  0.000000D+00  0.000000D+00
     62   0.000000D+00  0.000000D+00  0.000000D+00  0.000000D+00  0.000000D+00
     63   0.000000D+00  0.000000D+00  0.000000D+00  0.000000D+00  0.000000D+00
     64   0.000000D+00  0.000000D+00  0.000000D+00  0.000000D+00  0.000000D+00
     65   0.000000D+00  0.000000D+00  0.000000D+00  0.000000D+00  0.000000D+00
     66   0.000000D+00  0.000000D+00  0.000000D+00  0.000000D+00  0.000000D+00
     67   0.000000D+00  0.000000D+00  0.000000D+00  0.000000D+00  0.000000D+00
     68   0.000000D+00  0.000000D+00  0.000000D+00  0.000000D+00  0.000000D+00
     69   0.000000D+00  0.000000D+00  0.000000D+00  0.000000D+00  0.000000D+00
     70   0.000000D+00  0.000000D+00  0.000000D+00  0.000000D+00  0.000000D+00
     71   0.000000D+00  0.000000D+00  0.000000D+00  0.000000D+00  0.000000D+00
     72   0.000000D+00  0.000000D+00  0.000000D+00  0.000000D+00  0.000000D+00
     73   0.000000D+00  0.000000D+00  0.000000D+00  0.000000D+00  0.000000D+00
     74   0.000000D+00  0.000000D+00  0.000000D+00  0.000000D+00  0.000000D+00
     75   0.000000D+00  0.000000D+00  0.000000D+00  0.000000D+00  0.000000D+00
     76   0.000000D+00  0.000000D+00  0.000000D+00  0.000000D+00  0.000000D+00
     77   0.000000D+00  0.000000D+00  0.000000D+00  0.000000D+00  0.000000D+00
     78   0.000000D+00  0.000000D+00  0.000000D+00  0.000000D+00  0.000000D+00
     79   0.000000D+00  0.000000D+00  0.000000D+00  0.000000D+00  0.000000D+00
     80   0.000000D+00  0.000000D+00  0.000000D+00  0.000000D+00  0.000000D+00
     81   0.000000D+00  0.000000D+00  0.000000D+00  0.000000D+00  0.000000D+00
     82   0.000000D+00  0.000000D+00  0.000000D+00  0.000000D+00  0.000000D+00
     83   0.000000D+00  0.000000D+00  0.000000D+00  0.000000D+00  0.000000D+00
     84   0.000000D+00  0.000000D+00  0.000000D+00  0.000000D+00  0.000000D+00
     85   0.000000D+00  0.000000D+00  0.000000D+00  0.000000D+00  0.000000D+00
[...]
   33    | -0.009266 -0.004636 -0.009266 -0.000181 -0.012209 -0.000131
   33    | -0.009266 -0.004636 -0.009266 -0.000181  0.000000 -0.000131
         |
   34    | -0.000592 -0.005571 -0.000672 -0.008809 -0.000181 -0.019820
   34    | -0.000592 -0.005571 -0.000672 -0.008809 -0.000181  0.000000
         |
   35    | -0.000181 -0.004636 -0.000181 -0.009266 -0.000065 -0.009266
   35    | -0.000181 -0.004636 -0.000181 -0.009266 -0.000065 -0.009266
         |

 AB - AA |     35
 BA - BB |     35
--------------------
   29    | -0.000131
   29    | -0.000131
         |
   30    | -0.001627
   30    | -0.001627
         |
   31    | -0.000131
   31    | -0.000131
         |
   32    | -0.002055
   32    | -0.002055
         |
   33    | -0.000037
   33    | -0.000037
         |
   34    | -0.002055
   34    | -0.002055
         |
   35    | -0.012209
   35    |  0.000000
         |

                     Sum of ab pair energies =    -0.216911 A.U.
                     Sum of ba pair energies =    -0.089557 A.U.
                     Sum of aa pair energies =    -0.042758 A.U.
                     Sum of bb pair energies =    -0.042758 A.U.

           Sum of intraorbital pair energies =    -0.127354 A.U.
           Sum of interorbital pair energies =    -0.264630 A.U.
                                                  ----------
                         Total pair energies =    -0.391984 A.U.

                         Single Excitations  =     0.000000 A.U.

                          Total second order =    -0.391984 A.U.

                         E2(CBS) - E2(Dir) =      -0.010001 A.U.

 E2(CBS)=      -0.396916 CBS-Int=       0.004932 OIii=       2.560967

 **********************************************************************

            Population analysis using the SCF density.

 **********************************************************************

 Orbital symmetries:
       Occupied  (SGG) (SGU) (SGG) (SGU) (SGG) (SGU) (PIG) (PIG)
                 (PIU) (PIU) (SGG) (SGU) (SGG) (SGU) (PIU) (PIU)
                 (PIG) (PIG) (SGG) (SGU) (PIU) (PIU) (PIG) (PIG)
                 (DLTG) (DLTG) (DLTU) (DLTU) (SGG) (SGU) (SGG)
                 (PIU) (PIU) (PIG) (PIG)
       Virtual   (SGU) (PIU) (PIU) (SGU) (SGG) (PIG) (PIG) (SGG)
                 (SGU) (DLTG) (DLTG) (SGG) (PIU) (PIU) (SGU) (PIU)
                 (PIU) (PIG) (PIG) (DLTU) (DLTU) (SGG) (PIG) (PIG)
                 (SGG) (SGU) (PIU) (PIU) (DLTG) (DLTG) (PHIU) (PHIU)
                 (DLTG) (DLTG) (SGG) (DLTU) (DLTU) (PHIG) (PHIG)
                 (SGU) (PIU) (PIU) (PIG) (PIG) (DLTU) (DLTU) (SGG)
                 (PIG) (PIG) (PIU) (PIU) (SGU) (SGU) (SGG) (?A)
                 (?A) (PIG) (PIG) (PHIU) (PHIU) (PIU) (PIU) (SGG)
                 (?B) (?B) (DLTG) (DLTG) (DLTG) (DLTG) (DLTU) (DLTU)
                 (PHIU) (PHIU) (PIG) (PIG) (PHIG) (PHIG) (SGG)
                 (DLTG) (DLTG) (SGU) (PIU) (PIU) (DLTU) (DLTU)
                 (PHIG) (PHIG) (SGU) (PIG) (PIG) (SGG) (SGU) (PIU)
                 (PIU) (DLTU) (DLTU) (SGU) (?A) (?A) (?C) (?C)
                 (PIU) (PIU) (SGG) (?D) (?D) (PIG) (PIG) (PHIU)
                 (PHIU) (SGG) (PIU) (PIU) (?B) (?B) (DLTG) (DLTG)
                 (PIG) (PIG) (DLTU) (DLTU) (SGG) (PHIU) (PHIU)
                 (?A) (?A) (SGU) (PHIG) (PHIG) (PIG) (PIG) (SGU)
                 (?B) (?B) (DLTG) (DLTG) (PIU) (PIU) (DLTG) (DLTG)
                 (SGG) (PHIG) (PHIG) (PIG) (PIG) (DLTU) (DLTU)
                 (PHIU) (PHIU) (DLTG) (DLTG) (PIU) (PIU) (PHIG)
                 (PHIG) (SGG) (SGU) (?C) (?C) (DLTU) (DLTU) (?E)
                 (?E) (SGU) (?A) (?A) (?F) (?F) (PIU) (PIU) (SGG)
                 (?D) (?D) (DLTU) (DLTU) (SGU) (PIG) (PIG) (SGG)
                 (PHIU) (PHIU) (?B) (?B) (PIU) (PIU) (PIG) (PIG)
                 (DLTG) (DLTG) (?A) (?A) (SGU) (?C) (?C) (PIU)
                 (PIU) (PHIU) (PHIU) (?D) (?D) (SGG) (DLTU) (DLTU)
                 (PHIG) (PHIG) (PIG) (PIG) (SGU) (?B) (?B) (PIU)
                 (PIU) (DLTG) (DLTG) (PIG) (PIG) (SGG) (PHIG) (PHIG)
                 (?A) (?A) (PHIU) (PHIU) (?B) (?B) (SGG) (PIG)
                 (PIG) (DLTU) (DLTU) (SGG) (SGU) (DLTG) (DLTG)
                 (SGU) (PHIG) (PHIG) (PIU) (PIU) (PHIU) (PHIU)
                 (DLTU) (DLTU) (PHIG) (PHIG) (PIG) (PIG) (DLTG)
                 (DLTG) (DLTG) (DLTG) (PIU) (PIU) (SGU) (SGG) (DLTU)
                 (DLTU) (DLTU) (DLTU) (PIU) (PIU) (SGU) (PIG) (PIG)
                 (SGG) (DLTG) (DLTG) (PHIU) (PHIU) (SGU) (SGG)
                 (?A) (?A) (?C) (?C) (?E) (?E) (?F) (?F) (PIU)
                 (PIU) (PIG) (PIG) (?D) (?D) (SGU) (?B) (?B) (SGG)
                 (PHIG) (PHIG) (?A) (?A) (?C) (?C) (DLTU) (DLTU)
                 (?D) (?D) (PHIU) (PHIU) (?B) (?B) (PIG) (PIG)
                 (PIG) (PIG) (SGU) (DLTG) (DLTG) (SGG) (DLTU) (DLTU)
                 (?A) (?A) (PHIU) (PHIU) (PHIG) (PHIG) (PIU) (PIU)
                 (?B) (?B) (PIU) (PIU) (SGU) (DLTG) (DLTG) (PHIG)
                 (PHIG) (PIG) (PIG) (PIU) (PIU) (SGG) (SGG) (DLTU)
                 (DLTU) (SGU) (PIG) (PIG) (SGU) (PHIU) (PHIU) (DLTG)
                 (DLTG) (PHIG) (PHIG) (DLTU) (DLTU) (PIU) (PIU)
                 (DLTG) (DLTG) (SGG) (PHIU) (PHIU) (SGU) (?A) (?A)
                 (PIU) (PIU) (DLTU) (DLTU) (?C) (?C) (?E) (?E)
                 (?F) (?F) (?G) (?G) (?H) (?H) (?D) (?D) (DLTG)
                 (DLTG) (PIG) (PIG) (?B) (?B) (PHIG) (PHIG) (PIG)
                 (PIG) (PIU) (PIU) (SGG) (SGG) (SGU) (DLTU) (DLTU)
                 (SGU) (PIG) (PIG) (SGG) (?A) (?A) (?C) (?C) (PHIU)
                 (PHIU) (?E) (?E) (DLTG) (DLTG) (?F) (?F) (SGU)
                 (PIU) (PIU) (?D) (?D) (SGG) (?B) (?B) (?A) (?A)
                 (PHIU) (PHIU) (PHIG) (PHIG) (?C) (?C) (?A) (?A)
                 (?D) (?D) (?B) (?B) (DLTU) (DLTU) (PHIU) (PHIU)
                 (DLTG) (DLTG) (?B) (?B) (PIG) (PIG) (PHIG) (PHIG)
                 (SGU) (PIG) (PIG) (DLTU) (DLTU) (SGG) (PIU) (PIU)
                 (PHIG) (PHIG) (DLTG) (DLTG) (SGU) (PIU) (PIU)
                 (DLTU) (DLTU) (SGG) (PIG) (PIG) (SGU) (PIU) (PIU)
                 (PIG) (PIG) (SGU) (SGG) (PHIU) (PHIU) (PHIG) (PHIG)
                 (DLTG) (DLTG) (SGU) (DLTU) (DLTU) (PIU) (PIU)
                 (PIG) (PIG) (SGG) (DLTG) (DLTG) (DLTU) (DLTU)
                 (PIU) (PIU) (PIG) (PIG) (SGG) (SGU) (SGU) (SGG)
                 (SGU) (PIU) (PIU) (PIG) (PIG) (SGG) (SGU) (SGG)
                 (SGU)
 The electronic state is 1-SGG.
 Alpha  occ. eigenvalues -- -490.07041-490.07041 -65.20965 -65.20964 -58.56539
 Alpha  occ. eigenvalues --  -58.56539 -58.56335 -58.56335 -58.56335 -58.56335
 Alpha  occ. eigenvalues --   -9.88186  -9.88180  -7.49443  -7.49426  -7.48542
 Alpha  occ. eigenvalues --   -7.48542  -7.48540  -7.48540  -3.24013  -3.23771
 Alpha  occ. eigenvalues --   -3.23480  -3.23480  -3.23401  -3.23401  -3.22222
 Alpha  occ. eigenvalues --   -3.22222  -3.22217  -3.22217  -1.10381  -0.94823
 Alpha  occ. eigenvalues --   -0.53514  -0.50659  -0.50659  -0.40607  -0.40607
 Alpha virt. eigenvalues --   -0.00225   0.05615   0.05615   0.05735   0.05759
 Alpha virt. eigenvalues --    0.07392   0.07392   0.08392   0.15318   0.17678
 Alpha virt. eigenvalues --    0.17678   0.21002   0.21181   0.21181   0.23020
 Alpha virt. eigenvalues --    0.23225   0.23225   0.24510   0.24510   0.24721
 Alpha virt. eigenvalues --    0.24721   0.31419   0.32049   0.32049   0.34442
 Alpha virt. eigenvalues --    0.35476   0.42016   0.42016   0.43063   0.43063
 Alpha virt. eigenvalues --    0.43254   0.43254   0.49984   0.49984   0.50853
 Alpha virt. eigenvalues --    0.51854   0.51854   0.52442   0.52442   0.56186
 Alpha virt. eigenvalues --    0.60313   0.60313   0.60913   0.60913   0.60977
 Alpha virt. eigenvalues --    0.60977   0.61195   0.61501   0.61501   0.63090
 Alpha virt. eigenvalues --    0.63090   0.63198   0.71052   0.78624   0.85234
 Alpha virt. eigenvalues --    0.85234   0.86465   0.86465   0.88683   0.88683
 Alpha virt. eigenvalues --    0.90609   0.90609   0.92955   0.96315   0.96315
 Alpha virt. eigenvalues --    0.97573   0.97573   1.04090   1.04090   1.04172
 Alpha virt. eigenvalues --    1.04172   1.08598   1.08598   1.11145   1.11145
 Alpha virt. eigenvalues --    1.11475   1.11475   1.11610   1.11930   1.11930
 Alpha virt. eigenvalues --    1.12111   1.13187   1.13187   1.15521   1.15521
 Alpha virt. eigenvalues --    1.16252   1.16252   1.22547   1.28482   1.28482
 Alpha virt. eigenvalues --    1.29628   1.30987   1.33966   1.33966   1.41594
 Alpha virt. eigenvalues --    1.41594   1.41759   1.46621   1.46621   1.46964
 Alpha virt. eigenvalues --    1.46964   1.48817   1.48817   1.49549   1.58030
 Alpha virt. eigenvalues --    1.58030   1.61783   1.61783   1.63320   1.63320
 Alpha virt. eigenvalues --    1.64450   1.72379   1.72379   1.75575   1.75575
 Alpha virt. eigenvalues --    1.83100   1.83100   1.84371   1.84371   1.90589
 Alpha virt. eigenvalues --    1.90589   1.93362   1.94887   1.94887   1.95704
 Alpha virt. eigenvalues --    1.95704   1.97222   2.00195   2.00195   2.00545
 Alpha virt. eigenvalues --    2.00545   2.04098   2.04107   2.04107   2.08900
 Alpha virt. eigenvalues --    2.08900   2.11559   2.11559   2.11907   2.11907
 Alpha virt. eigenvalues --    2.14538   2.16215   2.16215   2.17408   2.17408
 Alpha virt. eigenvalues --    2.18440   2.18440   2.18965   2.18965   2.20888
 Alpha virt. eigenvalues --    2.20888   2.25971   2.25971   2.27936   2.27936
 Alpha virt. eigenvalues --    2.32671   2.35954   2.38205   2.38205   2.40667
 Alpha virt. eigenvalues --    2.40667   2.45288   2.45288   2.51323   2.52667
 Alpha virt. eigenvalues --    2.52667   2.54036   2.54036   2.65216   2.65216
 Alpha virt. eigenvalues --    2.71320   2.71521   2.71521   2.72335   2.72335
 Alpha virt. eigenvalues --    2.76502   2.81351   2.81351   2.82639   2.83714
 Alpha virt. eigenvalues --    2.83714   3.04506   3.04506   3.06266   3.06266
 Alpha virt. eigenvalues --    3.08676   3.08676   3.10408   3.10408   3.23012
 Alpha virt. eigenvalues --    3.23012   3.25967   3.26466   3.26466   3.31075
 Alpha virt. eigenvalues --    3.31075   3.32581   3.32581   3.32779   3.32779
 Alpha virt. eigenvalues --    3.33484   3.36730   3.36730   3.41472   3.41472
 Alpha virt. eigenvalues --    3.42532   3.42532   3.43715   3.44109   3.44109
 Alpha virt. eigenvalues --    3.44460   3.44460   3.48243   3.48243   3.51522
 Alpha virt. eigenvalues --    3.51522   3.53261   3.63351   3.63351   3.67845
 Alpha virt. eigenvalues --    3.67845   3.68855   3.68855   3.74317   3.74317
 Alpha virt. eigenvalues --    3.75791   3.77221   3.77221   3.81788   3.81788
 Alpha virt. eigenvalues --    3.84236   3.84572   3.86236   3.86236   3.94163
 Alpha virt. eigenvalues --    3.94726   3.94726   4.00587   4.00587   4.08317
 Alpha virt. eigenvalues --    4.08317   4.13070   4.13070   4.16251   4.16251
 Alpha virt. eigenvalues --    4.18024   4.18024   4.22853   4.22853   4.27430
 Alpha virt. eigenvalues --    4.27430   4.43341   4.43341   4.47941   4.50194
 Alpha virt. eigenvalues --    4.54762   4.54762   4.81862   4.81862   4.98856
 Alpha virt. eigenvalues --    4.98856   4.99185   5.07395   5.07395   5.18722
 Alpha virt. eigenvalues --    5.31818   5.31818   5.33282   5.33282   5.34841
 Alpha virt. eigenvalues --    5.38754   5.42652   5.42652   5.44608   5.44608
 Alpha virt. eigenvalues --    5.48497   5.48497   5.52280   5.52280   5.57186
 Alpha virt. eigenvalues --    5.57186   5.57709   5.57709   5.58417   5.58417
 Alpha virt. eigenvalues --    5.69825   5.73740   5.73740   5.94196   5.98677
 Alpha virt. eigenvalues --    5.98677   6.14162   6.14162   6.16607   6.16607
 Alpha virt. eigenvalues --    6.19018   6.19018   6.21668   6.21668   6.24780
 Alpha virt. eigenvalues --    6.24780   6.31547   6.31547   6.37909   6.37909
 Alpha virt. eigenvalues --    6.41641   6.41641   6.45488   6.47917   6.47917
 Alpha virt. eigenvalues --    6.48207   6.48877   6.48877   6.53081   6.53081
 Alpha virt. eigenvalues --    6.53384   6.53384   6.54397   6.54397   6.58074
 Alpha virt. eigenvalues --    6.58074   6.58646   6.58646   6.59874   6.59874
 Alpha virt. eigenvalues --    6.63513   6.67224   6.67224   6.71766   6.71766
 Alpha virt. eigenvalues --    6.76670   6.76670   6.83006   6.83006   6.96843
 Alpha virt. eigenvalues --    7.12272   7.12933   7.12933   7.29473   7.45240
 Alpha virt. eigenvalues --    7.45240   7.60764   7.84830   7.84830   7.91779
 Alpha virt. eigenvalues --    7.91779   7.92179   7.92179   8.24368   8.24368
 Alpha virt. eigenvalues --    8.31692   8.31692   8.43937   8.43937   8.60323
 Alpha virt. eigenvalues --    8.62237   8.62237   8.64401   8.65877   8.65877
 Alpha virt. eigenvalues --    8.71612   8.71612   8.74664   8.74664   8.76997
 Alpha virt. eigenvalues --    8.76997   8.82092   8.82092   8.83480   8.83480
 Alpha virt. eigenvalues --    8.84316   8.84316   8.84395   8.84395   8.87048
 Alpha virt. eigenvalues --    8.87048   8.92285   8.92285   8.92416   8.92416
 Alpha virt. eigenvalues --    9.05297   9.05297   9.48475   9.48475   9.49779
 Alpha virt. eigenvalues --    9.49779   9.52998   9.52998   9.53282   9.72946
 Alpha virt. eigenvalues --   10.02367  10.07786  10.07786  10.16091  10.45003
 Alpha virt. eigenvalues --   10.45003  10.56660  10.93472  10.93472  10.94494
 Alpha virt. eigenvalues --   10.94494  10.94748  10.94748  10.98219  10.98219
 Alpha virt. eigenvalues --   10.98796  10.98796  11.00684  11.00684  11.01363
 Alpha virt. eigenvalues --   11.02552  11.02552  11.03608  11.03608  11.06078
 Alpha virt. eigenvalues --   11.09254  11.09254  11.11826  11.11826  11.13431
 Alpha virt. eigenvalues --   11.13431  11.13509  11.13509  11.13739  11.13739
 Alpha virt. eigenvalues --   11.16335  11.16335  11.18299  11.18299  11.20635
 Alpha virt. eigenvalues --   11.20635  11.23560  11.23560  11.26606  11.26606
 Alpha virt. eigenvalues --   11.27695  11.27695  11.30610  11.30610  11.35104
 Alpha virt. eigenvalues --   11.35104  11.39086  11.39086  11.42795  11.46952
 Alpha virt. eigenvalues --   11.46952  11.48955  11.48955  11.49345  11.54177
 Alpha virt. eigenvalues --   11.54177  11.55628  11.55628  11.56397  11.56397
 Alpha virt. eigenvalues --   11.72866  11.79678  11.79678  12.04269  12.04269
 Alpha virt. eigenvalues --   12.15302  12.86279  12.86279  13.36799  13.67128
 Alpha virt. eigenvalues --   13.67128  13.83979  13.83979  14.19536  14.19746
 Alpha virt. eigenvalues --   14.53785  14.53785  14.59773  14.59773  14.61794
 Alpha virt. eigenvalues --   14.61794  14.91391  14.96044  14.96044  15.13701
 Alpha virt. eigenvalues --   15.13701  15.84156  15.84156  16.22201  17.40864
 Alpha virt. eigenvalues --   17.40864  17.61097  17.61097  17.71474  17.71474
 Alpha virt. eigenvalues --   18.48894  18.48894  18.71328  18.85870  21.47998
 Alpha virt. eigenvalues --   23.13581  24.13279  31.14664  31.14664  31.32493
 Alpha virt. eigenvalues --   31.32493  31.78913  32.16930 626.20217 628.81705
          Condensed to atoms (all electrons):
              1          2
     1  Br  34.772782   0.227218
     2  Br   0.227218  34.772782
          Atomic-Atomic Spin Densities.
              1          2
     1  Br   0.000000   0.000000
     2  Br   0.000000   0.000000
 Mulliken charges and spin densities:
              1          2
     1  Br   0.000000   0.000000
     2  Br   0.000000   0.000000
 Sum of Mulliken charges =   0.00000 spin densities =   0.000000
 Mulliken charges and spin densities with hydrogens summed into heavy atoms:
              1          2
     1  Br   0.000000   0.000000
     2  Br   0.000000   0.000000
 Sum of Mulliken charges with hydrogens summed into heavy atoms =   0.00000 spin densities =   0.000000
 Electronic spatial extent (au):  <R**2>=            405.0609
 Charge=              0.0000 electrons
 Dipole moment (field-independent basis, Debye):
    X=              0.0000    Y=              0.0000    Z=              0.0000  Tot=              0.0000
 Quadrupole moment (field-independent basis, Debye-Ang):
   XX=            -37.3263   YY=            -37.3263   ZZ=            -32.8086
   XY=              0.0000   XZ=              0.0000   YZ=              0.0000
 Traceless Quadrupole moment (field-independent basis, Debye-Ang):
   XX=             -1.5059   YY=             -1.5059   ZZ=              3.0118
   XY=              0.0000   XZ=              0.0000   YZ=              0.0000
 Octapole moment (field-independent basis, Debye-Ang**2):
  XXX=              0.0000  YYY=              0.0000  ZZZ=              0.0000  XYY=              0.0000
  XXY=              0.0000  XXZ=              0.0000  XZZ=              0.0000  YZZ=              0.0000
  YYZ=              0.0000  XYZ=              0.0000
 Hexadecapole moment (field-independent basis, Debye-Ang**3):
 XXXX=            -45.0064 YYYY=            -45.0064 ZZZZ=           -284.9763 XXXY=              0.0000
 XXXZ=              0.0000 YYYX=              0.0000 YYYZ=              0.0000 ZZZX=              0.0000
 ZZZY=              0.0000 XXYY=            -15.0021 XXZZ=            -63.4000 YYZZ=            -63.4000
 XXYZ=              0.0000 YYXZ=              0.0000 ZZXY=              0.0000
 N-N= 2.841858269318D+02 E-N=-1.931462392656D+04  KE= 7.717363395383D+03
                          Isotropic Fermi Contact Couplings
        Atom                 a.u.       MegaHertz       Gauss      10(-4) cm-1
     1  Br(79)             0.00000       0.00000       0.00000       0.00000
     2  Br(79)             0.00000       0.00000       0.00000       0.00000
 --------------------------------------------------------
       Center         ----  Spin Dipole Couplings  ----
                      3XX-RR        3YY-RR        3ZZ-RR
 --------------------------------------------------------
     1   Atom        0.000000      0.000000      0.000000
     2   Atom        0.000000      0.000000      0.000000
 --------------------------------------------------------
                        XY            XZ            YZ
 --------------------------------------------------------
     1   Atom        0.000000      0.000000      0.000000
     2   Atom        0.000000      0.000000      0.000000
 --------------------------------------------------------


 ---------------------------------------------------------------------------------
              Anisotropic Spin Dipole Couplings in Principal Axis System
 ---------------------------------------------------------------------------------

       Atom             a.u.   MegaHertz   Gauss  10(-4) cm-1        Axes

              Baa     0.0000     0.000     0.000     0.000  1.0000  0.0000  0.0000
     1 Br(79) Bbb     0.0000     0.000     0.000     0.000  0.0000  1.0000  0.0000
              Bcc     0.0000     0.000     0.000     0.000  0.0000  0.0000  1.0000
 
              Baa     0.0000     0.000     0.000     0.000  1.0000  0.0000  0.0000
     2 Br(79) Bbb     0.0000     0.000     0.000     0.000  0.0000  1.0000  0.0000
              Bcc     0.0000     0.000     0.000     0.000  0.0000  0.0000  1.0000
 

 ---------------------------------------------------------------------------------


 Test job not archived.
 1\1\GINC-C28\SP\ROMP2-RW\Gen\Br2\GPETERSSON\30-Apr-2013\0\\# ROMP2(RW)
  Gen GFinput Int=NoBasisTransform Int(Grid=Ultrafine) IOp(3/32=2,5/6=1
 0,8/11=1,9/33=1) Maxdisk=128GB CBSextrapolate(Nmin=25,MinPop)\\Br2\\0,
 1\Br\Br,1,2.28105\\Version=EM64L-GDVRevH.12\State=1-SGG\HF=-5144.92276
 8\MP2=-5145.3096823\E2(CBS)=-0.3969158\CBS-Int=-0.3919839\OIii=2.56096
 68\RMSD=3.915e-11\PG=D*H [C*(Br1.Br1)]\\@


 "ANNA, YOU MUSN'T SPEAK OF OXIDIZED MURIATIC ACID
 ANYMORE, FROM NOW ON YOU MUST SAY CHLORINE."
   -- JENS JACOB BERZELIUS, IN 1820, TO HIS COOK, WHO HAD
 COMPLAINED OF THE SMELL OF THE FLASK SHE WAS CLEANING.
 Job cpu time:  3 days 20 hours 32 minutes 44.4 seconds.
 File lengths (MBytes):  RWF=  13475 Int=      0 D2E=      0 Chk=     23 Scr=      1
 Normal termination of Gaussian DV at Tue Apr 30 03:13:20 2013.
