 Entering Gaussian System, Link 0=g09
 AtFile(1): 6ZaPa-NR.gbs
 Initial command:
 /share/apps/gaussian/g09root/g09/l1.exe /localscratch/969665/Gau-30737.inp -scrdir=/localscratch/969665/
 Entering Link 1 = /share/apps/gaussian/g09root/g09/l1.exe PID=     30738.
  
 Copyright (c) 1988,1990,1992,1993,1995,1998,2003,2009, Gaussian, Inc.
                  All Rights Reserved.
  
 This is part of the Gaussian(R) 09 program.  It is based on
 the Gaussian(R) 03 system (copyright 2003, Gaussian, Inc.),
 the Gaussian(R) 98 system (copyright 1998, Gaussian, Inc.),
 the Gaussian(R) 94 system (copyright 1995, Gaussian, Inc.),
 the Gaussian 92(TM) system (copyright 1992, Gaussian, Inc.),
 the Gaussian 90(TM) system (copyright 1990, Gaussian, Inc.),
 the Gaussian 88(TM) system (copyright 1988, Gaussian, Inc.),
 the Gaussian 86(TM) system (copyright 1986, Carnegie Mellon
 University), and the Gaussian 82(TM) system (copyright 1983,
 Carnegie Mellon University). Gaussian is a federally registered
 trademark of Gaussian, Inc.
  
 This software contains proprietary and confidential information,
 including trade secrets, belonging to Gaussian, Inc.
  
 This software is provided under written license and may be
 used, copied, transmitted, or stored only in accord with that
 written license.
  
 The following legend is applicable only to US Government
 contracts under FAR:
  
                    RESTRICTED RIGHTS LEGEND
  
 Use, reproduction and disclosure by the US Government is
 subject to restrictions as set forth in subparagraphs (a)
 and (c) of the Commercial Computer Software - Restricted
 Rights clause in FAR 52.227-19.
  
 Gaussian, Inc.
 340 Quinnipiac St., Bldg. 40, Wallingford CT 06492
  
  
 ---------------------------------------------------------------
 Warning -- This program may not be used in any manner that
 competes with the business of Gaussian, Inc. or will provide
 assistance to any competitor of Gaussian, Inc.  The licensee
 of this program is prohibited from giving any competitor of
 Gaussian, Inc. access to this program.  By using this program,
 the user acknowledges that Gaussian, Inc. is engaged in the
 business of creating and licensing software in the field of
 computational chemistry and represents and warrants to the
 licensee that it is not a competitor of Gaussian, Inc. and that
 it will not use this program in any manner prohibited above.
 ---------------------------------------------------------------
  

 Cite this work as:
 Gaussian 09, Revision A.02,
 M. J. Frisch, G. W. Trucks, H. B. Schlegel, G. E. Scuseria, 
 M. A. Robb, J. R. Cheeseman, G. Scalmani, V. Barone, B. Mennucci, 
 G. A. Petersson, H. Nakatsuji, M. Caricato, X. Li, H. P. Hratchian, 
 A. F. Izmaylov, J. Bloino, G. Zheng, J. L. Sonnenberg, M. Hada, 
 M. Ehara, K. Toyota, R. Fukuda, J. Hasegawa, M. Ishida, T. Nakajima, 
 Y. Honda, O. Kitao, H. Nakai, T. Vreven, J. A. Montgomery, Jr., 
 J. E. Peralta, F. Ogliaro, M. Bearpark, J. J. Heyd, E. Brothers, 
 K. N. Kudin, V. N. Staroverov, R. Kobayashi, J. Normand, 
 K. Raghavachari, A. Rendell, J. C. Burant, S. S. Iyengar, J. Tomasi, 
 M. Cossi, N. Rega, J. M. Millam, M. Klene, J. E. Knox, J. B. Cross, 
 V. Bakken, C. Adamo, J. Jaramillo, R. Gomperts, R. E. Stratmann, 
 O. Yazyev, A. J. Austin, R. Cammi, C. Pomelli, J. W. Ochterski, 
 R. L. Martin, K. Morokuma, V. G. Zakrzewski, G. A. Voth, 
 P. Salvador, J. J. Dannenberg, S. Dapprich, A. D. Daniels, 
 O. Farkas, J. B. Foresman, J. V. Ortiz, J. Cioslowski, 
 and D. J. Fox, Gaussian, Inc., Wallingford CT, 2009.
 
 ******************************************
 Gaussian 09:  EM64L-G09RevA.02 11-Jun-2009
                 7-Jul-2013 
 ******************************************
 % Mem=12GB
 % Nproc=8
 Will use up to    8 processors via shared memory.
 ----------------------------------------------------------------------
 # ROMP2(RW) Gen GFinput Int=NoBasisTransform Int(Grid=Ultrafine) IOp(3
 /32=2,5/6=10,8/11=1,9/33=1) Maxdisk=128GB CBSextrapolate(Nmin=20,MinPo
 p)
 ----------------------------------------------------------------------
 1/38=1/1;
 2/12=2,17=6,18=5,40=1/2;
 3/5=7,11=2,16=1,24=10,25=1,30=1,32=2,60=-1,75=-5,116=101/1,2,3;
 4//1;
 5/5=2,6=10,38=5/2;
 8/5=-1,10=91,11=1/1;
 9/16=-3,33=1,75=2,81=20,83=4/6,4;
 6/7=2,8=2,9=2,10=2/1;
 99/5=1,9=1/99;
 ---
 Br2
 ---
 Symbolic Z-matrix:
 Charge =  0 Multiplicity = 1
 Br
 Br                   1     2.28105 
 
                          Input orientation:                          
 ---------------------------------------------------------------------
 Center     Atomic      Atomic             Coordinates (Angstroms)
 Number     Number       Type             X           Y           Z
 ---------------------------------------------------------------------
      1         35           0        0.000000    0.000000    0.000000
      2         35           0        0.000000    0.000000    2.281050
 ---------------------------------------------------------------------
 Stoichiometry    Br2
 Framework group  D*H[C*(Br.Br)]
 Deg. of freedom     1
 Full point group                 D*H     NOp   8
 Largest Abelian subgroup         D2H     NOp   8
 Largest concise Abelian subgroup C2      NOp   2
                         Standard orientation:                         
 ---------------------------------------------------------------------
 Center     Atomic      Atomic             Coordinates (Angstroms)
 Number     Number       Type             X           Y           Z
 ---------------------------------------------------------------------
      1         35           0        0.000000    0.000000    1.140525
      2         35           0        0.000000    0.000000   -1.140525
 ---------------------------------------------------------------------
 Rotational constants (GHZ):      0.0000000      2.4614990      2.4614990
 General basis read from cards:  (5D, 7F)
 AO basis set in the form of general basis input (Overlap normalization):
      1 0
 S  16 1.00       0.000000000000
      0.5684648560D+08  0.6461982724D-06
      0.1070969180D+08  0.4005500493D-05
      0.2456425350D+07  0.2277878063D-04
      0.6647482010D+06  0.1035662382D-03
      0.2064956430D+06  0.4011375332D-03
      0.7189551160D+05  0.1355986885D-02
      0.2748497400D+05  0.4104177960D-02
      0.1133574500D+05  0.1131546454D-01
      0.4969149570D+04  0.2866241650D-01
      0.2286280560D+04  0.6644315418D-01
      0.1092489510D+04  0.1375496636D+00
      0.5374293450D+03  0.2406966575D+00
      0.2701678280D+03  0.3168699633D+00
      0.1379196500D+03  0.2518244622D+00
      0.7110757600D+02  0.8280521486D-01
      0.3684081000D+02  0.6542890731D-02
 S  14 1.00       0.000000000000
      0.2748497400D+05 -0.6093054753D-05
      0.1133574500D+05 -0.3526718420D-04
      0.4969149570D+04 -0.2414967175D-03
      0.2286280560D+04 -0.1187029023D-02
      0.1092489510D+04 -0.5437094163D-02
      0.5374293450D+03 -0.1987875033D-01
      0.2701678280D+03 -0.5745326396D-01
      0.1379196500D+03 -0.9302247978D-01
      0.7110757600D+02  0.5798615338D-02
      0.3684081000D+02  0.3524059167D+00
      0.1908826000D+02  0.5228863039D+00
      0.9841610000D+01  0.2160299707D+00
      0.5021928000D+01  0.2029741651D-01
      0.2520512000D+01  0.2169092730D-02
 P  13 1.00       0.000000000000
      0.7647864790D+05  0.8881482810D-05
      0.2007186980D+05  0.7202235278D-04
      0.6380605010D+04  0.4617884143D-03
      0.2362210840D+04  0.2232576784D-02
      0.9848457380D+03  0.8658544211D-02
      0.4494150820D+03  0.2760695825D-01
      0.2191768780D+03  0.7376891535D-01
      0.1120008830D+03  0.1611575383D+00
      0.5900481100D+02  0.2746963459D+00
      0.3162813000D+02  0.3325788021D+00
      0.1706692700D+02  0.2292429281D+00
      0.9191294000D+01  0.6843844634D-01
      0.4904821000D+01  0.7129076349D-02
 S  11 1.00       0.000000000000
      0.5374293450D+03  0.8213361056D-04
      0.2701678280D+03  0.8357169029D-03
      0.1379196500D+03  0.2902379033D-02
      0.7110757600D+02  0.2266751943D-02
      0.3684081000D+02 -0.5035507061D-01
      0.1908826000D+02 -0.2012033165D+00
      0.9841610000D+01 -0.9315614959D-01
      0.5021928000D+01  0.4275136099D+00
      0.2520512000D+01  0.6154100442D+00
      0.1235271000D+01  0.1765274465D+00
      0.5860430000D+00  0.3277643624D-02
 P  13 1.00       0.000000000000
      0.9848457380D+03 -0.2419340892D-04
      0.4494150820D+03 -0.2195902096D-03
      0.2191768780D+03 -0.1244189158D-02
      0.1120008830D+03 -0.5263181475D-02
      0.5900481100D+02 -0.1416768709D-01
      0.3162813000D+02 -0.2494638541D-01
      0.1706692700D+02  0.2423108274D-01
      0.9191294000D+01  0.1994660171D+00
      0.4904821000D+01  0.3883673950D+00
      0.2577482000D+01  0.3653043231D+00
      0.1326123000D+01  0.1312759511D+00
      0.6641100000D+00  0.1172791979D-01
      0.3216260000D+00  0.1101700462D-02
 D  14 1.00       0.000000000000
      0.3044286830D+04  0.1715183017D-04
      0.9351975360D+03  0.1771874450D-03
      0.3603600190D+03  0.1142833880D-02
      0.1609205760D+03  0.5231818246D-02
      0.7876521700D+02  0.1831916879D-01
      0.4072731600D+02  0.5045969538D-01
      0.2174776800D+02  0.1146611056D+00
      0.1183677500D+02  0.2025367676D+00
      0.6513457000D+01  0.2693992046D+00
      0.3595593000D+01  0.2822073474D+00
      0.1967334000D+01  0.2191258632D+00
      0.1044822000D+01  0.1060328283D+00
      0.5203620000D+00  0.2387745972D-01
      0.2305910000D+00  0.1937178744D-02
 S  10 1.00       0.000000000000
      0.7110757600D+02  0.2131624171D-03
      0.3684081000D+02 -0.1057071914D-02
      0.1908826000D+02  0.1417625393D-02
      0.9841610000D+01 -0.2693840005D-02
      0.5021928000D+01 -0.7677885625D-02
      0.2520512000D+01 -0.1629806187D+00
      0.1235271000D+01 -0.1451413265D+00
      0.5860430000D+00  0.3946545406D+00
      0.2663730000D+00  0.6178179660D+00
      0.1145700000D+00  0.2143606702D+00
 S   1 1.00       0.000000000000
      0.4839900000D-01  0.1000000000D+01
 P   9 1.00       0.000000000000
      0.1706692700D+02 -0.6673224653D-03
      0.9191294000D+01 -0.5142336034D-02
      0.4904821000D+01 -0.1172459570D-01
      0.2577482000D+01 -0.3593519161D-01
      0.1326123000D+01  0.3009539528D-01
      0.6641100000D+00  0.2597617720D+00
      0.3216260000D+00  0.4199856864D+00
      0.1494910000D+00  0.3417519990D+00
      0.6607100000D-01  0.9544524524D-01
 P   1 1.00       0.000000000000
      0.6757500000D-01  0.1000000000D+01
 P   1 1.00       0.000000000000
      0.2741200000D-01  0.1000000000D+01
 S   1 1.00       0.000000000000
      0.1647296000D+01  0.1000000000D+01
 S   1 1.00       0.000000000000
      0.8600990000D+00  0.1000000000D+01
 S   1 1.00       0.000000000000
      0.4490810000D+00  0.1000000000D+01
 S   1 1.00       0.000000000000
      0.2344780000D+00  0.1000000000D+01
 S   1 1.00       0.000000000000
      0.1224270000D+00  0.1000000000D+01
 P   1 1.00       0.000000000000
      0.2151995000D+01  0.1000000000D+01
 P   1 1.00       0.000000000000
      0.1213378000D+01  0.1000000000D+01
 P   1 1.00       0.000000000000
      0.6841500000D+00  0.1000000000D+01
 P   1 1.00       0.000000000000
      0.3857500000D+00  0.1000000000D+01
 P   1 1.00       0.000000000000
      0.2175010000D+00  0.1000000000D+01
 D   1 1.00       0.000000000000
      0.2311612000D+01  0.1000000000D+01
 D   1 1.00       0.000000000000
      0.1200445000D+01  0.1000000000D+01
 D   1 1.00       0.000000000000
      0.6234040000D+00  0.1000000000D+01
 D   1 1.00       0.000000000000
      0.3237400000D+00  0.1000000000D+01
 D   1 1.00       0.000000000000
      0.1681220000D+00  0.1000000000D+01
 D   1 1.00       0.000000000000
      0.8730770000D-01  0.1000000000D+01
 F   1 1.00       0.000000000000
      0.1094075000D+01  0.1000000000D+01
 F   1 1.00       0.000000000000
      0.6731320000D+00  0.1000000000D+01
 F   1 1.00       0.000000000000
      0.4141460000D+00  0.1000000000D+01
 F   1 1.00       0.000000000000
      0.2548050000D+00  0.1000000000D+01
 F   1 1.00       0.000000000000
      0.1567700000D+00  0.1000000000D+01
 G   1 1.00       0.000000000000
      0.1346554000D+01  0.1000000000D+01
 G   1 1.00       0.000000000000
      0.7282520000D+00  0.1000000000D+01
 G   1 1.00       0.000000000000
      0.3938580000D+00  0.1000000000D+01
 G   1 1.00       0.000000000000
      0.2130090000D+00  0.1000000000D+01
 H   1 1.00       0.000000000000
      0.1116980000D+01  0.1000000000D+01
 H   1 1.00       0.000000000000
      0.5698070000D+00  0.1000000000D+01
 H   1 1.00       0.000000000000
      0.2906770000D+00  0.1000000000D+01
 I   1 1.00       0.000000000000
      0.9601700123D+00  0.1000000000D+01
 ****
      2 0
 S  16 1.00       0.000000000000
      0.5684648560D+08  0.6461982724D-06
      0.1070969180D+08  0.4005500493D-05
      0.2456425350D+07  0.2277878063D-04
      0.6647482010D+06  0.1035662382D-03
      0.2064956430D+06  0.4011375332D-03
      0.7189551160D+05  0.1355986885D-02
      0.2748497400D+05  0.4104177960D-02
      0.1133574500D+05  0.1131546454D-01
      0.4969149570D+04  0.2866241650D-01
      0.2286280560D+04  0.6644315418D-01
      0.1092489510D+04  0.1375496636D+00
      0.5374293450D+03  0.2406966575D+00
      0.2701678280D+03  0.3168699633D+00
      0.1379196500D+03  0.2518244622D+00
      0.7110757600D+02  0.8280521486D-01
      0.3684081000D+02  0.6542890731D-02
 S  14 1.00       0.000000000000
      0.2748497400D+05 -0.6093054753D-05
      0.1133574500D+05 -0.3526718420D-04
      0.4969149570D+04 -0.2414967175D-03
      0.2286280560D+04 -0.1187029023D-02
      0.1092489510D+04 -0.5437094163D-02
      0.5374293450D+03 -0.1987875033D-01
      0.2701678280D+03 -0.5745326396D-01
      0.1379196500D+03 -0.9302247978D-01
      0.7110757600D+02  0.5798615338D-02
      0.3684081000D+02  0.3524059167D+00
      0.1908826000D+02  0.5228863039D+00
      0.9841610000D+01  0.2160299707D+00
      0.5021928000D+01  0.2029741651D-01
      0.2520512000D+01  0.2169092730D-02
 P  13 1.00       0.000000000000
      0.7647864790D+05  0.8881482810D-05
      0.2007186980D+05  0.7202235278D-04
      0.6380605010D+04  0.4617884143D-03
      0.2362210840D+04  0.2232576784D-02
      0.9848457380D+03  0.8658544211D-02
      0.4494150820D+03  0.2760695825D-01
      0.2191768780D+03  0.7376891535D-01
      0.1120008830D+03  0.1611575383D+00
      0.5900481100D+02  0.2746963459D+00
      0.3162813000D+02  0.3325788021D+00
      0.1706692700D+02  0.2292429281D+00
      0.9191294000D+01  0.6843844634D-01
      0.4904821000D+01  0.7129076349D-02
 S  11 1.00       0.000000000000
      0.5374293450D+03  0.8213361056D-04
      0.2701678280D+03  0.8357169029D-03
      0.1379196500D+03  0.2902379033D-02
      0.7110757600D+02  0.2266751943D-02
      0.3684081000D+02 -0.5035507061D-01
      0.1908826000D+02 -0.2012033165D+00
      0.9841610000D+01 -0.9315614959D-01
      0.5021928000D+01  0.4275136099D+00
      0.2520512000D+01  0.6154100442D+00
      0.1235271000D+01  0.1765274465D+00
      0.5860430000D+00  0.3277643624D-02
 P  13 1.00       0.000000000000
      0.9848457380D+03 -0.2419340892D-04
      0.4494150820D+03 -0.2195902096D-03
      0.2191768780D+03 -0.1244189158D-02
      0.1120008830D+03 -0.5263181475D-02
      0.5900481100D+02 -0.1416768709D-01
      0.3162813000D+02 -0.2494638541D-01
      0.1706692700D+02  0.2423108274D-01
      0.9191294000D+01  0.1994660171D+00
      0.4904821000D+01  0.3883673950D+00
      0.2577482000D+01  0.3653043231D+00
      0.1326123000D+01  0.1312759511D+00
      0.6641100000D+00  0.1172791979D-01
      0.3216260000D+00  0.1101700462D-02
 D  14 1.00       0.000000000000
      0.3044286830D+04  0.1715183017D-04
      0.9351975360D+03  0.1771874450D-03
      0.3603600190D+03  0.1142833880D-02
      0.1609205760D+03  0.5231818246D-02
      0.7876521700D+02  0.1831916879D-01
      0.4072731600D+02  0.5045969538D-01
      0.2174776800D+02  0.1146611056D+00
      0.1183677500D+02  0.2025367676D+00
      0.6513457000D+01  0.2693992046D+00
      0.3595593000D+01  0.2822073474D+00
      0.1967334000D+01  0.2191258632D+00
      0.1044822000D+01  0.1060328283D+00
      0.5203620000D+00  0.2387745972D-01
      0.2305910000D+00  0.1937178744D-02
 S  10 1.00       0.000000000000
      0.7110757600D+02  0.2131624171D-03
      0.3684081000D+02 -0.1057071914D-02
      0.1908826000D+02  0.1417625393D-02
      0.9841610000D+01 -0.2693840005D-02
      0.5021928000D+01 -0.7677885625D-02
      0.2520512000D+01 -0.1629806187D+00
      0.1235271000D+01 -0.1451413265D+00
      0.5860430000D+00  0.3946545406D+00
      0.2663730000D+00  0.6178179660D+00
      0.1145700000D+00  0.2143606702D+00
 S   1 1.00       0.000000000000
      0.4839900000D-01  0.1000000000D+01
 P   9 1.00       0.000000000000
      0.1706692700D+02 -0.6673224653D-03
      0.9191294000D+01 -0.5142336034D-02
      0.4904821000D+01 -0.1172459570D-01
      0.2577482000D+01 -0.3593519161D-01
      0.1326123000D+01  0.3009539528D-01
      0.6641100000D+00  0.2597617720D+00
      0.3216260000D+00  0.4199856864D+00
      0.1494910000D+00  0.3417519990D+00
      0.6607100000D-01  0.9544524524D-01
 P   1 1.00       0.000000000000
      0.6757500000D-01  0.1000000000D+01
 P   1 1.00       0.000000000000
      0.2741200000D-01  0.1000000000D+01
 S   1 1.00       0.000000000000
      0.1647296000D+01  0.1000000000D+01
 S   1 1.00       0.000000000000
      0.8600990000D+00  0.1000000000D+01
 S   1 1.00       0.000000000000
      0.4490810000D+00  0.1000000000D+01
 S   1 1.00       0.000000000000
      0.2344780000D+00  0.1000000000D+01
 S   1 1.00       0.000000000000
      0.1224270000D+00  0.1000000000D+01
 P   1 1.00       0.000000000000
      0.2151995000D+01  0.1000000000D+01
 P   1 1.00       0.000000000000
      0.1213378000D+01  0.1000000000D+01
 P   1 1.00       0.000000000000
      0.6841500000D+00  0.1000000000D+01
 P   1 1.00       0.000000000000
      0.3857500000D+00  0.1000000000D+01
 P   1 1.00       0.000000000000
      0.2175010000D+00  0.1000000000D+01
 D   1 1.00       0.000000000000
      0.2311612000D+01  0.1000000000D+01
 D   1 1.00       0.000000000000
      0.1200445000D+01  0.1000000000D+01
 D   1 1.00       0.000000000000
      0.6234040000D+00  0.1000000000D+01
 D   1 1.00       0.000000000000
      0.3237400000D+00  0.1000000000D+01
 D   1 1.00       0.000000000000
      0.1681220000D+00  0.1000000000D+01
 D   1 1.00       0.000000000000
      0.8730770000D-01  0.1000000000D+01
 F   1 1.00       0.000000000000
      0.1094075000D+01  0.1000000000D+01
 F   1 1.00       0.000000000000
      0.6731320000D+00  0.1000000000D+01
 F   1 1.00       0.000000000000
      0.4141460000D+00  0.1000000000D+01
 F   1 1.00       0.000000000000
      0.2548050000D+00  0.1000000000D+01
 F   1 1.00       0.000000000000
      0.1567700000D+00  0.1000000000D+01
 G   1 1.00       0.000000000000
      0.1346554000D+01  0.1000000000D+01
 G   1 1.00       0.000000000000
      0.7282520000D+00  0.1000000000D+01
 G   1 1.00       0.000000000000
      0.3938580000D+00  0.1000000000D+01
 G   1 1.00       0.000000000000
      0.2130090000D+00  0.1000000000D+01
 H   1 1.00       0.000000000000
      0.1116980000D+01  0.1000000000D+01
 H   1 1.00       0.000000000000
      0.5698070000D+00  0.1000000000D+01
 H   1 1.00       0.000000000000
      0.2906770000D+00  0.1000000000D+01
 I   1 1.00       0.000000000000
      0.9601700123D+00  0.1000000000D+01
 ****

 There are    69 symmetry adapted basis functions of AG  symmetry.
 There are    29 symmetry adapted basis functions of B1G symmetry.
 There are    47 symmetry adapted basis functions of B2G symmetry.
 There are    47 symmetry adapted basis functions of B3G symmetry.
 There are    29 symmetry adapted basis functions of AU  symmetry.
 There are    69 symmetry adapted basis functions of B1U symmetry.
 There are    47 symmetry adapted basis functions of B2U symmetry.
 There are    47 symmetry adapted basis functions of B3U symmetry.
 Integral buffers will be    131072 words long.
 Raffenetti 2 integral format.
 Two-electron integral symmetry is turned on.
   384 basis functions,  1008 primitive gaussians,   566 cartesian basis functions
    35 alpha electrons       35 beta electrons
       nuclear repulsion energy       284.1858269318 Hartrees.
 NAtoms=    2 NActive=    2 NUniq=    1 SFac= 3.00D+00 NAtFMM=   80 NAOKFM=F Big=F
 One-electron integrals computed using PRISM.
 NBasis=   384 RedAO= F  NBF=    69    29    47    47    29    69    47    47
 NBsUse=   384 1.00D-04 NBFU=    69    29    47    47    29    69    47    47
 Harris functional with IExCor=  205 diagonalized for initial guess.
 ExpMin= 2.74D-02 ExpMax= 5.68D+07 ExpMxC= 1.13D+04 IAcc=3 IRadAn=         5 AccDes= 0.00D+00
 HarFok:  IExCor=  205 AccDes= 0.00D+00 IRadAn=         5 IDoV= 1
 ScaDFX=  1.000000  1.000000  1.000000  1.000000
 FoFCou: FMM=F IPFlag=           0 FMFlag=      100000 FMFlg1=           0
         NFxFlg=           0 DoJE=T BraDBF=F KetDBF=T FulRan=T
         Omega=  0.000000  0.000000  1.000000  0.000000  0.000000 ICntrl=     500 IOpCl=  0
         NMat0=    1 NMatS0=    1 NMatT0=    0 NMatD0=    1 NMtDS0=    0 NMtDT0=    0
         I1Cent=           4 NGrid=           0.
 Petite list used in FoFCou.
 Initial guess orbital symmetries:
       Occupied  (SGU) (SGG) (SGU) (SGG) (SGU) (SGG) (PIG) (PIG)
                 (PIU) (PIU) (SGG) (SGU) (SGG) (SGU) (PIU) (PIU)
                 (PIG) (PIG) (SGG) (PIU) (PIU) (SGU) (PIG) (PIG)
                 (DLTG) (DLTG) (DLTU) (DLTU) (SGG) (SGU) (SGG)
                 (PIU) (PIU) (PIG) (PIG)
       Virtual   (SGU) (SGG) (SGU) (PIU) (PIU) (SGG) (DLTG) (DLTG)
                 (PIG) (PIG) (PIU) (PIU) (SGU) (DLTU) (DLTU) (SGG)
                 (PIU) (PIU) (SGU) (PIG) (PIG) (SGG) (PIG) (PIG)
                 (SGU) (SGG) (PIU) (PIU) (DLTG) (DLTG) (PHIU) (PHIU)
                 (DLTG) (DLTG) (SGG) (DLTU) (DLTU) (PHIG) (PHIG)
                 (PIG) (PIG) (SGU) (PIU) (PIU) (SGU) (SGG) (PIU)
                 (PIU) (DLTU) (DLTU) (PIG) (PIG) (SGU) (SGG) (?A)
                 (?A) (PHIU) (PHIU) (PIG) (PIG) (DLTG) (DLTG) (PIU)
                 (PIU) (?B) (?B) (SGG) (PHIU) (PHIU) (DLTG) (DLTG)
                 (PHIG) (PHIG) (DLTU) (DLTU) (SGU) (DLTG) (DLTG)
                 (PHIG) (PHIG) (PIU) (PIU) (PIG) (PIG) (SGG) (DLTU)
                 (DLTU) (SGU) (SGU) (PIG) (PIG) (SGG) (PIU) (PIU)
                 (DLTU) (DLTU) (SGU) (PIU) (PIU) (?A) (?A) (SGG)
                 (?C) (?C) (PIG) (PIG) (?D) (?D) (PHIU) (PHIU)
                 (?B) (?B) (DLTG) (DLTG) (PIU) (PIU) (SGG) (PIG)
                 (PIG) (PHIU) (PHIU) (PHIG) (PHIG) (SGG) (SGU)
                 (DLTG) (DLTG) (?A) (?A) (PHIU) (PHIU) (DLTU) (DLTU)
                 (?B) (?B) (PHIG) (PHIG) (SGU) (PIU) (PIU) (DLTG)
                 (DLTG) (PIG) (PIG) (PHIG) (PHIG) (SGG) (PIG) (PIG)
                 (DLTU) (DLTU) (SGU) (DLTG) (DLTG) (DLTU) (DLTU)
                 (PIU) (PIU) (SGU) (SGG) (DLTU) (DLTU) (PIU) (PIU)
                 (SGU) (PIG) (PIG) (PIU) (PIU) (SGG) (PIG) (PIG)
                 (DLTG) (DLTG) (PHIU) (PHIU) (SGG) (PIU) (PIU)
                 (SGU) (?A) (?A) (?C) (?C) (?D) (?D) (PHIU) (PHIU)
                 (DLTG) (DLTG) (PHIG) (PHIG) (?B) (?B) (DLTU) (DLTU)
                 (PIU) (PIU) (PIG) (PIG) (SGU) (PHIG) (PHIG) (SGG)
                 (SGG) (?A) (?A) (PHIU) (PHIU) (?B) (?B) (DLTU)
                 (DLTU) (PHIG) (PHIG) (DLTG) (DLTG) (SGU) (PIG)
                 (PIG) (SGU) (PIG) (PIG) (PIU) (PIU) (SGG) (DLTU)
                 (DLTU) (SGG) (SGU) (DLTG) (DLTG) (DLTU) (DLTU)
                 (PIU) (PIU) (PIG) (PIG) (PIG) (PIG) (SGG) (SGU)
                 (PHIU) (PHIU) (PHIU) (PHIU) (DLTG) (DLTG) (PHIG)
                 (PHIG) (PIU) (PIU) (?A) (?A) (DLTG) (DLTG) (?C)
                 (?C) (DLTU) (DLTU) (?E) (?E) (?F) (?F) (?D) (?D)
                 (SGG) (?B) (?B) (SGU) (PIU) (PIU) (PIG) (PIG)
                 (PIU) (PIU) (PHIG) (PHIG) (PIG) (PIG) (DLTU) (DLTU)
                 (SGG) (SGU) (SGG) (?A) (?A) (?C) (?C) (PHIU) (PHIU)
                 (PIG) (PIG) (?D) (?D) (?B) (?B) (SGU) (DLTG) (DLTG)
                 (PHIG) (PHIG) (PIU) (PIU) (?A) (?A) (PHIU) (PHIU)
                 (?B) (?B) (PHIG) (PHIG) (DLTG) (DLTG) (SGU) (DLTU)
                 (DLTU) (SGG) (PIG) (PIG) (DLTU) (DLTU) (PIU) (PIU)
                 (SGG) (PIG) (PIG) (SGU) (SGG) (SGU) (DLTG) (DLTG)
                 (DLTU) (DLTU) (PIU) (PIU) (PIG) (PIG) (SGU) (SGG)
                 (PIU) (PIU) (SGU) (PIG) (PIG) (SGG) (SGU) (SGG)
                 (SGU)
 The electronic state of the initial guess is 1-SGG.
 Requested convergence on RMS density matrix=1.00D-10 within 128 cycles.
 Requested convergence on MAX density matrix=1.00D-08.
 Requested convergence on             energy=1.00D-08.
 No special actions if energy rises.
 Initial convergence to 1.0D-05 achieved.  Increase integral accuracy.
 SCF Done:  E(ROHF) =  -5144.92252836     A.U. after   14 cycles
             Convg  =    0.2054D-10             -V/T =  2.0000
 <Sx>= 0.0000 <Sy>= 0.0000 <Sz>= 0.0000 <S**2>= 0.0000 S= 0.0000
 <L.S>= 0.000000000000E+00
 Annihilation of the first spin contaminant:
 S**2 before annihilation     0.0000,   after     0.0000
 GenMOA:  NOpAll=  8 NOp2=8 NOpUse=  8 JSym2X=1
 <Sx>= 0.0000 <Sy>= 0.0000 <Sz>= 0.0000 <S**2>= 0.0000 S= 0.0000
 Range of M.O.s used for correlation:    29   384
 NBasis=   384 NAE=    35 NBE=    35 NFC=    28 NFV=     0
 NROrb=    356 NOA=     7 NOB=     7 NVA=   349 NVB=   349

 **** Warning!!: The largest alpha MO coefficient is  0.12427010D+04


 **** Warning!!: The largest beta MO coefficient is  0.12427010D+04

 Singles contribution to E2=   -0.9270326404D-14
 Disk-based method using OVN memory for  7 occupieds at a time.
 Permanent disk used for amplitudes and <ij||ab> integrals=    17037482 words.
 Estimated scratch disk usage=   516419451 words.
 IUseRI=2 ITolRI= 6 IR12RI=0
 Actual    scratch disk usage=   513753979 words.
 GetIJB would need an additional  1394868899 words of memory to use all   8 processors.
 JobTyp=2 Pass  1:  I=   1 to   7 NPSUse=  1 ParTrn=F ParDer=F DoDerP=F.
 (rs|ai) integrals will be sorted in core.
 T,EIJ(AA): I=   1 J=   2      0.1000488E-03     -0.3475251E-03
 T,EIJ(AA): I=   1 J=   3      0.2336612E-03     -0.7996169E-03
 T,EIJ(AA): I=   1 J=   4      0.2840316E-03     -0.9538624E-03
 T,EIJ(AA): I=   1 J=   5      0.2840316E-03     -0.9538624E-03
 T,EIJ(AA): I=   1 J=   6      0.2431512E-03     -0.8532182E-03
 T,EIJ(AA): I=   1 J=   7      0.2431512E-03     -0.8532182E-03
 T,EIJ(AA): I=   2 J=   3      0.7870420E-03     -0.2049418E-02
 T,EIJ(AA): I=   2 J=   4      0.4819938E-03     -0.1294181E-02
 T,EIJ(AA): I=   2 J=   5      0.4819938E-03     -0.1294181E-02
 T,EIJ(AA): I=   2 J=   6      0.3826542E-03     -0.1126129E-02
 T,EIJ(AA): I=   2 J=   7      0.3826542E-03     -0.1126129E-02
 T,EIJ(AA): I=   3 J=   4      0.1507126E-02     -0.3514440E-02
 T,EIJ(AA): I=   3 J=   5      0.1507126E-02     -0.3514440E-02
 T,EIJ(AA): I=   3 J=   6      0.2519110E-02     -0.4823141E-02
 T,EIJ(AA): I=   3 J=   7      0.2519110E-02     -0.4823141E-02
 T,EIJ(AA): I=   4 J=   5      0.1351961E-02     -0.3141520E-02
 T,EIJ(AA): I=   4 J=   6      0.1291063E-02     -0.3049412E-02
 T,EIJ(AA): I=   4 J=   7      0.2796461E-03     -0.5708198E-03
 T,EIJ(AA): I=   5 J=   6      0.2796461E-03     -0.5708198E-03
 T,EIJ(AA): I=   5 J=   7      0.1291063E-02     -0.3049412E-02
 T,EIJ(AA): I=   6 J=   7      0.1603962E-02     -0.3580212E-02
 T,EIJ(AB): I=   1 J=   1      0.1589421E-02     -0.6445166E-02
 T,EIJ(AB): I=   1 J=   2      0.8957149E-03     -0.4123984E-02
 T,EIJ(AB): I=   1 J=   3      0.1411540E-02     -0.5441525E-02
 T,EIJ(AB): I=   1 J=   4      0.1060695E-02     -0.4086783E-02
 T,EIJ(AB): I=   1 J=   5      0.1060695E-02     -0.4086783E-02
 T,EIJ(AB): I=   1 J=   6      0.9718287E-03     -0.3728988E-02
 T,EIJ(AB): I=   1 J=   7      0.9718287E-03     -0.3728988E-02
 T,EIJ(AB): I=   2 J=   1      0.8957149E-03     -0.4123984E-02
 T,EIJ(AB): I=   2 J=   2      0.1981085E-02     -0.6905422E-02
 T,EIJ(AB): I=   2 J=   3      0.1816027E-02     -0.5862975E-02
 T,EIJ(AB): I=   2 J=   4      0.1369708E-02     -0.4623845E-02
 T,EIJ(AB): I=   2 J=   5      0.1369708E-02     -0.4623845E-02
 T,EIJ(AB): I=   2 J=   6      0.1510087E-02     -0.5215594E-02
 T,EIJ(AB): I=   2 J=   7      0.1510087E-02     -0.5215594E-02
 T,EIJ(AB): I=   3 J=   1      0.1411540E-02     -0.5441525E-02
 T,EIJ(AB): I=   3 J=   2      0.1816027E-02     -0.5862975E-02
 T,EIJ(AB): I=   3 J=   3      0.1185895E-01     -0.2064702E-01
 T,EIJ(AB): I=   3 J=   4      0.1972328E-02     -0.5190751E-02
 T,EIJ(AB): I=   3 J=   5      0.1972328E-02     -0.5190751E-02
 T,EIJ(AB): I=   3 J=   6      0.2852213E-02     -0.6238374E-02
 T,EIJ(AB): I=   3 J=   7      0.2852213E-02     -0.6238374E-02
 T,EIJ(AB): I=   4 J=   1      0.1060695E-02     -0.4086783E-02
 T,EIJ(AB): I=   4 J=   2      0.1369708E-02     -0.4623845E-02
 T,EIJ(AB): I=   4 J=   3      0.1972328E-02     -0.5190751E-02
 T,EIJ(AB): I=   4 J=   4      0.3939739E-02     -0.9966750E-02
 T,EIJ(AB): I=   4 J=   5      0.1749047E-02     -0.4446681E-02
 T,EIJ(AB): I=   4 J=   6      0.1656841E-02     -0.4295970E-02
 T,EIJ(AB): I=   4 J=   7      0.3531620E-02     -0.9435285E-02
 T,EIJ(AB): I=   5 J=   1      0.1060695E-02     -0.4086783E-02
 T,EIJ(AB): I=   5 J=   2      0.1369708E-02     -0.4623845E-02
 T,EIJ(AB): I=   5 J=   3      0.1972328E-02     -0.5190751E-02
 T,EIJ(AB): I=   5 J=   4      0.1749047E-02     -0.4446681E-02
 T,EIJ(AB): I=   5 J=   5      0.3939739E-02     -0.9966750E-02
 T,EIJ(AB): I=   5 J=   6      0.3531620E-02     -0.9435285E-02
 T,EIJ(AB): I=   5 J=   7      0.1656841E-02     -0.4295970E-02
 T,EIJ(AB): I=   6 J=   1      0.9718287E-03     -0.3728988E-02
 T,EIJ(AB): I=   6 J=   2      0.1510087E-02     -0.5215594E-02
 T,EIJ(AB): I=   6 J=   3      0.2852213E-02     -0.6238374E-02
 T,EIJ(AB): I=   6 J=   4      0.1656841E-02     -0.4295970E-02
 T,EIJ(AB): I=   6 J=   5      0.3531620E-02     -0.9435285E-02
 T,EIJ(AB): I=   6 J=   6      0.4772276E-02     -0.1144415E-01
 T,EIJ(AB): I=   6 J=   7      0.2091667E-02     -0.5128488E-02
 T,EIJ(AB): I=   7 J=   1      0.9718287E-03     -0.3728988E-02
 T,EIJ(AB): I=   7 J=   2      0.1510087E-02     -0.5215594E-02
 T,EIJ(AB): I=   7 J=   3      0.2852213E-02     -0.6238374E-02
 T,EIJ(AB): I=   7 J=   4      0.3531620E-02     -0.9435285E-02
 T,EIJ(AB): I=   7 J=   5      0.1656841E-02     -0.4295970E-02
 T,EIJ(AB): I=   7 J=   6      0.2091667E-02     -0.5128488E-02
 T,EIJ(AB): I=   7 J=   7      0.4772276E-02     -0.1144415E-01
 Actual    scratch disk usage=   513753979 words.
 GetIJB would need an additional  1394868899 words of memory to use all   8 processors.
 JobTyp=3 Pass  1:  I=   1 to   7 NPSUse=  1 ParTrn=F ParDer=F DoDerP=F.
 (rs|ai) integrals will be sorted in core.
 T,EIJ(BB): I=   1 J=   2      0.1000488E-03     -0.3475251E-03
 T,EIJ(BB): I=   1 J=   3      0.2336612E-03     -0.7996169E-03
 T,EIJ(BB): I=   1 J=   4      0.2840316E-03     -0.9538624E-03
 T,EIJ(BB): I=   1 J=   5      0.2840316E-03     -0.9538624E-03
 T,EIJ(BB): I=   1 J=   6      0.2431512E-03     -0.8532182E-03
 T,EIJ(BB): I=   1 J=   7      0.2431512E-03     -0.8532182E-03
 T,EIJ(BB): I=   2 J=   3      0.7870420E-03     -0.2049418E-02
 T,EIJ(BB): I=   2 J=   4      0.4819938E-03     -0.1294181E-02
 T,EIJ(BB): I=   2 J=   5      0.4819938E-03     -0.1294181E-02
 T,EIJ(BB): I=   2 J=   6      0.3826542E-03     -0.1126129E-02
 T,EIJ(BB): I=   2 J=   7      0.3826542E-03     -0.1126129E-02
 T,EIJ(BB): I=   3 J=   4      0.1507126E-02     -0.3514440E-02
 T,EIJ(BB): I=   3 J=   5      0.1507126E-02     -0.3514440E-02
 T,EIJ(BB): I=   3 J=   6      0.2519110E-02     -0.4823141E-02
 T,EIJ(BB): I=   3 J=   7      0.2519110E-02     -0.4823141E-02
 T,EIJ(BB): I=   4 J=   5      0.1351961E-02     -0.3141520E-02
 T,EIJ(BB): I=   4 J=   6      0.1291063E-02     -0.3049412E-02
 T,EIJ(BB): I=   4 J=   7      0.2796461E-03     -0.5708198E-03
 T,EIJ(BB): I=   5 J=   6      0.2796461E-03     -0.5708198E-03
 T,EIJ(BB): I=   5 J=   7      0.1291063E-02     -0.3049412E-02
 T,EIJ(BB): I=   6 J=   7      0.1603962E-02     -0.3580212E-02
 Spin components of T(2) and E(2):
     alpha-alpha T2 =       0.1805422617D-01 E2=     -0.4228869847D-01
     alpha-beta  T2 =       0.1084827575D+00 E2=     -0.2980890843D+00
     beta-beta   T2 =       0.1805422617D-01 E2=     -0.4228869847D-01
 ANorm=    0.1069855696D+01
 E2 =    -0.3826664812D+00 EUMP2 =    -0.51453051948452D+04

 Complete Basis Set (CBS) Extrapolation:
 M. R. Nyden and G. A. Petersson, JCP 75, 1843 (1981)
 G. A. Petersson and M. A. Al-Laham, JCP 94, 6081 (1991)
 G. A. Petersson, T. Tensfeldt, and J. A. Montgomery, JCP 94, 6091 (1991)
 J. A. Montgomery, J. W. Ochterski, and G. A. Petersson, JCP 101, 5900 (1994)
 
 Minimum Number of PNO for Extrapolation =  20
 Absolute Overlaps: IRadAn =         5
 LocTrn: ILocal=3 LocCor=F DoCore=F.
 Entering OneElI...
 Overlap between basis sets.
 Requested accuracy = 0.1000D-12
 PrsmSu:  NPrtUS=   1 ThrOK=F IAlg=1
 PRISM was handed  1609967767 working-precision words and   136 shell-pairs
 IPart=  0 NShTot=         136 NBatch=          16 AvBLen=         8.5
 CnvPC2: ToCart=F DoDens=F IPureD=0 IPureF=0.
 Transformed matrix in CnvPC2: 
                 1             2             3             4             5 
      1   0.100000D+01  0.406589D+00  0.000000D+00  0.000000D+00  0.000000D+00
      2   0.406589D+00  0.100000D+01  0.000000D+00  0.000000D+00  0.000000D+00
      3   0.000000D+00  0.000000D+00  0.100000D+01  0.000000D+00  0.000000D+00
      4   0.000000D+00  0.000000D+00  0.000000D+00  0.100000D+01  0.000000D+00
      5   0.000000D+00  0.000000D+00  0.000000D+00  0.000000D+00  0.100000D+01
      6   0.319944D-01  0.362204D+00  0.000000D+00  0.000000D+00  0.000000D+00
      7   0.000000D+00  0.000000D+00  0.375020D+00  0.000000D+00  0.000000D+00
      8   0.000000D+00  0.000000D+00  0.000000D+00  0.375020D+00  0.000000D+00
      9   0.000000D+00  0.000000D+00  0.000000D+00  0.000000D+00  0.375020D+00
     10   0.000000D+00  0.000000D+00  0.000000D+00  0.000000D+00  0.000000D+00
     11   0.000000D+00  0.000000D+00  0.000000D+00  0.000000D+00  0.000000D+00
     12   0.000000D+00  0.000000D+00  0.000000D+00  0.000000D+00  0.000000D+00
     13   0.000000D+00  0.000000D+00  0.000000D+00  0.000000D+00  0.000000D+00
     14   0.000000D+00  0.000000D+00  0.000000D+00  0.000000D+00  0.000000D+00
     15  -0.396207D-03  0.612395D-02  0.000000D+00  0.000000D+00  0.000000D+00
     16   0.000000D+00  0.000000D+00  0.149285D-01  0.000000D+00  0.000000D+00
     17   0.000000D+00  0.000000D+00  0.000000D+00  0.149285D-01  0.000000D+00
     18   0.000000D+00  0.000000D+00  0.000000D+00  0.000000D+00  0.149285D-01
     19   0.000000D+00  0.000000D+00  0.000000D+00  0.000000D+00  0.000000D+00
     20   0.000000D+00  0.000000D+00  0.000000D+00  0.000000D+00  0.000000D+00
     21   0.000000D+00  0.000000D+00  0.000000D+00  0.000000D+00  0.000000D+00
     22   0.000000D+00  0.000000D+00  0.000000D+00  0.000000D+00  0.000000D+00
     23   0.000000D+00  0.000000D+00  0.000000D+00  0.000000D+00  0.000000D+00
     24   0.000000D+00  0.000000D+00  0.000000D+00  0.000000D+00  0.000000D+00
     25   0.000000D+00  0.000000D+00  0.000000D+00  0.000000D+00  0.000000D+00
     26   0.000000D+00  0.000000D+00  0.000000D+00  0.000000D+00  0.000000D+00
     27   0.000000D+00  0.000000D+00  0.000000D+00  0.000000D+00  0.000000D+00
     28   0.000000D+00  0.000000D+00  0.000000D+00  0.000000D+00  0.000000D+00
     29   0.000000D+00  0.000000D+00  0.000000D+00  0.000000D+00  0.000000D+00
     30   0.000000D+00  0.000000D+00  0.000000D+00  0.000000D+00  0.000000D+00
     31   0.000000D+00  0.000000D+00  0.000000D+00  0.000000D+00  0.000000D+00
     32   0.000000D+00  0.000000D+00  0.000000D+00  0.000000D+00  0.000000D+00
     33   0.000000D+00  0.000000D+00  0.000000D+00  0.000000D+00  0.000000D+00
     34   0.000000D+00  0.000000D+00  0.000000D+00  0.000000D+00  0.000000D+00
     35   0.000000D+00  0.000000D+00  0.000000D+00  0.000000D+00  0.000000D+00
     36   0.000000D+00  0.000000D+00  0.000000D+00  0.000000D+00  0.000000D+00
     37   0.000000D+00  0.000000D+00  0.000000D+00  0.000000D+00  0.000000D+00
     38   0.265712D-03  0.165531D-02  0.000000D+00  0.000000D+00 -0.501541D-03
     39   0.000000D+00  0.000000D+00  0.120449D-03  0.000000D+00  0.000000D+00
     40   0.000000D+00  0.000000D+00  0.000000D+00  0.120449D-03  0.000000D+00
     41   0.537904D-03  0.332266D-02  0.000000D+00  0.000000D+00 -0.906502D-03
     42   0.399451D-02  0.241092D-01  0.000000D+00  0.000000D+00 -0.373653D-02
     43   0.000000D+00  0.000000D+00  0.151710D-02  0.000000D+00  0.000000D+00
     44   0.000000D+00  0.000000D+00  0.000000D+00  0.151710D-02  0.000000D+00
     45   0.000000D+00  0.000000D+00  0.000000D+00  0.000000D+00  0.000000D+00
     46   0.000000D+00  0.000000D+00  0.000000D+00  0.000000D+00  0.000000D+00
                 6             7             8             9            10 
      1   0.319944D-01  0.000000D+00  0.000000D+00  0.000000D+00  0.000000D+00
      2   0.362204D+00  0.000000D+00  0.000000D+00  0.000000D+00  0.000000D+00
      3   0.000000D+00  0.375020D+00  0.000000D+00  0.000000D+00  0.000000D+00
      4   0.000000D+00  0.000000D+00  0.375020D+00  0.000000D+00  0.000000D+00
      5   0.000000D+00  0.000000D+00  0.000000D+00  0.375020D+00  0.000000D+00
      6   0.100000D+01  0.000000D+00  0.000000D+00  0.000000D+00  0.000000D+00
      7   0.000000D+00  0.100000D+01  0.000000D+00  0.000000D+00  0.000000D+00
      8   0.000000D+00  0.000000D+00  0.100000D+01  0.000000D+00  0.000000D+00
      9   0.000000D+00  0.000000D+00  0.000000D+00  0.100000D+01  0.000000D+00
     10   0.000000D+00  0.000000D+00  0.000000D+00  0.000000D+00  0.100000D+01
     11   0.000000D+00  0.000000D+00  0.000000D+00  0.000000D+00  0.000000D+00
     12   0.000000D+00  0.000000D+00  0.000000D+00  0.000000D+00  0.000000D+00
     13   0.000000D+00  0.000000D+00  0.000000D+00  0.000000D+00  0.000000D+00
     14   0.000000D+00  0.000000D+00  0.000000D+00  0.000000D+00  0.000000D+00
     15   0.201919D+00  0.000000D+00  0.000000D+00  0.000000D+00  0.000000D+00
     16   0.000000D+00  0.218356D+00  0.000000D+00  0.000000D+00  0.000000D+00
     17   0.000000D+00  0.000000D+00  0.218356D+00  0.000000D+00  0.000000D+00
     18   0.000000D+00  0.000000D+00  0.000000D+00  0.218356D+00  0.000000D+00
     19   0.000000D+00  0.000000D+00  0.000000D+00  0.000000D+00  0.404997D-01
     20   0.000000D+00  0.000000D+00  0.000000D+00  0.000000D+00  0.000000D+00
     21   0.000000D+00  0.000000D+00  0.000000D+00  0.000000D+00  0.000000D+00
     22   0.000000D+00  0.000000D+00  0.000000D+00  0.000000D+00  0.000000D+00
     23   0.000000D+00  0.000000D+00  0.000000D+00  0.000000D+00  0.000000D+00
     24   0.000000D+00  0.000000D+00  0.000000D+00  0.000000D+00  0.000000D+00
     25   0.000000D+00  0.000000D+00  0.000000D+00  0.000000D+00  0.000000D+00
     26   0.000000D+00  0.000000D+00  0.000000D+00  0.000000D+00  0.000000D+00
     27   0.000000D+00  0.000000D+00  0.000000D+00  0.000000D+00  0.000000D+00
     28   0.000000D+00  0.000000D+00  0.000000D+00  0.000000D+00  0.000000D+00
     29   0.000000D+00  0.000000D+00  0.000000D+00  0.000000D+00  0.000000D+00
     30   0.000000D+00  0.000000D+00  0.000000D+00  0.000000D+00  0.000000D+00
     31   0.000000D+00  0.000000D+00  0.000000D+00  0.000000D+00  0.000000D+00
     32   0.000000D+00  0.000000D+00  0.000000D+00  0.000000D+00  0.000000D+00
     33   0.000000D+00  0.000000D+00  0.000000D+00  0.000000D+00  0.000000D+00
     34   0.000000D+00  0.000000D+00  0.000000D+00  0.000000D+00  0.000000D+00
     35   0.000000D+00  0.000000D+00  0.000000D+00  0.000000D+00  0.000000D+00
     36   0.000000D+00  0.000000D+00  0.000000D+00  0.000000D+00  0.000000D+00
     37   0.000000D+00  0.000000D+00  0.000000D+00  0.000000D+00  0.000000D+00
     38   0.101875D-01  0.000000D+00  0.000000D+00 -0.798616D-02  0.346534D-02
     39   0.000000D+00  0.195601D-02  0.000000D+00  0.000000D+00  0.000000D+00
     40   0.000000D+00  0.000000D+00  0.195601D-02  0.000000D+00  0.000000D+00
     41   0.193188D-01  0.000000D+00  0.000000D+00 -0.138766D-01  0.561335D-02
     42   0.117881D+00  0.000000D+00  0.000000D+00 -0.484556D-01  0.100601D-01
     43   0.000000D+00  0.212350D-01  0.000000D+00  0.000000D+00  0.000000D+00
     44   0.000000D+00  0.000000D+00  0.212350D-01  0.000000D+00  0.000000D+00
     45   0.000000D+00  0.000000D+00  0.000000D+00  0.000000D+00  0.000000D+00
     46   0.000000D+00  0.000000D+00  0.000000D+00  0.000000D+00  0.000000D+00
                11            12            13            14            15 
      1   0.000000D+00  0.000000D+00  0.000000D+00  0.000000D+00 -0.396207D-03
      2   0.000000D+00  0.000000D+00  0.000000D+00  0.000000D+00  0.612395D-02
      3   0.000000D+00  0.000000D+00  0.000000D+00  0.000000D+00  0.000000D+00
      4   0.000000D+00  0.000000D+00  0.000000D+00  0.000000D+00  0.000000D+00
      5   0.000000D+00  0.000000D+00  0.000000D+00  0.000000D+00  0.000000D+00
      6   0.000000D+00  0.000000D+00  0.000000D+00  0.000000D+00  0.201919D+00
      7   0.000000D+00  0.000000D+00  0.000000D+00  0.000000D+00  0.000000D+00
      8   0.000000D+00  0.000000D+00  0.000000D+00  0.000000D+00  0.000000D+00
      9   0.000000D+00  0.000000D+00  0.000000D+00  0.000000D+00  0.000000D+00
     10   0.000000D+00  0.000000D+00  0.000000D+00  0.000000D+00  0.000000D+00
     11   0.100000D+01  0.000000D+00  0.000000D+00  0.000000D+00  0.000000D+00
     12   0.000000D+00  0.100000D+01  0.000000D+00  0.000000D+00  0.000000D+00
     13   0.000000D+00  0.000000D+00  0.100000D+01  0.000000D+00  0.000000D+00
     14   0.000000D+00  0.000000D+00  0.000000D+00  0.100000D+01  0.000000D+00
     15   0.000000D+00  0.000000D+00  0.000000D+00  0.000000D+00  0.100000D+01
     16   0.000000D+00  0.000000D+00  0.000000D+00  0.000000D+00  0.000000D+00
     17   0.000000D+00  0.000000D+00  0.000000D+00  0.000000D+00  0.000000D+00
     18   0.000000D+00  0.000000D+00  0.000000D+00  0.000000D+00  0.000000D+00
     19   0.000000D+00  0.000000D+00  0.000000D+00  0.000000D+00  0.000000D+00
     20   0.404997D-01  0.000000D+00  0.000000D+00  0.000000D+00  0.000000D+00
     21   0.000000D+00  0.404997D-01  0.000000D+00  0.000000D+00  0.000000D+00
     22   0.000000D+00  0.000000D+00  0.404997D-01  0.000000D+00  0.000000D+00
     23   0.000000D+00  0.000000D+00  0.000000D+00  0.404997D-01  0.000000D+00
     24   0.000000D+00  0.000000D+00  0.000000D+00  0.000000D+00  0.265712D-03
     25   0.000000D+00  0.000000D+00  0.000000D+00  0.000000D+00  0.165531D-02
     26   0.000000D+00  0.000000D+00  0.000000D+00  0.000000D+00  0.000000D+00
     27   0.000000D+00  0.000000D+00  0.000000D+00  0.000000D+00  0.000000D+00
     28   0.000000D+00  0.000000D+00  0.000000D+00  0.000000D+00  0.501541D-03
     29   0.000000D+00  0.000000D+00  0.000000D+00  0.000000D+00  0.101875D-01
     30   0.000000D+00  0.000000D+00  0.000000D+00  0.000000D+00  0.000000D+00
     31   0.000000D+00  0.000000D+00  0.000000D+00  0.000000D+00  0.000000D+00
     32   0.000000D+00  0.000000D+00  0.000000D+00  0.000000D+00  0.798616D-02
     33   0.000000D+00  0.000000D+00  0.000000D+00  0.000000D+00  0.346534D-02
     34   0.000000D+00  0.000000D+00  0.000000D+00  0.000000D+00  0.000000D+00
     35   0.000000D+00  0.000000D+00  0.000000D+00  0.000000D+00  0.000000D+00
     36   0.000000D+00  0.000000D+00  0.000000D+00  0.000000D+00  0.000000D+00
     37   0.000000D+00  0.000000D+00  0.000000D+00  0.000000D+00  0.000000D+00
     38   0.000000D+00  0.000000D+00  0.000000D+00  0.000000D+00  0.145921D+00
     39  -0.152064D-02  0.000000D+00  0.000000D+00  0.000000D+00  0.000000D+00
     40   0.000000D+00 -0.152064D-02  0.000000D+00  0.000000D+00  0.000000D+00
     41   0.000000D+00  0.000000D+00  0.000000D+00  0.000000D+00  0.201178D+00
     42   0.000000D+00  0.000000D+00  0.000000D+00  0.000000D+00  0.389720D+00
     43  -0.101670D-01  0.000000D+00  0.000000D+00  0.000000D+00  0.000000D+00
     44   0.000000D+00 -0.101670D-01  0.000000D+00  0.000000D+00  0.000000D+00
     45   0.000000D+00  0.000000D+00  0.204758D-02  0.000000D+00  0.000000D+00
     46   0.000000D+00  0.000000D+00  0.000000D+00  0.204758D-02  0.000000D+00
                16            17            18            19            20 
      1   0.000000D+00  0.000000D+00  0.000000D+00  0.000000D+00  0.000000D+00
      2   0.000000D+00  0.000000D+00  0.000000D+00  0.000000D+00  0.000000D+00
      3   0.149285D-01  0.000000D+00  0.000000D+00  0.000000D+00  0.000000D+00
      4   0.000000D+00  0.149285D-01  0.000000D+00  0.000000D+00  0.000000D+00
      5   0.000000D+00  0.000000D+00  0.149285D-01  0.000000D+00  0.000000D+00
      6   0.000000D+00  0.000000D+00  0.000000D+00  0.000000D+00  0.000000D+00
      7   0.218356D+00  0.000000D+00  0.000000D+00  0.000000D+00  0.000000D+00
      8   0.000000D+00  0.218356D+00  0.000000D+00  0.000000D+00  0.000000D+00
      9   0.000000D+00  0.000000D+00  0.218356D+00  0.000000D+00  0.000000D+00
     10   0.000000D+00  0.000000D+00  0.000000D+00  0.404997D-01  0.000000D+00
     11   0.000000D+00  0.000000D+00  0.000000D+00  0.000000D+00  0.404997D-01
     12   0.000000D+00  0.000000D+00  0.000000D+00  0.000000D+00  0.000000D+00
     13   0.000000D+00  0.000000D+00  0.000000D+00  0.000000D+00  0.000000D+00
     14   0.000000D+00  0.000000D+00  0.000000D+00  0.000000D+00  0.000000D+00
     15   0.000000D+00  0.000000D+00  0.000000D+00  0.000000D+00  0.000000D+00
     16   0.100000D+01  0.000000D+00  0.000000D+00  0.000000D+00  0.000000D+00
     17   0.000000D+00  0.100000D+01  0.000000D+00  0.000000D+00  0.000000D+00
     18   0.000000D+00  0.000000D+00  0.100000D+01  0.000000D+00  0.000000D+00
     19   0.000000D+00  0.000000D+00  0.000000D+00  0.100000D+01  0.000000D+00
     20   0.000000D+00  0.000000D+00  0.000000D+00  0.000000D+00  0.100000D+01
     21   0.000000D+00  0.000000D+00  0.000000D+00  0.000000D+00  0.000000D+00
     22   0.000000D+00  0.000000D+00  0.000000D+00  0.000000D+00  0.000000D+00
     23   0.000000D+00  0.000000D+00  0.000000D+00  0.000000D+00  0.000000D+00
     24   0.000000D+00  0.000000D+00 -0.537904D-03  0.399451D-02  0.000000D+00
     25   0.000000D+00  0.000000D+00 -0.332266D-02  0.241092D-01  0.000000D+00
     26   0.120449D-03  0.000000D+00  0.000000D+00  0.000000D+00 -0.151710D-02
     27   0.000000D+00  0.120449D-03  0.000000D+00  0.000000D+00  0.000000D+00
     28   0.000000D+00  0.000000D+00 -0.906502D-03  0.373653D-02  0.000000D+00
     29   0.000000D+00  0.000000D+00 -0.193188D-01  0.117881D+00  0.000000D+00
     30   0.195601D-02  0.000000D+00  0.000000D+00  0.000000D+00 -0.212350D-01
     31   0.000000D+00  0.195601D-02  0.000000D+00  0.000000D+00  0.000000D+00
     32   0.000000D+00  0.000000D+00 -0.138766D-01  0.484556D-01  0.000000D+00
     33   0.000000D+00  0.000000D+00 -0.561335D-02  0.100601D-01  0.000000D+00
     34   0.152064D-02  0.000000D+00  0.000000D+00  0.000000D+00 -0.101670D-01
     35   0.000000D+00  0.152064D-02  0.000000D+00  0.000000D+00  0.000000D+00
     36   0.000000D+00  0.000000D+00  0.000000D+00  0.000000D+00  0.000000D+00
     37   0.000000D+00  0.000000D+00  0.000000D+00  0.000000D+00  0.000000D+00
     38   0.000000D+00  0.000000D+00 -0.201178D+00  0.389720D+00  0.000000D+00
     39   0.650526D-01  0.000000D+00  0.000000D+00  0.000000D+00 -0.270163D+00
     40   0.000000D+00  0.650526D-01  0.000000D+00  0.000000D+00  0.000000D+00
     41   0.000000D+00  0.000000D+00 -0.264038D+00  0.308374D+00  0.000000D+00
     42   0.000000D+00  0.000000D+00 -0.308374D+00  0.235451D-01  0.000000D+00
     43   0.270163D+00  0.000000D+00  0.000000D+00  0.000000D+00 -0.444927D+00
     44   0.000000D+00  0.270163D+00  0.000000D+00  0.000000D+00  0.000000D+00
     45   0.000000D+00  0.000000D+00  0.000000D+00  0.000000D+00  0.000000D+00
     46   0.000000D+00  0.000000D+00  0.000000D+00  0.000000D+00  0.000000D+00
                21            22            23            24            25 
      1   0.000000D+00  0.000000D+00  0.000000D+00  0.000000D+00  0.000000D+00
      2   0.000000D+00  0.000000D+00  0.000000D+00  0.000000D+00  0.000000D+00
      3   0.000000D+00  0.000000D+00  0.000000D+00  0.000000D+00  0.000000D+00
      4   0.000000D+00  0.000000D+00  0.000000D+00  0.000000D+00  0.000000D+00
      5   0.000000D+00  0.000000D+00  0.000000D+00  0.000000D+00  0.000000D+00
      6   0.000000D+00  0.000000D+00  0.000000D+00  0.000000D+00  0.000000D+00
      7   0.000000D+00  0.000000D+00  0.000000D+00  0.000000D+00  0.000000D+00
      8   0.000000D+00  0.000000D+00  0.000000D+00  0.000000D+00  0.000000D+00
      9   0.000000D+00  0.000000D+00  0.000000D+00  0.000000D+00  0.000000D+00
     10   0.000000D+00  0.000000D+00  0.000000D+00  0.000000D+00  0.000000D+00
     11   0.000000D+00  0.000000D+00  0.000000D+00  0.000000D+00  0.000000D+00
     12   0.404997D-01  0.000000D+00  0.000000D+00  0.000000D+00  0.000000D+00
     13   0.000000D+00  0.404997D-01  0.000000D+00  0.000000D+00  0.000000D+00
     14   0.000000D+00  0.000000D+00  0.404997D-01  0.000000D+00  0.000000D+00
     15   0.000000D+00  0.000000D+00  0.000000D+00  0.265712D-03  0.165531D-02
     16   0.000000D+00  0.000000D+00  0.000000D+00  0.000000D+00  0.000000D+00
     17   0.000000D+00  0.000000D+00  0.000000D+00  0.000000D+00  0.000000D+00
     18   0.000000D+00  0.000000D+00  0.000000D+00 -0.537904D-03 -0.332266D-02
     19   0.000000D+00  0.000000D+00  0.000000D+00  0.399451D-02  0.241092D-01
     20   0.000000D+00  0.000000D+00  0.000000D+00  0.000000D+00  0.000000D+00
     21   0.100000D+01  0.000000D+00  0.000000D+00  0.000000D+00  0.000000D+00
     22   0.000000D+00  0.100000D+01  0.000000D+00  0.000000D+00  0.000000D+00
     23   0.000000D+00  0.000000D+00  0.100000D+01  0.000000D+00  0.000000D+00
     24   0.000000D+00  0.000000D+00  0.000000D+00  0.100000D+01  0.406589D+00
     25   0.000000D+00  0.000000D+00  0.000000D+00  0.406589D+00  0.100000D+01
     26   0.000000D+00  0.000000D+00  0.000000D+00  0.000000D+00  0.000000D+00
     27  -0.151710D-02  0.000000D+00  0.000000D+00  0.000000D+00  0.000000D+00
     28   0.000000D+00  0.000000D+00  0.000000D+00  0.000000D+00  0.000000D+00
     29   0.000000D+00  0.000000D+00  0.000000D+00  0.319944D-01  0.362204D+00
     30   0.000000D+00  0.000000D+00  0.000000D+00  0.000000D+00  0.000000D+00
     31  -0.212350D-01  0.000000D+00  0.000000D+00  0.000000D+00  0.000000D+00
     32   0.000000D+00  0.000000D+00  0.000000D+00  0.000000D+00  0.000000D+00
     33   0.000000D+00  0.000000D+00  0.000000D+00  0.000000D+00  0.000000D+00
     34   0.000000D+00  0.000000D+00  0.000000D+00  0.000000D+00  0.000000D+00
     35  -0.101670D-01  0.000000D+00  0.000000D+00  0.000000D+00  0.000000D+00
     36   0.000000D+00  0.204758D-02  0.000000D+00  0.000000D+00  0.000000D+00
     37   0.000000D+00  0.000000D+00  0.204758D-02  0.000000D+00  0.000000D+00
     38   0.000000D+00  0.000000D+00  0.000000D+00 -0.396207D-03  0.612395D-02
     39   0.000000D+00  0.000000D+00  0.000000D+00  0.000000D+00  0.000000D+00
     40  -0.270163D+00  0.000000D+00  0.000000D+00  0.000000D+00  0.000000D+00
     41   0.000000D+00  0.000000D+00  0.000000D+00  0.000000D+00  0.000000D+00
     42   0.000000D+00  0.000000D+00  0.000000D+00  0.000000D+00  0.000000D+00
     43   0.000000D+00  0.000000D+00  0.000000D+00  0.000000D+00  0.000000D+00
     44  -0.444927D+00  0.000000D+00  0.000000D+00  0.000000D+00  0.000000D+00
     45   0.000000D+00  0.206103D+00  0.000000D+00  0.000000D+00  0.000000D+00
     46   0.000000D+00  0.000000D+00  0.206103D+00  0.000000D+00  0.000000D+00
                26            27            28            29            30 
      1   0.000000D+00  0.000000D+00  0.000000D+00  0.000000D+00  0.000000D+00
      2   0.000000D+00  0.000000D+00  0.000000D+00  0.000000D+00  0.000000D+00
      3   0.000000D+00  0.000000D+00  0.000000D+00  0.000000D+00  0.000000D+00
      4   0.000000D+00  0.000000D+00  0.000000D+00  0.000000D+00  0.000000D+00
      5   0.000000D+00  0.000000D+00  0.000000D+00  0.000000D+00  0.000000D+00
      6   0.000000D+00  0.000000D+00  0.000000D+00  0.000000D+00  0.000000D+00
      7   0.000000D+00  0.000000D+00  0.000000D+00  0.000000D+00  0.000000D+00
      8   0.000000D+00  0.000000D+00  0.000000D+00  0.000000D+00  0.000000D+00
      9   0.000000D+00  0.000000D+00  0.000000D+00  0.000000D+00  0.000000D+00
     10   0.000000D+00  0.000000D+00  0.000000D+00  0.000000D+00  0.000000D+00
     11   0.000000D+00  0.000000D+00  0.000000D+00  0.000000D+00  0.000000D+00
     12   0.000000D+00  0.000000D+00  0.000000D+00  0.000000D+00  0.000000D+00
     13   0.000000D+00  0.000000D+00  0.000000D+00  0.000000D+00  0.000000D+00
     14   0.000000D+00  0.000000D+00  0.000000D+00  0.000000D+00  0.000000D+00
     15   0.000000D+00  0.000000D+00  0.501541D-03  0.101875D-01  0.000000D+00
     16   0.120449D-03  0.000000D+00  0.000000D+00  0.000000D+00  0.195601D-02
     17   0.000000D+00  0.120449D-03  0.000000D+00  0.000000D+00  0.000000D+00
     18   0.000000D+00  0.000000D+00 -0.906502D-03 -0.193188D-01  0.000000D+00
     19   0.000000D+00  0.000000D+00  0.373653D-02  0.117881D+00  0.000000D+00
     20  -0.151710D-02  0.000000D+00  0.000000D+00  0.000000D+00 -0.212350D-01
     21   0.000000D+00 -0.151710D-02  0.000000D+00  0.000000D+00  0.000000D+00
     22   0.000000D+00  0.000000D+00  0.000000D+00  0.000000D+00  0.000000D+00
     23   0.000000D+00  0.000000D+00  0.000000D+00  0.000000D+00  0.000000D+00
     24   0.000000D+00  0.000000D+00  0.000000D+00  0.319944D-01  0.000000D+00
     25   0.000000D+00  0.000000D+00  0.000000D+00  0.362204D+00  0.000000D+00
     26   0.100000D+01  0.000000D+00  0.000000D+00  0.000000D+00  0.375020D+00
     27   0.000000D+00  0.100000D+01  0.000000D+00  0.000000D+00  0.000000D+00
     28   0.000000D+00  0.000000D+00  0.100000D+01  0.000000D+00  0.000000D+00
     29   0.000000D+00  0.000000D+00  0.000000D+00  0.100000D+01  0.000000D+00
     30   0.375020D+00  0.000000D+00  0.000000D+00  0.000000D+00  0.100000D+01
     31   0.000000D+00  0.375020D+00  0.000000D+00  0.000000D+00  0.000000D+00
     32   0.000000D+00  0.000000D+00  0.375020D+00  0.000000D+00  0.000000D+00
     33   0.000000D+00  0.000000D+00  0.000000D+00  0.000000D+00  0.000000D+00
     34   0.000000D+00  0.000000D+00  0.000000D+00  0.000000D+00  0.000000D+00
     35   0.000000D+00  0.000000D+00  0.000000D+00  0.000000D+00  0.000000D+00
     36   0.000000D+00  0.000000D+00  0.000000D+00  0.000000D+00  0.000000D+00
     37   0.000000D+00  0.000000D+00  0.000000D+00  0.000000D+00  0.000000D+00
     38   0.000000D+00  0.000000D+00  0.000000D+00  0.201919D+00  0.000000D+00
     39   0.149285D-01  0.000000D+00  0.000000D+00  0.000000D+00  0.218356D+00
     40   0.000000D+00  0.149285D-01  0.000000D+00  0.000000D+00  0.000000D+00
     41   0.000000D+00  0.000000D+00  0.149285D-01  0.000000D+00  0.000000D+00
     42   0.000000D+00  0.000000D+00  0.000000D+00  0.000000D+00  0.000000D+00
     43   0.000000D+00  0.000000D+00  0.000000D+00  0.000000D+00  0.000000D+00
     44   0.000000D+00  0.000000D+00  0.000000D+00  0.000000D+00  0.000000D+00
     45   0.000000D+00  0.000000D+00  0.000000D+00  0.000000D+00  0.000000D+00
     46   0.000000D+00  0.000000D+00  0.000000D+00  0.000000D+00  0.000000D+00
                31            32            33            34            35 
      1   0.000000D+00  0.000000D+00  0.000000D+00  0.000000D+00  0.000000D+00
      2   0.000000D+00  0.000000D+00  0.000000D+00  0.000000D+00  0.000000D+00
      3   0.000000D+00  0.000000D+00  0.000000D+00  0.000000D+00  0.000000D+00
      4   0.000000D+00  0.000000D+00  0.000000D+00  0.000000D+00  0.000000D+00
      5   0.000000D+00  0.000000D+00  0.000000D+00  0.000000D+00  0.000000D+00
      6   0.000000D+00  0.000000D+00  0.000000D+00  0.000000D+00  0.000000D+00
      7   0.000000D+00  0.000000D+00  0.000000D+00  0.000000D+00  0.000000D+00
      8   0.000000D+00  0.000000D+00  0.000000D+00  0.000000D+00  0.000000D+00
      9   0.000000D+00  0.000000D+00  0.000000D+00  0.000000D+00  0.000000D+00
     10   0.000000D+00  0.000000D+00  0.000000D+00  0.000000D+00  0.000000D+00
     11   0.000000D+00  0.000000D+00  0.000000D+00  0.000000D+00  0.000000D+00
     12   0.000000D+00  0.000000D+00  0.000000D+00  0.000000D+00  0.000000D+00
     13   0.000000D+00  0.000000D+00  0.000000D+00  0.000000D+00  0.000000D+00
     14   0.000000D+00  0.000000D+00  0.000000D+00  0.000000D+00  0.000000D+00
     15   0.000000D+00  0.798616D-02  0.346534D-02  0.000000D+00  0.000000D+00
     16   0.000000D+00  0.000000D+00  0.000000D+00  0.152064D-02  0.000000D+00
     17   0.195601D-02  0.000000D+00  0.000000D+00  0.000000D+00  0.152064D-02
     18   0.000000D+00 -0.138766D-01 -0.561335D-02  0.000000D+00  0.000000D+00
     19   0.000000D+00  0.484556D-01  0.100601D-01  0.000000D+00  0.000000D+00
     20   0.000000D+00  0.000000D+00  0.000000D+00 -0.101670D-01  0.000000D+00
     21  -0.212350D-01  0.000000D+00  0.000000D+00  0.000000D+00 -0.101670D-01
     22   0.000000D+00  0.000000D+00  0.000000D+00  0.000000D+00  0.000000D+00
     23   0.000000D+00  0.000000D+00  0.000000D+00  0.000000D+00  0.000000D+00
     24   0.000000D+00  0.000000D+00  0.000000D+00  0.000000D+00  0.000000D+00
     25   0.000000D+00  0.000000D+00  0.000000D+00  0.000000D+00  0.000000D+00
     26   0.000000D+00  0.000000D+00  0.000000D+00  0.000000D+00  0.000000D+00
     27   0.375020D+00  0.000000D+00  0.000000D+00  0.000000D+00  0.000000D+00
     28   0.000000D+00  0.375020D+00  0.000000D+00  0.000000D+00  0.000000D+00
     29   0.000000D+00  0.000000D+00  0.000000D+00  0.000000D+00  0.000000D+00
     30   0.000000D+00  0.000000D+00  0.000000D+00  0.000000D+00  0.000000D+00
     31   0.100000D+01  0.000000D+00  0.000000D+00  0.000000D+00  0.000000D+00
     32   0.000000D+00  0.100000D+01  0.000000D+00  0.000000D+00  0.000000D+00
     33   0.000000D+00  0.000000D+00  0.100000D+01  0.000000D+00  0.000000D+00
     34   0.000000D+00  0.000000D+00  0.000000D+00  0.100000D+01  0.000000D+00
     35   0.000000D+00  0.000000D+00  0.000000D+00  0.000000D+00  0.100000D+01
     36   0.000000D+00  0.000000D+00  0.000000D+00  0.000000D+00  0.000000D+00
     37   0.000000D+00  0.000000D+00  0.000000D+00  0.000000D+00  0.000000D+00
     38   0.000000D+00  0.000000D+00  0.000000D+00  0.000000D+00  0.000000D+00
     39   0.000000D+00  0.000000D+00  0.000000D+00  0.000000D+00  0.000000D+00
     40   0.218356D+00  0.000000D+00  0.000000D+00  0.000000D+00  0.000000D+00
     41   0.000000D+00  0.218356D+00  0.000000D+00  0.000000D+00  0.000000D+00
     42   0.000000D+00  0.000000D+00  0.404997D-01  0.000000D+00  0.000000D+00
     43   0.000000D+00  0.000000D+00  0.000000D+00  0.404997D-01  0.000000D+00
     44   0.000000D+00  0.000000D+00  0.000000D+00  0.000000D+00  0.404997D-01
     45   0.000000D+00  0.000000D+00  0.000000D+00  0.000000D+00  0.000000D+00
     46   0.000000D+00  0.000000D+00  0.000000D+00  0.000000D+00  0.000000D+00
                36            37            38            39            40 
      1   0.000000D+00  0.000000D+00  0.265712D-03  0.000000D+00  0.000000D+00
      2   0.000000D+00  0.000000D+00  0.165531D-02  0.000000D+00  0.000000D+00
      3   0.000000D+00  0.000000D+00  0.000000D+00  0.120449D-03  0.000000D+00
      4   0.000000D+00  0.000000D+00  0.000000D+00  0.000000D+00  0.120449D-03
      5   0.000000D+00  0.000000D+00 -0.501541D-03  0.000000D+00  0.000000D+00
      6   0.000000D+00  0.000000D+00  0.101875D-01  0.000000D+00  0.000000D+00
      7   0.000000D+00  0.000000D+00  0.000000D+00  0.195601D-02  0.000000D+00
      8   0.000000D+00  0.000000D+00  0.000000D+00  0.000000D+00  0.195601D-02
      9   0.000000D+00  0.000000D+00 -0.798616D-02  0.000000D+00  0.000000D+00
     10   0.000000D+00  0.000000D+00  0.346534D-02  0.000000D+00  0.000000D+00
     11   0.000000D+00  0.000000D+00  0.000000D+00 -0.152064D-02  0.000000D+00
     12   0.000000D+00  0.000000D+00  0.000000D+00  0.000000D+00 -0.152064D-02
     13   0.000000D+00  0.000000D+00  0.000000D+00  0.000000D+00  0.000000D+00
     14   0.000000D+00  0.000000D+00  0.000000D+00  0.000000D+00  0.000000D+00
     15   0.000000D+00  0.000000D+00  0.145921D+00  0.000000D+00  0.000000D+00
     16   0.000000D+00  0.000000D+00  0.000000D+00  0.650526D-01  0.000000D+00
     17   0.000000D+00  0.000000D+00  0.000000D+00  0.000000D+00  0.650526D-01
     18   0.000000D+00  0.000000D+00 -0.201178D+00  0.000000D+00  0.000000D+00
     19   0.000000D+00  0.000000D+00  0.389720D+00  0.000000D+00  0.000000D+00
     20   0.000000D+00  0.000000D+00  0.000000D+00 -0.270163D+00  0.000000D+00
     21   0.000000D+00  0.000000D+00  0.000000D+00  0.000000D+00 -0.270163D+00
     22   0.204758D-02  0.000000D+00  0.000000D+00  0.000000D+00  0.000000D+00
     23   0.000000D+00  0.204758D-02  0.000000D+00  0.000000D+00  0.000000D+00
     24   0.000000D+00  0.000000D+00 -0.396207D-03  0.000000D+00  0.000000D+00
     25   0.000000D+00  0.000000D+00  0.612395D-02  0.000000D+00  0.000000D+00
     26   0.000000D+00  0.000000D+00  0.000000D+00  0.149285D-01  0.000000D+00
     27   0.000000D+00  0.000000D+00  0.000000D+00  0.000000D+00  0.149285D-01
     28   0.000000D+00  0.000000D+00  0.000000D+00  0.000000D+00  0.000000D+00
     29   0.000000D+00  0.000000D+00  0.201919D+00  0.000000D+00  0.000000D+00
     30   0.000000D+00  0.000000D+00  0.000000D+00  0.218356D+00  0.000000D+00
     31   0.000000D+00  0.000000D+00  0.000000D+00  0.000000D+00  0.218356D+00
     32   0.000000D+00  0.000000D+00  0.000000D+00  0.000000D+00  0.000000D+00
     33   0.000000D+00  0.000000D+00  0.000000D+00  0.000000D+00  0.000000D+00
     34   0.000000D+00  0.000000D+00  0.000000D+00  0.000000D+00  0.000000D+00
     35   0.000000D+00  0.000000D+00  0.000000D+00  0.000000D+00  0.000000D+00
     36   0.100000D+01  0.000000D+00  0.000000D+00  0.000000D+00  0.000000D+00
     37   0.000000D+00  0.100000D+01  0.000000D+00  0.000000D+00  0.000000D+00
     38   0.000000D+00  0.000000D+00  0.100000D+01  0.000000D+00  0.000000D+00
     39   0.000000D+00  0.000000D+00  0.000000D+00  0.100000D+01  0.000000D+00
     40   0.000000D+00  0.000000D+00  0.000000D+00  0.000000D+00  0.100000D+01
     41   0.000000D+00  0.000000D+00  0.000000D+00  0.000000D+00  0.000000D+00
     42   0.000000D+00  0.000000D+00  0.000000D+00  0.000000D+00  0.000000D+00
     43   0.000000D+00  0.000000D+00  0.000000D+00  0.000000D+00  0.000000D+00
     44   0.000000D+00  0.000000D+00  0.000000D+00  0.000000D+00  0.000000D+00
     45   0.404997D-01  0.000000D+00  0.000000D+00  0.000000D+00  0.000000D+00
     46   0.000000D+00  0.404997D-01  0.000000D+00  0.000000D+00  0.000000D+00
                41            42            43            44            45 
      1   0.537904D-03  0.399451D-02  0.000000D+00  0.000000D+00  0.000000D+00
      2   0.332266D-02  0.241092D-01  0.000000D+00  0.000000D+00  0.000000D+00
      3   0.000000D+00  0.000000D+00  0.151710D-02  0.000000D+00  0.000000D+00
      4   0.000000D+00  0.000000D+00  0.000000D+00  0.151710D-02  0.000000D+00
      5  -0.906502D-03 -0.373653D-02  0.000000D+00  0.000000D+00  0.000000D+00
      6   0.193188D-01  0.117881D+00  0.000000D+00  0.000000D+00  0.000000D+00
      7   0.000000D+00  0.000000D+00  0.212350D-01  0.000000D+00  0.000000D+00
      8   0.000000D+00  0.000000D+00  0.000000D+00  0.212350D-01  0.000000D+00
      9  -0.138766D-01 -0.484556D-01  0.000000D+00  0.000000D+00  0.000000D+00
     10   0.561335D-02  0.100601D-01  0.000000D+00  0.000000D+00  0.000000D+00
     11   0.000000D+00  0.000000D+00 -0.101670D-01  0.000000D+00  0.000000D+00
     12   0.000000D+00  0.000000D+00  0.000000D+00 -0.101670D-01  0.000000D+00
     13   0.000000D+00  0.000000D+00  0.000000D+00  0.000000D+00  0.204758D-02
     14   0.000000D+00  0.000000D+00  0.000000D+00  0.000000D+00  0.000000D+00
     15   0.201178D+00  0.389720D+00  0.000000D+00  0.000000D+00  0.000000D+00
     16   0.000000D+00  0.000000D+00  0.270163D+00  0.000000D+00  0.000000D+00
     17   0.000000D+00  0.000000D+00  0.000000D+00  0.270163D+00  0.000000D+00
     18  -0.264038D+00 -0.308374D+00  0.000000D+00  0.000000D+00  0.000000D+00
     19   0.308374D+00  0.235451D-01  0.000000D+00  0.000000D+00  0.000000D+00
     20   0.000000D+00  0.000000D+00 -0.444927D+00  0.000000D+00  0.000000D+00
     21   0.000000D+00  0.000000D+00  0.000000D+00 -0.444927D+00  0.000000D+00
     22   0.000000D+00  0.000000D+00  0.000000D+00  0.000000D+00  0.206103D+00
     23   0.000000D+00  0.000000D+00  0.000000D+00  0.000000D+00  0.000000D+00
     24   0.000000D+00  0.000000D+00  0.000000D+00  0.000000D+00  0.000000D+00
     25   0.000000D+00  0.000000D+00  0.000000D+00  0.000000D+00  0.000000D+00
     26   0.000000D+00  0.000000D+00  0.000000D+00  0.000000D+00  0.000000D+00
     27   0.000000D+00  0.000000D+00  0.000000D+00  0.000000D+00  0.000000D+00
     28   0.149285D-01  0.000000D+00  0.000000D+00  0.000000D+00  0.000000D+00
     29   0.000000D+00  0.000000D+00  0.000000D+00  0.000000D+00  0.000000D+00
     30   0.000000D+00  0.000000D+00  0.000000D+00  0.000000D+00  0.000000D+00
     31   0.000000D+00  0.000000D+00  0.000000D+00  0.000000D+00  0.000000D+00
     32   0.218356D+00  0.000000D+00  0.000000D+00  0.000000D+00  0.000000D+00
     33   0.000000D+00  0.404997D-01  0.000000D+00  0.000000D+00  0.000000D+00
     34   0.000000D+00  0.000000D+00  0.404997D-01  0.000000D+00  0.000000D+00
     35   0.000000D+00  0.000000D+00  0.000000D+00  0.404997D-01  0.000000D+00
     36   0.000000D+00  0.000000D+00  0.000000D+00  0.000000D+00  0.404997D-01
     37   0.000000D+00  0.000000D+00  0.000000D+00  0.000000D+00  0.000000D+00
     38   0.000000D+00  0.000000D+00  0.000000D+00  0.000000D+00  0.000000D+00
     39   0.000000D+00  0.000000D+00  0.000000D+00  0.000000D+00  0.000000D+00
     40   0.000000D+00  0.000000D+00  0.000000D+00  0.000000D+00  0.000000D+00
     41   0.100000D+01  0.000000D+00  0.000000D+00  0.000000D+00  0.000000D+00
     42   0.000000D+00  0.100000D+01  0.000000D+00  0.000000D+00  0.000000D+00
     43   0.000000D+00  0.000000D+00  0.100000D+01  0.000000D+00  0.000000D+00
     44   0.000000D+00  0.000000D+00  0.000000D+00  0.100000D+01  0.000000D+00
     45   0.000000D+00  0.000000D+00  0.000000D+00  0.000000D+00  0.100000D+01
     46   0.000000D+00  0.000000D+00  0.000000D+00  0.000000D+00  0.000000D+00
                46 
      1   0.000000D+00
      2   0.000000D+00
      3   0.000000D+00
      4   0.000000D+00
      5   0.000000D+00
      6   0.000000D+00
      7   0.000000D+00
      8   0.000000D+00
      9   0.000000D+00
     10   0.000000D+00
     11   0.000000D+00
     12   0.000000D+00
     13   0.000000D+00
     14   0.204758D-02
     15   0.000000D+00
     16   0.000000D+00
     17   0.000000D+00
     18   0.000000D+00
     19   0.000000D+00
     20   0.000000D+00
     21   0.000000D+00
     22   0.000000D+00
     23   0.206103D+00
     24   0.000000D+00
     25   0.000000D+00
     26   0.000000D+00
     27   0.000000D+00
     28   0.000000D+00
     29   0.000000D+00
     30   0.000000D+00
     31   0.000000D+00
     32   0.000000D+00
     33   0.000000D+00
     34   0.000000D+00
     35   0.000000D+00
     36   0.000000D+00
     37   0.404997D-01
     38   0.000000D+00
     39   0.000000D+00
     40   0.000000D+00
     41   0.000000D+00
     42   0.000000D+00
     43   0.000000D+00
     44   0.000000D+00
     45   0.000000D+00
     46   0.100000D+01
 Entering OneElI...
 Overlap between basis sets.
 Requested accuracy = 0.1000D-12
 PrsmSu:  NPrtUS=   1 ThrOK=F IAlg=1
 PRISM was handed  1609454323 working-precision words and   946 shell-pairs
 IPart=  0 NShTot=         946 NBatch=          79 AvBLen=        12.0
 CnvPC2: ToCart=F DoDens=F IPureD=0 IPureF=0.
 Transformed matrix in CnvPC2: 
                 1             2             3             4             5 
      1   0.999804D+00  0.413527D+00  0.000000D+00  0.000000D+00  0.000000D+00
      2   0.291769D+00  0.988278D+00  0.000000D+00  0.000000D+00  0.000000D+00
      3   0.000000D+00  0.000000D+00  0.999290D+00  0.000000D+00  0.000000D+00
      4   0.000000D+00  0.000000D+00  0.000000D+00  0.999290D+00  0.000000D+00
      5   0.000000D+00  0.000000D+00  0.000000D+00  0.000000D+00  0.999290D+00
      6   0.131062D-01  0.329302D+00  0.000000D+00  0.000000D+00  0.000000D+00
      7   0.000000D+00  0.000000D+00  0.360301D+00  0.000000D+00  0.000000D+00
      8   0.000000D+00  0.000000D+00  0.000000D+00  0.360301D+00  0.000000D+00
      9   0.000000D+00  0.000000D+00  0.000000D+00  0.000000D+00  0.360301D+00
     10   0.000000D+00  0.000000D+00  0.000000D+00  0.000000D+00  0.000000D+00
     11   0.000000D+00  0.000000D+00  0.000000D+00  0.000000D+00  0.000000D+00
     12   0.000000D+00  0.000000D+00  0.000000D+00  0.000000D+00  0.000000D+00
     13   0.000000D+00  0.000000D+00  0.000000D+00  0.000000D+00  0.000000D+00
     14   0.000000D+00  0.000000D+00  0.000000D+00  0.000000D+00  0.000000D+00
     15   0.504482D-03  0.202677D-01  0.000000D+00  0.000000D+00  0.000000D+00
     16   0.502381D-02  0.303046D-01  0.000000D+00  0.000000D+00  0.000000D+00
     17   0.000000D+00  0.000000D+00  0.121678D-01  0.000000D+00  0.000000D+00
     18   0.000000D+00  0.000000D+00  0.000000D+00  0.121678D-01  0.000000D+00
     19   0.000000D+00  0.000000D+00  0.000000D+00  0.000000D+00  0.121678D-01
     20   0.000000D+00  0.000000D+00  0.315462D-02  0.000000D+00  0.000000D+00
     21   0.000000D+00  0.000000D+00  0.000000D+00  0.315462D-02  0.000000D+00
     22   0.000000D+00  0.000000D+00  0.000000D+00  0.000000D+00  0.315462D-02
     23   0.000000D+00  0.000000D+00  0.102624D-02  0.000000D+00  0.000000D+00
     24   0.000000D+00  0.000000D+00  0.000000D+00  0.102624D-02  0.000000D+00
     25   0.000000D+00  0.000000D+00  0.000000D+00  0.000000D+00  0.102624D-02
     26   0.698171D-01  0.378499D+00  0.000000D+00  0.000000D+00  0.000000D+00
     27   0.431767D-01  0.246355D+00  0.000000D+00  0.000000D+00  0.000000D+00
     28   0.266153D-01  0.156139D+00  0.000000D+00  0.000000D+00  0.000000D+00
     29   0.163786D-01  0.975199D-01  0.000000D+00  0.000000D+00  0.000000D+00
     30   0.100701D-01  0.604294D-01  0.000000D+00  0.000000D+00  0.000000D+00
     31   0.000000D+00  0.000000D+00  0.188888D+00  0.000000D+00  0.000000D+00
     32   0.000000D+00  0.000000D+00  0.000000D+00  0.188888D+00  0.000000D+00
     33   0.000000D+00  0.000000D+00  0.000000D+00  0.000000D+00  0.188888D+00
     34   0.000000D+00  0.000000D+00  0.102114D+00  0.000000D+00  0.000000D+00
     35   0.000000D+00  0.000000D+00  0.000000D+00  0.102114D+00  0.000000D+00
     36   0.000000D+00  0.000000D+00  0.000000D+00  0.000000D+00  0.102114D+00
     37   0.000000D+00  0.000000D+00  0.529744D-01  0.000000D+00  0.000000D+00
     38   0.000000D+00  0.000000D+00  0.000000D+00  0.529744D-01  0.000000D+00
     39   0.000000D+00  0.000000D+00  0.000000D+00  0.000000D+00  0.529744D-01
     40   0.000000D+00  0.000000D+00  0.267992D-01  0.000000D+00  0.000000D+00
     41   0.000000D+00  0.000000D+00  0.000000D+00  0.267992D-01  0.000000D+00
     42   0.000000D+00  0.000000D+00  0.000000D+00  0.000000D+00  0.267992D-01
     43   0.000000D+00  0.000000D+00  0.133577D-01  0.000000D+00  0.000000D+00
     44   0.000000D+00  0.000000D+00  0.000000D+00  0.133577D-01  0.000000D+00
     45   0.000000D+00  0.000000D+00  0.000000D+00  0.000000D+00  0.133577D-01
     46   0.000000D+00  0.000000D+00  0.000000D+00  0.000000D+00  0.000000D+00
     47   0.000000D+00  0.000000D+00  0.000000D+00  0.000000D+00  0.000000D+00
     48   0.000000D+00  0.000000D+00  0.000000D+00  0.000000D+00  0.000000D+00
     49   0.000000D+00  0.000000D+00  0.000000D+00  0.000000D+00  0.000000D+00
     50   0.000000D+00  0.000000D+00  0.000000D+00  0.000000D+00  0.000000D+00
     51   0.000000D+00  0.000000D+00  0.000000D+00  0.000000D+00  0.000000D+00
     52   0.000000D+00  0.000000D+00  0.000000D+00  0.000000D+00  0.000000D+00
     53   0.000000D+00  0.000000D+00  0.000000D+00  0.000000D+00  0.000000D+00
     54   0.000000D+00  0.000000D+00  0.000000D+00  0.000000D+00  0.000000D+00
     55   0.000000D+00  0.000000D+00  0.000000D+00  0.000000D+00  0.000000D+00
     56   0.000000D+00  0.000000D+00  0.000000D+00  0.000000D+00  0.000000D+00
     57   0.000000D+00  0.000000D+00  0.000000D+00  0.000000D+00  0.000000D+00
     58   0.000000D+00  0.000000D+00  0.000000D+00  0.000000D+00  0.000000D+00
     59   0.000000D+00  0.000000D+00  0.000000D+00  0.000000D+00  0.000000D+00
     60   0.000000D+00  0.000000D+00  0.000000D+00  0.000000D+00  0.000000D+00
     61   0.000000D+00  0.000000D+00  0.000000D+00  0.000000D+00  0.000000D+00
     62   0.000000D+00  0.000000D+00  0.000000D+00  0.000000D+00  0.000000D+00
     63   0.000000D+00  0.000000D+00  0.000000D+00  0.000000D+00  0.000000D+00
     64   0.000000D+00  0.000000D+00  0.000000D+00  0.000000D+00  0.000000D+00
     65   0.000000D+00  0.000000D+00  0.000000D+00  0.000000D+00  0.000000D+00
     66   0.000000D+00  0.000000D+00  0.000000D+00  0.000000D+00  0.000000D+00
     67   0.000000D+00  0.000000D+00  0.000000D+00  0.000000D+00  0.000000D+00
     68   0.000000D+00  0.000000D+00  0.000000D+00  0.000000D+00  0.000000D+00
     69   0.000000D+00  0.000000D+00  0.000000D+00  0.000000D+00  0.000000D+00
     70   0.000000D+00  0.000000D+00  0.000000D+00  0.000000D+00  0.000000D+00
     71   0.000000D+00  0.000000D+00  0.000000D+00  0.000000D+00  0.000000D+00
     72   0.000000D+00  0.000000D+00  0.000000D+00  0.000000D+00  0.000000D+00
     73   0.000000D+00  0.000000D+00  0.000000D+00  0.000000D+00  0.000000D+00
     74   0.000000D+00  0.000000D+00  0.000000D+00  0.000000D+00  0.000000D+00
     75   0.000000D+00  0.000000D+00  0.000000D+00  0.000000D+00  0.000000D+00
     76   0.000000D+00  0.000000D+00  0.000000D+00  0.000000D+00  0.000000D+00
     77   0.000000D+00  0.000000D+00  0.000000D+00  0.000000D+00  0.000000D+00
     78   0.000000D+00  0.000000D+00  0.000000D+00  0.000000D+00  0.000000D+00
     79   0.000000D+00  0.000000D+00  0.000000D+00  0.000000D+00  0.000000D+00
     80   0.000000D+00  0.000000D+00  0.000000D+00  0.000000D+00  0.000000D+00
     81   0.000000D+00  0.000000D+00  0.000000D+00  0.000000D+00  0.000000D+00
     82   0.000000D+00  0.000000D+00  0.000000D+00  0.000000D+00  0.000000D+00
     83   0.000000D+00  0.000000D+00  0.000000D+00  0.000000D+00  0.000000D+00
     84   0.000000D+00  0.000000D+00  0.000000D+00  0.000000D+00  0.000000D+00
     85   0.000000D+00  0.000000D+00  0.000000D+00  0.000000D+00  0.000000D+00
     86   0.000000D+00  0.000000D+00  0.000000D+00  0.000000D+00  0.000000D+00
     87   0.000000D+00  0.000000D+00  0.000000D+00  0.000000D+00  0.000000D+00
     88   0.000000D+00  0.000000D+00  0.000000D+00  0.000000D+00  0.000000D+00
     89   0.000000D+00  0.000000D+00  0.000000D+00  0.000000D+00  0.000000D+00
     90   0.000000D+00  0.000000D+00  0.000000D+00  0.000000D+00  0.000000D+00
     91   0.000000D+00  0.000000D+00  0.000000D+00  0.000000D+00  0.000000D+00
     92   0.000000D+00  0.000000D+00  0.000000D+00  0.000000D+00  0.000000D+00
     93   0.000000D+00  0.000000D+00  0.000000D+00  0.000000D+00  0.000000D+00
     94   0.000000D+00  0.000000D+00  0.000000D+00  0.000000D+00  0.000000D+00
     95   0.000000D+00  0.000000D+00  0.000000D+00  0.000000D+00  0.000000D+00
     96   0.000000D+00  0.000000D+00  0.000000D+00  0.000000D+00  0.000000D+00
     97   0.000000D+00  0.000000D+00  0.000000D+00  0.000000D+00  0.000000D+00
     98   0.000000D+00  0.000000D+00  0.000000D+00  0.000000D+00  0.000000D+00
     99   0.000000D+00  0.000000D+00  0.000000D+00  0.000000D+00  0.000000D+00
    100   0.000000D+00  0.000000D+00  0.000000D+00  0.000000D+00  0.000000D+00
    101   0.000000D+00  0.000000D+00  0.000000D+00  0.000000D+00  0.000000D+00
    102   0.000000D+00  0.000000D+00  0.000000D+00  0.000000D+00  0.000000D+00
    103   0.000000D+00  0.000000D+00  0.000000D+00  0.000000D+00  0.000000D+00
    104   0.000000D+00  0.000000D+00  0.000000D+00  0.000000D+00  0.000000D+00
    105   0.000000D+00  0.000000D+00  0.000000D+00  0.000000D+00  0.000000D+00
    106   0.000000D+00  0.000000D+00  0.000000D+00  0.000000D+00  0.000000D+00
    107   0.000000D+00  0.000000D+00  0.000000D+00  0.000000D+00  0.000000D+00
    108   0.000000D+00  0.000000D+00  0.000000D+00  0.000000D+00  0.000000D+00
    109   0.000000D+00  0.000000D+00  0.000000D+00  0.000000D+00  0.000000D+00
    110   0.000000D+00  0.000000D+00  0.000000D+00  0.000000D+00  0.000000D+00
    111   0.000000D+00  0.000000D+00  0.000000D+00  0.000000D+00  0.000000D+00
    112   0.000000D+00  0.000000D+00  0.000000D+00  0.000000D+00  0.000000D+00
    113   0.000000D+00  0.000000D+00  0.000000D+00  0.000000D+00  0.000000D+00
    114   0.000000D+00  0.000000D+00  0.000000D+00  0.000000D+00  0.000000D+00
    115   0.000000D+00  0.000000D+00  0.000000D+00  0.000000D+00  0.000000D+00
    116   0.000000D+00  0.000000D+00  0.000000D+00  0.000000D+00  0.000000D+00
    117   0.000000D+00  0.000000D+00  0.000000D+00  0.000000D+00  0.000000D+00
    118   0.000000D+00  0.000000D+00  0.000000D+00  0.000000D+00  0.000000D+00
    119   0.000000D+00  0.000000D+00  0.000000D+00  0.000000D+00  0.000000D+00
    120   0.000000D+00  0.000000D+00  0.000000D+00  0.000000D+00  0.000000D+00
    121   0.000000D+00  0.000000D+00  0.000000D+00  0.000000D+00  0.000000D+00
    122   0.000000D+00  0.000000D+00  0.000000D+00  0.000000D+00  0.000000D+00
    123   0.000000D+00  0.000000D+00  0.000000D+00  0.000000D+00  0.000000D+00
    124   0.000000D+00  0.000000D+00  0.000000D+00  0.000000D+00  0.000000D+00
    125   0.000000D+00  0.000000D+00  0.000000D+00  0.000000D+00  0.000000D+00
    126   0.000000D+00  0.000000D+00  0.000000D+00  0.000000D+00  0.000000D+00
    127   0.000000D+00  0.000000D+00  0.000000D+00  0.000000D+00  0.000000D+00
    128   0.000000D+00  0.000000D+00  0.000000D+00  0.000000D+00  0.000000D+00
    129   0.000000D+00  0.000000D+00  0.000000D+00  0.000000D+00  0.000000D+00
    130   0.000000D+00  0.000000D+00  0.000000D+00  0.000000D+00  0.000000D+00
    131   0.000000D+00  0.000000D+00  0.000000D+00  0.000000D+00  0.000000D+00
    132   0.000000D+00  0.000000D+00  0.000000D+00  0.000000D+00  0.000000D+00
    133   0.000000D+00  0.000000D+00  0.000000D+00  0.000000D+00  0.000000D+00
    134   0.000000D+00  0.000000D+00  0.000000D+00  0.000000D+00  0.000000D+00
    135   0.000000D+00  0.000000D+00  0.000000D+00  0.000000D+00  0.000000D+00
    136   0.000000D+00  0.000000D+00  0.000000D+00  0.000000D+00  0.000000D+00
    137   0.000000D+00  0.000000D+00  0.000000D+00  0.000000D+00  0.000000D+00
    138   0.000000D+00  0.000000D+00  0.000000D+00  0.000000D+00  0.000000D+00
    139   0.000000D+00  0.000000D+00  0.000000D+00  0.000000D+00  0.000000D+00
    140   0.000000D+00  0.000000D+00  0.000000D+00  0.000000D+00  0.000000D+00
    141   0.000000D+00  0.000000D+00  0.000000D+00  0.000000D+00  0.000000D+00
    142   0.000000D+00  0.000000D+00  0.000000D+00  0.000000D+00  0.000000D+00
    143   0.000000D+00  0.000000D+00  0.000000D+00  0.000000D+00  0.000000D+00
    144   0.000000D+00  0.000000D+00  0.000000D+00  0.000000D+00  0.000000D+00
    145   0.000000D+00  0.000000D+00  0.000000D+00  0.000000D+00  0.000000D+00
    146   0.000000D+00  0.000000D+00  0.000000D+00  0.000000D+00  0.000000D+00
    147   0.000000D+00  0.000000D+00  0.000000D+00  0.000000D+00  0.000000D+00
    148   0.000000D+00  0.000000D+00  0.000000D+00  0.000000D+00  0.000000D+00
    149   0.000000D+00  0.000000D+00  0.000000D+00  0.000000D+00  0.000000D+00
[...]
         |

 AB - AA |     35
 BA - BB |     35
--------------------
   29    |  2.921242
   29    |  2.921242
         |
   30    |  1.929902
   30    |  1.929902
         |
   31    |  2.386932
   31    |  2.386932
         |
   32    |  1.929902
   32    |  1.929902
         |
   33    |  2.386932
   33    |  2.386932
         |
   34    |  3.392514
   34    |  3.392514
         |
   35    |  2.905949
   35    |  0.000000
         |

                   MP2(CBS) Pair Energies
                   ----------------------

 AB - AA |     29        30        31        32        33        34
 BA - BB |     29        30        31        32        33        34
----------------------------------------------------------------------
   29    | -0.024116 -0.004186 -0.004186 -0.004186 -0.004186 -0.001651
   29    |  0.000000 -0.004186 -0.004186 -0.004186 -0.004186 -0.001651
         |
   30    | -0.005636 -0.020187 -0.000528 -0.006010 -0.000511 -0.000132
   30    | -0.005636  0.000000 -0.000528 -0.006010 -0.000511 -0.000132
         |
   31    | -0.005636 -0.000650 -0.020187 -0.000511 -0.006010 -0.002070
   31    | -0.005636 -0.000650  0.000000 -0.000511 -0.006010 -0.002070
         |
   32    | -0.005636 -0.008923 -0.000613 -0.020187 -0.000528 -0.000132
   32    | -0.005636 -0.008923 -0.000613  0.000000 -0.000528 -0.000132
         |
   33    | -0.005636 -0.000613 -0.008921 -0.000650 -0.020187 -0.002070
   33    | -0.005636 -0.000613 -0.008921 -0.000650  0.000000 -0.002070
         |
   34    | -0.004704 -0.000182 -0.009424 -0.000182 -0.009424 -0.012501
   34    | -0.004704 -0.000182 -0.009424 -0.000182 -0.009424  0.000000
         |
   35    | -0.004704 -0.009424 -0.000182 -0.009424 -0.000182 -0.000065
   35    | -0.004704 -0.009424 -0.000182 -0.009424 -0.000182 -0.000065
         |

 AB - AA |     35
 BA - BB |     35
--------------------
   29    | -0.001651
   29    | -0.001651
         |
   30    | -0.002070
   30    | -0.002070
         |
   31    | -0.000132
   31    | -0.000132
         |
   32    | -0.002070
   32    | -0.002070
         |
   33    | -0.000132
   33    | -0.000132
         |
   34    | -0.000037
   34    | -0.000037
         |
   35    | -0.012501
   35    |  0.000000
         |

                     Sum of ab pair energies =    -0.220678 A.U.
                     Sum of ba pair energies =    -0.090810 A.U.
                     Sum of aa pair energies =    -0.042992 A.U.
                     Sum of bb pair energies =    -0.042992 A.U.

           Sum of intraorbital pair energies =    -0.129868 A.U.
           Sum of interorbital pair energies =    -0.267605 A.U.
                                                  ----------
                         Total pair energies =    -0.397474 A.U.

                         Single Excitations  =     0.000000 A.U.

                          Total second order =    -0.397474 A.U.



            MP2(CBS) (With Interference Correction) 
            ---------------------------------------

 AB - AA |     29        30        31        32        33        34
 BA - BB |     29        30        31        32        33        34
----------------------------------------------------------------------
   29    | -0.023488 -0.004174 -0.004174 -0.004174 -0.004174 -0.001642
   29    |  0.000000 -0.004174 -0.004174 -0.004174 -0.004174 -0.001642
         |
   30    | -0.005559 -0.019670 -0.000527 -0.005996 -0.000511 -0.000132
   30    | -0.005559  0.000000 -0.000527 -0.005996 -0.000511 -0.000132
         |
   31    | -0.005559 -0.000648 -0.019670 -0.000511 -0.005996 -0.002063
   31    | -0.005559 -0.000648  0.000000 -0.000511 -0.005996 -0.002063
         |
   32    | -0.005559 -0.008776 -0.000611 -0.019670 -0.000527 -0.000132
   32    | -0.005559 -0.008776 -0.000611  0.000000 -0.000527 -0.000132
         |
   33    | -0.005559 -0.000611 -0.008775 -0.000648 -0.019670 -0.002063
   33    | -0.005559 -0.000611 -0.008775 -0.000648  0.000000 -0.002063
         |
   34    | -0.004624 -0.000181 -0.009200 -0.000181 -0.009200 -0.012164
   34    | -0.004624 -0.000181 -0.009200 -0.000181 -0.009200  0.000000
         |
   35    | -0.004624 -0.009200 -0.000181 -0.009200 -0.000181 -0.000065
   35    | -0.004624 -0.009200 -0.000181 -0.009200 -0.000181 -0.000065
         |

 AB - AA |     35
 BA - BB |     35
--------------------
   29    | -0.001642
   29    | -0.001642
         |
   30    | -0.002063
   30    | -0.002063
         |
   31    | -0.000132
   31    | -0.000132
         |
   32    | -0.002063
   32    | -0.002063
         |
   33    | -0.000132
   33    | -0.000132
         |
   34    | -0.000037
   34    | -0.000037
         |
   35    | -0.012164
   35    |  0.000000
         |

                     Sum of ab pair energies =    -0.215639 A.U.
                     Sum of ba pair energies =    -0.089143 A.U.
                     Sum of aa pair energies =    -0.042865 A.U.
                     Sum of bb pair energies =    -0.042865 A.U.

           Sum of intraorbital pair energies =    -0.126496 A.U.
           Sum of interorbital pair energies =    -0.264016 A.U.
                                                  ----------
                         Total pair energies =    -0.390512 A.U.

                         Single Excitations  =     0.000000 A.U.

                          Total second order =    -0.390512 A.U.

                         E2(CBS) - E2(Dir) =      -0.014807 A.U.

 E2(CBS)=      -0.397474 CBS-Int=       0.006961 OIii=       2.720300

 **********************************************************************

            Population analysis using the SCF density.

 **********************************************************************

 Orbital symmetries:
       Occupied  (SGG) (SGU) (SGG) (SGU) (SGG) (SGU) (PIG) (PIG)
                 (PIU) (PIU) (SGG) (SGU) (SGG) (SGU) (PIU) (PIU)
                 (PIG) (PIG) (SGG) (SGU) (PIU) (PIU) (PIG) (PIG)
                 (DLTG) (DLTG) (DLTU) (DLTU) (SGG) (SGU) (SGG)
                 (PIU) (PIU) (PIG) (PIG)
       Virtual   (SGU) (SGU) (PIU) (PIU) (SGG) (PIG) (PIG) (SGG)
                 (SGU) (DLTG) (DLTG) (PIU) (PIU) (SGG) (SGU) (PIU)
                 (PIU) (DLTU) (DLTU) (PIG) (PIG) (PIG) (PIG) (SGG)
                 (SGU) (SGG) (PIU) (PIU) (DLTG) (DLTG) (PHIU) (PHIU)
                 (SGG) (DLTG) (DLTG) (DLTU) (DLTU) (PHIG) (PHIG)
                 (SGU) (PIG) (PIG) (PIU) (PIU) (PIU) (PIU) (SGU)
                 (SGG) (DLTU) (DLTU) (PIG) (PIG) (SGU) (SGG) (?A)
                 (?A) (PHIU) (PHIU) (PIG) (PIG) (?B) (?B) (PIU)
                 (PIU) (DLTG) (DLTG) (SGG) (PHIU) (PHIU) (DLTG)
                 (DLTG) (PHIG) (PHIG) (DLTG) (DLTG) (SGU) (DLTU)
                 (DLTU) (PHIG) (PHIG) (PIG) (PIG) (SGG) (PIU) (PIU)
                 (DLTU) (DLTU) (SGU) (SGU) (PIG) (PIG) (DLTU) (DLTU)
                 (PIU) (PIU) (SGG) (SGU) (PIU) (PIU) (?A) (?A)
                 (?C) (?C) (SGG) (PIG) (PIG) (?D) (?D) (PHIU) (PHIU)
                 (?B) (?B) (DLTG) (DLTG) (PIU) (PIU) (PIG) (PIG)
                 (SGG) (PHIU) (PHIU) (PHIG) (PHIG) (SGG) (SGU)
                 (PHIU) (PHIU) (DLTG) (DLTG) (?A) (?A) (DLTU) (DLTU)
                 (PHIG) (PHIG) (?B) (?B) (SGU) (DLTG) (DLTG) (PIU)
                 (PIU) (PIG) (PIG) (SGG) (PHIG) (PHIG) (DLTU) (DLTU)
                 (SGU) (PIG) (PIG) (DLTU) (DLTU) (DLTG) (DLTG)
                 (PIU) (PIU) (SGU) (DLTU) (DLTU) (PIU) (PIU) (SGG)
                 (SGU) (SGG) (PIG) (PIG) (PIU) (PIU) (PIG) (PIG)
                 (DLTG) (DLTG) (PHIU) (PHIU) (PIU) (PIU) (SGG)
                 (?A) (?A) (SGU) (?C) (?C) (?D) (?D) (PHIU) (PHIU)
                 (DLTG) (DLTG) (PHIG) (PHIG) (?B) (?B) (DLTU) (DLTU)
                 (PIU) (PIU) (PIG) (PIG) (PHIG) (PHIG) (SGU) (SGG)
                 (SGG) (PHIU) (PHIU) (?A) (?A) (?B) (?B) (DLTU)
                 (DLTU) (PHIG) (PHIG) (DLTG) (DLTG) (SGU) (PIG)
                 (PIG) (PIG) (PIG) (SGU) (PIU) (PIU) (DLTU) (DLTU)
                 (SGG) (SGG) (SGU) (DLTG) (DLTG) (DLTU) (DLTU)
                 (PIU) (PIU) (PIG) (PIG) (PIG) (PIG) (SGG) (PHIU)
                 (PHIU) (SGU) (DLTG) (DLTG) (PHIU) (PHIU) (?A)
                 (?A) (DLTG) (DLTG) (PIU) (PIU) (PHIG) (PHIG) (?C)
                 (?C) (?E) (?E) (?D) (?D) (?F) (?F) (DLTU) (DLTU)
                 (SGG) (?B) (?B) (SGU) (PIU) (PIU) (PIG) (PIG)
                 (PHIG) (PHIG) (PIU) (PIU) (PIG) (PIG) (DLTU) (DLTU)
                 (SGG) (SGU) (SGG) (?A) (?A) (PIG) (PIG) (PHIU)
                 (PHIU) (?C) (?C) (?D) (?D) (?B) (?B) (DLTG) (DLTG)
                 (SGU) (PHIG) (PHIG) (PIU) (PIU) (PHIU) (PHIU)
                 (?A) (?A) (?B) (?B) (SGU) (PHIG) (PHIG) (DLTG)
                 (DLTG) (DLTU) (DLTU) (SGG) (PIG) (PIG) (DLTU)
                 (DLTU) (PIU) (PIU) (SGG) (PIG) (PIG) (SGU) (SGG)
                 (SGU) (DLTG) (DLTG) (DLTU) (DLTU) (PIU) (PIU)
                 (PIG) (PIG) (SGU) (SGG) (SGU) (PIU) (PIU) (PIG)
                 (PIG) (SGG) (SGU) (SGG) (SGU)
 The electronic state is 1-SGG.
 Alpha  occ. eigenvalues -- -490.07036-490.07036 -65.20967 -65.20967 -58.56554
 Alpha  occ. eigenvalues --  -58.56554 -58.56330 -58.56330 -58.56330 -58.56330
 Alpha  occ. eigenvalues --   -9.88192  -9.88186  -7.49476  -7.49460  -7.48531
 Alpha  occ. eigenvalues --   -7.48531  -7.48530  -7.48530  -3.24039  -3.23797
 Alpha  occ. eigenvalues --   -3.23495  -3.23495  -3.23416  -3.23416  -3.22204
 Alpha  occ. eigenvalues --   -3.22204  -3.22199  -3.22199  -1.10398  -0.94816
 Alpha  occ. eigenvalues --   -0.53512  -0.50660  -0.50660  -0.40603  -0.40603
 Alpha virt. eigenvalues --   -0.00232   0.06017   0.06143   0.06143   0.06578
 Alpha virt. eigenvalues --    0.08056   0.08056   0.09132   0.16195   0.18955
 Alpha virt. eigenvalues --    0.18955   0.22633   0.22633   0.23181   0.25378
 Alpha virt. eigenvalues --    0.25472   0.25472   0.26603   0.26603   0.27229
 Alpha virt. eigenvalues --    0.27229   0.34499   0.34499   0.34515   0.37425
 Alpha virt. eigenvalues --    0.42075   0.45959   0.45959   0.47575   0.47575
 Alpha virt. eigenvalues --    0.47670   0.47670   0.53971   0.54708   0.54708
 Alpha virt. eigenvalues --    0.56575   0.56575   0.57499   0.57499   0.62478
 Alpha virt. eigenvalues --    0.64329   0.64329   0.68242   0.68242   0.69903
 Alpha virt. eigenvalues --    0.69903   0.70085   0.70275   0.70360   0.70360
 Alpha virt. eigenvalues --    0.71160   0.71160   0.78580   0.93007   0.93426
 Alpha virt. eigenvalues --    0.93426   0.96054   0.96054   0.96157   0.96157
 Alpha virt. eigenvalues --    1.04781   1.04781   1.05173   1.05173   1.05855
 Alpha virt. eigenvalues --    1.05855   1.10406   1.14477   1.14477   1.19345
 Alpha virt. eigenvalues --    1.19345   1.20730   1.20730   1.21273   1.21273
 Alpha virt. eigenvalues --    1.21753   1.22092   1.22092   1.22996   1.22996
 Alpha virt. eigenvalues --    1.25897   1.25897   1.26185   1.26917   1.26917
 Alpha virt. eigenvalues --    1.33796   1.33796   1.39968   1.40113   1.48250
 Alpha virt. eigenvalues --    1.48250   1.48526   1.48526   1.48830   1.48830
 Alpha virt. eigenvalues --    1.50938   1.59227   1.60440   1.60440   1.61076
 Alpha virt. eigenvalues --    1.61076   1.63128   1.63128   1.67539   1.72839
 Alpha virt. eigenvalues --    1.72839   1.73942   1.73942   1.78328   1.78328
 Alpha virt. eigenvalues --    1.92023   1.92023   1.96922   1.96922   2.00938
 Alpha virt. eigenvalues --    2.00938   2.03910   2.03910   2.08579   2.15211
 Alpha virt. eigenvalues --    2.15211   2.16970   2.16970   2.18335   2.21511
 Alpha virt. eigenvalues --    2.22916   2.22916   2.23167   2.23167   2.24393
 Alpha virt. eigenvalues --    2.24393   2.24436   2.24436   2.25302   2.25302
 Alpha virt. eigenvalues --    2.31477   2.31477   2.35394   2.36481   2.36481
 Alpha virt. eigenvalues --    2.38015   2.38015   2.40169   2.40169   2.42894
 Alpha virt. eigenvalues --    2.44420   2.44420   2.48059   2.48059   2.48724
 Alpha virt. eigenvalues --    2.53994   2.53994   2.64451   2.64451   2.65592
 Alpha virt. eigenvalues --    2.65592   2.66347   2.66347   2.66372   2.90001
 Alpha virt. eigenvalues --    2.90001   2.94523   2.94523   2.94779   3.17906
 Alpha virt. eigenvalues --    3.30660   3.31690   3.31690   3.32893   3.32893
 Alpha virt. eigenvalues --    3.52063   3.52063   3.72953   3.72953   3.75674
 Alpha virt. eigenvalues --    3.75674   3.80162   3.80162   3.80322   3.83376
 Alpha virt. eigenvalues --    3.83376   3.86243   3.87461   3.87461   3.92159
 Alpha virt. eigenvalues --    3.92159   3.94581   3.94581   3.94714   3.94714
 Alpha virt. eigenvalues --    3.98391   3.98391   3.99834   3.99834   4.02282
 Alpha virt. eigenvalues --    4.02282   4.12263   4.12263   4.14093   4.14093
 Alpha virt. eigenvalues --    4.20985   4.20985   4.21722   4.25601   4.34590
 Alpha virt. eigenvalues --    4.48471   4.48471   4.48627   4.48627   4.54370
 Alpha virt. eigenvalues --    4.54370   4.61742   4.61742   4.65661   4.65661
 Alpha virt. eigenvalues --    4.65951   4.65951   4.66702   4.69698   4.69698
 Alpha virt. eigenvalues --    4.73945   4.73945   4.80188   4.86731   4.86731
 Alpha virt. eigenvalues --    4.88997   4.88997   4.92718   5.39687   5.55369
 Alpha virt. eigenvalues --    5.76540   5.76540   5.83654   5.83654   5.98116
 Alpha virt. eigenvalues --    5.98116   6.13682   6.13682   6.35666   6.35666
 Alpha virt. eigenvalues --    6.37586   6.42011   6.42011   6.43560   6.51618
 Alpha virt. eigenvalues --    6.51618   6.53164   6.53164   6.53897   6.53897
 Alpha virt. eigenvalues --    6.54747   6.54747   6.55384   6.55384   6.57430
 Alpha virt. eigenvalues --    6.57430   6.62216   6.62216   6.65440   6.65440
 Alpha virt. eigenvalues --    6.65523   6.65523   6.65662   6.65662   6.66477
 Alpha virt. eigenvalues --    6.66477   6.70587   6.73625   6.73625   6.81232
 Alpha virt. eigenvalues --    6.92516   6.92516   6.95153   6.95153   7.01278
 Alpha virt. eigenvalues --    7.01278   7.03072   7.03072   7.17379   7.17379
 Alpha virt. eigenvalues --    7.48224   7.48224   7.53730   7.65167   7.70860
 Alpha virt. eigenvalues --    7.95196   7.95196   7.95907   7.95907   7.97077
 Alpha virt. eigenvalues --    7.97077   7.98850   7.98850   8.02141   8.02141
 Alpha virt. eigenvalues --    8.07046   8.07046   8.09839   8.09839   8.11478
 Alpha virt. eigenvalues --    8.21926   8.21926   8.35787   8.35787   8.44865
 Alpha virt. eigenvalues --    8.44865   8.45261   8.45261   8.49646   8.49646
 Alpha virt. eigenvalues --    8.56015   8.57696   8.57696   8.58806   8.58806
 Alpha virt. eigenvalues --    8.61850   8.61850   8.65865   8.72570   8.72570
 Alpha virt. eigenvalues --    8.74019   8.74019   8.88529   8.88529   9.18256
 Alpha virt. eigenvalues --    9.62824   9.62824  10.36015  11.51567  11.79268
 Alpha virt. eigenvalues --   12.84641  12.84641  12.90489  12.90489  13.05911
 Alpha virt. eigenvalues --   13.05911  13.37780  13.37780  13.84840  13.94418
 Alpha virt. eigenvalues --   16.38665  16.44133  16.44133  16.56281  16.56281
 Alpha virt. eigenvalues --   16.88468  33.08432 225.40960 367.45863
          Condensed to atoms (all electrons):
              1          2
     1  Br  34.808759   0.191241
     2  Br   0.191241  34.808759
 Mulliken atomic charges:
              1
     1  Br   0.000000
     2  Br   0.000000
 Sum of Mulliken atomic charges =   0.00000
 Mulliken charges with hydrogens summed into heavy atoms:
              1
     1  Br   0.000000
     2  Br   0.000000
 Sum of Mulliken charges with hydrogens summed into heavy atoms =   0.00000
          Atomic-Atomic Spin Densities.
              1          2
     1  Br   0.000000   0.000000
     2  Br   0.000000   0.000000
 Mulliken atomic spin densities:
              1
     1  Br   0.000000
     2  Br   0.000000
 Sum of Mulliken atomic spin densities =   0.00000
 Electronic spatial extent (au):  <R**2>=            405.0630
 Charge=              0.0000 electrons
 Dipole moment (field-independent basis, Debye):
    X=              0.0000    Y=              0.0000    Z=              0.0000  Tot=              0.0000
 Quadrupole moment (field-independent basis, Debye-Ang):
   XX=            -37.3283   YY=            -37.3283   ZZ=            -32.8073
   XY=              0.0000   XZ=              0.0000   YZ=              0.0000
 Traceless Quadrupole moment (field-independent basis, Debye-Ang):
   XX=             -1.5070   YY=             -1.5070   ZZ=              3.0140
   XY=              0.0000   XZ=              0.0000   YZ=              0.0000
 Octapole moment (field-independent basis, Debye-Ang**2):
  XXX=              0.0000  YYY=              0.0000  ZZZ=              0.0000  XYY=              0.0000
  XXY=              0.0000  XXZ=              0.0000  XZZ=              0.0000  YZZ=              0.0000
  YYZ=              0.0000  XYZ=              0.0000
 Hexadecapole moment (field-independent basis, Debye-Ang**3):
 XXXX=            -45.0141 YYYY=            -45.0141 ZZZZ=           -284.9543 XXXY=              0.0000
 XXXZ=              0.0000 YYYX=              0.0000 YYYZ=              0.0000 ZZZX=              0.0000
 ZZZY=              0.0000 XXYY=            -15.0047 XXZZ=            -63.4006 YYZZ=            -63.4006
 XXYZ=              0.0000 YYXZ=              0.0000 ZZXY=              0.0000
 N-N= 2.841858269318D+02 E-N=-1.931461809531D+04  KE= 7.717360573527D+03
                          Isotropic Fermi Contact Couplings
        Atom                 a.u.       MegaHertz       Gauss      10(-4) cm-1
     1  Br(79)             0.00000       0.00000       0.00000       0.00000
     2  Br(79)             0.00000       0.00000       0.00000       0.00000
 --------------------------------------------------------
       Center         ----  Spin Dipole Couplings  ----
                      3XX-RR        3YY-RR        3ZZ-RR
 --------------------------------------------------------
     1   Atom        0.000000      0.000000      0.000000
     2   Atom        0.000000      0.000000      0.000000
 --------------------------------------------------------
                        XY            XZ            YZ
 --------------------------------------------------------
     1   Atom        0.000000      0.000000      0.000000
     2   Atom        0.000000      0.000000      0.000000
 --------------------------------------------------------


 ---------------------------------------------------------------------------------
              Anisotropic Spin Dipole Couplings in Principal Axis System
 ---------------------------------------------------------------------------------

       Atom             a.u.   MegaHertz   Gauss  10(-4) cm-1        Axes

              Baa     0.0000     0.000     0.000     0.000  1.0000  0.0000  0.0000
     1 Br(79) Bbb     0.0000     0.000     0.000     0.000  0.0000  1.0000  0.0000
              Bcc     0.0000     0.000     0.000     0.000  0.0000  0.0000  1.0000
 
              Baa     0.0000     0.000     0.000     0.000  1.0000  0.0000  0.0000
     2 Br(79) Bbb     0.0000     0.000     0.000     0.000  0.0000  1.0000  0.0000
              Bcc     0.0000     0.000     0.000     0.000  0.0000  0.0000  1.0000
 

 ---------------------------------------------------------------------------------


 Test job not archived.
 1\1\GINC-C33\SP\ROMP2-RW\Gen\Br2\GPETERSSON\07-Jul-2013\0\\# ROMP2(RW)
  Gen GFinput Int=NoBasisTransform Int(Grid=Ultrafine) IOp(3/32=2,5/6=1
 0,8/11=1,9/33=1) Maxdisk=128GB CBSextrapolate(Nmin=20,MinPop)\\Br2\\0,
 1\Br\Br,1,2.28105\\Version=EM64L-G09RevA.02\State=1-SGG\HF=-5144.92252
 84\MP2=-5145.3051948\E2(CBS)=-0.3974735\CBS-Int=-0.3905121\OIii=2.7203
 003\RMSD=2.054e-11\PG=D*H [C*(Br1.Br1)]\\@


 ONLY THE DAY DAWNS TO WHICH YOU ARE AWAKE.

                                 -- THOREAU
 Job cpu time:  0 days 16 hours  0 minutes 28.8 seconds.
 File lengths (MBytes):  RWF=   4089 Int=      0 D2E=      0 Chk=     12 Scr=      1
 Normal termination of Gaussian 09 at Sun Jul  7 13:22:53 2013.
