 Entering Gaussian System, Link 0=gdv
 AtFile(1): 7ZaPa-NR.gbs
 Initial command:
 /share/apps/gaussian/gdvh12/gdv/l1.exe /localscratch/934811/Gau-29328.inp -scrdir=/localscratch/934811/
 Entering Link 1 = /share/apps/gaussian/gdvh12/gdv/l1.exe PID=     29329.
  
 Copyright (c) 1988,1990,1992,1993,1995,1998,2003,2009,2011,
            Gaussian, Inc.  All Rights Reserved.
  
 This is the private, development version of
 the Gaussian(R) DV system of programs. It is based on
 the Gaussian(R) 09 system (copyright 2009, Gaussian, Inc.),
 the Gaussian(R) 03 system (copyright 2003, Gaussian, Inc.),
 the Gaussian(R) 98 system (copyright 1998, Gaussian, Inc.),
 the Gaussian(R) 94 system (copyright 1995, Gaussian, Inc.),
 the Gaussian 92(TM) system (copyright 1992, Gaussian, Inc.),
 the Gaussian 90(TM) system (copyright 1990, Gaussian, Inc.),
 the Gaussian 88(TM) system (copyright 1988, Gaussian, Inc.),
 the Gaussian 86(TM) system (copyright 1986, Carnegie Mellon
 University), and the Gaussian 82(TM) system (copyright 1983,
 Carnegie Mellon University). Gaussian is a federally registered
 trademark of Gaussian, Inc.
  
 This software contains proprietary and confidential information,
 including trade secrets, belonging to Gaussian, Inc.
  
 This software is provided under written license and may be
 used, copied, transmitted, or stored only in accord with that
 written license.
  
 The following legend is applicable only to US Government
 contracts under FAR:
  
                    RESTRICTED RIGHTS LEGEND
  
 Use, reproduction and disclosure by the US Government is
 subject to restrictions as set forth in subparagraphs (a)
 and (c) of the Commercial Computer Software - Restricted
 Rights clause in FAR 52.227-19.
  
 Gaussian, Inc.
 340 Quinnipiac St., Bldg. 40, Wallingford CT 06492
  
  
 ---------------------------------------------------------------
 Warning -- This program may not be used in any manner that
 competes with the business of Gaussian, Inc. or will provide
 assistance to any competitor of Gaussian, Inc.  The licensee
 of this program is prohibited from giving any competitor of
 Gaussian, Inc. access to this program.  By using this program,
 the user acknowledges that Gaussian, Inc. is engaged in the
 business of creating and licensing software in the field of
 computational chemistry and represents and warrants to the
 licensee that it is not a competitor of Gaussian, Inc. and that
 it will not use this program in any manner prohibited above.
 ---------------------------------------------------------------
  

 Cite this work as:
 Gaussian Development Version, Revision H.12,
 M. J. Frisch, G. W. Trucks, H. B. Schlegel, G. E. Scuseria, 
 M. A. Robb, J. R. Cheeseman, G. Scalmani, V. Barone, B. Mennucci, 
 G. A. Petersson, H. Nakatsuji, M. Caricato, X. Li, H. P. Hratchian, 
 A. F. Izmaylov, J. Bloino, G. Zheng, J. L. Sonnenberg, M. Hada, 
 M. Ehara, K. Toyota, R. Fukuda, J. Hasegawa, M. Ishida, T. Nakajima, 
 Y. Honda, O. Kitao, H. Nakai, T. Vreven, J. A. Montgomery, Jr., 
 J. E. Peralta, F. Ogliaro, M. Bearpark, J. J. Heyd, E. Brothers, 
 K. N. Kudin, V. N. Staroverov, T. Keith, R. Kobayashi, J. Normand, 
 K. Raghavachari, A. Rendell, J. C. Burant, S. S. Iyengar, J. Tomasi, 
 M. Cossi, N. Rega, J. M. Millam, M. Klene, J. E. Knox, J. B. Cross, 
 V. Bakken, C. Adamo, J. Jaramillo, R. Gomperts, R. E. Stratmann, 
 O. Yazyev, A. J. Austin, R. Cammi, C. Pomelli, J. W. Ochterski, 
 R. L. Martin, K. Morokuma, V. G. Zakrzewski, G. A. Voth, 
 P. Salvador, J. J. Dannenberg, S. Dapprich, P. V. Parandekar, 
 N. J. Mayhall, A. D. Daniels, O. Farkas, J. B. Foresman, 
 J. V. Ortiz, J. Cioslowski, and D. J. Fox, 
 Gaussian, Inc., Wallingford CT, 2010.
 
 ******************************************
 Gaussian DV:  EM64L-GDVRevH.12  9-Jun-2011
                21-May-2013 
 ******************************************
 % Mem=12GB
 % Nproc=8
 Will use up to    8 processors via shared memory.
 ----------------------------------------------------------------------
 # ROMP2(RW) Gen GFinput Int=NoBasisTransform Int(Grid=Ultrafine) IOp(3
 /32=2,5/6=10,8/11=1,9/33=1) Maxdisk=128GB CBSextrapolate(Nmin=25,MinPo
 p)
 ----------------------------------------------------------------------
 1/38=1/1;
 2/12=2,17=6,18=5,40=1/2;
 3/5=7,11=2,16=1,24=10,25=1,30=1,32=2,60=-1,75=-5,116=101/1,2,3;
 4//1;
 5/5=2,6=10,38=5/2;
 8/5=-1,10=91,11=1/1;
 9/16=-3,33=1,75=2,81=25,83=4/6,4;
 6/7=2,8=2,9=2,10=2/1;
 99/5=1,9=1/99;
 ---------
 BrCl 1Sg+
 ---------
 Charge =  0 Multiplicity = 1
 Symbolic Z-Matrix:
 Br
 Cl                   1     2.13606 
 
                          Input orientation:                          
 ---------------------------------------------------------------------
 Center     Atomic      Atomic             Coordinates (Angstroms)
 Number     Number       Type             X           Y           Z
 ---------------------------------------------------------------------
      1         35           0        0.000000    0.000000    0.000000
      2         17           0        0.000000    0.000000    2.136065
 ---------------------------------------------------------------------
 Stoichiometry    BrCl
 Framework group  C*V[C*(ClBr)]
 Deg. of freedom     1
 Full point group                 C*V     NOp   4
 Largest Abelian subgroup         C2V     NOp   4
 Largest concise Abelian subgroup C1      NOp   1
                         Standard orientation:                         
 ---------------------------------------------------------------------
 Center     Atomic      Atomic             Coordinates (Angstroms)
 Number     Number       Type             X           Y           Z
 ---------------------------------------------------------------------
      1         35           0        0.000000    0.000000    0.698329
      2         17           0        0.000000    0.000000   -1.437736
 ---------------------------------------------------------------------
 Rotational constants (GHZ):      0.0000000      4.5709223      4.5709223
 General basis read from cards:  (5D, 7F)
 AO basis set in the form of general basis input (Overlap normalization):
      1 0
 S  19 1.00       0.000000000000
      0.1084089110D+09  0.2897699584D-06
      0.2017723730D+08  0.1824866800D-05
      0.4606851830D+07  0.1038807919D-04
      0.1247136140D+07  0.4708813254D-04
      0.3886300470D+06  0.1814051699D-03
      0.1358926290D+06  0.6102148031D-03
      0.5217333690D+05  0.1843419936D-02
      0.2159416810D+05  0.5103438024D-02
      0.9489448890D+04  0.1312406995D-01
      0.4372571600D+04  0.3150120384D-01
      0.2091443270D+04  0.6997810635D-01
      0.1030127600D+04  0.1400640193D+00
      0.5192168730D+03  0.2383775848D+00
      0.2665046050D+03  0.3080972525D+00
      0.1387733520D+03  0.2451695558D+00
      0.7308292400D+02  0.8608897484D-01
      0.3882100000D+02  0.7995888776D-02
      0.2074503800D+02  0.9489470514D-03
      0.1111965000D+02  0.4953062091D-04
 S  15 1.00       0.000000000000
      0.2159416810D+05 -0.9678985889D-05
      0.9489448890D+04 -0.4863764938D-04
      0.4372571600D+04 -0.2977365187D-03
      0.2091443270D+04 -0.1372218990D-02
      0.1030127600D+04 -0.5849453272D-02
      0.5192168730D+03 -0.2048702530D-01
      0.2665046050D+03 -0.5658275134D-01
      0.1387733520D+03 -0.9041113573D-01
      0.7308292400D+02 -0.2938125153D-02
      0.3882100000D+02  0.3072534665D+00
      0.2074503800D+02  0.5066413436D+00
      0.1111965000D+02  0.2631655220D+00
      0.5957454000D+01  0.3964223360D-01
      0.3175930000D+01  0.3292853492D-02
      0.1674973000D+01  0.4898347019D-03
 P  17 1.00       0.000000000000
      0.1489059560D+06  0.2740260182D-05
      0.3964636200D+05  0.2176321263D-04
      0.1264734410D+05  0.1403834625D-03
      0.4668245390D+04  0.6948952544D-03
      0.1934889060D+04  0.2808105022D-02
      0.8778986460D+03  0.9526976658D-02
      0.4267924460D+03  0.2770298382D-01
      0.2183954360D+03  0.6953677487D-01
      0.1159257070D+03  0.1469386723D+00
      0.6307782300D+02  0.2493208911D+00
      0.3484932500D+02  0.3157753200D+00
      0.1940052200D+02  0.2488553914D+00
      0.1081551700D+02  0.9796365660D-01
      0.6006953000D+01  0.1592384613D-01
      0.3308640000D+01  0.1533209791D-02
      0.1799357000D+01  0.3395022310D-03
      0.9616640000D+00  0.2293710392D-04
 S  11 1.00       0.000000000000
      0.2665046050D+03  0.7045882210D-03
      0.1387733520D+03  0.2554017970D-02
      0.7308292400D+02  0.2249779309D-02
      0.3882100000D+02 -0.3797473952D-01
      0.2074503800D+02 -0.1751230827D+00
      0.1111965000D+02 -0.1392406230D+00
      0.5957454000D+01  0.2628491860D+00
      0.3175930000D+01  0.5920876138D+00
      0.1674973000D+01  0.3388251456D+00
      0.8674590000D+00  0.3744989864D-01
      0.4370370000D+00  0.2232780462D-02
 P  14 1.00       0.000000000000
      0.8778986460D+03 -0.3377811447D-04
      0.4267924460D+03 -0.2222521929D-03
      0.2183954360D+03 -0.1192581069D-02
      0.1159257070D+03 -0.4604030998D-02
      0.6307782300D+02 -0.1233507946D-01
      0.3484932500D+02 -0.2302104199D-01
      0.1940052200D+02  0.3236711412D-02
      0.1081551700D+02  0.1367969390D+00
      0.6006953000D+01  0.3183466610D+00
      0.3308640000D+01  0.3836335349D+00
      0.1799357000D+01  0.2240687451D+00
      0.9616640000D+00  0.4713264893D-01
      0.5023720000D+00  0.3459205239D-02
      0.2548520000D+00  0.3310734587D-03
 D  16 1.00       0.000000000000
      0.5237200060D+04  0.5069540497D-05
      0.1612175470D+04  0.5373351511D-04
      0.6179331500D+03  0.3636041628D-03
      0.2751743010D+03  0.1742056614D-02
      0.1352802610D+03  0.6602255191D-02
      0.7083381400D+02  0.2016098071D-01
      0.3857775800D+02  0.5069376509D-01
      0.2153871200D+02  0.1079671851D+00
      0.1222546500D+02  0.1840055841D+00
      0.7018196000D+01  0.2440961743D+00
      0.4054348000D+01  0.2626492965D+00
      0.2338499000D+01  0.2241806785D+00
      0.1328367000D+01  0.1352922333D+00
      0.7265420000D+00  0.4881548799D-01
      0.3696680000D+00  0.7884050075D-02
      0.1665550000D+00  0.6446766657D-03
 S  10 1.00       0.000000000000
      0.3882100000D+02  0.2300144399D-03
      0.2074503800D+02  0.3863835953D-02
      0.1111965000D+02  0.2640130519D-02
      0.5957454000D+01 -0.8966677182D-02
      0.3175930000D+01 -0.9457293054D-01
      0.1674973000D+01 -0.2184827177D+00
      0.8674590000D+00  0.8325308406D-01
      0.4370370000D+00  0.5053966275D+00
      0.2117090000D+00  0.4987155701D+00
      0.9720500000D-01  0.1240336784D+00
 S   1 1.00       0.000000000000
      0.1209560000D+00  0.1000000000D+01
 S   1 1.00       0.000000000000
      0.4734000000D-01  0.1000000000D+01
 P  11 1.00       0.000000000000
      0.3484932500D+02  0.1184665237D-03
      0.1940052200D+02 -0.4435072015D-03
      0.1081551700D+02 -0.3741457556D-02
      0.6006953000D+01 -0.9005010777D-02
      0.3308640000D+01 -0.2542087043D-01
      0.1799357000D+01 -0.2314468429D-01
      0.9616640000D+00  0.1187990779D+00
      0.5023720000D+00  0.3164600821D+00
      0.2548520000D+00  0.3904801352D+00
      0.1245350000D+00  0.2667515036D+00
      0.5802900000D-01  0.6072639074D-01
 P   1 1.00       0.000000000000
      0.6083700000D-01  0.1000000000D+01
 P   1 1.00       0.000000000000
      0.2547600000D-01  0.1000000000D+01
 S   1 1.00       0.000000000000
      0.4239434000D+01  0.1000000000D+01
 S   1 1.00       0.000000000000
      0.2478441000D+01  0.1000000000D+01
 S   1 1.00       0.000000000000
      0.1448937000D+01  0.1000000000D+01
 S   1 1.00       0.000000000000
      0.8470720000D+00  0.1000000000D+01
 S   1 1.00       0.000000000000
      0.4952120000D+00  0.1000000000D+01
 S   1 1.00       0.000000000000
      0.2895090000D+00  0.1000000000D+01
 P   1 1.00       0.000000000000
      0.3530439000D+01  0.1000000000D+01
 P   1 1.00       0.000000000000
      0.2050080000D+01  0.1000000000D+01
 P   1 1.00       0.000000000000
      0.1190455000D+01  0.1000000000D+01
 P   1 1.00       0.000000000000
      0.6912820000D+00  0.1000000000D+01
 P   1 1.00       0.000000000000
      0.4014180000D+00  0.1000000000D+01
 P   1 1.00       0.000000000000
      0.2330980000D+00  0.1000000000D+01
 D   1 1.00       0.000000000000
      0.2746111000D+01  0.1000000000D+01
 D   1 1.00       0.000000000000
      0.1533907000D+01  0.1000000000D+01
 D   1 1.00       0.000000000000
      0.8568010000D+00  0.1000000000D+01
 D   1 1.00       0.000000000000
      0.4785870000D+00  0.1000000000D+01
 D   1 1.00       0.000000000000
      0.2673260000D+00  0.1000000000D+01
 D   1 1.00       0.000000000000
      0.1493220000D+00  0.1000000000D+01
 D   1 1.00       0.000000000000
      0.8340770000D-01  0.1000000000D+01
 F   1 1.00       0.000000000000
      0.3187656000D+01  0.1000000000D+01
 F   1 1.00       0.000000000000
      0.1674453000D+01  0.1000000000D+01
 F   1 1.00       0.000000000000
      0.8795780000D+00  0.1000000000D+01
 F   1 1.00       0.000000000000
      0.4620360000D+00  0.1000000000D+01
 F   1 1.00       0.000000000000
      0.2427040000D+00  0.1000000000D+01
 F   1 1.00       0.000000000000
      0.1274910000D+00  0.1000000000D+01
 G   1 1.00       0.000000000000
      0.1560226000D+01  0.1000000000D+01
 G   1 1.00       0.000000000000
      0.9434780000D+00  0.1000000000D+01
 G   1 1.00       0.000000000000
      0.5705260000D+00  0.1000000000D+01
 G   1 1.00       0.000000000000
      0.3450010000D+00  0.1000000000D+01
 G   1 1.00       0.000000000000
      0.2086240000D+00  0.1000000000D+01
 H   1 1.00       0.000000000000
      0.1384770000D+01  0.1000000000D+01
 H   1 1.00       0.000000000000
      0.8134390000D+00  0.1000000000D+01
 H   1 1.00       0.000000000000
      0.4778280000D+00  0.1000000000D+01
 H   1 1.00       0.000000000000
      0.2806840000D+00  0.1000000000D+01
 I   1 1.00       0.000000000000
      0.1302811000D+01  0.1000000000D+01
 I   1 1.00       0.000000000000
      0.6956320000D+00  0.1000000000D+01
 I   1 1.00       0.000000000000
      0.3714310000D+00  0.1000000000D+01
 J   1 1.00       0.000000000000
      0.1102245215D+01  0.1000000000D+01
 ****
      2 0
 S  18 1.00       0.000000000000
      0.1309664890D+08  0.6709383931D-06
      0.2354480470D+07  0.4413363027D-05
      0.5316863956D+06  0.2511516560D-04
      0.1444171627D+06  0.1124587160D-03
      0.4547971350D+05  0.4253512376D-03
      0.1610206896D+05  0.1405059280D-02
      0.6248526359D+04  0.4183214157D-02
      0.2603459819D+04  0.1144286852D-01
      0.1145687894D+04  0.2902874970D-01
      0.5257135380D+03  0.6776823672D-01
      0.2490726090D+03  0.1414887775D+00
      0.1209387980D+03  0.2481557560D+00
      0.5984396800D+02  0.3227236998D+00
      0.3004461100D+02  0.2437036796D+00
      0.1524564800D+02  0.7403184184D-01
      0.7789438000D+01  0.6262394843D-02
      0.3989717000D+01  0.1349071004D-02
      0.2037216000D+01  0.3417216349D-03
 S  13 1.00       0.000000000000
      0.2603459819D+04 -0.3395093462D-04
      0.1145687894D+04 -0.1789850092D-03
      0.5257135380D+03 -0.1022872671D-02
      0.2490726090D+03 -0.4604607705D-02
      0.1209387980D+03 -0.1750032003D-01
      0.5984396800D+02 -0.5096994913D-01
      0.3004461100D+02 -0.8290239694D-01
      0.1524564800D+02  0.6057264062D-02
      0.7789438000D+01  0.2771583897D+00
      0.3989717000D+01  0.4982842660D+00
      0.2037216000D+01  0.2918194237D+00
      0.1029444000D+01  0.3714264569D-01
      0.5098250000D+00  0.2295584873D-02
 P  16 1.00       0.000000000000
      0.2682792626D+05  0.3509809160D-05
      0.7069939112D+04  0.2821081396D-04
      0.2258045317D+04  0.1798760404D-03
      0.8386179600D+03  0.8721451991D-03
      0.3498425050D+03  0.3432514902D-02
      0.1593112000D+03  0.1124641667D-01
      0.7737302300D+02  0.3147376622D-01
      0.3933798300D+02  0.7590380359D-01
      0.2063093700D+02  0.1527106270D+00
      0.1103316800D+02  0.2444829839D+00
      0.5962398000D+01  0.3044969569D+00
      0.3232292000D+01  0.2555637705D+00
      0.1746839000D+01  0.1087711303D+00
      0.9355700000D+00  0.1748635807D-01
      0.4934490000D+00  0.1307184697D-02
      0.2544110000D+00  0.1883271334D-03
 D   1 1.00       0.000000000000
      0.2395837259D+02  0.1000000000D+01
 S  10 1.00       0.000000000000
      0.5984396800D+02  0.2789153118D-03
      0.3004461100D+02  0.1374501127D-02
      0.1524564800D+02  0.1698392926D-03
      0.7789438000D+01 -0.1306268989D-01
      0.3989717000D+01 -0.9668339911D-01
      0.2037216000D+01 -0.1687235725D+00
      0.1029444000D+01  0.1164284904D+00
      0.5098250000D+00  0.4831810127D+00
      0.2443350000D+00  0.4725431994D+00
      0.1114920000D+00  0.1224966561D+00
 S   1 1.00       0.000000000000
      0.6870782948D-01  0.1000000000D+01
 P  11 1.00       0.000000000000
      0.3933798300D+02 -0.6579553193D-03
      0.2063093700D+02 -0.1779070974D-02
      0.1103316800D+02 -0.5113507882D-02
      0.5962398000D+01 -0.9657145048D-02
      0.3232292000D+01 -0.1137216930D-01
      0.1746839000D+01  0.5231884176D-01
      0.9355700000D+00  0.2021242491D+00
      0.4934490000D+00  0.3271831674D+00
      0.2544110000D+00  0.3358512554D+00
      0.1270450000D+00  0.2009072636D+00
      0.6073100000D-01  0.4005487164D-01
 P   1 1.00       0.000000000000
      0.4633347570D-01  0.1000000000D+01
 S   1 1.00       0.000000000000
      0.8195467000D+01  0.1000000000D+01
 S   1 1.00       0.000000000000
      0.4377615000D+01  0.1000000000D+01
 S   1 1.00       0.000000000000
      0.2338307000D+01  0.1000000000D+01
 S   1 1.00       0.000000000000
      0.1249008000D+01  0.1000000000D+01
 S   1 1.00       0.000000000000
      0.6671590000D+00  0.1000000000D+01
 S   1 1.00       0.000000000000
      0.3563630000D+00  0.1000000000D+01
 P   1 1.00       0.000000000000
      0.5395611000D+01  0.1000000000D+01
 P   1 1.00       0.000000000000
      0.2932136000D+01  0.1000000000D+01
 P   1 1.00       0.000000000000
      0.1593410000D+01  0.1000000000D+01
 P   1 1.00       0.000000000000
      0.8659070000D+00  0.1000000000D+01
 P   1 1.00       0.000000000000
      0.4705600000D+00  0.1000000000D+01
 P   1 1.00       0.000000000000
      0.2557160000D+00  0.1000000000D+01
 D   1 1.00       0.000000000000
      0.7682464000D+01  0.1000000000D+01
 D   1 1.00       0.000000000000
      0.3694579000D+01  0.1000000000D+01
 D   1 1.00       0.000000000000
      0.1776763000D+01  0.1000000000D+01
 D   1 1.00       0.000000000000
      0.8544640000D+00  0.1000000000D+01
 D   1 1.00       0.000000000000
      0.4109210000D+00  0.1000000000D+01
 D   1 1.00       0.000000000000
      0.1976160000D+00  0.1000000000D+01
 D   1 1.00       0.000000000000
      0.9503550000D-01  0.1000000000D+01
 F   1 1.00       0.000000000000
      0.3621741000D+01  0.1000000000D+01
 F   1 1.00       0.000000000000
      0.1919120000D+01  0.1000000000D+01
 F   1 1.00       0.000000000000
      0.1016921000D+01  0.1000000000D+01
 F   1 1.00       0.000000000000
      0.5388550000D+00  0.1000000000D+01
 F   1 1.00       0.000000000000
      0.2855330000D+00  0.1000000000D+01
 F   1 1.00       0.000000000000
      0.1513000000D+00  0.1000000000D+01
 G   1 1.00       0.000000000000
      0.1841547000D+01  0.1000000000D+01
 G   1 1.00       0.000000000000
      0.1105244000D+01  0.1000000000D+01
 G   1 1.00       0.000000000000
      0.6633360000D+00  0.1000000000D+01
 G   1 1.00       0.000000000000
      0.3981150000D+00  0.1000000000D+01
 G   1 1.00       0.000000000000
      0.2389370000D+00  0.1000000000D+01
 H   1 1.00       0.000000000000
      0.1942025000D+01  0.1000000000D+01
 H   1 1.00       0.000000000000
      0.1083461000D+01  0.1000000000D+01
 H   1 1.00       0.000000000000
      0.6044650000D+00  0.1000000000D+01
 H   1 1.00       0.000000000000
      0.3372320000D+00  0.1000000000D+01
 I   1 1.00       0.000000000000
      0.1796289000D+01  0.1000000000D+01
 I   1 1.00       0.000000000000
      0.8719090000D+00  0.1000000000D+01
 I   1 1.00       0.000000000000
      0.4232190000D+00  0.1000000000D+01
 J   1 1.00       0.000000000000
      0.1430231735D+01  0.1000000000D+01
 ****

 There are   314 symmetry adapted cartesian basis functions of A1  symmetry.
 There are   130 symmetry adapted cartesian basis functions of A2  symmetry.
 There are   206 symmetry adapted cartesian basis functions of B1  symmetry.
 There are   206 symmetry adapted cartesian basis functions of B2  symmetry.
 There are   184 symmetry adapted basis functions of A1  symmetry.
 There are    88 symmetry adapted basis functions of A2  symmetry.
 There are   130 symmetry adapted basis functions of B1  symmetry.
 There are   130 symmetry adapted basis functions of B2  symmetry.
   532 basis functions,  1227 primitive gaussians,   856 cartesian basis functions
    26 alpha electrons       26 beta electrons
       nuclear repulsion energy       147.4020870671 Hartrees.
 NAtoms=    2 NActive=    2 NUniq=    2 SFac= 1.00D+00 NAtFMM=   60 NAOKFM=F Big=F
 Integral buffers will be    131072 words long.
 Raffenetti 2 integral format.
 Two-electron integral symmetry is turned on.
 One-electron integrals computed using PRISM.
 PrsmSu:  requested number of processors reduced to:   2 ShMem   1 Linda.
 NBasis=   532 RedAO= F EigKep=  0.00D+00  NBF=   184    88   130   130
 NBsUse=   532 1.00D-04 EigRej=  0.00D+00 NBFU=   184    88   130   130
 ExpMin= 2.55D-02 ExpMax= 1.08D+08 ExpMxC= 9.49D+03 IAcc=3 IRadAn=         5 AccDes= 0.00D+00
 Harris functional with IExCor=  205 and IRadAn=       5 diagonalized for initial guess.
 HarFok:  IExCor=  205 AccDes= 0.00D+00 IRadAn=         5 IDoV= 1 UseB2=F ITyADJ=14
 ICtDFT=  3500011 ScaDFX=  1.000000  1.000000  1.000000  1.000000
 FoFCou: FMM=F IPFlag=           0 FMFlag=      100000 FMFlg1=           0
         NFxFlg=           0 DoJE=T BraDBF=F KetDBF=T FulRan=T
         wScrn=  0.000000 ICntrl=     500 IOpCl=  0 I1Cent=   200000004 NGrid=           0
         NMat0=    1 NMatS0=      1 NMatT0=    0 NMatD0=    1 NMtDS0=    0 NMtDT0=    0
 Petite list used in FoFCou.
 DSYEVD returned Info=        1065 IAlg= 4 N=   532 NDim=   532 NE2=     3024643 trying DSYEV.
 Initial guess orbital symmetries:
       Occupied  (SG) (SG) (SG) (PI) (PI) (SG) (SG) (SG) (SG) (PI)
                 (PI) (SG) (PI) (PI) (SG) (PI) (PI) (DLTA) (DLTA)
                 (SG) (SG) (SG) (PI) (PI) (PI) (PI)
       Virtual   (SG) (SG) (SG) (PI) (PI) (SG) (DLTA) (DLTA) (PI)
                 (PI) (PI) (PI) (SG) (PI) (PI) (SG) (DLTA) (DLTA)
                 (SG) (SG) (PI) (PI) (DLTA) (DLTA) (SG) (PI) (PI)
                 (PHI) (PHI) (DLTA) (DLTA) (PI) (PI) (SG) (DLTA)
                 (DLTA) (SG) (PI) (PI) (PHI) (PHI) (SG) (PI) (PI)
                 (SG) (PI) (PI) (DLTA) (DLTA) (SG) (?A) (?A) (PHI)
                 (PHI) (PI) (PI) (DLTA) (DLTA) (SG) (SG) (PI) (PI)
                 (DLTA) (DLTA) (PHI) (PHI) (SG) (?A) (?A) (PI)
                 (PI) (DLTA) (DLTA) (SG) (PI) (PI) (DLTA) (DLTA)
                 (PHI) (PHI) (SG) (PHI) (PHI) (SG) (DLTA) (DLTA)
                 (PI) (PI) (PI) (PI) (SG) (PI) (PI) (?B) (?B) (?A)
                 (?A) (DLTA) (DLTA) (SG) (SG) (PHI) (PHI) (PI)
                 (PI) (PI) (PI) (DLTA) (DLTA) (?A) (?A) (?B) (?B)
                 (SG) (PHI) (PHI) (PI) (PI) (DLTA) (DLTA) (SG)
                 (PHI) (PHI) (?A) (?A) (DLTA) (DLTA) (SG) (PI)
                 (PI) (SG) (DLTA) (DLTA) (PI) (PI) (?A) (?A) (PHI)
                 (PHI) (SG) (SG) (SG) (PHI) (PHI) (DLTA) (DLTA)
                 (?B) (?B) (DLTA) (DLTA) (PI) (PI) (SG) (SG) (PI)
                 (PI) (DLTA) (DLTA) (PHI) (PHI) (?A) (?A) (SG)
                 (SG) (PI) (PI) (SG) (SG) (PI) (PI) (SG) (PHI)
                 (PHI) (?B) (?B) (PI) (PI) (DLTA) (DLTA) (?B) (?B)
                 (?A) (?A) (PHI) (PHI) (SG) (PI) (PI) (DLTA) (DLTA)
                 (DLTA) (DLTA) (?A) (?A) (SG) (PI) (PI) (?A) (?A)
                 (SG) (PHI) (PHI) (PI) (PI) (SG) (PI) (PI) (DLTA)
                 (DLTA) (PHI) (PHI) (DLTA) (DLTA) (SG) (PHI) (PHI)
                 (PI) (PI) (SG) (?B) (?B) (DLTA) (DLTA) (?A) (?A)
                 (SG) (PI) (PI) (DLTA) (DLTA) (?A) (?A) (PHI) (PHI)
                 (DLTA) (DLTA) (PI) (PI) (SG) (PHI) (PHI) (PI)
                 (PI) (DLTA) (DLTA) (SG) (SG) (PHI) (PHI) (SG)
                 (PI) (PI) (SG) (SG) (?B) (?B) (SG) (DLTA) (DLTA)
                 (PI) (PI) (?A) (?A) (PHI) (PHI) (SG) (DLTA) (DLTA)
                 (PI) (PI) (DLTA) (DLTA) (?B) (?B) (?A) (?A) (SG)
                 (SG) (PHI) (PHI) (PI) (PI) (?A) (?A) (DLTA) (DLTA)
                 (SG) (PHI) (PHI) (PI) (PI) (DLTA) (DLTA) (PI)
                 (PI) (PI) (PI) (SG) (SG) (SG) (?B) (?B) (?A) (?A)
                 (SG) (PI) (PI) (PHI) (PHI) (SG) (DLTA) (DLTA)
                 (SG) (PI) (PI) (PHI) (PHI) (?A) (?A) (PHI) (PHI)
                 (DLTA) (DLTA) (SG) (?B) (?B) (DLTA) (DLTA) (PI)
                 (PI) (?A) (?A) (DLTA) (DLTA) (PI) (PI) (PHI) (PHI)
                 (SG) (PI) (PI) (DLTA) (DLTA) (SG) (SG) (PI) (PI)
                 (PI) (PI) (?A) (?A) (SG) (PHI) (PHI) (SG) (PI)
                 (PI) (DLTA) (DLTA) (SG) (PI) (PI) (PHI) (PHI)
                 (SG) (PI) (PI) (DLTA) (DLTA) (SG) (SG) (SG) (PI)
                 (PI) (?B) (?B) (?A) (?A) (PHI) (PHI) (?A) (?A)
                 (DLTA) (DLTA) (?B) (?B) (SG) (?A) (?A) (PHI) (PHI)
                 (PHI) (PHI) (PI) (PI) (DLTA) (DLTA) (SG) (PI)
                 (PI) (DLTA) (DLTA) (?B) (?B) (SG) (SG) (?C) (?C)
                 (SG) (?A) (?A) (SG) (PI) (PI) (PHI) (PHI) (DLTA)
                 (DLTA) (SG) (DLTA) (DLTA) (PI) (PI) (PI) (PI)
                 (SG) (?A) (?A) (PI) (PI) (PHI) (PHI) (SG) (DLTA)
                 (DLTA) (SG) (PI) (PI) (PHI) (PHI) (DLTA) (DLTA)
                 (SG) (SG) (?B) (?B) (SG) (?A) (?A) (PHI) (PHI)
                 (SG) (PI) (PI) (DLTA) (DLTA) (?B) (?B) (?A) (?A)
                 (PHI) (PHI) (SG) (DLTA) (DLTA) (PI) (PI) (PI)
                 (PI) (SG) (PI) (PI) (DLTA) (DLTA) (PI) (PI) (SG)
                 (SG) (PHI) (PHI) (DLTA) (DLTA) (PI) (PI) (SG)
                 (SG) (SG) (DLTA) (DLTA) (PI) (PI) (SG) (PI) (PI)
                 (SG) (SG) (PI) (PI) (SG) (DLTA) (DLTA) (PI) (PI)
                 (SG) (SG) (SG)
 The electronic state of the initial guess is 1-SG.
 Requested convergence on RMS density matrix=1.00D-10 within 128 cycles.
 Requested convergence on MAX density matrix=1.00D-08.
 Requested convergence on             energy=1.00D-08.
 No special actions if energy rises.
 Initial convergence to 1.0D-05 achieved.  Increase integral accuracy.
 SCF Done:  E(ROHF) =  -3031.96710939     A.U. after   16 cycles
            NFock= 16  Conv=0.24D-10     -V/T= 2.0000
 <Sx>= 0.0000 <Sy>= 0.0000 <Sz>= 0.0000 <S**2>= 0.0000 S= 0.0000
 <L.S>= 0.000000000000E+00
 Annihilation of the first spin contaminant:
 S**2 before annihilation     0.0000,   after     0.0000
 GenMOA:  NOpAll=  4 NOp2=4 NOpUse=  4 JSym2X=1
 <Sx>= 0.0000 <Sy>= 0.0000 <Sz>= 0.0000 <S**2>= 0.0000 S= 0.0000
 Range of M.O.s used for correlation:    20   532
 NBasis=   532 NAE=    26 NBE=    26 NFC=    19 NFV=     0
 NROrb=    513 NOA=     7 NOB=     7 NVA=   506 NVB=   506

 **** Warning!!: The largest alpha MO coefficient is  0.67485058D+03


 **** Warning!!: The largest beta MO coefficient is  0.67485058D+03

 Singles contribution to E2=   -0.3623124693D-13
 Disk-based method using OVN memory for  7 occupieds at a time.
 Permanent disk used for amplitudes and <ij||ab> integrals=    35823788 words.
 Estimated scratch disk usage=  3319571244 words.
 IUseRI=2 ITolRI= 6 IR12RI=0
 Actual    scratch disk usage=  3318018348 words.
 GetIJB would need an additional  1734445388 words of memory to use all   8 processors.
 JobTyp=2 Pass  1:  I=   1 to   7 NPSUse=  1 ParTrn=F ParDer=F DoDerP=F.
 T,EIJ(AA): I=   1 J=   2      0.1065423E-03     -0.3950379E-03
 T,EIJ(AA): I=   1 J=   3      0.2635555E-03     -0.9574630E-03
 T,EIJ(AA): I=   1 J=   4      0.3174775E-03     -0.1165476E-02
 T,EIJ(AA): I=   1 J=   5      0.3174775E-03     -0.1165476E-02
 T,EIJ(AA): I=   1 J=   6      0.2329260E-03     -0.8706267E-03
 T,EIJ(AA): I=   1 J=   7      0.2329260E-03     -0.8706267E-03
 T,EIJ(AA): I=   2 J=   3      0.7347669E-03     -0.2021054E-02
 T,EIJ(AA): I=   2 J=   4      0.4712857E-03     -0.1334636E-02
 T,EIJ(AA): I=   2 J=   5      0.4712857E-03     -0.1334636E-02
 T,EIJ(AA): I=   2 J=   6      0.4084526E-03     -0.1254646E-02
 T,EIJ(AA): I=   2 J=   7      0.4084526E-03     -0.1254646E-02
 T,EIJ(AA): I=   3 J=   4      0.1673667E-02     -0.4147373E-02
 T,EIJ(AA): I=   3 J=   5      0.1673667E-02     -0.4147373E-02
 T,EIJ(AA): I=   3 J=   6      0.2502062E-02     -0.5062170E-02
 T,EIJ(AA): I=   3 J=   7      0.2502062E-02     -0.5062170E-02
 T,EIJ(AA): I=   4 J=   5      0.1579691E-02     -0.3974571E-02
 T,EIJ(AA): I=   4 J=   6      0.1246658E-02     -0.3100315E-02
 T,EIJ(AA): I=   4 J=   7      0.2764613E-03     -0.6037749E-03
 T,EIJ(AA): I=   5 J=   6      0.2764613E-03     -0.6037749E-03
 T,EIJ(AA): I=   5 J=   7      0.1246658E-02     -0.3100315E-02
 T,EIJ(AA): I=   6 J=   7      0.1779170E-02     -0.4096022E-02
 T,EIJ(AB): I=   1 J=   1      0.1792534E-02     -0.7901476E-02
 T,EIJ(AB): I=   1 J=   2      0.8230791E-03     -0.3966422E-02
 T,EIJ(AB): I=   1 J=   3      0.1510738E-02     -0.6264261E-02
 T,EIJ(AB): I=   1 J=   4      0.1209162E-02     -0.5122833E-02
 T,EIJ(AB): I=   1 J=   5      0.1209162E-02     -0.5122833E-02
 T,EIJ(AB): I=   1 J=   6      0.8737446E-03     -0.3609518E-02
 T,EIJ(AB): I=   1 J=   7      0.8737446E-03     -0.3609518E-02
 T,EIJ(AB): I=   2 J=   1      0.8230791E-03     -0.3966422E-02
 T,EIJ(AB): I=   2 J=   2      0.2113411E-02     -0.7748755E-02
 T,EIJ(AB): I=   2 J=   3      0.1835880E-02     -0.6256089E-02
 T,EIJ(AB): I=   2 J=   4      0.1268864E-02     -0.4552273E-02
 T,EIJ(AB): I=   2 J=   5      0.1268864E-02     -0.4552273E-02
 T,EIJ(AB): I=   2 J=   6      0.1639640E-02     -0.5926636E-02
 T,EIJ(AB): I=   2 J=   7      0.1639640E-02     -0.5926636E-02
 T,EIJ(AB): I=   3 J=   1      0.1510738E-02     -0.6264261E-02
 T,EIJ(AB): I=   3 J=   2      0.1835880E-02     -0.6256089E-02
 T,EIJ(AB): I=   3 J=   3      0.1141247E-01     -0.2177785E-01
 T,EIJ(AB): I=   3 J=   4      0.2103523E-02     -0.5945739E-02
 T,EIJ(AB): I=   3 J=   5      0.2103523E-02     -0.5945739E-02
 T,EIJ(AB): I=   3 J=   6      0.2841210E-02     -0.6624492E-02
 T,EIJ(AB): I=   3 J=   7      0.2841210E-02     -0.6624492E-02
 T,EIJ(AB): I=   4 J=   1      0.1209162E-02     -0.5122833E-02
 T,EIJ(AB): I=   4 J=   2      0.1268864E-02     -0.4552273E-02
 T,EIJ(AB): I=   4 J=   3      0.2103523E-02     -0.5945739E-02
 T,EIJ(AB): I=   4 J=   4      0.4402217E-02     -0.1224195E-01
 T,EIJ(AB): I=   4 J=   5      0.1994448E-02     -0.5545107E-02
 T,EIJ(AB): I=   4 J=   6      0.1567263E-02     -0.4303197E-02
 T,EIJ(AB): I=   4 J=   7      0.3288213E-02     -0.9310366E-02
 T,EIJ(AB): I=   5 J=   1      0.1209162E-02     -0.5122833E-02
 T,EIJ(AB): I=   5 J=   2      0.1268864E-02     -0.4552273E-02
 T,EIJ(AB): I=   5 J=   3      0.2103523E-02     -0.5945739E-02
 T,EIJ(AB): I=   5 J=   4      0.1994448E-02     -0.5545107E-02
 T,EIJ(AB): I=   5 J=   5      0.4402217E-02     -0.1224195E-01
 T,EIJ(AB): I=   5 J=   6      0.3288213E-02     -0.9310366E-02
 T,EIJ(AB): I=   5 J=   7      0.1567263E-02     -0.4303197E-02
 T,EIJ(AB): I=   6 J=   1      0.8737446E-03     -0.3609518E-02
 T,EIJ(AB): I=   6 J=   2      0.1639640E-02     -0.5926636E-02
 T,EIJ(AB): I=   6 J=   3      0.2841210E-02     -0.6624492E-02
 T,EIJ(AB): I=   6 J=   4      0.1567263E-02     -0.4303197E-02
 T,EIJ(AB): I=   6 J=   5      0.3288213E-02     -0.9310366E-02
 T,EIJ(AB): I=   6 J=   6      0.5205258E-02     -0.1302417E-01
 T,EIJ(AB): I=   6 J=   7      0.2300733E-02     -0.5859724E-02
 T,EIJ(AB): I=   7 J=   1      0.8737446E-03     -0.3609518E-02
 T,EIJ(AB): I=   7 J=   2      0.1639640E-02     -0.5926636E-02
 T,EIJ(AB): I=   7 J=   3      0.2841210E-02     -0.6624492E-02
 T,EIJ(AB): I=   7 J=   4      0.3288213E-02     -0.9310366E-02
 T,EIJ(AB): I=   7 J=   5      0.1567263E-02     -0.4303197E-02
 T,EIJ(AB): I=   7 J=   6      0.2300733E-02     -0.5859724E-02
 T,EIJ(AB): I=   7 J=   7      0.5205258E-02     -0.1302417E-01
 Actual    scratch disk usage=  3318018348 words.
 GetIJB would need an additional  1734445388 words of memory to use all   8 processors.
 JobTyp=3 Pass  1:  I=   1 to   7 NPSUse=  1 ParTrn=F ParDer=F DoDerP=F.
 T,EIJ(BB): I=   1 J=   2      0.1065423E-03     -0.3950379E-03
 T,EIJ(BB): I=   1 J=   3      0.2635555E-03     -0.9574630E-03
 T,EIJ(BB): I=   1 J=   4      0.3174775E-03     -0.1165476E-02
 T,EIJ(BB): I=   1 J=   5      0.3174775E-03     -0.1165476E-02
 T,EIJ(BB): I=   1 J=   6      0.2329260E-03     -0.8706267E-03
 T,EIJ(BB): I=   1 J=   7      0.2329260E-03     -0.8706267E-03
 T,EIJ(BB): I=   2 J=   3      0.7347669E-03     -0.2021054E-02
 T,EIJ(BB): I=   2 J=   4      0.4712857E-03     -0.1334636E-02
 T,EIJ(BB): I=   2 J=   5      0.4712857E-03     -0.1334636E-02
 T,EIJ(BB): I=   2 J=   6      0.4084526E-03     -0.1254646E-02
 T,EIJ(BB): I=   2 J=   7      0.4084526E-03     -0.1254646E-02
 T,EIJ(BB): I=   3 J=   4      0.1673667E-02     -0.4147373E-02
 T,EIJ(BB): I=   3 J=   5      0.1673667E-02     -0.4147373E-02
 T,EIJ(BB): I=   3 J=   6      0.2502062E-02     -0.5062170E-02
 T,EIJ(BB): I=   3 J=   7      0.2502062E-02     -0.5062170E-02
 T,EIJ(BB): I=   4 J=   5      0.1579691E-02     -0.3974571E-02
 T,EIJ(BB): I=   4 J=   6      0.1246658E-02     -0.3100315E-02
 T,EIJ(BB): I=   4 J=   7      0.2764613E-03     -0.6037749E-03
 T,EIJ(BB): I=   5 J=   6      0.2764613E-03     -0.6037749E-03
 T,EIJ(BB): I=   5 J=   7      0.1246658E-02     -0.3100315E-02
 T,EIJ(BB): I=   6 J=   7      0.1779170E-02     -0.4096022E-02
 Spin components of T(2) and E(2):
     alpha-alpha T2 =       0.1872170684D-01 E2=     -0.4652218645D-01
     alpha-beta  T2 =       0.1106296010D+00 E2=     -0.3253237478D+00
     beta-beta   T2 =       0.1872170684D-01 E2=     -0.4652218645D-01
 ANorm=    0.1071481691D+01
 E2 =    -0.4183681208D+00 EUMP2 =    -0.30323854775099D+04

 Complete Basis Set (CBS) Extrapolation:
 M. R. Nyden and G. A. Petersson, JCP 75, 1843 (1981)
 G. A. Petersson and M. A. Al-Laham, JCP 94, 6081 (1991)
 G. A. Petersson, T. Tensfeldt, and J. A. Montgomery, JCP 94, 6091 (1991)
 J. A. Montgomery, J. W. Ochterski, and G. A. Petersson, JCP 101, 5900 (1994)
 
 Minimum Number of PNO for Extrapolation =  25
 Absolute Overlaps: IRadAn =         5
 LocTrn: ILocal=3 LocCor=F DoCore=F.
 Entering OneElI...
 Overlap between basis sets.
 Requested accuracy = 0.1000D-12
 PrsmSu:  NPrtUS=   1 ThrOK=F IAlg=1 NPAlg=1 LenDen=           0.
 Prism:   IPart=     0 DynPar=F LinDyn=F Incr=           1.
 PRISM was handed  1609293844 working-precision words and    94 shell-pairs
 IPart=  0 NShTot=          94 NBatch=          14 AvBLen=         6.7
 PrSmSu:  NxtVal=              2.
 CnvPC2: ToCart=F DoDens=F IPureD=0 IPureF=0.
 Transformed matrix in CnvPC2: 
                 1             2             3             4             5 
      1   0.100000D+01  0.406589D+00  0.000000D+00  0.000000D+00  0.000000D+00
      2   0.406589D+00  0.100000D+01  0.000000D+00  0.000000D+00  0.000000D+00
      3   0.000000D+00  0.000000D+00  0.100000D+01  0.000000D+00  0.000000D+00
      4   0.000000D+00  0.000000D+00  0.000000D+00  0.100000D+01  0.000000D+00
      5   0.000000D+00  0.000000D+00  0.000000D+00  0.000000D+00  0.100000D+01
      6   0.319944D-01  0.362204D+00  0.000000D+00  0.000000D+00  0.000000D+00
      7   0.000000D+00  0.000000D+00  0.375020D+00  0.000000D+00  0.000000D+00
      8   0.000000D+00  0.000000D+00  0.000000D+00  0.375020D+00  0.000000D+00
      9   0.000000D+00  0.000000D+00  0.000000D+00  0.000000D+00  0.375020D+00
     10   0.000000D+00  0.000000D+00  0.000000D+00  0.000000D+00  0.000000D+00
     11   0.000000D+00  0.000000D+00  0.000000D+00  0.000000D+00  0.000000D+00
     12   0.000000D+00  0.000000D+00  0.000000D+00  0.000000D+00  0.000000D+00
     13   0.000000D+00  0.000000D+00  0.000000D+00  0.000000D+00  0.000000D+00
     14   0.000000D+00  0.000000D+00  0.000000D+00  0.000000D+00  0.000000D+00
     15  -0.396207D-03  0.612395D-02  0.000000D+00  0.000000D+00  0.000000D+00
     16   0.000000D+00  0.000000D+00  0.149285D-01  0.000000D+00  0.000000D+00
     17   0.000000D+00  0.000000D+00  0.000000D+00  0.149285D-01  0.000000D+00
     18   0.000000D+00  0.000000D+00  0.000000D+00  0.000000D+00  0.149285D-01
     19   0.000000D+00  0.000000D+00  0.000000D+00  0.000000D+00  0.000000D+00
     20   0.000000D+00  0.000000D+00  0.000000D+00  0.000000D+00  0.000000D+00
     21   0.000000D+00  0.000000D+00  0.000000D+00  0.000000D+00  0.000000D+00
     22   0.000000D+00  0.000000D+00  0.000000D+00  0.000000D+00  0.000000D+00
     23   0.000000D+00  0.000000D+00  0.000000D+00  0.000000D+00  0.000000D+00
     24   0.000000D+00  0.000000D+00  0.000000D+00  0.000000D+00  0.000000D+00
     25   0.000000D+00  0.000000D+00  0.000000D+00  0.000000D+00  0.000000D+00
     26   0.000000D+00  0.000000D+00  0.000000D+00  0.000000D+00  0.000000D+00
     27   0.000000D+00  0.000000D+00  0.000000D+00  0.000000D+00  0.000000D+00
     28   0.000000D+00  0.000000D+00  0.000000D+00  0.000000D+00  0.000000D+00
     29   0.333744D-03  0.207114D-02  0.000000D+00  0.000000D+00 -0.602045D-03
     30   0.000000D+00  0.000000D+00  0.160215D-03  0.000000D+00  0.000000D+00
     31   0.000000D+00  0.000000D+00  0.000000D+00  0.160215D-03  0.000000D+00
     32   0.672618D-03  0.413705D-02  0.000000D+00  0.000000D+00 -0.106507D-02
     33   0.617302D-03  0.393026D-02  0.000000D+00  0.000000D+00 -0.158888D-02
     34   0.000000D+00  0.000000D+00  0.262791D-03  0.000000D+00  0.000000D+00
     35   0.000000D+00  0.000000D+00  0.000000D+00  0.262791D-03  0.000000D+00
     36   0.000000D+00  0.000000D+00  0.000000D+00  0.000000D+00  0.000000D+00
     37   0.000000D+00  0.000000D+00  0.000000D+00  0.000000D+00  0.000000D+00
                 6             7             8             9            10 
      1   0.319944D-01  0.000000D+00  0.000000D+00  0.000000D+00  0.000000D+00
      2   0.362204D+00  0.000000D+00  0.000000D+00  0.000000D+00  0.000000D+00
      3   0.000000D+00  0.375020D+00  0.000000D+00  0.000000D+00  0.000000D+00
      4   0.000000D+00  0.000000D+00  0.375020D+00  0.000000D+00  0.000000D+00
      5   0.000000D+00  0.000000D+00  0.000000D+00  0.375020D+00  0.000000D+00
      6   0.100000D+01  0.000000D+00  0.000000D+00  0.000000D+00  0.000000D+00
      7   0.000000D+00  0.100000D+01  0.000000D+00  0.000000D+00  0.000000D+00
      8   0.000000D+00  0.000000D+00  0.100000D+01  0.000000D+00  0.000000D+00
      9   0.000000D+00  0.000000D+00  0.000000D+00  0.100000D+01  0.000000D+00
     10   0.000000D+00  0.000000D+00  0.000000D+00  0.000000D+00  0.100000D+01
     11   0.000000D+00  0.000000D+00  0.000000D+00  0.000000D+00  0.000000D+00
     12   0.000000D+00  0.000000D+00  0.000000D+00  0.000000D+00  0.000000D+00
     13   0.000000D+00  0.000000D+00  0.000000D+00  0.000000D+00  0.000000D+00
     14   0.000000D+00  0.000000D+00  0.000000D+00  0.000000D+00  0.000000D+00
     15   0.201919D+00  0.000000D+00  0.000000D+00  0.000000D+00  0.000000D+00
     16   0.000000D+00  0.218356D+00  0.000000D+00  0.000000D+00  0.000000D+00
     17   0.000000D+00  0.000000D+00  0.218356D+00  0.000000D+00  0.000000D+00
     18   0.000000D+00  0.000000D+00  0.000000D+00  0.218356D+00  0.000000D+00
     19   0.000000D+00  0.000000D+00  0.000000D+00  0.000000D+00  0.404997D-01
     20   0.000000D+00  0.000000D+00  0.000000D+00  0.000000D+00  0.000000D+00
     21   0.000000D+00  0.000000D+00  0.000000D+00  0.000000D+00  0.000000D+00
     22   0.000000D+00  0.000000D+00  0.000000D+00  0.000000D+00  0.000000D+00
     23   0.000000D+00  0.000000D+00  0.000000D+00  0.000000D+00  0.000000D+00
     24   0.000000D+00  0.000000D+00  0.000000D+00  0.000000D+00  0.000000D+00
     25   0.000000D+00  0.000000D+00  0.000000D+00  0.000000D+00  0.000000D+00
     26   0.000000D+00  0.000000D+00  0.000000D+00  0.000000D+00  0.000000D+00
     27   0.000000D+00  0.000000D+00  0.000000D+00  0.000000D+00  0.000000D+00
     28   0.000000D+00  0.000000D+00  0.000000D+00  0.000000D+00  0.000000D+00
     29   0.124124D-01  0.000000D+00  0.000000D+00 -0.938800D-02  0.394659D-02
     30   0.000000D+00  0.253713D-02  0.000000D+00  0.000000D+00  0.000000D+00
     31   0.000000D+00  0.000000D+00  0.253713D-02  0.000000D+00  0.000000D+00
     32   0.233675D-01  0.000000D+00  0.000000D+00 -0.159744D-01  0.621950D-02
     33   0.269255D-01  0.000000D+00  0.000000D+00 -0.259556D-01  0.139154D-01
     34   0.000000D+00  0.493675D-02  0.000000D+00  0.000000D+00  0.000000D+00
     35   0.000000D+00  0.000000D+00  0.493675D-02  0.000000D+00  0.000000D+00
     36   0.000000D+00  0.000000D+00  0.000000D+00  0.000000D+00  0.000000D+00
     37   0.000000D+00  0.000000D+00  0.000000D+00  0.000000D+00  0.000000D+00
                11            12            13            14            15 
      1   0.000000D+00  0.000000D+00  0.000000D+00  0.000000D+00 -0.396207D-03
      2   0.000000D+00  0.000000D+00  0.000000D+00  0.000000D+00  0.612395D-02
      3   0.000000D+00  0.000000D+00  0.000000D+00  0.000000D+00  0.000000D+00
      4   0.000000D+00  0.000000D+00  0.000000D+00  0.000000D+00  0.000000D+00
      5   0.000000D+00  0.000000D+00  0.000000D+00  0.000000D+00  0.000000D+00
      6   0.000000D+00  0.000000D+00  0.000000D+00  0.000000D+00  0.201919D+00
      7   0.000000D+00  0.000000D+00  0.000000D+00  0.000000D+00  0.000000D+00
      8   0.000000D+00  0.000000D+00  0.000000D+00  0.000000D+00  0.000000D+00
      9   0.000000D+00  0.000000D+00  0.000000D+00  0.000000D+00  0.000000D+00
     10   0.000000D+00  0.000000D+00  0.000000D+00  0.000000D+00  0.000000D+00
     11   0.100000D+01  0.000000D+00  0.000000D+00  0.000000D+00  0.000000D+00
     12   0.000000D+00  0.100000D+01  0.000000D+00  0.000000D+00  0.000000D+00
     13   0.000000D+00  0.000000D+00  0.100000D+01  0.000000D+00  0.000000D+00
     14   0.000000D+00  0.000000D+00  0.000000D+00  0.100000D+01  0.000000D+00
     15   0.000000D+00  0.000000D+00  0.000000D+00  0.000000D+00  0.100000D+01
     16   0.000000D+00  0.000000D+00  0.000000D+00  0.000000D+00  0.000000D+00
     17   0.000000D+00  0.000000D+00  0.000000D+00  0.000000D+00  0.000000D+00
     18   0.000000D+00  0.000000D+00  0.000000D+00  0.000000D+00  0.000000D+00
     19   0.000000D+00  0.000000D+00  0.000000D+00  0.000000D+00  0.000000D+00
     20   0.404997D-01  0.000000D+00  0.000000D+00  0.000000D+00  0.000000D+00
     21   0.000000D+00  0.404997D-01  0.000000D+00  0.000000D+00  0.000000D+00
     22   0.000000D+00  0.000000D+00  0.404997D-01  0.000000D+00  0.000000D+00
     23   0.000000D+00  0.000000D+00  0.000000D+00  0.404997D-01  0.000000D+00
     24   0.000000D+00  0.000000D+00  0.000000D+00  0.000000D+00  0.136470D-02
     25   0.000000D+00  0.000000D+00  0.000000D+00  0.000000D+00  0.113284D-01
     26   0.000000D+00  0.000000D+00  0.000000D+00  0.000000D+00  0.000000D+00
     27   0.000000D+00  0.000000D+00  0.000000D+00  0.000000D+00  0.000000D+00
     28   0.000000D+00  0.000000D+00  0.000000D+00  0.000000D+00  0.720737D-02
     29   0.000000D+00  0.000000D+00  0.000000D+00  0.000000D+00  0.161999D+00
     30  -0.190005D-02  0.000000D+00  0.000000D+00  0.000000D+00  0.000000D+00
     31   0.000000D+00 -0.190005D-02  0.000000D+00  0.000000D+00  0.000000D+00
     32   0.000000D+00  0.000000D+00  0.000000D+00  0.000000D+00  0.212309D+00
     33   0.000000D+00  0.000000D+00  0.000000D+00  0.000000D+00  0.193392D+00
     34  -0.510591D-02  0.000000D+00  0.000000D+00  0.000000D+00  0.000000D+00
     35   0.000000D+00 -0.510591D-02  0.000000D+00  0.000000D+00  0.000000D+00
     36   0.000000D+00  0.000000D+00  0.502890D-03  0.000000D+00  0.000000D+00
     37   0.000000D+00  0.000000D+00  0.000000D+00  0.502890D-03  0.000000D+00
                16            17            18            19            20 
      1   0.000000D+00  0.000000D+00  0.000000D+00  0.000000D+00  0.000000D+00
      2   0.000000D+00  0.000000D+00  0.000000D+00  0.000000D+00  0.000000D+00
      3   0.149285D-01  0.000000D+00  0.000000D+00  0.000000D+00  0.000000D+00
      4   0.000000D+00  0.149285D-01  0.000000D+00  0.000000D+00  0.000000D+00
      5   0.000000D+00  0.000000D+00  0.149285D-01  0.000000D+00  0.000000D+00
      6   0.000000D+00  0.000000D+00  0.000000D+00  0.000000D+00  0.000000D+00
      7   0.218356D+00  0.000000D+00  0.000000D+00  0.000000D+00  0.000000D+00
      8   0.000000D+00  0.218356D+00  0.000000D+00  0.000000D+00  0.000000D+00
      9   0.000000D+00  0.000000D+00  0.218356D+00  0.000000D+00  0.000000D+00
     10   0.000000D+00  0.000000D+00  0.000000D+00  0.404997D-01  0.000000D+00
     11   0.000000D+00  0.000000D+00  0.000000D+00  0.000000D+00  0.404997D-01
     12   0.000000D+00  0.000000D+00  0.000000D+00  0.000000D+00  0.000000D+00
     13   0.000000D+00  0.000000D+00  0.000000D+00  0.000000D+00  0.000000D+00
     14   0.000000D+00  0.000000D+00  0.000000D+00  0.000000D+00  0.000000D+00
     15   0.000000D+00  0.000000D+00  0.000000D+00  0.000000D+00  0.000000D+00
     16   0.100000D+01  0.000000D+00  0.000000D+00  0.000000D+00  0.000000D+00
     17   0.000000D+00  0.100000D+01  0.000000D+00  0.000000D+00  0.000000D+00
     18   0.000000D+00  0.000000D+00  0.100000D+01  0.000000D+00  0.000000D+00
     19   0.000000D+00  0.000000D+00  0.000000D+00  0.100000D+01  0.000000D+00
     20   0.000000D+00  0.000000D+00  0.000000D+00  0.000000D+00  0.100000D+01
     21   0.000000D+00  0.000000D+00  0.000000D+00  0.000000D+00  0.000000D+00
     22   0.000000D+00  0.000000D+00  0.000000D+00  0.000000D+00  0.000000D+00
     23   0.000000D+00  0.000000D+00  0.000000D+00  0.000000D+00  0.000000D+00
     24   0.000000D+00  0.000000D+00 -0.261188D-02  0.155832D-01  0.000000D+00
     25   0.000000D+00  0.000000D+00 -0.209008D-01  0.110095D+00  0.000000D+00
     26   0.191063D-02  0.000000D+00  0.000000D+00  0.000000D+00 -0.176295D-01
     27   0.000000D+00  0.191063D-02  0.000000D+00  0.000000D+00  0.000000D+00
     28   0.000000D+00  0.000000D+00 -0.121338D-01  0.335544D-01  0.000000D+00
     29   0.000000D+00  0.000000D+00 -0.222499D+00  0.422700D+00  0.000000D+00
     30   0.748645D-01  0.000000D+00  0.000000D+00  0.000000D+00 -0.287255D+00
     31   0.000000D+00  0.748645D-01  0.000000D+00  0.000000D+00  0.000000D+00
     32   0.000000D+00  0.000000D+00 -0.273573D+00  0.271722D+00  0.000000D+00
     33   0.000000D+00  0.000000D+00 -0.259628D+00  0.885825D-01  0.000000D+00
     34   0.130776D+00  0.000000D+00  0.000000D+00  0.000000D+00 -0.309665D+00
     35   0.000000D+00  0.130776D+00  0.000000D+00  0.000000D+00  0.000000D+00
     36   0.000000D+00  0.000000D+00  0.000000D+00  0.000000D+00  0.000000D+00
     37   0.000000D+00  0.000000D+00  0.000000D+00  0.000000D+00  0.000000D+00
                21            22            23            24            25 
      1   0.000000D+00  0.000000D+00  0.000000D+00  0.000000D+00  0.000000D+00
      2   0.000000D+00  0.000000D+00  0.000000D+00  0.000000D+00  0.000000D+00
      3   0.000000D+00  0.000000D+00  0.000000D+00  0.000000D+00  0.000000D+00
      4   0.000000D+00  0.000000D+00  0.000000D+00  0.000000D+00  0.000000D+00
      5   0.000000D+00  0.000000D+00  0.000000D+00  0.000000D+00  0.000000D+00
      6   0.000000D+00  0.000000D+00  0.000000D+00  0.000000D+00  0.000000D+00
      7   0.000000D+00  0.000000D+00  0.000000D+00  0.000000D+00  0.000000D+00
      8   0.000000D+00  0.000000D+00  0.000000D+00  0.000000D+00  0.000000D+00
      9   0.000000D+00  0.000000D+00  0.000000D+00  0.000000D+00  0.000000D+00
     10   0.000000D+00  0.000000D+00  0.000000D+00  0.000000D+00  0.000000D+00
     11   0.000000D+00  0.000000D+00  0.000000D+00  0.000000D+00  0.000000D+00
     12   0.404997D-01  0.000000D+00  0.000000D+00  0.000000D+00  0.000000D+00
     13   0.000000D+00  0.404997D-01  0.000000D+00  0.000000D+00  0.000000D+00
     14   0.000000D+00  0.000000D+00  0.404997D-01  0.000000D+00  0.000000D+00
     15   0.000000D+00  0.000000D+00  0.000000D+00  0.136470D-02  0.113284D-01
     16   0.000000D+00  0.000000D+00  0.000000D+00  0.000000D+00  0.000000D+00
     17   0.000000D+00  0.000000D+00  0.000000D+00  0.000000D+00  0.000000D+00
     18   0.000000D+00  0.000000D+00  0.000000D+00 -0.261188D-02 -0.209008D-01
     19   0.000000D+00  0.000000D+00  0.000000D+00  0.155832D-01  0.110095D+00
     20   0.000000D+00  0.000000D+00  0.000000D+00  0.000000D+00  0.000000D+00
     21   0.100000D+01  0.000000D+00  0.000000D+00  0.000000D+00  0.000000D+00
     22   0.000000D+00  0.100000D+01  0.000000D+00  0.000000D+00  0.000000D+00
     23   0.000000D+00  0.000000D+00  0.100000D+01  0.000000D+00  0.000000D+00
     24   0.000000D+00  0.000000D+00  0.000000D+00  0.100000D+01  0.343801D+00
     25   0.000000D+00  0.000000D+00  0.000000D+00  0.343801D+00  0.100000D+01
     26   0.000000D+00  0.000000D+00  0.000000D+00  0.000000D+00  0.000000D+00
     27  -0.176295D-01  0.000000D+00  0.000000D+00  0.000000D+00  0.000000D+00
     28   0.000000D+00  0.000000D+00  0.000000D+00  0.000000D+00  0.000000D+00
     29   0.000000D+00  0.000000D+00  0.000000D+00  0.132695D-01  0.218484D+00
     30   0.000000D+00  0.000000D+00  0.000000D+00  0.000000D+00  0.000000D+00
     31  -0.287255D+00  0.000000D+00  0.000000D+00  0.000000D+00  0.000000D+00
     32   0.000000D+00  0.000000D+00  0.000000D+00  0.000000D+00  0.000000D+00
     33   0.000000D+00  0.000000D+00  0.000000D+00  0.000000D+00  0.000000D+00
     34   0.000000D+00  0.000000D+00  0.000000D+00  0.000000D+00  0.000000D+00
     35  -0.309665D+00  0.000000D+00  0.000000D+00  0.000000D+00  0.000000D+00
     36   0.000000D+00  0.108344D+00  0.000000D+00  0.000000D+00  0.000000D+00
     37   0.000000D+00  0.000000D+00  0.108344D+00  0.000000D+00  0.000000D+00
                26            27            28            29            30 
      1   0.000000D+00  0.000000D+00  0.000000D+00  0.333744D-03  0.000000D+00
      2   0.000000D+00  0.000000D+00  0.000000D+00  0.207114D-02  0.000000D+00
      3   0.000000D+00  0.000000D+00  0.000000D+00  0.000000D+00  0.160215D-03
      4   0.000000D+00  0.000000D+00  0.000000D+00  0.000000D+00  0.000000D+00
      5   0.000000D+00  0.000000D+00  0.000000D+00 -0.602045D-03  0.000000D+00
      6   0.000000D+00  0.000000D+00  0.000000D+00  0.124124D-01  0.000000D+00
      7   0.000000D+00  0.000000D+00  0.000000D+00  0.000000D+00  0.253713D-02
      8   0.000000D+00  0.000000D+00  0.000000D+00  0.000000D+00  0.000000D+00
      9   0.000000D+00  0.000000D+00  0.000000D+00 -0.938800D-02  0.000000D+00
     10   0.000000D+00  0.000000D+00  0.000000D+00  0.394659D-02  0.000000D+00
     11   0.000000D+00  0.000000D+00  0.000000D+00  0.000000D+00 -0.190005D-02
     12   0.000000D+00  0.000000D+00  0.000000D+00  0.000000D+00  0.000000D+00
     13   0.000000D+00  0.000000D+00  0.000000D+00  0.000000D+00  0.000000D+00
     14   0.000000D+00  0.000000D+00  0.000000D+00  0.000000D+00  0.000000D+00
     15   0.000000D+00  0.000000D+00  0.720737D-02  0.161999D+00  0.000000D+00
     16   0.191063D-02  0.000000D+00  0.000000D+00  0.000000D+00  0.748645D-01
     17   0.000000D+00  0.191063D-02  0.000000D+00  0.000000D+00  0.000000D+00
     18   0.000000D+00  0.000000D+00 -0.121338D-01 -0.222499D+00  0.000000D+00
     19   0.000000D+00  0.000000D+00  0.335544D-01  0.422700D+00  0.000000D+00
     20  -0.176295D-01  0.000000D+00  0.000000D+00  0.000000D+00 -0.287255D+00
     21   0.000000D+00 -0.176295D-01  0.000000D+00  0.000000D+00  0.000000D+00
     22   0.000000D+00  0.000000D+00  0.000000D+00  0.000000D+00  0.000000D+00
     23   0.000000D+00  0.000000D+00  0.000000D+00  0.000000D+00  0.000000D+00
     24   0.000000D+00  0.000000D+00  0.000000D+00  0.132695D-01  0.000000D+00
     25   0.000000D+00  0.000000D+00  0.000000D+00  0.218484D+00  0.000000D+00
     26   0.100000D+01  0.000000D+00  0.000000D+00  0.000000D+00  0.232586D+00
     27   0.000000D+00  0.100000D+01  0.000000D+00  0.000000D+00  0.000000D+00
     28   0.000000D+00  0.000000D+00  0.100000D+01  0.000000D+00  0.000000D+00
     29   0.000000D+00  0.000000D+00  0.000000D+00  0.100000D+01  0.000000D+00
     30   0.232586D+00  0.000000D+00  0.000000D+00  0.000000D+00  0.100000D+01
     31   0.000000D+00  0.232586D+00  0.000000D+00  0.000000D+00  0.000000D+00
     32   0.000000D+00  0.000000D+00  0.232586D+00  0.000000D+00  0.000000D+00
     33   0.000000D+00  0.000000D+00  0.000000D+00  0.000000D+00  0.000000D+00
     34   0.000000D+00  0.000000D+00  0.000000D+00  0.000000D+00  0.000000D+00
     35   0.000000D+00  0.000000D+00  0.000000D+00  0.000000D+00  0.000000D+00
     36   0.000000D+00  0.000000D+00  0.000000D+00  0.000000D+00  0.000000D+00
     37   0.000000D+00  0.000000D+00  0.000000D+00  0.000000D+00  0.000000D+00
                31            32            33            34            35 
      1   0.000000D+00  0.672618D-03  0.617302D-03  0.000000D+00  0.000000D+00
      2   0.000000D+00  0.413705D-02  0.393026D-02  0.000000D+00  0.000000D+00
      3   0.000000D+00  0.000000D+00  0.000000D+00  0.262791D-03  0.000000D+00
      4   0.160215D-03  0.000000D+00  0.000000D+00  0.000000D+00  0.262791D-03
      5   0.000000D+00 -0.106507D-02 -0.158888D-02  0.000000D+00  0.000000D+00
      6   0.000000D+00  0.233675D-01  0.269255D-01  0.000000D+00  0.000000D+00
      7   0.000000D+00  0.000000D+00  0.000000D+00  0.493675D-02  0.000000D+00
      8   0.253713D-02  0.000000D+00  0.000000D+00  0.000000D+00  0.493675D-02
      9   0.000000D+00 -0.159744D-01 -0.259556D-01  0.000000D+00  0.000000D+00
     10   0.000000D+00  0.621950D-02  0.139154D-01  0.000000D+00  0.000000D+00
     11   0.000000D+00  0.000000D+00  0.000000D+00 -0.510591D-02  0.000000D+00
     12  -0.190005D-02  0.000000D+00  0.000000D+00  0.000000D+00 -0.510591D-02
     13   0.000000D+00  0.000000D+00  0.000000D+00  0.000000D+00  0.000000D+00
     14   0.000000D+00  0.000000D+00  0.000000D+00  0.000000D+00  0.000000D+00
     15   0.000000D+00  0.212309D+00  0.193392D+00  0.000000D+00  0.000000D+00
     16   0.000000D+00  0.000000D+00  0.000000D+00  0.130776D+00  0.000000D+00
     17   0.748645D-01  0.000000D+00  0.000000D+00  0.000000D+00  0.130776D+00
     18   0.000000D+00 -0.273573D+00 -0.259628D+00  0.000000D+00  0.000000D+00
     19   0.000000D+00  0.271722D+00  0.885825D-01  0.000000D+00  0.000000D+00
     20   0.000000D+00  0.000000D+00  0.000000D+00 -0.309665D+00  0.000000D+00
     21  -0.287255D+00  0.000000D+00  0.000000D+00  0.000000D+00 -0.309665D+00
     22   0.000000D+00  0.000000D+00  0.000000D+00  0.000000D+00  0.000000D+00
     23   0.000000D+00  0.000000D+00  0.000000D+00  0.000000D+00  0.000000D+00
     24   0.000000D+00  0.000000D+00  0.000000D+00  0.000000D+00  0.000000D+00
     25   0.000000D+00  0.000000D+00  0.000000D+00  0.000000D+00  0.000000D+00
     26   0.000000D+00  0.000000D+00  0.000000D+00  0.000000D+00  0.000000D+00
     27   0.232586D+00  0.000000D+00  0.000000D+00  0.000000D+00  0.000000D+00
     28   0.000000D+00  0.232586D+00  0.000000D+00  0.000000D+00  0.000000D+00
     29   0.000000D+00  0.000000D+00  0.000000D+00  0.000000D+00  0.000000D+00
     30   0.000000D+00  0.000000D+00  0.000000D+00  0.000000D+00  0.000000D+00
     31   0.100000D+01  0.000000D+00  0.000000D+00  0.000000D+00  0.000000D+00
     32   0.000000D+00  0.100000D+01  0.000000D+00  0.000000D+00  0.000000D+00
     33   0.000000D+00  0.000000D+00  0.100000D+01  0.000000D+00  0.000000D+00
     34   0.000000D+00  0.000000D+00  0.000000D+00  0.100000D+01  0.000000D+00
     35   0.000000D+00  0.000000D+00  0.000000D+00  0.000000D+00  0.100000D+01
     36   0.000000D+00  0.000000D+00  0.000000D+00  0.000000D+00  0.000000D+00
     37   0.000000D+00  0.000000D+00  0.000000D+00  0.000000D+00  0.000000D+00
                36            37 
      1   0.000000D+00  0.000000D+00
      2   0.000000D+00  0.000000D+00
      3   0.000000D+00  0.000000D+00
      4   0.000000D+00  0.000000D+00
      5   0.000000D+00  0.000000D+00
      6   0.000000D+00  0.000000D+00
      7   0.000000D+00  0.000000D+00
      8   0.000000D+00  0.000000D+00
      9   0.000000D+00  0.000000D+00
     10   0.000000D+00  0.000000D+00
     11   0.000000D+00  0.000000D+00
     12   0.000000D+00  0.000000D+00
     13   0.502890D-03  0.000000D+00
     14   0.000000D+00  0.502890D-03
     15   0.000000D+00  0.000000D+00
     16   0.000000D+00  0.000000D+00
     17   0.000000D+00  0.000000D+00
     18   0.000000D+00  0.000000D+00
     19   0.000000D+00  0.000000D+00
     20   0.000000D+00  0.000000D+00
     21   0.000000D+00  0.000000D+00
     22   0.108344D+00  0.000000D+00
     23   0.000000D+00  0.108344D+00
     24   0.000000D+00  0.000000D+00
     25   0.000000D+00  0.000000D+00
     26   0.000000D+00  0.000000D+00
     27   0.000000D+00  0.000000D+00
     28   0.000000D+00  0.000000D+00
     29   0.000000D+00  0.000000D+00
     30   0.000000D+00  0.000000D+00
     31   0.000000D+00  0.000000D+00
     32   0.000000D+00  0.000000D+00
     33   0.000000D+00  0.000000D+00
     34   0.000000D+00  0.000000D+00
     35   0.000000D+00  0.000000D+00
     36   0.100000D+01  0.000000D+00
     37   0.000000D+00  0.100000D+01
 Entering OneElI...
 Overlap between basis sets.
 Requested accuracy = 0.1000D-12
 PrsmSu:  NPrtUS=   1 ThrOK=F IAlg=1 NPAlg=1 LenDen=           0.
 Prism:   IPart=     0 DynPar=F LinDyn=F Incr=           9.
 PRISM was handed  1608301872 working-precision words and   944 shell-pairs
 IPart=  0 NShTot=         944 NBatch=         108 AvBLen=         8.7
 PrSmSu:  NxtVal=             10.
 CnvPC2: ToCart=F DoDens=F IPureD=0 IPureF=0.
 Transformed matrix in CnvPC2: 
                 1             2             3             4             5 
      1   0.999797D+00  0.414271D+00  0.000000D+00  0.000000D+00  0.000000D+00
      2   0.291845D+00  0.988280D+00  0.000000D+00  0.000000D+00  0.000000D+00
      3   0.000000D+00  0.000000D+00  0.999269D+00  0.000000D+00  0.000000D+00
      4   0.000000D+00  0.000000D+00  0.000000D+00  0.999269D+00  0.000000D+00
      5   0.000000D+00  0.000000D+00  0.000000D+00  0.000000D+00  0.999269D+00
      6   0.140811D-01  0.332015D+00  0.000000D+00  0.000000D+00  0.000000D+00
      7   0.000000D+00  0.000000D+00  0.360400D+00  0.000000D+00  0.000000D+00
      8   0.000000D+00  0.000000D+00  0.000000D+00  0.360400D+00  0.000000D+00
      9   0.000000D+00  0.000000D+00  0.000000D+00  0.000000D+00  0.360400D+00
     10   0.000000D+00  0.000000D+00  0.000000D+00  0.000000D+00  0.000000D+00
     11   0.000000D+00  0.000000D+00  0.000000D+00  0.000000D+00  0.000000D+00
     12   0.000000D+00  0.000000D+00  0.000000D+00  0.000000D+00  0.000000D+00
     13   0.000000D+00  0.000000D+00  0.000000D+00  0.000000D+00  0.000000D+00
     14   0.000000D+00  0.000000D+00  0.000000D+00  0.000000D+00  0.000000D+00
     15   0.122173D-03  0.129367D-01  0.000000D+00  0.000000D+00  0.000000D+00
     16   0.997933D-02  0.598910D-01  0.000000D+00  0.000000D+00  0.000000D+00
     17   0.494118D-02  0.298084D-01  0.000000D+00  0.000000D+00  0.000000D+00
     18   0.000000D+00  0.000000D+00  0.111528D-01  0.000000D+00  0.000000D+00
     19   0.000000D+00  0.000000D+00  0.000000D+00  0.111528D-01  0.000000D+00
     20   0.000000D+00  0.000000D+00  0.000000D+00  0.000000D+00  0.111528D-01
     21   0.000000D+00  0.000000D+00  0.276871D-02  0.000000D+00  0.000000D+00
     22   0.000000D+00  0.000000D+00  0.000000D+00  0.276871D-02  0.000000D+00
     23   0.000000D+00  0.000000D+00  0.000000D+00  0.000000D+00  0.276871D-02
     24   0.000000D+00  0.000000D+00  0.936672D-03  0.000000D+00  0.000000D+00
     25   0.000000D+00  0.000000D+00  0.000000D+00  0.936672D-03  0.000000D+00
     26   0.000000D+00  0.000000D+00  0.000000D+00  0.000000D+00  0.936672D-03
     27   0.138765D+00  0.646375D+00  0.000000D+00  0.000000D+00  0.000000D+00
     28   0.941716D-01  0.485019D+00  0.000000D+00  0.000000D+00  0.000000D+00
     29   0.635203D-01  0.348743D+00  0.000000D+00  0.000000D+00  0.000000D+00
     30   0.426901D-01  0.243791D+00  0.000000D+00  0.000000D+00  0.000000D+00
     31   0.286291D-01  0.167423D+00  0.000000D+00  0.000000D+00  0.000000D+00
     32   0.191751D-01  0.113735D+00  0.000000D+00  0.000000D+00  0.000000D+00
     33   0.000000D+00  0.000000D+00  0.305516D+00  0.000000D+00  0.000000D+00
     34   0.000000D+00  0.000000D+00  0.000000D+00  0.305516D+00  0.000000D+00
     35   0.000000D+00  0.000000D+00  0.000000D+00  0.000000D+00  0.305516D+00
     36   0.000000D+00  0.000000D+00  0.179683D+00  0.000000D+00  0.000000D+00
     37   0.000000D+00  0.000000D+00  0.000000D+00  0.179683D+00  0.000000D+00
     38   0.000000D+00  0.000000D+00  0.000000D+00  0.000000D+00  0.179683D+00
     39   0.000000D+00  0.000000D+00  0.999632D-01  0.000000D+00  0.000000D+00
     40   0.000000D+00  0.000000D+00  0.000000D+00  0.999632D-01  0.000000D+00
     41   0.000000D+00  0.000000D+00  0.000000D+00  0.000000D+00  0.999632D-01
     42   0.000000D+00  0.000000D+00  0.536214D-01  0.000000D+00  0.000000D+00
     43   0.000000D+00  0.000000D+00  0.000000D+00  0.536214D-01  0.000000D+00
     44   0.000000D+00  0.000000D+00  0.000000D+00  0.000000D+00  0.536214D-01
     45   0.000000D+00  0.000000D+00  0.281147D-01  0.000000D+00  0.000000D+00
     46   0.000000D+00  0.000000D+00  0.000000D+00  0.281147D-01  0.000000D+00
     47   0.000000D+00  0.000000D+00  0.000000D+00  0.000000D+00  0.281147D-01
     48   0.000000D+00  0.000000D+00  0.145385D-01  0.000000D+00  0.000000D+00
     49   0.000000D+00  0.000000D+00  0.000000D+00  0.145385D-01  0.000000D+00
     50   0.000000D+00  0.000000D+00  0.000000D+00  0.000000D+00  0.145385D-01
     51   0.000000D+00  0.000000D+00  0.000000D+00  0.000000D+00  0.000000D+00
     52   0.000000D+00  0.000000D+00  0.000000D+00  0.000000D+00  0.000000D+00
     53   0.000000D+00  0.000000D+00  0.000000D+00  0.000000D+00  0.000000D+00
     54   0.000000D+00  0.000000D+00  0.000000D+00  0.000000D+00  0.000000D+00
     55   0.000000D+00  0.000000D+00  0.000000D+00  0.000000D+00  0.000000D+00
     56   0.000000D+00  0.000000D+00  0.000000D+00  0.000000D+00  0.000000D+00
     57   0.000000D+00  0.000000D+00  0.000000D+00  0.000000D+00  0.000000D+00
     58   0.000000D+00  0.000000D+00  0.000000D+00  0.000000D+00  0.000000D+00
     59   0.000000D+00  0.000000D+00  0.000000D+00  0.000000D+00  0.000000D+00
     60   0.000000D+00  0.000000D+00  0.000000D+00  0.000000D+00  0.000000D+00
     61   0.000000D+00  0.000000D+00  0.000000D+00  0.000000D+00  0.000000D+00
     62   0.000000D+00  0.000000D+00  0.000000D+00  0.000000D+00  0.000000D+00
     63   0.000000D+00  0.000000D+00  0.000000D+00  0.000000D+00  0.000000D+00
     64   0.000000D+00  0.000000D+00  0.000000D+00  0.000000D+00  0.000000D+00
     65   0.000000D+00  0.000000D+00  0.000000D+00  0.000000D+00  0.000000D+00
     66   0.000000D+00  0.000000D+00  0.000000D+00  0.000000D+00  0.000000D+00
     67   0.000000D+00  0.000000D+00  0.000000D+00  0.000000D+00  0.000000D+00
     68   0.000000D+00  0.000000D+00  0.000000D+00  0.000000D+00  0.000000D+00
     69   0.000000D+00  0.000000D+00  0.000000D+00  0.000000D+00  0.000000D+00
     70   0.000000D+00  0.000000D+00  0.000000D+00  0.000000D+00  0.000000D+00
     71   0.000000D+00  0.000000D+00  0.000000D+00  0.000000D+00  0.000000D+00
     72   0.000000D+00  0.000000D+00  0.000000D+00  0.000000D+00  0.000000D+00
     73   0.000000D+00  0.000000D+00  0.000000D+00  0.000000D+00  0.000000D+00
     74   0.000000D+00  0.000000D+00  0.000000D+00  0.000000D+00  0.000000D+00
     75   0.000000D+00  0.000000D+00  0.000000D+00  0.000000D+00  0.000000D+00
     76   0.000000D+00  0.000000D+00  0.000000D+00  0.000000D+00  0.000000D+00
     77   0.000000D+00  0.000000D+00  0.000000D+00  0.000000D+00  0.000000D+00
     78   0.000000D+00  0.000000D+00  0.000000D+00  0.000000D+00  0.000000D+00
     79   0.000000D+00  0.000000D+00  0.000000D+00  0.000000D+00  0.000000D+00
     80   0.000000D+00  0.000000D+00  0.000000D+00  0.000000D+00  0.000000D+00
     81   0.000000D+00  0.000000D+00  0.000000D+00  0.000000D+00  0.000000D+00
     82   0.000000D+00  0.000000D+00  0.000000D+00  0.000000D+00  0.000000D+00
     83   0.000000D+00  0.000000D+00  0.000000D+00  0.000000D+00  0.000000D+00
     84   0.000000D+00  0.000000D+00  0.000000D+00  0.000000D+00  0.000000D+00
     85   0.000000D+00  0.000000D+00  0.000000D+00  0.000000D+00  0.000000D+00
     86   0.000000D+00  0.000000D+00  0.000000D+00  0.000000D+00  0.000000D+00
     87   0.000000D+00  0.000000D+00  0.000000D+00  0.000000D+00  0.000000D+00
     88   0.000000D+00  0.000000D+00  0.000000D+00  0.000000D+00  0.000000D+00
     89   0.000000D+00  0.000000D+00  0.000000D+00  0.000000D+00  0.000000D+00
     90   0.000000D+00  0.000000D+00  0.000000D+00  0.000000D+00  0.000000D+00
     91   0.000000D+00  0.000000D+00  0.000000D+00  0.000000D+00  0.000000D+00
     92   0.000000D+00  0.000000D+00  0.000000D+00  0.000000D+00  0.000000D+00
     93   0.000000D+00  0.000000D+00  0.000000D+00  0.000000D+00  0.000000D+00
     94   0.000000D+00  0.000000D+00  0.000000D+00  0.000000D+00  0.000000D+00
     95   0.000000D+00  0.000000D+00  0.000000D+00  0.000000D+00  0.000000D+00
     96   0.000000D+00  0.000000D+00  0.000000D+00  0.000000D+00  0.000000D+00
     97   0.000000D+00  0.000000D+00  0.000000D+00  0.000000D+00  0.000000D+00
     98   0.000000D+00  0.000000D+00  0.000000D+00  0.000000D+00  0.000000D+00
     99   0.000000D+00  0.000000D+00  0.000000D+00  0.000000D+00  0.000000D+00
    100   0.000000D+00  0.000000D+00  0.000000D+00  0.000000D+00  0.000000D+00
    101   0.000000D+00  0.000000D+00  0.000000D+00  0.000000D+00  0.000000D+00
    102   0.000000D+00  0.000000D+00  0.000000D+00  0.000000D+00  0.000000D+00
    103   0.000000D+00  0.000000D+00  0.000000D+00  0.000000D+00  0.000000D+00
    104   0.000000D+00  0.000000D+00  0.000000D+00  0.000000D+00  0.000000D+00
    105   0.000000D+00  0.000000D+00  0.000000D+00  0.000000D+00  0.000000D+00
    106   0.000000D+00  0.000000D+00  0.000000D+00  0.000000D+00  0.000000D+00
    107   0.000000D+00  0.000000D+00  0.000000D+00  0.000000D+00  0.000000D+00
    108   0.000000D+00  0.000000D+00  0.000000D+00  0.000000D+00  0.000000D+00
    109   0.000000D+00  0.000000D+00  0.000000D+00  0.000000D+00  0.000000D+00
    110   0.000000D+00  0.000000D+00  0.000000D+00  0.000000D+00  0.000000D+00
    111   0.000000D+00  0.000000D+00  0.000000D+00  0.000000D+00  0.000000D+00
    112   0.000000D+00  0.000000D+00  0.000000D+00  0.000000D+00  0.000000D+00
    113   0.000000D+00  0.000000D+00  0.000000D+00  0.000000D+00  0.000000D+00
    114   0.000000D+00  0.000000D+00  0.000000D+00  0.000000D+00  0.000000D+00
    115   0.000000D+00  0.000000D+00  0.000000D+00  0.000000D+00  0.000000D+00
    116   0.000000D+00  0.000000D+00  0.000000D+00  0.000000D+00  0.000000D+00
    117   0.000000D+00  0.000000D+00  0.000000D+00  0.000000D+00  0.000000D+00
    118   0.000000D+00  0.000000D+00  0.000000D+00  0.000000D+00  0.000000D+00
    119   0.000000D+00  0.000000D+00  0.000000D+00  0.000000D+00  0.000000D+00
    120   0.000000D+00  0.000000D+00  0.000000D+00  0.000000D+00  0.000000D+00
    121   0.000000D+00  0.000000D+00  0.000000D+00  0.000000D+00  0.000000D+00
    122   0.000000D+00  0.000000D+00  0.000000D+00  0.000000D+00  0.000000D+00
    123   0.000000D+00  0.000000D+00  0.000000D+00  0.000000D+00  0.000000D+00
    124   0.000000D+00  0.000000D+00  0.000000D+00  0.000000D+00  0.000000D+00
    125   0.000000D+00  0.000000D+00  0.000000D+00  0.000000D+00  0.000000D+00
    126   0.000000D+00  0.000000D+00  0.000000D+00  0.000000D+00  0.000000D+00
    127   0.000000D+00  0.000000D+00  0.000000D+00  0.000000D+00  0.000000D+00
    128   0.000000D+00  0.000000D+00  0.000000D+00  0.000000D+00  0.000000D+00
    129   0.000000D+00  0.000000D+00  0.000000D+00  0.000000D+00  0.000000D+00
    130   0.000000D+00  0.000000D+00  0.000000D+00  0.000000D+00  0.000000D+00
    131   0.000000D+00  0.000000D+00  0.000000D+00  0.000000D+00  0.000000D+00
    132   0.000000D+00  0.000000D+00  0.000000D+00  0.000000D+00  0.000000D+00
    133   0.000000D+00  0.000000D+00  0.000000D+00  0.000000D+00  0.000000D+00
    134   0.000000D+00  0.000000D+00  0.000000D+00  0.000000D+00  0.000000D+00
    135   0.000000D+00  0.000000D+00  0.000000D+00  0.000000D+00  0.000000D+00
    136   0.000000D+00  0.000000D+00  0.000000D+00  0.000000D+00  0.000000D+00
    137   0.000000D+00  0.000000D+00  0.000000D+00  0.000000D+00  0.000000D+00
    138   0.000000D+00  0.000000D+00  0.000000D+00  0.000000D+00  0.000000D+00
    139   0.000000D+00  0.000000D+00  0.000000D+00  0.000000D+00  0.000000D+00
    140   0.000000D+00  0.000000D+00  0.000000D+00  0.000000D+00  0.000000D+00
    141   0.000000D+00  0.000000D+00  0.000000D+00  0.000000D+00  0.000000D+00
    142   0.000000D+00  0.000000D+00  0.000000D+00  0.000000D+00  0.000000D+00
    143   0.000000D+00  0.000000D+00  0.000000D+00  0.000000D+00  0.000000D+00
    144   0.000000D+00  0.000000D+00  0.000000D+00  0.000000D+00  0.000000D+00
    145   0.000000D+00  0.000000D+00  0.000000D+00  0.000000D+00  0.000000D+00
    146   0.000000D+00  0.000000D+00  0.000000D+00  0.000000D+00  0.000000D+00
    147   0.000000D+00  0.000000D+00  0.000000D+00  0.000000D+00  0.000000D+00
    148   0.000000D+00  0.000000D+00  0.000000D+00  0.000000D+00  0.000000D+00
    149   0.000000D+00  0.000000D+00  0.000000D+00  0.000000D+00  0.000000D+00
    150   0.000000D+00  0.000000D+00  0.000000D+00  0.000000D+00  0.000000D+00
    151   0.000000D+00  0.000000D+00  0.000000D+00  0.000000D+00  0.000000D+00
    152   0.000000D+00  0.000000D+00  0.000000D+00  0.000000D+00  0.000000D+00
    153   0.000000D+00  0.000000D+00  0.000000D+00  0.000000D+00  0.000000D+00
    154   0.000000D+00  0.000000D+00  0.000000D+00  0.000000D+00  0.000000D+00
    155   0.000000D+00  0.000000D+00  0.000000D+00  0.000000D+00  0.000000D+00
    156   0.000000D+00  0.000000D+00  0.000000D+00  0.000000D+00  0.000000D+00
    157   0.000000D+00  0.000000D+00  0.000000D+00  0.000000D+00  0.000000D+00
    158   0.000000D+00  0.000000D+00  0.000000D+00  0.000000D+00  0.000000D+00
    159   0.000000D+00  0.000000D+00  0.000000D+00  0.000000D+00  0.000000D+00
    160   0.000000D+00  0.000000D+00  0.000000D+00  0.000000D+00  0.000000D+00
    161   0.000000D+00  0.000000D+00  0.000000D+00  0.000000D+00  0.000000D+00
    162   0.000000D+00  0.000000D+00  0.000000D+00  0.000000D+00  0.000000D+00
    163   0.000000D+00  0.000000D+00  0.000000D+00  0.000000D+00  0.000000D+00
    164   0.000000D+00  0.000000D+00  0.000000D+00  0.000000D+00  0.000000D+00
    165   0.000000D+00  0.000000D+00  0.000000D+00  0.000000D+00  0.000000D+00
    166   0.000000D+00  0.000000D+00  0.000000D+00  0.000000D+00  0.000000D+00
    167   0.000000D+00  0.000000D+00  0.000000D+00  0.000000D+00  0.000000D+00
    168   0.000000D+00  0.000000D+00  0.000000D+00  0.000000D+00  0.000000D+00
    169   0.000000D+00  0.000000D+00  0.000000D+00  0.000000D+00  0.000000D+00
    170   0.000000D+00  0.000000D+00  0.000000D+00  0.000000D+00  0.000000D+00
    171   0.000000D+00  0.000000D+00  0.000000D+00  0.000000D+00  0.000000D+00
    172   0.000000D+00  0.000000D+00  0.000000D+00  0.000000D+00  0.000000D+00
    173   0.000000D+00  0.000000D+00  0.000000D+00  0.000000D+00  0.000000D+00
    174   0.000000D+00  0.000000D+00  0.000000D+00  0.000000D+00  0.000000D+00
    175   0.000000D+00  0.000000D+00  0.000000D+00  0.000000D+00  0.000000D+00
    176   0.000000D+00  0.000000D+00  0.000000D+00  0.000000D+00  0.000000D+00
    177   0.000000D+00  0.000000D+00  0.000000D+00  0.000000D+00  0.000000D+00
    178   0.000000D+00  0.000000D+00  0.000000D+00  0.000000D+00  0.000000D+00
    179   0.000000D+00  0.000000D+00  0.000000D+00  0.000000D+00  0.000000D+00
    180   0.000000D+00  0.000000D+00  0.000000D+00  0.000000D+00  0.000000D+00
    181   0.000000D+00  0.000000D+00  0.000000D+00  0.000000D+00  0.000000D+00
    182   0.000000D+00  0.000000D+00  0.000000D+00  0.000000D+00  0.000000D+00
    183   0.000000D+00  0.000000D+00  0.000000D+00  0.000000D+00  0.000000D+00
    184   0.000000D+00  0.000000D+00  0.000000D+00  0.000000D+00  0.000000D+00
    185   0.000000D+00  0.000000D+00  0.000000D+00  0.000000D+00  0.000000D+00
    186   0.000000D+00  0.000000D+00  0.000000D+00  0.000000D+00  0.000000D+00
    187   0.000000D+00  0.000000D+00  0.000000D+00  0.000000D+00  0.000000D+00
    188   0.000000D+00  0.000000D+00  0.000000D+00  0.000000D+00  0.000000D+00
    189   0.000000D+00  0.000000D+00  0.000000D+00  0.000000D+00  0.000000D+00
    190   0.000000D+00  0.000000D+00  0.000000D+00  0.000000D+00  0.000000D+00
    191   0.000000D+00  0.000000D+00  0.000000D+00  0.000000D+00  0.000000D+00
    192   0.000000D+00  0.000000D+00  0.000000D+00  0.000000D+00  0.000000D+00
    193   0.000000D+00  0.000000D+00  0.000000D+00  0.000000D+00  0.000000D+00
    194   0.000000D+00  0.000000D+00  0.000000D+00  0.000000D+00  0.000000D+00
    195   0.000000D+00  0.000000D+00  0.000000D+00  0.000000D+00  0.000000D+00
    196   0.000000D+00  0.000000D+00  0.000000D+00  0.000000D+00  0.000000D+00
    197   0.000000D+00  0.000000D+00  0.000000D+00  0.000000D+00  0.000000D+00
    198   0.000000D+00  0.000000D+00  0.000000D+00  0.000000D+00  0.000000D+00
    199   0.000000D+00  0.000000D+00  0.000000D+00  0.000000D+00  0.000000D+00
    200   0.000000D+00  0.000000D+00  0.000000D+00  0.000000D+00  0.000000D+00
    201   0.000000D+00  0.000000D+00  0.000000D+00  0.000000D+00  0.000000D+00
    202   0.000000D+00  0.000000D+00  0.000000D+00  0.000000D+00  0.000000D+00
    203   0.000000D+00  0.000000D+00  0.000000D+00  0.000000D+00  0.000000D+00
    204   0.000000D+00  0.000000D+00  0.000000D+00  0.000000D+00  0.000000D+00
    205   0.000000D+00  0.000000D+00  0.000000D+00  0.000000D+00  0.000000D+00
    206   0.000000D+00  0.000000D+00  0.000000D+00  0.000000D+00  0.000000D+00
    207   0.000000D+00  0.000000D+00  0.000000D+00  0.000000D+00  0.000000D+00
    208   0.000000D+00  0.000000D+00  0.000000D+00  0.000000D+00  0.000000D+00
    209   0.000000D+00  0.000000D+00  0.000000D+00  0.000000D+00  0.000000D+00
    210   0.000000D+00  0.000000D+00  0.000000D+00  0.000000D+00  0.000000D+00
    211   0.000000D+00  0.000000D+00  0.000000D+00  0.000000D+00  0.000000D+00
    212   0.000000D+00  0.000000D+00  0.000000D+00  0.000000D+00  0.000000D+00
    213   0.000000D+00  0.000000D+00  0.000000D+00  0.000000D+00  0.000000D+00
    214   0.000000D+00  0.000000D+00  0.000000D+00  0.000000D+00  0.000000D+00
    215   0.000000D+00  0.000000D+00  0.000000D+00  0.000000D+00  0.000000D+00
    216   0.000000D+00  0.000000D+00  0.000000D+00  0.000000D+00  0.000000D+00
    217   0.000000D+00  0.000000D+00  0.000000D+00  0.000000D+00  0.000000D+00
    218   0.000000D+00  0.000000D+00  0.000000D+00  0.000000D+00  0.000000D+00
    219   0.000000D+00  0.000000D+00  0.000000D+00  0.000000D+00  0.000000D+00
    220   0.000000D+00  0.000000D+00  0.000000D+00  0.000000D+00  0.000000D+00
    221   0.000000D+00  0.000000D+00  0.000000D+00  0.000000D+00  0.000000D+00
    222   0.000000D+00  0.000000D+00  0.000000D+00  0.000000D+00  0.000000D+00
    223   0.000000D+00  0.000000D+00  0.000000D+00  0.000000D+00  0.000000D+00
    224   0.000000D+00  0.000000D+00  0.000000D+00  0.000000D+00  0.000000D+00
    225   0.000000D+00  0.000000D+00  0.000000D+00  0.000000D+00  0.000000D+00
    226   0.000000D+00  0.000000D+00  0.000000D+00  0.000000D+00  0.000000D+00
    227   0.000000D+00  0.000000D+00  0.000000D+00  0.000000D+00  0.000000D+00
    228   0.000000D+00  0.000000D+00  0.000000D+00  0.000000D+00  0.000000D+00
    229   0.000000D+00  0.000000D+00  0.000000D+00  0.000000D+00  0.000000D+00
    230   0.000000D+00  0.000000D+00  0.000000D+00  0.000000D+00  0.000000D+00
    231   0.000000D+00  0.000000D+00  0.000000D+00  0.000000D+00  0.000000D+00
    232   0.000000D+00  0.000000D+00  0.000000D+00  0.000000D+00  0.000000D+00
    233   0.000000D+00  0.000000D+00  0.000000D+00  0.000000D+00  0.000000D+00
    234   0.000000D+00  0.000000D+00  0.000000D+00  0.000000D+00  0.000000D+00
    235   0.000000D+00  0.000000D+00  0.000000D+00  0.000000D+00  0.000000D+00
    236   0.000000D+00  0.000000D+00  0.000000D+00  0.000000D+00  0.000000D+00
    237   0.000000D+00  0.000000D+00  0.000000D+00  0.000000D+00  0.000000D+00
    238   0.000000D+00  0.000000D+00  0.000000D+00  0.000000D+00  0.000000D+00
    239   0.000000D+00  0.000000D+00  0.000000D+00  0.000000D+00  0.000000D+00
    240   0.000000D+00  0.000000D+00  0.000000D+00  0.000000D+00  0.000000D+00
    241   0.000000D+00  0.000000D+00  0.000000D+00  0.000000D+00  0.000000D+00
    242   0.000000D+00  0.000000D+00  0.000000D+00  0.000000D+00  0.000000D+00
    243   0.000000D+00  0.000000D+00  0.000000D+00  0.000000D+00  0.000000D+00
    244   0.000000D+00  0.000000D+00  0.000000D+00  0.000000D+00  0.000000D+00
    245   0.000000D+00  0.000000D+00  0.000000D+00  0.000000D+00  0.000000D+00
    246   0.000000D+00  0.000000D+00  0.000000D+00  0.000000D+00  0.000000D+00
    247   0.000000D+00  0.000000D+00  0.000000D+00  0.000000D+00  0.000000D+00
    248   0.000000D+00  0.000000D+00  0.000000D+00  0.000000D+00  0.000000D+00
    249   0.000000D+00  0.000000D+00  0.000000D+00  0.000000D+00  0.000000D+00
    250   0.000000D+00  0.000000D+00  0.000000D+00  0.000000D+00  0.000000D+00
    251   0.000000D+00  0.000000D+00  0.000000D+00  0.000000D+00  0.000000D+00
    252   0.000000D+00  0.000000D+00  0.000000D+00  0.000000D+00  0.000000D+00
    253   0.000000D+00  0.000000D+00  0.000000D+00  0.000000D+00  0.000000D+00
    254   0.000000D+00  0.000000D+00  0.000000D+00  0.000000D+00  0.000000D+00
    255   0.000000D+00  0.000000D+00  0.000000D+00  0.000000D+00  0.000000D+00
    256   0.000000D+00  0.000000D+00  0.000000D+00  0.000000D+00  0.000000D+00
    257   0.000000D+00  0.000000D+00  0.000000D+00  0.000000D+00  0.000000D+00
    258   0.000000D+00  0.000000D+00  0.000000D+00  0.000000D+00  0.000000D+00
    259   0.000000D+00  0.000000D+00  0.000000D+00  0.000000D+00  0.000000D+00
    260   0.000000D+00  0.000000D+00  0.000000D+00  0.000000D+00  0.000000D+00
    261   0.000000D+00  0.000000D+00  0.000000D+00  0.000000D+00  0.000000D+00
    262   0.000000D+00  0.000000D+00  0.000000D+00  0.000000D+00  0.000000D+00
    263   0.000000D+00  0.000000D+00  0.000000D+00  0.000000D+00  0.000000D+00
    264   0.000000D+00  0.000000D+00  0.000000D+00  0.000000D+00  0.000000D+00
    265   0.000000D+00  0.000000D+00  0.000000D+00  0.000000D+00  0.000000D+00
    266   0.000000D+00  0.000000D+00  0.000000D+00  0.000000D+00  0.000000D+00
    267   0.000000D+00  0.000000D+00  0.000000D+00  0.000000D+00  0.000000D+00
    268   0.000000D+00  0.000000D+00  0.000000D+00  0.000000D+00  0.000000D+00
    269   0.000000D+00  0.000000D+00  0.000000D+00  0.000000D+00  0.000000D+00
    270   0.000000D+00  0.000000D+00  0.000000D+00  0.000000D+00  0.000000D+00
    271   0.000000D+00  0.000000D+00  0.000000D+00  0.000000D+00  0.000000D+00
    272   0.000000D+00  0.000000D+00  0.000000D+00  0.000000D+00  0.000000D+00
    273   0.000000D+00  0.000000D+00  0.000000D+00  0.000000D+00  0.000000D+00
    274   0.000000D+00  0.000000D+00  0.000000D+00  0.000000D+00  0.000000D+00
    275   0.000000D+00  0.180487D-05  0.000000D+00  0.000000D+00  0.000000D+00
    276   0.000000D+00  0.000000D+00  0.000000D+00  0.000000D+00  0.000000D+00
    277   0.000000D+00  0.000000D+00  0.000000D+00  0.000000D+00  0.000000D+00
    278   0.000000D+00  0.000000D+00  0.000000D+00  0.000000D+00  0.000000D+00
[...]
   21    | -0.000070  0.000000 -0.002084 -0.002084 -0.000154 -0.000154
         |
   22    | -0.000194 -0.009437 -0.019941 -0.005999 -0.000613 -0.000489
   22    | -0.000194 -0.009437  0.000000 -0.005999 -0.000613 -0.000489
         |
   23    | -0.000194 -0.009437 -0.008830 -0.019941 -0.000489 -0.000613
   23    | -0.000194 -0.009437 -0.008830  0.000000 -0.000489 -0.000613
         |
   24    | -0.010338 -0.000210 -0.000824 -0.000524 -0.022680 -0.007337
   24    | -0.010338 -0.000210 -0.000824 -0.000524  0.000000 -0.007337
         |
   25    | -0.010338 -0.000210 -0.000524 -0.000824 -0.010329 -0.022680
   25    | -0.010338 -0.000210 -0.000524 -0.000824 -0.010329  0.000000
         |
   26    | -0.005500 -0.004181 -0.005017 -0.005017 -0.007087 -0.007087
   26    | -0.005500 -0.004181 -0.005017 -0.005017 -0.007087 -0.007087
         |

 AB - AA |     26
 BA - BB |     26
--------------------
   20    | -0.001888
   20    | -0.001888
         |
   21    | -0.001532
   21    | -0.001532
         |
   22    | -0.003823
   22    | -0.003823
         |
   23    | -0.003823
   23    | -0.003823
         |
   24    | -0.005362
   24    | -0.005362
         |
   25    | -0.005362
   25    | -0.005362
         |
   26    | -0.025372
   26    |  0.000000
         |

                     Sum of ab pair energies =    -0.233324 A.U.
                     Sum of ba pair energies =    -0.096172 A.U.
                     Sum of aa pair energies =    -0.046881 A.U.
                     Sum of bb pair energies =    -0.046881 A.U.

           Sum of intraorbital pair energies =    -0.137152 A.U.
           Sum of interorbital pair energies =    -0.286105 A.U.
                                                  ----------
                         Total pair energies =    -0.423257 A.U.

                         Single Excitations  =     0.000000 A.U.

                          Total second order =    -0.423257 A.U.

                         E2(CBS) - E2(Dir) =      -0.009553 A.U.

 E2(CBS)=      -0.427921 CBS-Int=       0.004664 OIii=       2.601346

 **********************************************************************

            Population analysis using the SCF density.

 **********************************************************************

 Orbital symmetries:
       Occupied  (SG) (SG) (SG) (SG) (PI) (PI) (SG) (SG) (SG) (PI)
                 (PI) (SG) (PI) (PI) (SG) (PI) (PI) (DLTA) (DLTA)
                 (SG) (SG) (SG) (PI) (PI) (PI) (PI)
       Virtual   (SG) (SG) (PI) (PI) (SG) (SG) (PI) (PI) (DLTA)
                 (DLTA) (SG) (PI) (PI) (PI) (PI) (SG) (DLTA) (DLTA)
                 (SG) (SG) (PI) (PI) (SG) (PI) (PI) (PHI) (PHI)
                 (DLTA) (DLTA) (PI) (PI) (DLTA) (DLTA) (SG) (PHI)
                 (PHI) (DLTA) (DLTA) (SG) (PI) (PI) (PI) (PI) (SG)
                 (SG) (PI) (PI) (DLTA) (DLTA) (SG) (?A) (?A) (PHI)
                 (PHI) (PI) (PI) (SG) (SG) (DLTA) (DLTA) (PI) (PI)
                 (?A) (?A) (DLTA) (DLTA) (PHI) (PHI) (DLTA) (DLTA)
                 (SG) (PI) (PI) (SG) (PI) (PI) (PHI) (PHI) (DLTA)
                 (DLTA) (SG) (DLTA) (DLTA) (PHI) (PHI) (SG) (PI)
                 (PI) (PI) (PI) (SG) (PI) (PI) (?B) (?B) (?A) (?A)
                 (DLTA) (DLTA) (SG) (PHI) (PHI) (SG) (PI) (PI)
                 (PI) (PI) (?B) (?B) (DLTA) (DLTA) (SG) (?A) (?A)
                 (PHI) (PHI) (SG) (?A) (?A) (PI) (PI) (DLTA) (DLTA)
                 (DLTA) (DLTA) (SG) (PI) (PI) (PHI) (PHI) (SG)
                 (PI) (PI) (DLTA) (DLTA) (?A) (?A) (PHI) (PHI)
                 (PHI) (PHI) (SG) (DLTA) (DLTA) (SG) (SG) (?B)
                 (?B) (PI) (PI) (DLTA) (DLTA) (SG) (SG) (DLTA)
                 (DLTA) (?A) (?A) (PI) (PI) (PHI) (PHI) (SG) (PI)
                 (PI) (SG) (SG) (SG) (SG) (?B) (?B) (PI) (PI) (PHI)
                 (PHI) (DLTA) (DLTA) (PI) (PI) (?A) (?A) (?B) (?B)
                 (PHI) (PHI) (SG) (PI) (PI) (DLTA) (DLTA) (?A)
                 (?A) (DLTA) (DLTA) (SG) (PI) (PI) (SG) (?A) (?A)
                 (PHI) (PHI) (PI) (PI) (SG) (PI) (PI) (DLTA) (DLTA)
                 (PHI) (PHI) (SG) (DLTA) (DLTA) (PI) (PI) (PHI)
                 (PHI) (?B) (?B) (SG) (?A) (?A) (DLTA) (DLTA) (SG)
                 (?A) (?A) (PI) (PI) (DLTA) (DLTA) (PHI) (PHI)
                 (DLTA) (DLTA) (PI) (PI) (SG) (PHI) (PHI) (PI)
                 (PI) (DLTA) (DLTA) (SG) (SG) (PHI) (PHI) (SG)
                 (PI) (PI) (SG) (SG) (?B) (?B) (SG) (DLTA) (DLTA)
                 (?A) (?A) (PI) (PI) (PHI) (PHI) (SG) (DLTA) (DLTA)
                 (PI) (PI) (DLTA) (DLTA) (?B) (?B) (?A) (?A) (SG)
                 (SG) (PHI) (PHI) (PI) (PI) (SG) (DLTA) (DLTA)
                 (?A) (?A) (PHI) (PHI) (PI) (PI) (DLTA) (DLTA)
                 (PI) (PI) (SG) (SG) (?B) (?B) (PI) (PI) (SG) (?A)
                 (?A) (PHI) (PHI) (SG) (PI) (PI) (DLTA) (DLTA)
                 (SG) (SG) (PI) (PI) (?A) (?A) (PHI) (PHI) (PHI)
                 (PHI) (SG) (DLTA) (DLTA) (?B) (?B) (?A) (?A) (DLTA)
                 (DLTA) (PI) (PI) (PHI) (PHI) (PI) (PI) (DLTA)
                 (DLTA) (SG) (PI) (PI) (DLTA) (DLTA) (?B) (?B)
                 (SG) (SG) (?C) (?C) (?A) (?A) (PHI) (PHI) (SG)
                 (SG) (PI) (PI) (DLTA) (DLTA) (SG) (PI) (PI) (PHI)
                 (PHI) (PI) (PI) (SG) (DLTA) (DLTA) (SG) (PI) (PI)
                 (?B) (?B) (SG) (SG) (?A) (?A) (PHI) (PHI) (DLTA)
                 (DLTA) (SG) (?B) (?B) (?A) (?A) (?A) (?A) (PHI)
                 (PHI) (PI) (PI) (PHI) (PHI) (SG) (DLTA) (DLTA)
                 (PI) (PI) (DLTA) (DLTA) (?B) (?B) (SG) (SG) (?C)
                 (?C) (?A) (?A) (SG) (PHI) (PHI) (SG) (PI) (PI)
                 (DLTA) (DLTA) (SG) (DLTA) (DLTA) (PI) (PI) (SG)
                 (PI) (PI) (?A) (?A) (PI) (PI) (PHI) (PHI) (DLTA)
                 (DLTA) (SG) (PI) (PI) (SG) (PHI) (PHI) (SG) (SG)
                 (?B) (?B) (?A) (?A) (DLTA) (DLTA) (PHI) (PHI)
                 (SG) (SG) (DLTA) (DLTA) (PI) (PI) (?B) (?B) (?A)
                 (?A) (PHI) (PHI) (SG) (DLTA) (DLTA) (PI) (PI)
                 (PI) (PI) (SG) (PI) (PI) (DLTA) (DLTA) (PI) (PI)
                 (SG) (SG) (PHI) (PHI) (DLTA) (DLTA) (PI) (PI)
                 (SG) (SG) (SG) (DLTA) (DLTA) (PI) (PI) (SG) (PI)
                 (PI) (SG) (SG) (PI) (PI) (SG) (DLTA) (DLTA) (PI)
                 (PI) (SG) (SG) (SG)
 The electronic state is 1-SG.
 Alpha  occ. eigenvalues -- -490.08070-104.88450 -65.21960 -58.57548 -58.57324
 Alpha  occ. eigenvalues --  -58.57324 -10.60714  -9.89171  -8.07388  -8.07188
 Alpha  occ. eigenvalues --   -8.07188  -7.50464  -7.49495  -7.49495  -3.24966
 Alpha  occ. eigenvalues --   -3.24465  -3.24465  -3.23131  -3.23131  -1.16468
 Alpha  occ. eigenvalues --   -0.97511  -0.56536  -0.53942  -0.53942  -0.42190
 Alpha  occ. eigenvalues --   -0.42190
 Alpha virt. eigenvalues --    0.00916   0.05677   0.05718   0.05718   0.07184
 Alpha virt. eigenvalues --    0.11511   0.12962   0.12962   0.18825   0.18825
 Alpha virt. eigenvalues --    0.21913   0.21933   0.21933   0.24339   0.24339
 Alpha virt. eigenvalues --    0.25601   0.28493   0.28493   0.28679   0.33180
 Alpha virt. eigenvalues --    0.34249   0.34249   0.40738   0.44646   0.44646
 Alpha virt. eigenvalues --    0.45394   0.45394   0.45490   0.45490   0.51554
 Alpha virt. eigenvalues --    0.51554   0.51695   0.51695   0.54547   0.59395
 Alpha virt. eigenvalues --    0.59395   0.60038   0.60038   0.61058   0.62971
 Alpha virt. eigenvalues --    0.62971   0.65134   0.65134   0.66626   0.67985
 Alpha virt. eigenvalues --    0.69296   0.69296   0.69500   0.69500   0.80434
 Alpha virt. eigenvalues --    0.88373   0.88373   0.94130   0.94130   0.96643
 Alpha virt. eigenvalues --    0.96643   0.96988   0.99353   1.01091   1.01091
 Alpha virt. eigenvalues --    1.02276   1.02276   1.07432   1.07432   1.10207
 Alpha virt. eigenvalues --    1.10207   1.10738   1.10738   1.12097   1.12097
 Alpha virt. eigenvalues --    1.13126   1.13326   1.13326   1.19993   1.22924
 Alpha virt. eigenvalues --    1.22924   1.24133   1.24133   1.25033   1.25033
 Alpha virt. eigenvalues --    1.33843   1.34996   1.34996   1.36326   1.36326
 Alpha virt. eigenvalues --    1.38225   1.40515   1.40515   1.44970   1.44970
 Alpha virt. eigenvalues --    1.45368   1.49921   1.49921   1.51246   1.51246
 Alpha virt. eigenvalues --    1.55574   1.55574   1.58104   1.58104   1.63756
 Alpha virt. eigenvalues --    1.75874   1.75874   1.79455   1.82969   1.82969
 Alpha virt. eigenvalues --    1.85065   1.85065   1.89048   1.89048   1.94140
 Alpha virt. eigenvalues --    1.94140   1.96964   1.98645   1.98645   2.00400
 Alpha virt. eigenvalues --    2.00400   2.03930   2.04227   2.04227   2.04801
 Alpha virt. eigenvalues --    2.04801   2.08098   2.08098   2.13740   2.13740
 Alpha virt. eigenvalues --    2.14490   2.17779   2.17779   2.19806   2.19806
 Alpha virt. eigenvalues --    2.31621   2.32274   2.32274   2.32996   2.32996
 Alpha virt. eigenvalues --    2.34734   2.34734   2.36150   2.36150   2.45061
 Alpha virt. eigenvalues --    2.45061   2.47711   2.48488   2.48488   2.48794
 Alpha virt. eigenvalues --    2.48794   2.49474   2.49474   2.52052   2.52052
 Alpha virt. eigenvalues --    2.58343   2.58343   2.60611   2.62077   2.68959
 Alpha virt. eigenvalues --    2.68959   2.70854   2.70854   2.72300   2.72300
 Alpha virt. eigenvalues --    2.74842   2.74842   2.84503   2.90665   2.90665
 Alpha virt. eigenvalues --    2.93801   2.93801   2.95680   3.02028   3.06882
 Alpha virt. eigenvalues --    3.06882   3.07057   3.07057   3.09468   3.09468
 Alpha virt. eigenvalues --    3.13290   3.13290   3.21604   3.21604   3.27561
 Alpha virt. eigenvalues --    3.27561   3.28902   3.28902   3.36251   3.36251
 Alpha virt. eigenvalues --    3.39715   3.41070   3.41070   3.42117   3.42117
 Alpha virt. eigenvalues --    3.43339   3.43339   3.46098   3.46098   3.55140
 Alpha virt. eigenvalues --    3.63428   3.63428   3.64043   3.70395   3.70395
 Alpha virt. eigenvalues --    3.72563   3.72563   3.75253   3.75253   3.81237
 Alpha virt. eigenvalues --    3.84833   3.84833   3.88669   3.88669   3.92097
 Alpha virt. eigenvalues --    3.92097   3.97154   4.02012   4.02012   4.08739
 Alpha virt. eigenvalues --    4.08739   4.10753   4.10753   4.18441   4.18441
 Alpha virt. eigenvalues --    4.20839   4.26259   4.26259   4.31887   4.31887
 Alpha virt. eigenvalues --    4.36465   4.40888   4.40888   4.41535   4.41535
 Alpha virt. eigenvalues --    4.43194   4.43194   4.45267   4.45267   4.51160
 Alpha virt. eigenvalues --    4.51160   4.51598   4.51598   4.54161   4.58207
 Alpha virt. eigenvalues --    4.58207   4.83043   4.83043   4.88425   4.88425
 Alpha virt. eigenvalues --    4.90129   5.17924   5.25144   5.25144   5.39302
 Alpha virt. eigenvalues --    5.43732   5.43732   5.49918   5.49918   5.50549
 Alpha virt. eigenvalues --    5.50549   5.52217   5.54432   5.54432   5.56040
 Alpha virt. eigenvalues --    5.56040   5.58387   5.58387   5.67234   5.67234
 Alpha virt. eigenvalues --    5.75232   5.88097   5.88097   6.06473   6.06473
 Alpha virt. eigenvalues --    6.15797   6.15797   6.18261   6.18261   6.20434
 Alpha virt. eigenvalues --    6.20434   6.32539   6.34548   6.35520   6.35520
 Alpha virt. eigenvalues --    6.39252   6.39252   6.51422   6.51585   6.51585
 Alpha virt. eigenvalues --    6.54670   6.54670   6.56785   6.56785   6.59004
 Alpha virt. eigenvalues --    6.59004   6.70411   6.70411   6.71864   6.71864
 Alpha virt. eigenvalues --    6.82746   6.82746   6.85108   6.85108   6.90642
 Alpha virt. eigenvalues --    6.90642   6.90770   6.96018   6.96018   7.13289
 Alpha virt. eigenvalues --    7.13289   7.16227   7.17526   7.17526   7.32884
 Alpha virt. eigenvalues --    7.32884   7.34573   7.56372   7.62138   7.62138
 Alpha virt. eigenvalues --    7.85181   7.85181   7.86253   7.86253   7.93646
 Alpha virt. eigenvalues --    7.93646   8.07353   8.10339   8.10339   8.10898
 Alpha virt. eigenvalues --    8.10898   8.17186   8.17186   8.18377   8.18377
 Alpha virt. eigenvalues --    8.25679   8.25679   8.38584   8.38584   8.41067
 Alpha virt. eigenvalues --    8.41067   8.44671   8.44671   8.46809   8.61210
 Alpha virt. eigenvalues --    8.61210   8.62911   8.62911   8.81945   8.81945
 Alpha virt. eigenvalues --    8.82179   8.82179   8.83830   8.83830   8.88310
 Alpha virt. eigenvalues --    8.88310   9.15743   9.15743   9.18238   9.33815
 Alpha virt. eigenvalues --    9.35502   9.35502   9.65647   9.65647   9.72793
 Alpha virt. eigenvalues --    9.98320   9.98320  10.11231  10.11231  10.26448
 Alpha virt. eigenvalues --   10.26448  10.38209  10.52828  10.52828  10.74086
 Alpha virt. eigenvalues --   10.97232  10.97232  10.98471  10.98471  10.98865
 Alpha virt. eigenvalues --   10.98865  11.00486  11.00486  11.03275  11.03275
 Alpha virt. eigenvalues --   11.07806  11.07806  11.14165  11.14885  11.14885
 Alpha virt. eigenvalues --   11.15292  11.15292  11.18948  11.18948  11.19617
 Alpha virt. eigenvalues --   11.19617  11.31395  11.31395  11.33385  11.33385
 Alpha virt. eigenvalues --   11.37160  11.39800  11.39800  11.48622  11.48622
 Alpha virt. eigenvalues --   11.52422  11.52422  11.53398  11.53398  11.54393
 Alpha virt. eigenvalues --   11.54393  11.56078  11.56078  11.59748  11.59748
 Alpha virt. eigenvalues --   11.69036  11.93589  11.93589  11.93802  11.96294
 Alpha virt. eigenvalues --   11.96294  12.53737  12.53737  12.85267  13.01011
 Alpha virt. eigenvalues --   13.01011  13.01250  13.01250  13.64235  13.72517
 Alpha virt. eigenvalues --   13.72517  13.79374  13.79374  13.83985  13.83985
 Alpha virt. eigenvalues --   13.85367  13.85367  14.02959  14.02959  14.12635
 Alpha virt. eigenvalues --   14.19270  14.19270  14.22024  14.55164  14.55164
 Alpha virt. eigenvalues --   14.64050  14.64050  14.64330  14.64330  14.69635
 Alpha virt. eigenvalues --   14.69635  14.80931  14.80931  14.80966  14.80966
 Alpha virt. eigenvalues --   14.81889  14.91589  15.09495  15.09495  15.27647
 Alpha virt. eigenvalues --   15.27647  15.34043  15.34043  15.38802  15.38802
 Alpha virt. eigenvalues --   15.57130  15.57130  15.69572  15.70115  15.70115
 Alpha virt. eigenvalues --   15.71254  15.71254  16.00160  16.00160  16.47541
 Alpha virt. eigenvalues --   16.92273  16.92273  17.47097  17.47097  18.26005
 Alpha virt. eigenvalues --   18.26005  18.29409  19.03721  19.56140  19.56140
 Alpha virt. eigenvalues --   19.88362  19.88362  20.34976  20.34976  20.41112
 Alpha virt. eigenvalues --   21.28473  23.51597  28.84847  28.84847  29.64938
 Alpha virt. eigenvalues --   29.64938  30.53529  31.20298  31.20298  31.83003
 Alpha virt. eigenvalues --   36.21776  40.95986  40.95986  42.30076  76.95009
 Alpha virt. eigenvalues --   76.95009  77.51180  77.51180  77.98274 260.79467
 Alpha virt. eigenvalues --  627.27430
          Condensed to atoms (all electrons):
              1          2
     1  Br  34.472182   0.297915
     2  Cl   0.297915  16.931987
          Atomic-Atomic Spin Densities.
              1          2
     1  Br   0.000000   0.000000
     2  Cl   0.000000   0.000000
 Mulliken charges and spin densities:
              1          2
     1  Br   0.229902   0.000000
     2  Cl  -0.229902   0.000000
 Sum of Mulliken charges =   0.00000 spin densities =   0.000000
 Mulliken charges and spin densities with hydrogens summed into heavy atoms:
              1          2
     1  Br   0.229902   0.000000
     2  Cl  -0.229902   0.000000
 Sum of Mulliken charges with hydrogens summed into heavy atoms =   0.00000 spin densities =   0.000000
 Electronic spatial extent (au):  <R**2>=            253.8987
 Charge=              0.0000 electrons
 Dipole moment (field-independent basis, Debye):
    X=              0.0000    Y=              0.0000    Z=              0.5033  Tot=              0.5033
 Quadrupole moment (field-independent basis, Debye-Ang):
   XX=            -31.3829   YY=            -31.3829   ZZ=            -27.9679
   XY=              0.0000   XZ=              0.0000   YZ=              0.0000
 Traceless Quadrupole moment (field-independent basis, Debye-Ang):
   XX=             -1.1383   YY=             -1.1383   ZZ=              2.2767
   XY=              0.0000   XZ=              0.0000   YZ=              0.0000
 Octapole moment (field-independent basis, Debye-Ang**2):
  XXX=              0.0000  YYY=              0.0000  ZZZ=             15.9355  XYY=              0.0000
  XXY=              0.0000  XXZ=              5.3417  XZZ=              0.0000  YZZ=              0.0000
  YYZ=              5.3417  XYZ=              0.0000
 Hexadecapole moment (field-independent basis, Debye-Ang**3):
 XXXX=            -36.6869 YYYY=            -36.6869 ZZZZ=           -212.5994 XXXY=              0.0000
 XXXZ=              0.0000 YYYX=              0.0000 YYYZ=              0.0000 ZZZX=              0.0000
 ZZZY=              0.0000 XXYY=            -12.2290 XXZZ=            -47.7454 YYZZ=            -47.7454
 XXYZ=              0.0000 YYXZ=              0.0000 ZZXY=              0.0000
 N-N= 1.474020870671D+02 E-N=-1.131418085371D+04  KE= 4.547914707210D+03
                          Isotropic Fermi Contact Couplings
        Atom                 a.u.       MegaHertz       Gauss      10(-4) cm-1
     1  Br(79)             0.00000       0.00000       0.00000       0.00000
     2  Cl(35)             0.00000       0.00000       0.00000       0.00000
 --------------------------------------------------------
       Center         ----  Spin Dipole Couplings  ----
                      3XX-RR        3YY-RR        3ZZ-RR
 --------------------------------------------------------
     1   Atom        0.000000      0.000000      0.000000
     2   Atom        0.000000      0.000000      0.000000
 --------------------------------------------------------
                        XY            XZ            YZ
 --------------------------------------------------------
     1   Atom        0.000000      0.000000      0.000000
     2   Atom        0.000000      0.000000      0.000000
 --------------------------------------------------------


 ---------------------------------------------------------------------------------
              Anisotropic Spin Dipole Couplings in Principal Axis System
 ---------------------------------------------------------------------------------

       Atom             a.u.   MegaHertz   Gauss  10(-4) cm-1        Axes

              Baa     0.0000     0.000     0.000     0.000  1.0000  0.0000  0.0000
     1 Br(79) Bbb     0.0000     0.000     0.000     0.000  0.0000  1.0000  0.0000
              Bcc     0.0000     0.000     0.000     0.000  0.0000  0.0000  1.0000
 
              Baa     0.0000     0.000     0.000     0.000  1.0000  0.0000  0.0000
     2 Cl(35) Bbb     0.0000     0.000     0.000     0.000  0.0000  1.0000  0.0000
              Bcc     0.0000     0.000     0.000     0.000  0.0000  0.0000  1.0000
 

 ---------------------------------------------------------------------------------


 Test job not archived.
 1\1\GINC-C31\SP\ROMP2-RW\Gen\Br1Cl1\GPETERSSON\21-May-2013\0\\# ROMP2(
 RW) Gen GFinput Int=NoBasisTransform Int(Grid=Ultrafine) IOp(3/32=2,5/
 6=10,8/11=1,9/33=1) Maxdisk=128GB CBSextrapolate(Nmin=25,MinPop)\\BrCl
  1Sg+\\0,1\Br\Cl,1,2.136065\\Version=EM64L-GDVRevH.12\State=1-SG\HF=-3
 031.9671094\MP2=-3032.3854775\E2(CBS)=-0.4279215\CBS-Int=-0.4232572\OI
 ii=2.6013456\RMSD=2.395e-11\PG=C*V [C*(Cl1Br1)]\\@


 CHILDREN YOU ARE VERY LITTLE,
 AND YOUR BONES ARE VERY BRITTLE;
 IF YOU WOULD GROW GREAT AND STATELY
 YOU MUST TRY TO WALK SEDATELY.
 YOU MUST STILL BE BRIGHT AND QUIET,
 AND CONTENT WITH SIMPLE DIET;
 AND REMAIN, THROUGH ALL BEWILD'RING
 INNOCENT AND HONEST CHILDREN.
     -- A CHILD'S GARDEN OF VERSE,
        ROBERT LOUIS STEVENSON
 Job cpu time:  6 days 18 hours 52 minutes 10.7 seconds.
 File lengths (MBytes):  RWF=  25664 Int=      0 D2E=      0 Chk=     23 Scr=      1
 Normal termination of Gaussian DV at Tue May 21 20:53:09 2013.
