 Entering Gaussian System, Link 0=g09
 AtFile(1): 6ZaPa-NR.gbs
 Initial command:
 /share/apps/gaussian/g09root/g09/l1.exe /localscratch/982238/Gau-2069.inp -scrdir=/localscratch/982238/
 Entering Link 1 = /share/apps/gaussian/g09root/g09/l1.exe PID=      2070.
  
 Copyright (c) 1988,1990,1992,1993,1995,1998,2003,2009, Gaussian, Inc.
                  All Rights Reserved.
  
 This is part of the Gaussian(R) 09 program.  It is based on
 the Gaussian(R) 03 system (copyright 2003, Gaussian, Inc.),
 the Gaussian(R) 98 system (copyright 1998, Gaussian, Inc.),
 the Gaussian(R) 94 system (copyright 1995, Gaussian, Inc.),
 the Gaussian 92(TM) system (copyright 1992, Gaussian, Inc.),
 the Gaussian 90(TM) system (copyright 1990, Gaussian, Inc.),
 the Gaussian 88(TM) system (copyright 1988, Gaussian, Inc.),
 the Gaussian 86(TM) system (copyright 1986, Carnegie Mellon
 University), and the Gaussian 82(TM) system (copyright 1983,
 Carnegie Mellon University). Gaussian is a federally registered
 trademark of Gaussian, Inc.
  
 This software contains proprietary and confidential information,
 including trade secrets, belonging to Gaussian, Inc.
  
 This software is provided under written license and may be
 used, copied, transmitted, or stored only in accord with that
 written license.
  
 The following legend is applicable only to US Government
 contracts under FAR:
  
                    RESTRICTED RIGHTS LEGEND
  
 Use, reproduction and disclosure by the US Government is
 subject to restrictions as set forth in subparagraphs (a)
 and (c) of the Commercial Computer Software - Restricted
 Rights clause in FAR 52.227-19.
  
 Gaussian, Inc.
 340 Quinnipiac St., Bldg. 40, Wallingford CT 06492
  
  
 ---------------------------------------------------------------
 Warning -- This program may not be used in any manner that
 competes with the business of Gaussian, Inc. or will provide
 assistance to any competitor of Gaussian, Inc.  The licensee
 of this program is prohibited from giving any competitor of
 Gaussian, Inc. access to this program.  By using this program,
 the user acknowledges that Gaussian, Inc. is engaged in the
 business of creating and licensing software in the field of
 computational chemistry and represents and warrants to the
 licensee that it is not a competitor of Gaussian, Inc. and that
 it will not use this program in any manner prohibited above.
 ---------------------------------------------------------------
  

 Cite this work as:
 Gaussian 09, Revision A.02,
 M. J. Frisch, G. W. Trucks, H. B. Schlegel, G. E. Scuseria, 
 M. A. Robb, J. R. Cheeseman, G. Scalmani, V. Barone, B. Mennucci, 
 G. A. Petersson, H. Nakatsuji, M. Caricato, X. Li, H. P. Hratchian, 
 A. F. Izmaylov, J. Bloino, G. Zheng, J. L. Sonnenberg, M. Hada, 
 M. Ehara, K. Toyota, R. Fukuda, J. Hasegawa, M. Ishida, T. Nakajima, 
 Y. Honda, O. Kitao, H. Nakai, T. Vreven, J. A. Montgomery, Jr., 
 J. E. Peralta, F. Ogliaro, M. Bearpark, J. J. Heyd, E. Brothers, 
 K. N. Kudin, V. N. Staroverov, R. Kobayashi, J. Normand, 
 K. Raghavachari, A. Rendell, J. C. Burant, S. S. Iyengar, J. Tomasi, 
 M. Cossi, N. Rega, J. M. Millam, M. Klene, J. E. Knox, J. B. Cross, 
 V. Bakken, C. Adamo, J. Jaramillo, R. Gomperts, R. E. Stratmann, 
 O. Yazyev, A. J. Austin, R. Cammi, C. Pomelli, J. W. Ochterski, 
 R. L. Martin, K. Morokuma, V. G. Zakrzewski, G. A. Voth, 
 P. Salvador, J. J. Dannenberg, S. Dapprich, A. D. Daniels, 
 O. Farkas, J. B. Foresman, J. V. Ortiz, J. Cioslowski, 
 and D. J. Fox, Gaussian, Inc., Wallingford CT, 2009.
 
 ******************************************
 Gaussian 09:  EM64L-G09RevA.02 11-Jun-2009
                 8-Jul-2013 
 ******************************************
 % Mem=12GB
 % Nproc=8
 Will use up to    8 processors via shared memory.
 ----------------------------------------------------------------------
 # ROMP2(RW) Gen GFinput Int=NoBasisTransform Int(Grid=Ultrafine) IOp(3
 /32=2,5/6=10,8/11=1,9/33=1) Maxdisk=128GB CBSextrapolate(Nmin=20,MinPo
 p)
 ----------------------------------------------------------------------
 1/38=1/1;
 2/12=2,17=6,18=5,40=1/2;
 3/5=7,11=2,16=1,24=10,25=1,30=1,32=2,60=-1,75=-5,116=101/1,2,3;
 4//1;
 5/5=2,6=10,38=5/2;
 8/5=-1,10=91,11=1/1;
 9/16=-3,33=1,75=2,81=20,83=4/6,4;
 6/7=2,8=2,9=2,10=2/1;
 99/5=1,9=1/99;
 ---------
 BrCl 1Sg+
 ---------
 Symbolic Z-matrix:
 Charge =  0 Multiplicity = 1
 Br
 Cl                   1     2.13606 
 
                          Input orientation:                          
 ---------------------------------------------------------------------
 Center     Atomic      Atomic             Coordinates (Angstroms)
 Number     Number       Type             X           Y           Z
 ---------------------------------------------------------------------
      1         35           0        0.000000    0.000000    0.000000
      2         17           0        0.000000    0.000000    2.136065
 ---------------------------------------------------------------------
 Stoichiometry    BrCl
 Framework group  C*V[C*(ClBr)]
 Deg. of freedom     1
 Full point group                 C*V     NOp   4
 Largest Abelian subgroup         C2V     NOp   4
 Largest concise Abelian subgroup C1      NOp   1
                         Standard orientation:                         
 ---------------------------------------------------------------------
 Center     Atomic      Atomic             Coordinates (Angstroms)
 Number     Number       Type             X           Y           Z
 ---------------------------------------------------------------------
      1         35           0        0.000000    0.000000    0.698329
      2         17           0        0.000000    0.000000   -1.437736
 ---------------------------------------------------------------------
 Rotational constants (GHZ):      0.0000000      4.5709223      4.5709223
 General basis read from cards:  (5D, 7F)
 AO basis set in the form of general basis input (Overlap normalization):
      1 0
 S  16 1.00       0.000000000000
      0.5684648560D+08  0.6461982724D-06
      0.1070969180D+08  0.4005500493D-05
      0.2456425350D+07  0.2277878063D-04
      0.6647482010D+06  0.1035662382D-03
      0.2064956430D+06  0.4011375332D-03
      0.7189551160D+05  0.1355986885D-02
      0.2748497400D+05  0.4104177960D-02
      0.1133574500D+05  0.1131546454D-01
      0.4969149570D+04  0.2866241650D-01
      0.2286280560D+04  0.6644315418D-01
      0.1092489510D+04  0.1375496636D+00
      0.5374293450D+03  0.2406966575D+00
      0.2701678280D+03  0.3168699633D+00
      0.1379196500D+03  0.2518244622D+00
      0.7110757600D+02  0.8280521486D-01
      0.3684081000D+02  0.6542890731D-02
 S  14 1.00       0.000000000000
      0.2748497400D+05 -0.6093054753D-05
      0.1133574500D+05 -0.3526718420D-04
      0.4969149570D+04 -0.2414967175D-03
      0.2286280560D+04 -0.1187029023D-02
      0.1092489510D+04 -0.5437094163D-02
      0.5374293450D+03 -0.1987875033D-01
      0.2701678280D+03 -0.5745326396D-01
      0.1379196500D+03 -0.9302247978D-01
      0.7110757600D+02  0.5798615338D-02
      0.3684081000D+02  0.3524059167D+00
      0.1908826000D+02  0.5228863039D+00
      0.9841610000D+01  0.2160299707D+00
      0.5021928000D+01  0.2029741651D-01
      0.2520512000D+01  0.2169092730D-02
 P  13 1.00       0.000000000000
      0.7647864790D+05  0.8881482810D-05
      0.2007186980D+05  0.7202235278D-04
      0.6380605010D+04  0.4617884143D-03
      0.2362210840D+04  0.2232576784D-02
      0.9848457380D+03  0.8658544211D-02
      0.4494150820D+03  0.2760695825D-01
      0.2191768780D+03  0.7376891535D-01
      0.1120008830D+03  0.1611575383D+00
      0.5900481100D+02  0.2746963459D+00
      0.3162813000D+02  0.3325788021D+00
      0.1706692700D+02  0.2292429281D+00
      0.9191294000D+01  0.6843844634D-01
      0.4904821000D+01  0.7129076349D-02
 S  11 1.00       0.000000000000
      0.5374293450D+03  0.8213361056D-04
      0.2701678280D+03  0.8357169029D-03
      0.1379196500D+03  0.2902379033D-02
      0.7110757600D+02  0.2266751943D-02
      0.3684081000D+02 -0.5035507061D-01
      0.1908826000D+02 -0.2012033165D+00
      0.9841610000D+01 -0.9315614959D-01
      0.5021928000D+01  0.4275136099D+00
      0.2520512000D+01  0.6154100442D+00
      0.1235271000D+01  0.1765274465D+00
      0.5860430000D+00  0.3277643624D-02
 P  13 1.00       0.000000000000
      0.9848457380D+03 -0.2419340892D-04
      0.4494150820D+03 -0.2195902096D-03
      0.2191768780D+03 -0.1244189158D-02
      0.1120008830D+03 -0.5263181475D-02
      0.5900481100D+02 -0.1416768709D-01
      0.3162813000D+02 -0.2494638541D-01
      0.1706692700D+02  0.2423108274D-01
      0.9191294000D+01  0.1994660171D+00
      0.4904821000D+01  0.3883673950D+00
      0.2577482000D+01  0.3653043231D+00
      0.1326123000D+01  0.1312759511D+00
      0.6641100000D+00  0.1172791979D-01
      0.3216260000D+00  0.1101700462D-02
 D  14 1.00       0.000000000000
      0.3044286830D+04  0.1715183017D-04
      0.9351975360D+03  0.1771874450D-03
      0.3603600190D+03  0.1142833880D-02
      0.1609205760D+03  0.5231818246D-02
      0.7876521700D+02  0.1831916879D-01
      0.4072731600D+02  0.5045969538D-01
      0.2174776800D+02  0.1146611056D+00
      0.1183677500D+02  0.2025367676D+00
      0.6513457000D+01  0.2693992046D+00
      0.3595593000D+01  0.2822073474D+00
      0.1967334000D+01  0.2191258632D+00
      0.1044822000D+01  0.1060328283D+00
      0.5203620000D+00  0.2387745972D-01
      0.2305910000D+00  0.1937178744D-02
 S  10 1.00       0.000000000000
      0.7110757600D+02  0.2131624171D-03
      0.3684081000D+02 -0.1057071914D-02
      0.1908826000D+02  0.1417625393D-02
      0.9841610000D+01 -0.2693840005D-02
      0.5021928000D+01 -0.7677885625D-02
      0.2520512000D+01 -0.1629806187D+00
      0.1235271000D+01 -0.1451413265D+00
      0.5860430000D+00  0.3946545406D+00
      0.2663730000D+00  0.6178179660D+00
      0.1145700000D+00  0.2143606702D+00
 S   1 1.00       0.000000000000
      0.4839900000D-01  0.1000000000D+01
 P   9 1.00       0.000000000000
      0.1706692700D+02 -0.6673224653D-03
      0.9191294000D+01 -0.5142336034D-02
      0.4904821000D+01 -0.1172459570D-01
      0.2577482000D+01 -0.3593519161D-01
      0.1326123000D+01  0.3009539528D-01
      0.6641100000D+00  0.2597617720D+00
      0.3216260000D+00  0.4199856864D+00
      0.1494910000D+00  0.3417519990D+00
      0.6607100000D-01  0.9544524524D-01
 P   1 1.00       0.000000000000
      0.6757500000D-01  0.1000000000D+01
 P   1 1.00       0.000000000000
      0.2741200000D-01  0.1000000000D+01
 S   1 1.00       0.000000000000
      0.1647296000D+01  0.1000000000D+01
 S   1 1.00       0.000000000000
      0.8600990000D+00  0.1000000000D+01
 S   1 1.00       0.000000000000
      0.4490810000D+00  0.1000000000D+01
 S   1 1.00       0.000000000000
      0.2344780000D+00  0.1000000000D+01
 S   1 1.00       0.000000000000
      0.1224270000D+00  0.1000000000D+01
 P   1 1.00       0.000000000000
      0.2151995000D+01  0.1000000000D+01
 P   1 1.00       0.000000000000
      0.1213378000D+01  0.1000000000D+01
 P   1 1.00       0.000000000000
      0.6841500000D+00  0.1000000000D+01
 P   1 1.00       0.000000000000
      0.3857500000D+00  0.1000000000D+01
 P   1 1.00       0.000000000000
      0.2175010000D+00  0.1000000000D+01
 D   1 1.00       0.000000000000
      0.2311612000D+01  0.1000000000D+01
 D   1 1.00       0.000000000000
      0.1200445000D+01  0.1000000000D+01
 D   1 1.00       0.000000000000
      0.6234040000D+00  0.1000000000D+01
 D   1 1.00       0.000000000000
      0.3237400000D+00  0.1000000000D+01
 D   1 1.00       0.000000000000
      0.1681220000D+00  0.1000000000D+01
 D   1 1.00       0.000000000000
      0.8730770000D-01  0.1000000000D+01
 F   1 1.00       0.000000000000
      0.1094075000D+01  0.1000000000D+01
 F   1 1.00       0.000000000000
      0.6731320000D+00  0.1000000000D+01
 F   1 1.00       0.000000000000
      0.4141460000D+00  0.1000000000D+01
 F   1 1.00       0.000000000000
      0.2548050000D+00  0.1000000000D+01
 F   1 1.00       0.000000000000
      0.1567700000D+00  0.1000000000D+01
 G   1 1.00       0.000000000000
      0.1346554000D+01  0.1000000000D+01
 G   1 1.00       0.000000000000
      0.7282520000D+00  0.1000000000D+01
 G   1 1.00       0.000000000000
      0.3938580000D+00  0.1000000000D+01
 G   1 1.00       0.000000000000
      0.2130090000D+00  0.1000000000D+01
 H   1 1.00       0.000000000000
      0.1116980000D+01  0.1000000000D+01
 H   1 1.00       0.000000000000
      0.5698070000D+00  0.1000000000D+01
 H   1 1.00       0.000000000000
      0.2906770000D+00  0.1000000000D+01
 I   1 1.00       0.000000000000
      0.9601700123D+00  0.1000000000D+01
 ****
      2 0
 S  16 1.00       0.000000000000
      0.5318794213D+07  0.2087506525D-05
      0.9374028503D+06  0.1409075946D-04
      0.2099328815D+06  0.8045229457D-04
      0.5699224286D+05  0.3587072731D-03
      0.1802456268D+05  0.1342429318D-02
      0.6424506240D+04  0.4368982553D-02
      0.2511423070D+04  0.1274090005D-01
      0.1053265800D+04  0.3374895264D-01
      0.4656587630D+03  0.8079562464D-01
      0.2140478620D+03  0.1690375599D+00
      0.1012007850D+03  0.2865580459D+00
      0.4879836800D+02  0.3330111614D+00
      0.2383322100D+02  0.1931269476D+00
      0.1171925100D+02  0.3428301432D-01
      0.5767712000D+01  0.2147878771D-02
      0.2822869000D+01  0.1446905038D-03
 S  12 1.00       0.000000000000
      0.2511423068D+04 -0.3538917350D-04
      0.1053265795D+04 -0.2384973559D-03
      0.4656587630D+03 -0.1347306678D-02
      0.2140478620D+03 -0.6523555892D-02
      0.1012007850D+03 -0.2441274848D-01
      0.4879836800D+02 -0.6731290528D-01
      0.2383322100D+02 -0.7602485343D-01
      0.1171925100D+02  0.9834439030D-01
      0.5767712000D+01  0.4392003543D+00
      0.2822869000D+01  0.4716246001D+00
      0.1363313000D+01  0.1182506784D+00
      0.6433940000D+00  0.3749139732D-02
 P  14 1.00       0.000000000000
      0.1219948551D+05  0.1427430425D-04
      0.3101553246D+04  0.1208584263D-03
      0.9832474350D+03  0.7583393812D-03
      0.3674988750D+03  0.3509042790D-02
      0.1547962950D+03  0.1281725507D-01
      0.7091209200D+02  0.3838700163D-01
      0.3437361600D+02  0.9605778936D-01
      0.1727092600D+02  0.1918413765D+00
      0.8859030000D+01  0.2929190055D+00
      0.4587647000D+01  0.3226630823D+00
      0.2378170000D+01  0.1983270817D+00
      0.1225256000D+01  0.4682764860D-01
      0.6228670000D+00  0.3553397664D-02
      0.3097250000D+00  0.2939584522D-03
 D   1 1.00       0.000000000000
      0.1499555721D+02  0.1000000000D+01
 S   9 1.00       0.000000000000
      0.4879836800D+02  0.4332487711D-03
      0.2383322100D+02  0.1705109367D-02
      0.1171925100D+02 -0.2598449136D-02
      0.5767712000D+01 -0.3820420053D-01
      0.2822869000D+01 -0.1721874432D+00
      0.1363313000D+01 -0.4615773825D-01
      0.6433940000D+00  0.4218740590D+00
      0.2930250000D+00  0.5649326769D+00
      0.1267500000D+00  0.1888049229D+00
 S   1 1.00       0.000000000000
      0.6526282440D-01  0.1000000000D+01
 P  10 1.00       0.000000000000
      0.3437361600D+02 -0.8779760742D-03
      0.1727092600D+02 -0.2587705156D-02
      0.8859030000D+01 -0.6750732757D-02
      0.4587647000D+01 -0.1348819151D-01
      0.2378170000D+01  0.7915071357D-02
      0.1225256000D+01  0.1421546500D+00
      0.6228670000D+00  0.3122545730D+00
      0.3097250000D+00  0.3719998980D+00
      0.1489280000D+00  0.2575076252D+00
      0.6816900000D-01  0.6205820349D-01
 P   1 1.00       0.000000000000
      0.4897339439D-01  0.1000000000D+01
 S   1 1.00       0.000000000000
      0.6456710000D+01  0.1000000000D+01
 S   1 1.00       0.000000000000
      0.3213776000D+01  0.1000000000D+01
 S   1 1.00       0.000000000000
      0.1599632000D+01  0.1000000000D+01
 S   1 1.00       0.000000000000
      0.7962040000D+00  0.1000000000D+01
 S   1 1.00       0.000000000000
      0.3963040000D+00  0.1000000000D+01
 P   1 1.00       0.000000000000
      0.3859972000D+01  0.1000000000D+01
 P   1 1.00       0.000000000000
      0.1990128000D+01  0.1000000000D+01
 P   1 1.00       0.000000000000
      0.1026072000D+01  0.1000000000D+01
 P   1 1.00       0.000000000000
      0.5290230000D+00  0.1000000000D+01
 P   1 1.00       0.000000000000
      0.2727540000D+00  0.1000000000D+01
 D   1 1.00       0.000000000000
      0.5318611000D+01  0.1000000000D+01
 D   1 1.00       0.000000000000
      0.2406816000D+01  0.1000000000D+01
 D   1 1.00       0.000000000000
      0.1089150000D+01  0.1000000000D+01
 D   1 1.00       0.000000000000
      0.4928700000D+00  0.1000000000D+01
 D   1 1.00       0.000000000000
      0.2230370000D+00  0.1000000000D+01
 D   1 1.00       0.000000000000
      0.1009300000D+00  0.1000000000D+01
 F   1 1.00       0.000000000000
      0.2536010000D+01  0.1000000000D+01
 F   1 1.00       0.000000000000
      0.1276516000D+01  0.1000000000D+01
 F   1 1.00       0.000000000000
      0.6425420000D+00  0.1000000000D+01
 F   1 1.00       0.000000000000
      0.3234270000D+00  0.1000000000D+01
 F   1 1.00       0.000000000000
      0.1627980000D+00  0.1000000000D+01
 G   1 1.00       0.000000000000
      0.1539597000D+01  0.1000000000D+01
 G   1 1.00       0.000000000000
      0.8199240000D+00  0.1000000000D+01
 G   1 1.00       0.000000000000
      0.4366570000D+00  0.1000000000D+01
 G   1 1.00       0.000000000000
      0.2325450000D+00  0.1000000000D+01
 H   1 1.00       0.000000000000
      0.1576638000D+01  0.1000000000D+01
 H   1 1.00       0.000000000000
      0.7281370000D+00  0.1000000000D+01
 H   1 1.00       0.000000000000
      0.3362740000D+00  0.1000000000D+01
 I   1 1.00       0.000000000000
      0.1242441885D+01  0.1000000000D+01
 ****

 There are   135 symmetry adapted basis functions of A1  symmetry.
 There are    58 symmetry adapted basis functions of A2  symmetry.
 There are    92 symmetry adapted basis functions of B1  symmetry.
 There are    92 symmetry adapted basis functions of B2  symmetry.
 Integral buffers will be    131072 words long.
 Raffenetti 2 integral format.
 Two-electron integral symmetry is turned on.
   377 basis functions,   880 primitive gaussians,   559 cartesian basis functions
    26 alpha electrons       26 beta electrons
       nuclear repulsion energy       147.4020870671 Hartrees.
 NAtoms=    2 NActive=    2 NUniq=    2 SFac= 7.50D-01 NAtFMM=   80 NAOKFM=F Big=F
 One-electron integrals computed using PRISM.
 NBasis=   377 RedAO= F  NBF=   135    58    92    92
 NBsUse=   377 1.00D-04 NBFU=   135    58    92    92
 Harris functional with IExCor=  205 diagonalized for initial guess.
 ExpMin= 2.74D-02 ExpMax= 5.68D+07 ExpMxC= 1.13D+04 IAcc=3 IRadAn=         5 AccDes= 0.00D+00
 HarFok:  IExCor=  205 AccDes= 0.00D+00 IRadAn=         5 IDoV= 1
 ScaDFX=  1.000000  1.000000  1.000000  1.000000
 FoFCou: FMM=F IPFlag=           0 FMFlag=      100000 FMFlg1=           0
         NFxFlg=           0 DoJE=T BraDBF=F KetDBF=T FulRan=T
         Omega=  0.000000  0.000000  1.000000  0.000000  0.000000 ICntrl=     500 IOpCl=  0
         NMat0=    1 NMatS0=    1 NMatT0=    0 NMatD0=    1 NMtDS0=    0 NMtDT0=    0
         I1Cent=           4 NGrid=           0.
 Petite list used in FoFCou.
 Initial guess orbital symmetries:
       Occupied  (SG) (SG) (SG) (SG) (PI) (PI) (SG) (SG) (SG) (PI)
                 (PI) (SG) (PI) (PI) (SG) (PI) (PI) (DLTA) (DLTA)
                 (SG) (SG) (SG) (PI) (PI) (PI) (PI)
       Virtual   (SG) (SG) (SG) (PI) (PI) (SG) (DLTA) (DLTA) (PI)
                 (PI) (PI) (PI) (SG) (DLTA) (DLTA) (SG) (PI) (PI)
                 (SG) (SG) (PI) (PI) (SG) (PI) (PI) (DLTA) (DLTA)
                 (PHI) (PHI) (DLTA) (DLTA) (SG) (PI) (PI) (DLTA)
                 (DLTA) (PHI) (PHI) (SG) (PI) (PI) (SG) (PI) (PI)
                 (PI) (PI) (SG) (DLTA) (DLTA) (SG) (?A) (?A) (PHI)
                 (PHI) (SG) (DLTA) (DLTA) (PI) (PI) (PI) (PI) (SG)
                 (PHI) (PHI) (?A) (?A) (DLTA) (DLTA) (SG) (DLTA)
                 (DLTA) (PI) (PI) (PI) (PI) (DLTA) (DLTA) (SG)
                 (PHI) (PHI) (PHI) (PHI) (SG) (PI) (PI) (SG) (DLTA)
                 (DLTA) (PI) (PI) (SG) (DLTA) (DLTA) (PI) (PI)
                 (?B) (?B) (?A) (?A) (SG) (PHI) (PHI) (PI) (PI)
                 (?B) (?B) (DLTA) (DLTA) (PI) (PI) (SG) (PHI) (PHI)
                 (SG) (?A) (?A) (?A) (?A) (PI) (PI) (PHI) (PHI)
                 (SG) (SG) (DLTA) (DLTA) (DLTA) (DLTA) (PI) (PI)
                 (?A) (?A) (DLTA) (DLTA) (PHI) (PHI) (SG) (PHI)
                 (PHI) (PI) (PI) (DLTA) (DLTA) (SG) (PI) (PI) (DLTA)
                 (DLTA) (SG) (PI) (PI) (PHI) (PHI) (SG) (DLTA)
                 (DLTA) (SG) (PI) (PI) (SG) (PI) (PI) (PI) (PI)
                 (DLTA) (DLTA) (PI) (PI) (?B) (?B) (?A) (?A) (PHI)
                 (PHI) (PHI) (PHI) (DLTA) (DLTA) (SG) (SG) (DLTA)
                 (DLTA) (PI) (PI) (SG) (?A) (?A) (PI) (PI) (SG)
                 (PHI) (PHI) (SG) (DLTA) (DLTA) (PI) (PI) (?B)
                 (?B) (?A) (?A) (SG) (PHI) (PHI) (PI) (PI) (DLTA)
                 (DLTA) (?A) (?A) (PHI) (PHI) (SG) (PI) (PI) (DLTA)
                 (DLTA) (SG) (DLTA) (DLTA) (PI) (PI) (PI) (PI)
                 (SG) (PHI) (PHI) (SG) (DLTA) (DLTA) (PHI) (PHI)
                 (PI) (PI) (DLTA) (DLTA) (SG) (?B) (?B) (SG) (SG)
                 (?A) (?A) (PHI) (PHI) (PI) (PI) (SG) (PI) (PI)
                 (DLTA) (DLTA) (SG) (DLTA) (DLTA) (PI) (PI) (SG)
                 (?B) (?B) (?A) (?A) (PI) (PI) (PHI) (PHI) (SG)
                 (DLTA) (DLTA) (?A) (?A) (PHI) (PHI) (PI) (PI)
                 (SG) (DLTA) (DLTA) (?B) (?B) (SG) (SG) (?A) (?A)
                 (SG) (PI) (PI) (PHI) (PHI) (SG) (DLTA) (DLTA)
                 (PI) (PI) (SG) (PI) (PI) (?A) (?A) (PHI) (PHI)
                 (DLTA) (DLTA) (SG) (PI) (PI) (?B) (?B) (?A) (?A)
                 (PHI) (PHI) (SG) (DLTA) (DLTA) (SG) (PI) (PI)
                 (SG) (SG) (DLTA) (DLTA) (PHI) (PHI) (DLTA) (DLTA)
                 (PI) (PI) (PI) (PI) (SG) (SG) (PI) (PI) (SG) (DLTA)
                 (DLTA) (PI) (PI) (SG) (SG) (PI) (PI) (SG) (DLTA)
                 (DLTA) (PI) (PI) (SG) (SG) (SG)
 The electronic state of the initial guess is 1-SG.
 Requested convergence on RMS density matrix=1.00D-10 within 128 cycles.
 Requested convergence on MAX density matrix=1.00D-08.
 Requested convergence on             energy=1.00D-08.
 No special actions if energy rises.
 Initial convergence to 1.0D-05 achieved.  Increase integral accuracy.
 SCF Done:  E(ROHF) =  -3031.96694256     A.U. after   16 cycles
             Convg  =    0.1605D-10             -V/T =  2.0000
 <Sx>= 0.0000 <Sy>= 0.0000 <Sz>= 0.0000 <S**2>= 0.0000 S= 0.0000
 <L.S>= 0.000000000000E+00
 Annihilation of the first spin contaminant:
 S**2 before annihilation     0.0000,   after     0.0000
 GenMOA:  NOpAll=  4 NOp2=4 NOpUse=  4 JSym2X=1
 <Sx>= 0.0000 <Sy>= 0.0000 <Sz>= 0.0000 <S**2>= 0.0000 S= 0.0000
 Range of M.O.s used for correlation:    20   377
 NBasis=   377 NAE=    26 NBE=    26 NFC=    19 NFV=     0
 NROrb=    358 NOA=     7 NOB=     7 NVA=   351 NVB=   351

 **** Warning!!: The largest alpha MO coefficient is  0.76961410D+03


 **** Warning!!: The largest beta MO coefficient is  0.76961410D+03

 Singles contribution to E2=   -0.6303247718D-14
 Disk-based method using OVN memory for  7 occupieds at a time.
 Permanent disk used for amplitudes and <ij||ab> integrals=    17233398 words.
 Estimated scratch disk usage=   989778164 words.
 IUseRI=2 ITolRI= 6 IR12RI=0
 Actual    scratch disk usage=   985235700 words.
 GetIJB would need an additional  1393894296 words of memory to use all   8 processors.
 JobTyp=2 Pass  1:  I=   1 to   7 NPSUse=  1 ParTrn=F ParDer=F DoDerP=F.
 (rs|ai) integrals will be sorted in core.
 T,EIJ(AA): I=   1 J=   2      0.1066158E-03     -0.3940569E-03
 T,EIJ(AA): I=   1 J=   3      0.2632607E-03     -0.9538112E-03
 T,EIJ(AA): I=   1 J=   4      0.3172812E-03     -0.1160901E-02
 T,EIJ(AA): I=   1 J=   5      0.3172812E-03     -0.1160901E-02
 T,EIJ(AA): I=   1 J=   6      0.2327397E-03     -0.8664693E-03
 T,EIJ(AA): I=   1 J=   7      0.2327397E-03     -0.8664693E-03
 T,EIJ(AA): I=   2 J=   3      0.7351359E-03     -0.2018186E-02
 T,EIJ(AA): I=   2 J=   4      0.4713411E-03     -0.1331722E-02
 T,EIJ(AA): I=   2 J=   5      0.4713411E-03     -0.1331722E-02
 T,EIJ(AA): I=   2 J=   6      0.4083565E-03     -0.1250671E-02
 T,EIJ(AA): I=   2 J=   7      0.4083565E-03     -0.1250671E-02
 T,EIJ(AA): I=   3 J=   4      0.1672646E-02     -0.4139537E-02
 T,EIJ(AA): I=   3 J=   5      0.1672646E-02     -0.4139537E-02
 T,EIJ(AA): I=   3 J=   6      0.2501685E-02     -0.5055575E-02
 T,EIJ(AA): I=   3 J=   7      0.2501685E-02     -0.5055575E-02
 T,EIJ(AA): I=   4 J=   5      0.1579425E-02     -0.3968542E-02
 T,EIJ(AA): I=   4 J=   6      0.2761986E-03     -0.6017198E-03
 T,EIJ(AA): I=   4 J=   7      0.1245635E-02     -0.3093381E-02
 T,EIJ(AA): I=   5 J=   6      0.1245635E-02     -0.3093381E-02
 T,EIJ(AA): I=   5 J=   7      0.2761986E-03     -0.6017198E-03
 T,EIJ(AA): I=   6 J=   7      0.1779087E-02     -0.4089962E-02
 T,EIJ(AB): I=   1 J=   1      0.1788396E-02     -0.7795542E-02
 T,EIJ(AB): I=   1 J=   2      0.8216253E-03     -0.3913299E-02
 T,EIJ(AB): I=   1 J=   3      0.1504447E-02     -0.6149270E-02
 T,EIJ(AB): I=   1 J=   4      0.1204380E-02     -0.5033628E-02
 T,EIJ(AB): I=   1 J=   5      0.1204380E-02     -0.5033628E-02
 T,EIJ(AB): I=   1 J=   6      0.8707158E-03     -0.3548332E-02
 T,EIJ(AB): I=   1 J=   7      0.8707158E-03     -0.3548332E-02
 T,EIJ(AB): I=   2 J=   1      0.8216253E-03     -0.3913299E-02
 T,EIJ(AB): I=   2 J=   2      0.2110809E-02     -0.7658465E-02
 T,EIJ(AB): I=   2 J=   3      0.1833351E-02     -0.6179614E-02
 T,EIJ(AB): I=   2 J=   4      0.1266035E-02     -0.4487036E-02
 T,EIJ(AB): I=   2 J=   5      0.1266035E-02     -0.4487036E-02
 T,EIJ(AB): I=   2 J=   6      0.1635367E-02     -0.5833094E-02
 T,EIJ(AB): I=   2 J=   7      0.1635367E-02     -0.5833094E-02
 T,EIJ(AB): I=   3 J=   1      0.1504447E-02     -0.6149270E-02
 T,EIJ(AB): I=   3 J=   2      0.1833351E-02     -0.6179614E-02
 T,EIJ(AB): I=   3 J=   3      0.1140863E-01     -0.2161430E-01
 T,EIJ(AB): I=   3 J=   4      0.2097630E-02     -0.5875469E-02
 T,EIJ(AB): I=   3 J=   5      0.2097630E-02     -0.5875469E-02
 T,EIJ(AB): I=   3 J=   6      0.2838550E-02     -0.6569803E-02
 T,EIJ(AB): I=   3 J=   7      0.2838550E-02     -0.6569803E-02
 T,EIJ(AB): I=   4 J=   1      0.1204380E-02     -0.5033628E-02
 T,EIJ(AB): I=   4 J=   2      0.1266035E-02     -0.4487036E-02
 T,EIJ(AB): I=   4 J=   3      0.2097630E-02     -0.5875469E-02
 T,EIJ(AB): I=   4 J=   4      0.4393121E-02     -0.1210293E-01
 T,EIJ(AB): I=   4 J=   5      0.1989798E-02     -0.5484798E-02
 T,EIJ(AB): I=   4 J=   6      0.3279167E-02     -0.9195713E-02
 T,EIJ(AB): I=   4 J=   7      0.1563006E-02     -0.4254849E-02
 T,EIJ(AB): I=   5 J=   1      0.1204380E-02     -0.5033628E-02
 T,EIJ(AB): I=   5 J=   2      0.1266035E-02     -0.4487036E-02
 T,EIJ(AB): I=   5 J=   3      0.2097630E-02     -0.5875469E-02
 T,EIJ(AB): I=   5 J=   4      0.1989798E-02     -0.5484798E-02
 T,EIJ(AB): I=   5 J=   5      0.4393121E-02     -0.1210293E-01
 T,EIJ(AB): I=   5 J=   6      0.1563006E-02     -0.4254849E-02
 T,EIJ(AB): I=   5 J=   7      0.3279167E-02     -0.9195713E-02
 T,EIJ(AB): I=   6 J=   1      0.8707158E-03     -0.3548332E-02
 T,EIJ(AB): I=   6 J=   2      0.1635367E-02     -0.5833094E-02
 T,EIJ(AB): I=   6 J=   3      0.2838550E-02     -0.6569803E-02
 T,EIJ(AB): I=   6 J=   4      0.3279167E-02     -0.9195713E-02
 T,EIJ(AB): I=   6 J=   5      0.1563006E-02     -0.4254849E-02
 T,EIJ(AB): I=   6 J=   6      0.5195528E-02     -0.1287260E-01
 T,EIJ(AB): I=   6 J=   7      0.2296102E-02     -0.5796373E-02
 T,EIJ(AB): I=   7 J=   1      0.8707158E-03     -0.3548332E-02
 T,EIJ(AB): I=   7 J=   2      0.1635367E-02     -0.5833094E-02
 T,EIJ(AB): I=   7 J=   3      0.2838550E-02     -0.6569803E-02
 T,EIJ(AB): I=   7 J=   4      0.1563006E-02     -0.4254849E-02
 T,EIJ(AB): I=   7 J=   5      0.3279167E-02     -0.9195713E-02
 T,EIJ(AB): I=   7 J=   6      0.2296102E-02     -0.5796373E-02
 T,EIJ(AB): I=   7 J=   7      0.5195528E-02     -0.1287260E-01
 Actual    scratch disk usage=   985235700 words.
 GetIJB would need an additional  1393894296 words of memory to use all   8 processors.
 JobTyp=3 Pass  1:  I=   1 to   7 NPSUse=  1 ParTrn=F ParDer=F DoDerP=F.
 (rs|ai) integrals will be sorted in core.
 T,EIJ(BB): I=   1 J=   2      0.1066158E-03     -0.3940569E-03
 T,EIJ(BB): I=   1 J=   3      0.2632607E-03     -0.9538112E-03
 T,EIJ(BB): I=   1 J=   4      0.3172812E-03     -0.1160901E-02
 T,EIJ(BB): I=   1 J=   5      0.3172812E-03     -0.1160901E-02
 T,EIJ(BB): I=   1 J=   6      0.2327397E-03     -0.8664693E-03
 T,EIJ(BB): I=   1 J=   7      0.2327397E-03     -0.8664693E-03
 T,EIJ(BB): I=   2 J=   3      0.7351359E-03     -0.2018186E-02
 T,EIJ(BB): I=   2 J=   4      0.4713411E-03     -0.1331722E-02
 T,EIJ(BB): I=   2 J=   5      0.4713411E-03     -0.1331722E-02
 T,EIJ(BB): I=   2 J=   6      0.4083565E-03     -0.1250671E-02
 T,EIJ(BB): I=   2 J=   7      0.4083565E-03     -0.1250671E-02
 T,EIJ(BB): I=   3 J=   4      0.1672646E-02     -0.4139537E-02
 T,EIJ(BB): I=   3 J=   5      0.1672646E-02     -0.4139537E-02
 T,EIJ(BB): I=   3 J=   6      0.2501685E-02     -0.5055575E-02
 T,EIJ(BB): I=   3 J=   7      0.2501685E-02     -0.5055575E-02
 T,EIJ(BB): I=   4 J=   5      0.1579425E-02     -0.3968542E-02
 T,EIJ(BB): I=   4 J=   6      0.2761986E-03     -0.6017198E-03
 T,EIJ(BB): I=   4 J=   7      0.1245635E-02     -0.3093381E-02
 T,EIJ(BB): I=   5 J=   6      0.1245635E-02     -0.3093381E-02
 T,EIJ(BB): I=   5 J=   7      0.2761986E-03     -0.6017198E-03
 T,EIJ(BB): I=   6 J=   7      0.1779087E-02     -0.4089962E-02
 Spin components of T(2) and E(2):
     alpha-alpha T2 =       0.1871528895D-01 E2=     -0.4642450945D-01
     alpha-beta  T2 =       0.1103951822D+00 E2=     -0.3212577644D+00
     beta-beta   T2 =       0.1871528895D-01 E2=     -0.4642450945D-01
 ANorm=    0.1071366305D+01
 E2 =    -0.4141067833D+00 EUMP2 =    -0.30323810493384D+04

 Complete Basis Set (CBS) Extrapolation:
 M. R. Nyden and G. A. Petersson, JCP 75, 1843 (1981)
 G. A. Petersson and M. A. Al-Laham, JCP 94, 6081 (1991)
 G. A. Petersson, T. Tensfeldt, and J. A. Montgomery, JCP 94, 6091 (1991)
 J. A. Montgomery, J. W. Ochterski, and G. A. Petersson, JCP 101, 5900 (1994)
 
 Minimum Number of PNO for Extrapolation =  20
 Absolute Overlaps: IRadAn =         5
 LocTrn: ILocal=3 LocCor=F DoCore=F.
 Entering OneElI...
 Overlap between basis sets.
 Requested accuracy = 0.1000D-12
 PrsmSu:  NPrtUS=   1 ThrOK=F IAlg=1
 PRISM was handed  1609996044 working-precision words and    94 shell-pairs
 IPart=  0 NShTot=          94 NBatch=          14 AvBLen=         6.7
 CnvPC2: ToCart=F DoDens=F IPureD=0 IPureF=0.
 Transformed matrix in CnvPC2: 
                 1             2             3             4             5 
      1   0.100000D+01  0.406589D+00  0.000000D+00  0.000000D+00  0.000000D+00
      2   0.406589D+00  0.100000D+01  0.000000D+00  0.000000D+00  0.000000D+00
      3   0.000000D+00  0.000000D+00  0.100000D+01  0.000000D+00  0.000000D+00
      4   0.000000D+00  0.000000D+00  0.000000D+00  0.100000D+01  0.000000D+00
      5   0.000000D+00  0.000000D+00  0.000000D+00  0.000000D+00  0.100000D+01
      6   0.319944D-01  0.362204D+00  0.000000D+00  0.000000D+00  0.000000D+00
      7   0.000000D+00  0.000000D+00  0.375020D+00  0.000000D+00  0.000000D+00
      8   0.000000D+00  0.000000D+00  0.000000D+00  0.375020D+00  0.000000D+00
      9   0.000000D+00  0.000000D+00  0.000000D+00  0.000000D+00  0.375020D+00
     10   0.000000D+00  0.000000D+00  0.000000D+00  0.000000D+00  0.000000D+00
     11   0.000000D+00  0.000000D+00  0.000000D+00  0.000000D+00  0.000000D+00
     12   0.000000D+00  0.000000D+00  0.000000D+00  0.000000D+00  0.000000D+00
     13   0.000000D+00  0.000000D+00  0.000000D+00  0.000000D+00  0.000000D+00
     14   0.000000D+00  0.000000D+00  0.000000D+00  0.000000D+00  0.000000D+00
     15  -0.396207D-03  0.612395D-02  0.000000D+00  0.000000D+00  0.000000D+00
     16   0.000000D+00  0.000000D+00  0.149285D-01  0.000000D+00  0.000000D+00
     17   0.000000D+00  0.000000D+00  0.000000D+00  0.149285D-01  0.000000D+00
     18   0.000000D+00  0.000000D+00  0.000000D+00  0.000000D+00  0.149285D-01
     19   0.000000D+00  0.000000D+00  0.000000D+00  0.000000D+00  0.000000D+00
     20   0.000000D+00  0.000000D+00  0.000000D+00  0.000000D+00  0.000000D+00
     21   0.000000D+00  0.000000D+00  0.000000D+00  0.000000D+00  0.000000D+00
     22   0.000000D+00  0.000000D+00  0.000000D+00  0.000000D+00  0.000000D+00
     23   0.000000D+00  0.000000D+00  0.000000D+00  0.000000D+00  0.000000D+00
     24   0.000000D+00  0.000000D+00  0.000000D+00  0.000000D+00  0.000000D+00
     25   0.000000D+00  0.000000D+00  0.000000D+00  0.000000D+00  0.000000D+00
     26   0.000000D+00  0.000000D+00  0.000000D+00  0.000000D+00  0.000000D+00
     27   0.000000D+00  0.000000D+00  0.000000D+00  0.000000D+00  0.000000D+00
     28   0.000000D+00  0.000000D+00  0.000000D+00  0.000000D+00  0.000000D+00
     29   0.333744D-03  0.207114D-02  0.000000D+00  0.000000D+00 -0.602045D-03
     30   0.000000D+00  0.000000D+00  0.160215D-03  0.000000D+00  0.000000D+00
     31   0.000000D+00  0.000000D+00  0.000000D+00  0.160215D-03  0.000000D+00
     32   0.672618D-03  0.413705D-02  0.000000D+00  0.000000D+00 -0.106507D-02
     33   0.617302D-03  0.393026D-02  0.000000D+00  0.000000D+00 -0.158888D-02
     34   0.000000D+00  0.000000D+00  0.262791D-03  0.000000D+00  0.000000D+00
     35   0.000000D+00  0.000000D+00  0.000000D+00  0.262791D-03  0.000000D+00
     36   0.000000D+00  0.000000D+00  0.000000D+00  0.000000D+00  0.000000D+00
     37   0.000000D+00  0.000000D+00  0.000000D+00  0.000000D+00  0.000000D+00
                 6             7             8             9            10 
      1   0.319944D-01  0.000000D+00  0.000000D+00  0.000000D+00  0.000000D+00
      2   0.362204D+00  0.000000D+00  0.000000D+00  0.000000D+00  0.000000D+00
      3   0.000000D+00  0.375020D+00  0.000000D+00  0.000000D+00  0.000000D+00
      4   0.000000D+00  0.000000D+00  0.375020D+00  0.000000D+00  0.000000D+00
      5   0.000000D+00  0.000000D+00  0.000000D+00  0.375020D+00  0.000000D+00
      6   0.100000D+01  0.000000D+00  0.000000D+00  0.000000D+00  0.000000D+00
      7   0.000000D+00  0.100000D+01  0.000000D+00  0.000000D+00  0.000000D+00
      8   0.000000D+00  0.000000D+00  0.100000D+01  0.000000D+00  0.000000D+00
      9   0.000000D+00  0.000000D+00  0.000000D+00  0.100000D+01  0.000000D+00
     10   0.000000D+00  0.000000D+00  0.000000D+00  0.000000D+00  0.100000D+01
     11   0.000000D+00  0.000000D+00  0.000000D+00  0.000000D+00  0.000000D+00
     12   0.000000D+00  0.000000D+00  0.000000D+00  0.000000D+00  0.000000D+00
     13   0.000000D+00  0.000000D+00  0.000000D+00  0.000000D+00  0.000000D+00
     14   0.000000D+00  0.000000D+00  0.000000D+00  0.000000D+00  0.000000D+00
     15   0.201919D+00  0.000000D+00  0.000000D+00  0.000000D+00  0.000000D+00
     16   0.000000D+00  0.218356D+00  0.000000D+00  0.000000D+00  0.000000D+00
     17   0.000000D+00  0.000000D+00  0.218356D+00  0.000000D+00  0.000000D+00
     18   0.000000D+00  0.000000D+00  0.000000D+00  0.218356D+00  0.000000D+00
     19   0.000000D+00  0.000000D+00  0.000000D+00  0.000000D+00  0.404997D-01
     20   0.000000D+00  0.000000D+00  0.000000D+00  0.000000D+00  0.000000D+00
     21   0.000000D+00  0.000000D+00  0.000000D+00  0.000000D+00  0.000000D+00
     22   0.000000D+00  0.000000D+00  0.000000D+00  0.000000D+00  0.000000D+00
     23   0.000000D+00  0.000000D+00  0.000000D+00  0.000000D+00  0.000000D+00
     24   0.000000D+00  0.000000D+00  0.000000D+00  0.000000D+00  0.000000D+00
     25   0.000000D+00  0.000000D+00  0.000000D+00  0.000000D+00  0.000000D+00
     26   0.000000D+00  0.000000D+00  0.000000D+00  0.000000D+00  0.000000D+00
     27   0.000000D+00  0.000000D+00  0.000000D+00  0.000000D+00  0.000000D+00
     28   0.000000D+00  0.000000D+00  0.000000D+00  0.000000D+00  0.000000D+00
     29   0.124124D-01  0.000000D+00  0.000000D+00 -0.938800D-02  0.394659D-02
     30   0.000000D+00  0.253713D-02  0.000000D+00  0.000000D+00  0.000000D+00
     31   0.000000D+00  0.000000D+00  0.253713D-02  0.000000D+00  0.000000D+00
     32   0.233675D-01  0.000000D+00  0.000000D+00 -0.159744D-01  0.621950D-02
     33   0.269255D-01  0.000000D+00  0.000000D+00 -0.259556D-01  0.139154D-01
     34   0.000000D+00  0.493675D-02  0.000000D+00  0.000000D+00  0.000000D+00
     35   0.000000D+00  0.000000D+00  0.493675D-02  0.000000D+00  0.000000D+00
     36   0.000000D+00  0.000000D+00  0.000000D+00  0.000000D+00  0.000000D+00
     37   0.000000D+00  0.000000D+00  0.000000D+00  0.000000D+00  0.000000D+00
                11            12            13            14            15 
      1   0.000000D+00  0.000000D+00  0.000000D+00  0.000000D+00 -0.396207D-03
      2   0.000000D+00  0.000000D+00  0.000000D+00  0.000000D+00  0.612395D-02
      3   0.000000D+00  0.000000D+00  0.000000D+00  0.000000D+00  0.000000D+00
      4   0.000000D+00  0.000000D+00  0.000000D+00  0.000000D+00  0.000000D+00
      5   0.000000D+00  0.000000D+00  0.000000D+00  0.000000D+00  0.000000D+00
      6   0.000000D+00  0.000000D+00  0.000000D+00  0.000000D+00  0.201919D+00
      7   0.000000D+00  0.000000D+00  0.000000D+00  0.000000D+00  0.000000D+00
      8   0.000000D+00  0.000000D+00  0.000000D+00  0.000000D+00  0.000000D+00
      9   0.000000D+00  0.000000D+00  0.000000D+00  0.000000D+00  0.000000D+00
     10   0.000000D+00  0.000000D+00  0.000000D+00  0.000000D+00  0.000000D+00
     11   0.100000D+01  0.000000D+00  0.000000D+00  0.000000D+00  0.000000D+00
     12   0.000000D+00  0.100000D+01  0.000000D+00  0.000000D+00  0.000000D+00
     13   0.000000D+00  0.000000D+00  0.100000D+01  0.000000D+00  0.000000D+00
     14   0.000000D+00  0.000000D+00  0.000000D+00  0.100000D+01  0.000000D+00
     15   0.000000D+00  0.000000D+00  0.000000D+00  0.000000D+00  0.100000D+01
     16   0.000000D+00  0.000000D+00  0.000000D+00  0.000000D+00  0.000000D+00
     17   0.000000D+00  0.000000D+00  0.000000D+00  0.000000D+00  0.000000D+00
     18   0.000000D+00  0.000000D+00  0.000000D+00  0.000000D+00  0.000000D+00
     19   0.000000D+00  0.000000D+00  0.000000D+00  0.000000D+00  0.000000D+00
     20   0.404997D-01  0.000000D+00  0.000000D+00  0.000000D+00  0.000000D+00
     21   0.000000D+00  0.404997D-01  0.000000D+00  0.000000D+00  0.000000D+00
     22   0.000000D+00  0.000000D+00  0.404997D-01  0.000000D+00  0.000000D+00
     23   0.000000D+00  0.000000D+00  0.000000D+00  0.404997D-01  0.000000D+00
     24   0.000000D+00  0.000000D+00  0.000000D+00  0.000000D+00  0.136470D-02
     25   0.000000D+00  0.000000D+00  0.000000D+00  0.000000D+00  0.113284D-01
     26   0.000000D+00  0.000000D+00  0.000000D+00  0.000000D+00  0.000000D+00
     27   0.000000D+00  0.000000D+00  0.000000D+00  0.000000D+00  0.000000D+00
     28   0.000000D+00  0.000000D+00  0.000000D+00  0.000000D+00  0.720737D-02
     29   0.000000D+00  0.000000D+00  0.000000D+00  0.000000D+00  0.161999D+00
     30  -0.190005D-02  0.000000D+00  0.000000D+00  0.000000D+00  0.000000D+00
     31   0.000000D+00 -0.190005D-02  0.000000D+00  0.000000D+00  0.000000D+00
     32   0.000000D+00  0.000000D+00  0.000000D+00  0.000000D+00  0.212309D+00
     33   0.000000D+00  0.000000D+00  0.000000D+00  0.000000D+00  0.193392D+00
     34  -0.510591D-02  0.000000D+00  0.000000D+00  0.000000D+00  0.000000D+00
     35   0.000000D+00 -0.510591D-02  0.000000D+00  0.000000D+00  0.000000D+00
     36   0.000000D+00  0.000000D+00  0.502890D-03  0.000000D+00  0.000000D+00
     37   0.000000D+00  0.000000D+00  0.000000D+00  0.502890D-03  0.000000D+00
                16            17            18            19            20 
      1   0.000000D+00  0.000000D+00  0.000000D+00  0.000000D+00  0.000000D+00
      2   0.000000D+00  0.000000D+00  0.000000D+00  0.000000D+00  0.000000D+00
      3   0.149285D-01  0.000000D+00  0.000000D+00  0.000000D+00  0.000000D+00
      4   0.000000D+00  0.149285D-01  0.000000D+00  0.000000D+00  0.000000D+00
      5   0.000000D+00  0.000000D+00  0.149285D-01  0.000000D+00  0.000000D+00
      6   0.000000D+00  0.000000D+00  0.000000D+00  0.000000D+00  0.000000D+00
      7   0.218356D+00  0.000000D+00  0.000000D+00  0.000000D+00  0.000000D+00
      8   0.000000D+00  0.218356D+00  0.000000D+00  0.000000D+00  0.000000D+00
      9   0.000000D+00  0.000000D+00  0.218356D+00  0.000000D+00  0.000000D+00
     10   0.000000D+00  0.000000D+00  0.000000D+00  0.404997D-01  0.000000D+00
     11   0.000000D+00  0.000000D+00  0.000000D+00  0.000000D+00  0.404997D-01
     12   0.000000D+00  0.000000D+00  0.000000D+00  0.000000D+00  0.000000D+00
     13   0.000000D+00  0.000000D+00  0.000000D+00  0.000000D+00  0.000000D+00
     14   0.000000D+00  0.000000D+00  0.000000D+00  0.000000D+00  0.000000D+00
     15   0.000000D+00  0.000000D+00  0.000000D+00  0.000000D+00  0.000000D+00
     16   0.100000D+01  0.000000D+00  0.000000D+00  0.000000D+00  0.000000D+00
     17   0.000000D+00  0.100000D+01  0.000000D+00  0.000000D+00  0.000000D+00
     18   0.000000D+00  0.000000D+00  0.100000D+01  0.000000D+00  0.000000D+00
     19   0.000000D+00  0.000000D+00  0.000000D+00  0.100000D+01  0.000000D+00
     20   0.000000D+00  0.000000D+00  0.000000D+00  0.000000D+00  0.100000D+01
     21   0.000000D+00  0.000000D+00  0.000000D+00  0.000000D+00  0.000000D+00
     22   0.000000D+00  0.000000D+00  0.000000D+00  0.000000D+00  0.000000D+00
     23   0.000000D+00  0.000000D+00  0.000000D+00  0.000000D+00  0.000000D+00
     24   0.000000D+00  0.000000D+00 -0.261188D-02  0.155832D-01  0.000000D+00
     25   0.000000D+00  0.000000D+00 -0.209008D-01  0.110095D+00  0.000000D+00
     26   0.191063D-02  0.000000D+00  0.000000D+00  0.000000D+00 -0.176295D-01
     27   0.000000D+00  0.191063D-02  0.000000D+00  0.000000D+00  0.000000D+00
     28   0.000000D+00  0.000000D+00 -0.121338D-01  0.335544D-01  0.000000D+00
     29   0.000000D+00  0.000000D+00 -0.222499D+00  0.422700D+00  0.000000D+00
     30   0.748645D-01  0.000000D+00  0.000000D+00  0.000000D+00 -0.287255D+00
     31   0.000000D+00  0.748645D-01  0.000000D+00  0.000000D+00  0.000000D+00
     32   0.000000D+00  0.000000D+00 -0.273573D+00  0.271722D+00  0.000000D+00
     33   0.000000D+00  0.000000D+00 -0.259628D+00  0.885825D-01  0.000000D+00
     34   0.130776D+00  0.000000D+00  0.000000D+00  0.000000D+00 -0.309665D+00
     35   0.000000D+00  0.130776D+00  0.000000D+00  0.000000D+00  0.000000D+00
     36   0.000000D+00  0.000000D+00  0.000000D+00  0.000000D+00  0.000000D+00
     37   0.000000D+00  0.000000D+00  0.000000D+00  0.000000D+00  0.000000D+00
                21            22            23            24            25 
      1   0.000000D+00  0.000000D+00  0.000000D+00  0.000000D+00  0.000000D+00
      2   0.000000D+00  0.000000D+00  0.000000D+00  0.000000D+00  0.000000D+00
      3   0.000000D+00  0.000000D+00  0.000000D+00  0.000000D+00  0.000000D+00
      4   0.000000D+00  0.000000D+00  0.000000D+00  0.000000D+00  0.000000D+00
      5   0.000000D+00  0.000000D+00  0.000000D+00  0.000000D+00  0.000000D+00
      6   0.000000D+00  0.000000D+00  0.000000D+00  0.000000D+00  0.000000D+00
      7   0.000000D+00  0.000000D+00  0.000000D+00  0.000000D+00  0.000000D+00
      8   0.000000D+00  0.000000D+00  0.000000D+00  0.000000D+00  0.000000D+00
      9   0.000000D+00  0.000000D+00  0.000000D+00  0.000000D+00  0.000000D+00
     10   0.000000D+00  0.000000D+00  0.000000D+00  0.000000D+00  0.000000D+00
     11   0.000000D+00  0.000000D+00  0.000000D+00  0.000000D+00  0.000000D+00
     12   0.404997D-01  0.000000D+00  0.000000D+00  0.000000D+00  0.000000D+00
     13   0.000000D+00  0.404997D-01  0.000000D+00  0.000000D+00  0.000000D+00
     14   0.000000D+00  0.000000D+00  0.404997D-01  0.000000D+00  0.000000D+00
     15   0.000000D+00  0.000000D+00  0.000000D+00  0.136470D-02  0.113284D-01
     16   0.000000D+00  0.000000D+00  0.000000D+00  0.000000D+00  0.000000D+00
     17   0.000000D+00  0.000000D+00  0.000000D+00  0.000000D+00  0.000000D+00
     18   0.000000D+00  0.000000D+00  0.000000D+00 -0.261188D-02 -0.209008D-01
     19   0.000000D+00  0.000000D+00  0.000000D+00  0.155832D-01  0.110095D+00
     20   0.000000D+00  0.000000D+00  0.000000D+00  0.000000D+00  0.000000D+00
     21   0.100000D+01  0.000000D+00  0.000000D+00  0.000000D+00  0.000000D+00
     22   0.000000D+00  0.100000D+01  0.000000D+00  0.000000D+00  0.000000D+00
     23   0.000000D+00  0.000000D+00  0.100000D+01  0.000000D+00  0.000000D+00
     24   0.000000D+00  0.000000D+00  0.000000D+00  0.100000D+01  0.343801D+00
     25   0.000000D+00  0.000000D+00  0.000000D+00  0.343801D+00  0.100000D+01
     26   0.000000D+00  0.000000D+00  0.000000D+00  0.000000D+00  0.000000D+00
     27  -0.176295D-01  0.000000D+00  0.000000D+00  0.000000D+00  0.000000D+00
     28   0.000000D+00  0.000000D+00  0.000000D+00  0.000000D+00  0.000000D+00
     29   0.000000D+00  0.000000D+00  0.000000D+00  0.132695D-01  0.218484D+00
     30   0.000000D+00  0.000000D+00  0.000000D+00  0.000000D+00  0.000000D+00
     31  -0.287255D+00  0.000000D+00  0.000000D+00  0.000000D+00  0.000000D+00
     32   0.000000D+00  0.000000D+00  0.000000D+00  0.000000D+00  0.000000D+00
     33   0.000000D+00  0.000000D+00  0.000000D+00  0.000000D+00  0.000000D+00
     34   0.000000D+00  0.000000D+00  0.000000D+00  0.000000D+00  0.000000D+00
     35  -0.309665D+00  0.000000D+00  0.000000D+00  0.000000D+00  0.000000D+00
     36   0.000000D+00  0.108344D+00  0.000000D+00  0.000000D+00  0.000000D+00
     37   0.000000D+00  0.000000D+00  0.108344D+00  0.000000D+00  0.000000D+00
                26            27            28            29            30 
      1   0.000000D+00  0.000000D+00  0.000000D+00  0.333744D-03  0.000000D+00
      2   0.000000D+00  0.000000D+00  0.000000D+00  0.207114D-02  0.000000D+00
      3   0.000000D+00  0.000000D+00  0.000000D+00  0.000000D+00  0.160215D-03
      4   0.000000D+00  0.000000D+00  0.000000D+00  0.000000D+00  0.000000D+00
      5   0.000000D+00  0.000000D+00  0.000000D+00 -0.602045D-03  0.000000D+00
      6   0.000000D+00  0.000000D+00  0.000000D+00  0.124124D-01  0.000000D+00
      7   0.000000D+00  0.000000D+00  0.000000D+00  0.000000D+00  0.253713D-02
      8   0.000000D+00  0.000000D+00  0.000000D+00  0.000000D+00  0.000000D+00
      9   0.000000D+00  0.000000D+00  0.000000D+00 -0.938800D-02  0.000000D+00
     10   0.000000D+00  0.000000D+00  0.000000D+00  0.394659D-02  0.000000D+00
     11   0.000000D+00  0.000000D+00  0.000000D+00  0.000000D+00 -0.190005D-02
     12   0.000000D+00  0.000000D+00  0.000000D+00  0.000000D+00  0.000000D+00
     13   0.000000D+00  0.000000D+00  0.000000D+00  0.000000D+00  0.000000D+00
     14   0.000000D+00  0.000000D+00  0.000000D+00  0.000000D+00  0.000000D+00
     15   0.000000D+00  0.000000D+00  0.720737D-02  0.161999D+00  0.000000D+00
     16   0.191063D-02  0.000000D+00  0.000000D+00  0.000000D+00  0.748645D-01
     17   0.000000D+00  0.191063D-02  0.000000D+00  0.000000D+00  0.000000D+00
     18   0.000000D+00  0.000000D+00 -0.121338D-01 -0.222499D+00  0.000000D+00
     19   0.000000D+00  0.000000D+00  0.335544D-01  0.422700D+00  0.000000D+00
     20  -0.176295D-01  0.000000D+00  0.000000D+00  0.000000D+00 -0.287255D+00
     21   0.000000D+00 -0.176295D-01  0.000000D+00  0.000000D+00  0.000000D+00
     22   0.000000D+00  0.000000D+00  0.000000D+00  0.000000D+00  0.000000D+00
     23   0.000000D+00  0.000000D+00  0.000000D+00  0.000000D+00  0.000000D+00
     24   0.000000D+00  0.000000D+00  0.000000D+00  0.132695D-01  0.000000D+00
     25   0.000000D+00  0.000000D+00  0.000000D+00  0.218484D+00  0.000000D+00
     26   0.100000D+01  0.000000D+00  0.000000D+00  0.000000D+00  0.232586D+00
     27   0.000000D+00  0.100000D+01  0.000000D+00  0.000000D+00  0.000000D+00
     28   0.000000D+00  0.000000D+00  0.100000D+01  0.000000D+00  0.000000D+00
     29   0.000000D+00  0.000000D+00  0.000000D+00  0.100000D+01  0.000000D+00
     30   0.232586D+00  0.000000D+00  0.000000D+00  0.000000D+00  0.100000D+01
     31   0.000000D+00  0.232586D+00  0.000000D+00  0.000000D+00  0.000000D+00
     32   0.000000D+00  0.000000D+00  0.232586D+00  0.000000D+00  0.000000D+00
     33   0.000000D+00  0.000000D+00  0.000000D+00  0.000000D+00  0.000000D+00
     34   0.000000D+00  0.000000D+00  0.000000D+00  0.000000D+00  0.000000D+00
     35   0.000000D+00  0.000000D+00  0.000000D+00  0.000000D+00  0.000000D+00
     36   0.000000D+00  0.000000D+00  0.000000D+00  0.000000D+00  0.000000D+00
     37   0.000000D+00  0.000000D+00  0.000000D+00  0.000000D+00  0.000000D+00
                31            32            33            34            35 
      1   0.000000D+00  0.672618D-03  0.617302D-03  0.000000D+00  0.000000D+00
      2   0.000000D+00  0.413705D-02  0.393026D-02  0.000000D+00  0.000000D+00
      3   0.000000D+00  0.000000D+00  0.000000D+00  0.262791D-03  0.000000D+00
      4   0.160215D-03  0.000000D+00  0.000000D+00  0.000000D+00  0.262791D-03
      5   0.000000D+00 -0.106507D-02 -0.158888D-02  0.000000D+00  0.000000D+00
      6   0.000000D+00  0.233675D-01  0.269255D-01  0.000000D+00  0.000000D+00
      7   0.000000D+00  0.000000D+00  0.000000D+00  0.493675D-02  0.000000D+00
      8   0.253713D-02  0.000000D+00  0.000000D+00  0.000000D+00  0.493675D-02
      9   0.000000D+00 -0.159744D-01 -0.259556D-01  0.000000D+00  0.000000D+00
     10   0.000000D+00  0.621950D-02  0.139154D-01  0.000000D+00  0.000000D+00
     11   0.000000D+00  0.000000D+00  0.000000D+00 -0.510591D-02  0.000000D+00
     12  -0.190005D-02  0.000000D+00  0.000000D+00  0.000000D+00 -0.510591D-02
     13   0.000000D+00  0.000000D+00  0.000000D+00  0.000000D+00  0.000000D+00
     14   0.000000D+00  0.000000D+00  0.000000D+00  0.000000D+00  0.000000D+00
     15   0.000000D+00  0.212309D+00  0.193392D+00  0.000000D+00  0.000000D+00
     16   0.000000D+00  0.000000D+00  0.000000D+00  0.130776D+00  0.000000D+00
     17   0.748645D-01  0.000000D+00  0.000000D+00  0.000000D+00  0.130776D+00
     18   0.000000D+00 -0.273573D+00 -0.259628D+00  0.000000D+00  0.000000D+00
     19   0.000000D+00  0.271722D+00  0.885825D-01  0.000000D+00  0.000000D+00
     20   0.000000D+00  0.000000D+00  0.000000D+00 -0.309665D+00  0.000000D+00
     21  -0.287255D+00  0.000000D+00  0.000000D+00  0.000000D+00 -0.309665D+00
     22   0.000000D+00  0.000000D+00  0.000000D+00  0.000000D+00  0.000000D+00
     23   0.000000D+00  0.000000D+00  0.000000D+00  0.000000D+00  0.000000D+00
     24   0.000000D+00  0.000000D+00  0.000000D+00  0.000000D+00  0.000000D+00
     25   0.000000D+00  0.000000D+00  0.000000D+00  0.000000D+00  0.000000D+00
     26   0.000000D+00  0.000000D+00  0.000000D+00  0.000000D+00  0.000000D+00
     27   0.232586D+00  0.000000D+00  0.000000D+00  0.000000D+00  0.000000D+00
     28   0.000000D+00  0.232586D+00  0.000000D+00  0.000000D+00  0.000000D+00
     29   0.000000D+00  0.000000D+00  0.000000D+00  0.000000D+00  0.000000D+00
     30   0.000000D+00  0.000000D+00  0.000000D+00  0.000000D+00  0.000000D+00
     31   0.100000D+01  0.000000D+00  0.000000D+00  0.000000D+00  0.000000D+00
     32   0.000000D+00  0.100000D+01  0.000000D+00  0.000000D+00  0.000000D+00
     33   0.000000D+00  0.000000D+00  0.100000D+01  0.000000D+00  0.000000D+00
     34   0.000000D+00  0.000000D+00  0.000000D+00  0.100000D+01  0.000000D+00
     35   0.000000D+00  0.000000D+00  0.000000D+00  0.000000D+00  0.100000D+01
     36   0.000000D+00  0.000000D+00  0.000000D+00  0.000000D+00  0.000000D+00
     37   0.000000D+00  0.000000D+00  0.000000D+00  0.000000D+00  0.000000D+00
                36            37 
      1   0.000000D+00  0.000000D+00
      2   0.000000D+00  0.000000D+00
      3   0.000000D+00  0.000000D+00
      4   0.000000D+00  0.000000D+00
      5   0.000000D+00  0.000000D+00
      6   0.000000D+00  0.000000D+00
      7   0.000000D+00  0.000000D+00
      8   0.000000D+00  0.000000D+00
      9   0.000000D+00  0.000000D+00
     10   0.000000D+00  0.000000D+00
     11   0.000000D+00  0.000000D+00
     12   0.000000D+00  0.000000D+00
     13   0.502890D-03  0.000000D+00
     14   0.000000D+00  0.502890D-03
     15   0.000000D+00  0.000000D+00
     16   0.000000D+00  0.000000D+00
     17   0.000000D+00  0.000000D+00
     18   0.000000D+00  0.000000D+00
     19   0.000000D+00  0.000000D+00
     20   0.000000D+00  0.000000D+00
     21   0.000000D+00  0.000000D+00
     22   0.108344D+00  0.000000D+00
     23   0.000000D+00  0.108344D+00
     24   0.000000D+00  0.000000D+00
     25   0.000000D+00  0.000000D+00
     26   0.000000D+00  0.000000D+00
     27   0.000000D+00  0.000000D+00
     28   0.000000D+00  0.000000D+00
     29   0.000000D+00  0.000000D+00
     30   0.000000D+00  0.000000D+00
     31   0.000000D+00  0.000000D+00
     32   0.000000D+00  0.000000D+00
     33   0.000000D+00  0.000000D+00
     34   0.000000D+00  0.000000D+00
     35   0.000000D+00  0.000000D+00
     36   0.100000D+01  0.000000D+00
     37   0.000000D+00  0.100000D+01
 Entering OneElI...
 Overlap between basis sets.
 Requested accuracy = 0.1000D-12
 PrsmSu:  NPrtUS=   1 ThrOK=F IAlg=1
 PRISM was handed  1609513768 working-precision words and   756 shell-pairs
 IPart=  0 NShTot=         756 NBatch=         102 AvBLen=         7.4
 CnvPC2: ToCart=F DoDens=F IPureD=0 IPureF=0.
 Transformed matrix in CnvPC2: 
                 1             2             3             4             5 
      1   0.999804D+00  0.413527D+00  0.000000D+00  0.000000D+00  0.000000D+00
      2   0.291769D+00  0.988278D+00  0.000000D+00  0.000000D+00  0.000000D+00
      3   0.000000D+00  0.000000D+00  0.999290D+00  0.000000D+00  0.000000D+00
      4   0.000000D+00  0.000000D+00  0.000000D+00  0.999290D+00  0.000000D+00
      5   0.000000D+00  0.000000D+00  0.000000D+00  0.000000D+00  0.999290D+00
      6   0.131062D-01  0.329302D+00  0.000000D+00  0.000000D+00  0.000000D+00
      7   0.000000D+00  0.000000D+00  0.360301D+00  0.000000D+00  0.000000D+00
      8   0.000000D+00  0.000000D+00  0.000000D+00  0.360301D+00  0.000000D+00
      9   0.000000D+00  0.000000D+00  0.000000D+00  0.000000D+00  0.360301D+00
     10   0.000000D+00  0.000000D+00  0.000000D+00  0.000000D+00  0.000000D+00
     11   0.000000D+00  0.000000D+00  0.000000D+00  0.000000D+00  0.000000D+00
     12   0.000000D+00  0.000000D+00  0.000000D+00  0.000000D+00  0.000000D+00
     13   0.000000D+00  0.000000D+00  0.000000D+00  0.000000D+00  0.000000D+00
     14   0.000000D+00  0.000000D+00  0.000000D+00  0.000000D+00  0.000000D+00
     15   0.504482D-03  0.202677D-01  0.000000D+00  0.000000D+00  0.000000D+00
     16   0.502381D-02  0.303046D-01  0.000000D+00  0.000000D+00  0.000000D+00
     17   0.000000D+00  0.000000D+00  0.121678D-01  0.000000D+00  0.000000D+00
     18   0.000000D+00  0.000000D+00  0.000000D+00  0.121678D-01  0.000000D+00
     19   0.000000D+00  0.000000D+00  0.000000D+00  0.000000D+00  0.121678D-01
     20   0.000000D+00  0.000000D+00  0.315462D-02  0.000000D+00  0.000000D+00
     21   0.000000D+00  0.000000D+00  0.000000D+00  0.315462D-02  0.000000D+00
     22   0.000000D+00  0.000000D+00  0.000000D+00  0.000000D+00  0.315462D-02
     23   0.000000D+00  0.000000D+00  0.102624D-02  0.000000D+00  0.000000D+00
     24   0.000000D+00  0.000000D+00  0.000000D+00  0.102624D-02  0.000000D+00
     25   0.000000D+00  0.000000D+00  0.000000D+00  0.000000D+00  0.102624D-02
     26   0.698171D-01  0.378499D+00  0.000000D+00  0.000000D+00  0.000000D+00
     27   0.431767D-01  0.246355D+00  0.000000D+00  0.000000D+00  0.000000D+00
     28   0.266153D-01  0.156139D+00  0.000000D+00  0.000000D+00  0.000000D+00
     29   0.163786D-01  0.975199D-01  0.000000D+00  0.000000D+00  0.000000D+00
     30   0.100701D-01  0.604294D-01  0.000000D+00  0.000000D+00  0.000000D+00
     31   0.000000D+00  0.000000D+00  0.188888D+00  0.000000D+00  0.000000D+00
     32   0.000000D+00  0.000000D+00  0.000000D+00  0.188888D+00  0.000000D+00
     33   0.000000D+00  0.000000D+00  0.000000D+00  0.000000D+00  0.188888D+00
     34   0.000000D+00  0.000000D+00  0.102114D+00  0.000000D+00  0.000000D+00
     35   0.000000D+00  0.000000D+00  0.000000D+00  0.102114D+00  0.000000D+00
     36   0.000000D+00  0.000000D+00  0.000000D+00  0.000000D+00  0.102114D+00
     37   0.000000D+00  0.000000D+00  0.529744D-01  0.000000D+00  0.000000D+00
     38   0.000000D+00  0.000000D+00  0.000000D+00  0.529744D-01  0.000000D+00
     39   0.000000D+00  0.000000D+00  0.000000D+00  0.000000D+00  0.529744D-01
     40   0.000000D+00  0.000000D+00  0.267992D-01  0.000000D+00  0.000000D+00
     41   0.000000D+00  0.000000D+00  0.000000D+00  0.267992D-01  0.000000D+00
     42   0.000000D+00  0.000000D+00  0.000000D+00  0.000000D+00  0.267992D-01
     43   0.000000D+00  0.000000D+00  0.133577D-01  0.000000D+00  0.000000D+00
     44   0.000000D+00  0.000000D+00  0.000000D+00  0.133577D-01  0.000000D+00
     45   0.000000D+00  0.000000D+00  0.000000D+00  0.000000D+00  0.133577D-01
     46   0.000000D+00  0.000000D+00  0.000000D+00  0.000000D+00  0.000000D+00
     47   0.000000D+00  0.000000D+00  0.000000D+00  0.000000D+00  0.000000D+00
     48   0.000000D+00  0.000000D+00  0.000000D+00  0.000000D+00  0.000000D+00
     49   0.000000D+00  0.000000D+00  0.000000D+00  0.000000D+00  0.000000D+00
     50   0.000000D+00  0.000000D+00  0.000000D+00  0.000000D+00  0.000000D+00
     51   0.000000D+00  0.000000D+00  0.000000D+00  0.000000D+00  0.000000D+00
     52   0.000000D+00  0.000000D+00  0.000000D+00  0.000000D+00  0.000000D+00
     53   0.000000D+00  0.000000D+00  0.000000D+00  0.000000D+00  0.000000D+00
     54   0.000000D+00  0.000000D+00  0.000000D+00  0.000000D+00  0.000000D+00
     55   0.000000D+00  0.000000D+00  0.000000D+00  0.000000D+00  0.000000D+00
     56   0.000000D+00  0.000000D+00  0.000000D+00  0.000000D+00  0.000000D+00
     57   0.000000D+00  0.000000D+00  0.000000D+00  0.000000D+00  0.000000D+00
     58   0.000000D+00  0.000000D+00  0.000000D+00  0.000000D+00  0.000000D+00
     59   0.000000D+00  0.000000D+00  0.000000D+00  0.000000D+00  0.000000D+00
     60   0.000000D+00  0.000000D+00  0.000000D+00  0.000000D+00  0.000000D+00
     61   0.000000D+00  0.000000D+00  0.000000D+00  0.000000D+00  0.000000D+00
     62   0.000000D+00  0.000000D+00  0.000000D+00  0.000000D+00  0.000000D+00
     63   0.000000D+00  0.000000D+00  0.000000D+00  0.000000D+00  0.000000D+00
     64   0.000000D+00  0.000000D+00  0.000000D+00  0.000000D+00  0.000000D+00
     65   0.000000D+00  0.000000D+00  0.000000D+00  0.000000D+00  0.000000D+00
     66   0.000000D+00  0.000000D+00  0.000000D+00  0.000000D+00  0.000000D+00
     67   0.000000D+00  0.000000D+00  0.000000D+00  0.000000D+00  0.000000D+00
     68   0.000000D+00  0.000000D+00  0.000000D+00  0.000000D+00  0.000000D+00
     69   0.000000D+00  0.000000D+00  0.000000D+00  0.000000D+00  0.000000D+00
     70   0.000000D+00  0.000000D+00  0.000000D+00  0.000000D+00  0.000000D+00
     71   0.000000D+00  0.000000D+00  0.000000D+00  0.000000D+00  0.000000D+00
     72   0.000000D+00  0.000000D+00  0.000000D+00  0.000000D+00  0.000000D+00
     73   0.000000D+00  0.000000D+00  0.000000D+00  0.000000D+00  0.000000D+00
     74   0.000000D+00  0.000000D+00  0.000000D+00  0.000000D+00  0.000000D+00
     75   0.000000D+00  0.000000D+00  0.000000D+00  0.000000D+00  0.000000D+00
     76   0.000000D+00  0.000000D+00  0.000000D+00  0.000000D+00  0.000000D+00
     77   0.000000D+00  0.000000D+00  0.000000D+00  0.000000D+00  0.000000D+00
     78   0.000000D+00  0.000000D+00  0.000000D+00  0.000000D+00  0.000000D+00
     79   0.000000D+00  0.000000D+00  0.000000D+00  0.000000D+00  0.000000D+00
     80   0.000000D+00  0.000000D+00  0.000000D+00  0.000000D+00  0.000000D+00
     81   0.000000D+00  0.000000D+00  0.000000D+00  0.000000D+00  0.000000D+00
     82   0.000000D+00  0.000000D+00  0.000000D+00  0.000000D+00  0.000000D+00
     83   0.000000D+00  0.000000D+00  0.000000D+00  0.000000D+00  0.000000D+00
     84   0.000000D+00  0.000000D+00  0.000000D+00  0.000000D+00  0.000000D+00
     85   0.000000D+00  0.000000D+00  0.000000D+00  0.000000D+00  0.000000D+00
     86   0.000000D+00  0.000000D+00  0.000000D+00  0.000000D+00  0.000000D+00
     87   0.000000D+00  0.000000D+00  0.000000D+00  0.000000D+00  0.000000D+00
     88   0.000000D+00  0.000000D+00  0.000000D+00  0.000000D+00  0.000000D+00
     89   0.000000D+00  0.000000D+00  0.000000D+00  0.000000D+00  0.000000D+00
     90   0.000000D+00  0.000000D+00  0.000000D+00  0.000000D+00  0.000000D+00
     91   0.000000D+00  0.000000D+00  0.000000D+00  0.000000D+00  0.000000D+00
     92   0.000000D+00  0.000000D+00  0.000000D+00  0.000000D+00  0.000000D+00
     93   0.000000D+00  0.000000D+00  0.000000D+00  0.000000D+00  0.000000D+00
     94   0.000000D+00  0.000000D+00  0.000000D+00  0.000000D+00  0.000000D+00
     95   0.000000D+00  0.000000D+00  0.000000D+00  0.000000D+00  0.000000D+00
     96   0.000000D+00  0.000000D+00  0.000000D+00  0.000000D+00  0.000000D+00
     97   0.000000D+00  0.000000D+00  0.000000D+00  0.000000D+00  0.000000D+00
     98   0.000000D+00  0.000000D+00  0.000000D+00  0.000000D+00  0.000000D+00
     99   0.000000D+00  0.000000D+00  0.000000D+00  0.000000D+00  0.000000D+00
    100   0.000000D+00  0.000000D+00  0.000000D+00  0.000000D+00  0.000000D+00
    101   0.000000D+00  0.000000D+00  0.000000D+00  0.000000D+00  0.000000D+00
    102   0.000000D+00  0.000000D+00  0.000000D+00  0.000000D+00  0.000000D+00
    103   0.000000D+00  0.000000D+00  0.000000D+00  0.000000D+00  0.000000D+00
    104   0.000000D+00  0.000000D+00  0.000000D+00  0.000000D+00  0.000000D+00
    105   0.000000D+00  0.000000D+00  0.000000D+00  0.000000D+00  0.000000D+00
    106   0.000000D+00  0.000000D+00  0.000000D+00  0.000000D+00  0.000000D+00
    107   0.000000D+00  0.000000D+00  0.000000D+00  0.000000D+00  0.000000D+00
    108   0.000000D+00  0.000000D+00  0.000000D+00  0.000000D+00  0.000000D+00
    109   0.000000D+00  0.000000D+00  0.000000D+00  0.000000D+00  0.000000D+00
    110   0.000000D+00  0.000000D+00  0.000000D+00  0.000000D+00  0.000000D+00
    111   0.000000D+00  0.000000D+00  0.000000D+00  0.000000D+00  0.000000D+00
    112   0.000000D+00  0.000000D+00  0.000000D+00  0.000000D+00  0.000000D+00
    113   0.000000D+00  0.000000D+00  0.000000D+00  0.000000D+00  0.000000D+00
    114   0.000000D+00  0.000000D+00  0.000000D+00  0.000000D+00  0.000000D+00
    115   0.000000D+00  0.000000D+00  0.000000D+00  0.000000D+00  0.000000D+00
    116   0.000000D+00  0.000000D+00  0.000000D+00  0.000000D+00  0.000000D+00
    117   0.000000D+00  0.000000D+00  0.000000D+00  0.000000D+00  0.000000D+00
    118   0.000000D+00  0.000000D+00  0.000000D+00  0.000000D+00  0.000000D+00
    119   0.000000D+00  0.000000D+00  0.000000D+00  0.000000D+00  0.000000D+00
    120   0.000000D+00  0.000000D+00  0.000000D+00  0.000000D+00  0.000000D+00
    121   0.000000D+00  0.000000D+00  0.000000D+00  0.000000D+00  0.000000D+00
    122   0.000000D+00  0.000000D+00  0.000000D+00  0.000000D+00  0.000000D+00
    123   0.000000D+00  0.000000D+00  0.000000D+00  0.000000D+00  0.000000D+00
    124   0.000000D+00  0.000000D+00  0.000000D+00  0.000000D+00  0.000000D+00
    125   0.000000D+00  0.000000D+00  0.000000D+00  0.000000D+00  0.000000D+00
    126   0.000000D+00  0.000000D+00  0.000000D+00  0.000000D+00  0.000000D+00
    127   0.000000D+00  0.000000D+00  0.000000D+00  0.000000D+00  0.000000D+00
    128   0.000000D+00  0.000000D+00  0.000000D+00  0.000000D+00  0.000000D+00
    129   0.000000D+00  0.000000D+00  0.000000D+00  0.000000D+00  0.000000D+00
    130   0.000000D+00  0.000000D+00  0.000000D+00  0.000000D+00  0.000000D+00
    131   0.000000D+00  0.000000D+00  0.000000D+00  0.000000D+00  0.000000D+00
    132   0.000000D+00  0.000000D+00  0.000000D+00  0.000000D+00  0.000000D+00
    133   0.000000D+00  0.000000D+00  0.000000D+00  0.000000D+00  0.000000D+00
    134   0.000000D+00  0.000000D+00  0.000000D+00  0.000000D+00  0.000000D+00
    135   0.000000D+00  0.000000D+00  0.000000D+00  0.000000D+00  0.000000D+00
    136   0.000000D+00  0.000000D+00  0.000000D+00  0.000000D+00  0.000000D+00
    137   0.000000D+00  0.000000D+00  0.000000D+00  0.000000D+00  0.000000D+00
    138   0.000000D+00  0.000000D+00  0.000000D+00  0.000000D+00  0.000000D+00
    139   0.000000D+00  0.000000D+00  0.000000D+00  0.000000D+00  0.000000D+00
    140   0.000000D+00  0.000000D+00  0.000000D+00  0.000000D+00  0.000000D+00
    141   0.000000D+00  0.000000D+00  0.000000D+00  0.000000D+00  0.000000D+00
    142   0.000000D+00  0.000000D+00  0.000000D+00  0.000000D+00  0.000000D+00
    143   0.000000D+00  0.000000D+00  0.000000D+00  0.000000D+00  0.000000D+00
    144   0.000000D+00  0.000000D+00  0.000000D+00  0.000000D+00  0.000000D+00
    145   0.000000D+00  0.000000D+00  0.000000D+00  0.000000D+00  0.000000D+00
    146   0.000000D+00  0.000000D+00  0.000000D+00  0.000000D+00  0.000000D+00
    147   0.000000D+00  0.000000D+00  0.000000D+00  0.000000D+00  0.000000D+00
    148   0.000000D+00  0.000000D+00  0.000000D+00  0.000000D+00  0.000000D+00
    149   0.000000D+00  0.000000D+00  0.000000D+00  0.000000D+00  0.000000D+00
    150   0.000000D+00  0.000000D+00  0.000000D+00  0.000000D+00  0.000000D+00
    151   0.000000D+00  0.000000D+00  0.000000D+00  0.000000D+00  0.000000D+00
    152   0.000000D+00  0.000000D+00  0.000000D+00  0.000000D+00  0.000000D+00
    153   0.000000D+00  0.000000D+00  0.000000D+00  0.000000D+00  0.000000D+00
    154   0.000000D+00  0.000000D+00  0.000000D+00  0.000000D+00  0.000000D+00
    155   0.000000D+00  0.000000D+00  0.000000D+00  0.000000D+00  0.000000D+00
    156   0.000000D+00  0.000000D+00  0.000000D+00  0.000000D+00  0.000000D+00
    157   0.000000D+00  0.000000D+00  0.000000D+00  0.000000D+00  0.000000D+00
    158   0.000000D+00  0.000000D+00  0.000000D+00  0.000000D+00  0.000000D+00
    159   0.000000D+00  0.000000D+00  0.000000D+00  0.000000D+00  0.000000D+00
    160   0.000000D+00  0.000000D+00  0.000000D+00  0.000000D+00  0.000000D+00
    161   0.000000D+00  0.000000D+00  0.000000D+00  0.000000D+00  0.000000D+00
    162   0.000000D+00  0.000000D+00  0.000000D+00  0.000000D+00  0.000000D+00
    163   0.000000D+00  0.000000D+00  0.000000D+00  0.000000D+00  0.000000D+00
    164   0.000000D+00  0.000000D+00  0.000000D+00  0.000000D+00  0.000000D+00
    165   0.000000D+00  0.000000D+00  0.000000D+00  0.000000D+00  0.000000D+00
    166   0.000000D+00  0.000000D+00  0.000000D+00  0.000000D+00  0.000000D+00
    167   0.000000D+00  0.000000D+00  0.000000D+00  0.000000D+00  0.000000D+00
    168   0.000000D+00  0.000000D+00  0.000000D+00  0.000000D+00  0.000000D+00
    169   0.000000D+00  0.000000D+00  0.000000D+00  0.000000D+00  0.000000D+00
    170   0.000000D+00  0.000000D+00  0.000000D+00  0.000000D+00  0.000000D+00
    171   0.000000D+00  0.000000D+00  0.000000D+00  0.000000D+00  0.000000D+00
    172   0.000000D+00  0.000000D+00  0.000000D+00  0.000000D+00  0.000000D+00
    173   0.000000D+00  0.000000D+00  0.000000D+00  0.000000D+00  0.000000D+00
    174   0.000000D+00  0.000000D+00  0.000000D+00  0.000000D+00  0.000000D+00
    175   0.000000D+00  0.000000D+00  0.000000D+00  0.000000D+00  0.000000D+00
    176   0.000000D+00  0.000000D+00  0.000000D+00  0.000000D+00  0.000000D+00
    177   0.000000D+00  0.000000D+00  0.000000D+00  0.000000D+00  0.000000D+00
    178   0.000000D+00  0.000000D+00  0.000000D+00  0.000000D+00  0.000000D+00
    179   0.000000D+00  0.000000D+00  0.000000D+00  0.000000D+00  0.000000D+00
    180   0.000000D+00  0.000000D+00  0.000000D+00  0.000000D+00  0.000000D+00
    181   0.000000D+00  0.000000D+00  0.000000D+00  0.000000D+00  0.000000D+00
    182   0.000000D+00  0.000000D+00  0.000000D+00  0.000000D+00  0.000000D+00
    183   0.000000D+00  0.000000D+00  0.000000D+00  0.000000D+00  0.000000D+00
    184   0.000000D+00  0.000000D+00  0.000000D+00  0.000000D+00  0.000000D+00
    185   0.000000D+00  0.000000D+00  0.000000D+00  0.000000D+00  0.000000D+00
    186   0.000000D+00  0.000000D+00  0.000000D+00  0.000000D+00  0.000000D+00
    187   0.000000D+00  0.000000D+00  0.000000D+00  0.000000D+00  0.000000D+00
    188   0.000000D+00  0.000000D+00  0.000000D+00  0.000000D+00  0.000000D+00
    189   0.000000D+00  0.000000D+00  0.000000D+00  0.000000D+00  0.000000D+00
    190   0.000000D+00  0.000000D+00  0.000000D+00  0.000000D+00  0.000000D+00
    191   0.000000D+00  0.000000D+00  0.000000D+00  0.000000D+00  0.000000D+00
    192   0.000000D+00  0.000000D+00  0.000000D+00  0.000000D+00  0.000000D+00
    193   0.000000D+00  0.000000D+00  0.000000D+00  0.000000D+00  0.000000D+00
    194   0.000000D+00  0.000000D+00  0.000000D+00  0.000000D+00  0.000000D+00
    195   0.000000D+00  0.000000D+00  0.000000D+00  0.000000D+00  0.000000D+00
    196   0.000000D+00  0.000000D+00  0.000000D+00  0.000000D+00  0.000000D+00
    197   0.000000D+00  0.131754D-05  0.000000D+00  0.000000D+00  0.000000D+00
    198   0.000000D+00  0.000000D+00  0.000000D+00  0.000000D+00  0.000000D+00
    199   0.000000D+00  0.000000D+00  0.000000D+00  0.000000D+00  0.000000D+00
    200   0.000000D+00  0.000000D+00  0.000000D+00  0.000000D+00  0.000000D+00
    201   0.000000D+00  0.000000D+00  0.000000D+00  0.000000D+00  0.000000D+00
    202   0.000000D+00  0.000000D+00  0.000000D+00  0.000000D+00  0.000000D+00
    203   0.341238D-03  0.209674D-02  0.000000D+00  0.000000D+00 -0.456166D-03
    204   0.217116D-02  0.131240D-01  0.000000D+00  0.000000D+00 -0.107931D-02
    205   0.000000D+00  0.000000D+00  0.313317D-03  0.000000D+00  0.000000D+00
    206   0.000000D+00  0.000000D+00  0.000000D+00  0.313317D-03  0.000000D+00
    207   0.132830D-02  0.808219D-02  0.000000D+00  0.000000D+00 -0.130914D-02
    208   0.000000D+00  0.000000D+00  0.953687D-03  0.000000D+00  0.000000D+00
    209   0.000000D+00  0.000000D+00  0.000000D+00  0.953687D-03  0.000000D+00
    210   0.407679D-02  0.245795D-01  0.000000D+00  0.000000D+00 -0.564739D-03
    211   0.000000D+00  0.000000D+00  0.000000D+00  0.000000D+00  0.000000D+00
    212   0.000000D+00  0.000000D+00  0.000000D+00  0.000000D+00  0.000000D+00
    213   0.000000D+00  0.000000D+00  0.000000D+00  0.000000D+00  0.000000D+00
    214   0.000000D+00  0.000000D+00  0.000000D+00  0.000000D+00  0.000000D+00
    215   0.386078D-04  0.255797D-03  0.000000D+00  0.000000D+00 -0.124649D-03
    216   0.000000D+00  0.000000D+00  0.000000D+00  0.000000D+00  0.000000D+00
    217   0.000000D+00  0.000000D+00  0.000000D+00  0.000000D+00  0.000000D+00
    218   0.000000D+00  0.000000D+00  0.000000D+00  0.000000D+00  0.000000D+00
    219   0.000000D+00  0.000000D+00  0.000000D+00  0.000000D+00  0.000000D+00
    220   0.000000D+00  0.000000D+00  0.000000D+00  0.000000D+00  0.000000D+00
    221   0.000000D+00  0.000000D+00  0.000000D+00  0.000000D+00  0.000000D+00
    222   0.000000D+00  0.000000D+00  0.000000D+00  0.000000D+00  0.000000D+00
    223   0.000000D+00  0.000000D+00  0.000000D+00  0.000000D+00  0.000000D+00
    224   0.000000D+00  0.000000D+00  0.000000D+00  0.000000D+00  0.000000D+00
    225   0.000000D+00  0.000000D+00  0.876149D-05  0.000000D+00  0.000000D+00
    226   0.000000D+00  0.000000D+00  0.000000D+00  0.876149D-05  0.000000D+00
    227   0.326273D-04  0.228919D-03  0.000000D+00  0.000000D+00 -0.138441D-03
    228   0.000000D+00  0.000000D+00  0.219170D-03  0.000000D+00  0.000000D+00
    229   0.000000D+00  0.000000D+00  0.000000D+00  0.219170D-03  0.000000D+00
    230   0.913218D-03  0.566373D-02  0.000000D+00  0.000000D+00 -0.170344D-02
    231   0.000000D+00  0.000000D+00  0.000000D+00  0.000000D+00  0.000000D+00
    232   0.000000D+00  0.000000D+00  0.000000D+00  0.000000D+00  0.000000D+00
    233   0.000000D+00  0.000000D+00  0.000000D+00  0.000000D+00  0.000000D+00
    234   0.000000D+00  0.000000D+00  0.000000D+00  0.000000D+00  0.000000D+00
    235   0.000000D+00  0.000000D+00  0.000000D+00  0.000000D+00  0.000000D+00
    236   0.000000D+00  0.000000D+00  0.000000D+00  0.000000D+00  0.000000D+00
    237   0.000000D+00  0.000000D+00  0.000000D+00  0.000000D+00  0.000000D+00
    238   0.000000D+00  0.000000D+00  0.000000D+00  0.000000D+00  0.000000D+00
    239   0.000000D+00  0.000000D+00  0.000000D+00  0.000000D+00  0.000000D+00
    240   0.000000D+00  0.000000D+00  0.000000D+00  0.000000D+00  0.000000D+00
    241   0.000000D+00  0.000000D+00  0.000000D+00  0.000000D+00  0.000000D+00
    242   0.000000D+00  0.000000D+00  0.000000D+00  0.000000D+00  0.000000D+00
    243   0.000000D+00  0.000000D+00  0.000000D+00  0.000000D+00  0.000000D+00
    244   0.000000D+00  0.000000D+00  0.000000D+00  0.000000D+00  0.000000D+00
    245   0.000000D+00  0.000000D+00  0.000000D+00  0.000000D+00  0.000000D+00
    246   0.175103D-03  0.117292D-02  0.000000D+00  0.000000D+00 -0.616714D-03
    247   0.000000D+00  0.000000D+00  0.780690D-04  0.000000D+00  0.000000D+00
    248   0.000000D+00  0.000000D+00  0.000000D+00  0.780690D-04  0.000000D+00
    249   0.000000D+00  0.000000D+00  0.000000D+00  0.000000D+00  0.000000D+00
    250   0.000000D+00  0.000000D+00  0.000000D+00  0.000000D+00  0.000000D+00
    251   0.350393D-02  0.212328D-01  0.000000D+00  0.000000D+00 -0.427422D-02
    252   0.000000D+00  0.000000D+00  0.142625D-02  0.000000D+00  0.000000D+00
    253   0.000000D+00  0.000000D+00  0.000000D+00  0.142625D-02  0.000000D+00
    254   0.000000D+00  0.000000D+00  0.000000D+00  0.000000D+00  0.000000D+00
    255   0.000000D+00  0.000000D+00  0.000000D+00  0.000000D+00  0.000000D+00
    256   0.638938D-02  0.383342D-01  0.000000D+00  0.000000D+00 -0.189448D-02
    257   0.000000D+00  0.000000D+00  0.257741D-02  0.000000D+00  0.000000D+00
    258   0.000000D+00  0.000000D+00  0.000000D+00  0.257741D-02  0.000000D+00
    259   0.000000D+00  0.000000D+00  0.000000D+00  0.000000D+00  0.000000D+00
    260   0.000000D+00  0.000000D+00  0.000000D+00  0.000000D+00  0.000000D+00
    261   0.000000D+00  0.000000D+00  0.000000D+00  0.000000D+00  0.000000D+00
    262   0.000000D+00  0.000000D+00  0.000000D+00  0.000000D+00  0.000000D+00
    263   0.000000D+00  0.000000D+00  0.000000D+00  0.000000D+00  0.000000D+00
    264   0.000000D+00  0.000000D+00  0.000000D+00  0.000000D+00  0.000000D+00
    265   0.000000D+00  0.000000D+00  0.000000D+00  0.000000D+00  0.000000D+00
    266   0.000000D+00  0.000000D+00  0.000000D+00  0.000000D+00  0.000000D+00
    267   0.000000D+00  0.000000D+00  0.000000D+00  0.000000D+00  0.000000D+00
    268   0.000000D+00  0.000000D+00  0.000000D+00  0.000000D+00  0.000000D+00
    269   0.000000D+00  0.000000D+00  0.000000D+00  0.000000D+00  0.000000D+00
    270   0.000000D+00  0.000000D+00  0.000000D+00  0.000000D+00  0.000000D+00
    271   0.000000D+00  0.000000D+00  0.000000D+00  0.000000D+00  0.000000D+00
    272   0.000000D+00  0.000000D+00  0.000000D+00  0.000000D+00  0.000000D+00
    273   0.000000D+00  0.000000D+00  0.000000D+00  0.000000D+00  0.000000D+00
    274   0.000000D+00  0.000000D+00  0.000000D+00  0.000000D+00  0.000000D+00
    275   0.709987D-04  0.510634D-03  0.000000D+00  0.000000D+00 -0.337288D-03
    276   0.000000D+00  0.000000D+00  0.477734D-04  0.000000D+00  0.000000D+00
    277   0.000000D+00  0.000000D+00  0.000000D+00  0.477734D-04  0.000000D+00
    278   0.000000D+00  0.000000D+00  0.000000D+00  0.000000D+00  0.000000D+00
    279   0.000000D+00  0.000000D+00  0.000000D+00  0.000000D+00  0.000000D+00
    280   0.000000D+00  0.000000D+00  0.000000D+00  0.000000D+00  0.000000D+00
    281   0.000000D+00  0.000000D+00  0.000000D+00  0.000000D+00  0.000000D+00
    282   0.268908D-02  0.164537D-01  0.000000D+00  0.000000D+00 -0.470312D-02
    283   0.000000D+00  0.000000D+00  0.156160D-02  0.000000D+00  0.000000D+00
    284   0.000000D+00  0.000000D+00  0.000000D+00  0.156160D-02  0.000000D+00
    285   0.000000D+00  0.000000D+00  0.000000D+00  0.000000D+00  0.000000D+00
    286   0.000000D+00  0.000000D+00  0.000000D+00  0.000000D+00  0.000000D+00
    287   0.000000D+00  0.000000D+00  0.000000D+00  0.000000D+00  0.000000D+00
    288   0.000000D+00  0.000000D+00  0.000000D+00  0.000000D+00  0.000000D+00
    289   0.783616D-02  0.467622D-01  0.000000D+00  0.000000D+00 -0.411151D-02
    290   0.000000D+00  0.000000D+00  0.444869D-02  0.000000D+00  0.000000D+00
    291   0.000000D+00  0.000000D+00  0.000000D+00  0.444869D-02  0.000000D+00
    292   0.000000D+00  0.000000D+00  0.000000D+00  0.000000D+00  0.000000D+00
    293   0.000000D+00  0.000000D+00  0.000000D+00  0.000000D+00  0.000000D+00
    294   0.000000D+00  0.000000D+00  0.000000D+00  0.000000D+00  0.000000D+00
    295   0.000000D+00  0.000000D+00  0.000000D+00  0.000000D+00  0.000000D+00
    296   0.000000D+00  0.000000D+00  0.000000D+00  0.000000D+00  0.000000D+00
    297   0.000000D+00  0.000000D+00  0.000000D+00  0.000000D+00  0.000000D+00
    298   0.000000D+00  0.000000D+00  0.000000D+00  0.000000D+00  0.000000D+00
    299   0.000000D+00  0.000000D+00  0.000000D+00  0.000000D+00  0.000000D+00
    300   0.000000D+00  0.000000D+00  0.000000D+00  0.000000D+00  0.000000D+00
    301   0.000000D+00  0.000000D+00  0.000000D+00  0.000000D+00  0.000000D+00
    302   0.000000D+00  0.000000D+00  0.000000D+00  0.000000D+00  0.000000D+00
    303   0.000000D+00  0.000000D+00  0.000000D+00  0.000000D+00  0.000000D+00
    304   0.000000D+00  0.000000D+00  0.000000D+00  0.000000D+00  0.000000D+00
    305   0.191513D-04  0.154486D-03  0.000000D+00  0.000000D+00 -0.126655D-03
    306   0.000000D+00  0.000000D+00  0.184879D-04  0.000000D+00  0.000000D+00
    307   0.000000D+00  0.000000D+00  0.000000D+00  0.184879D-04  0.000000D+00
    308   0.000000D+00  0.000000D+00  0.000000D+00  0.000000D+00  0.000000D+00
    309   0.000000D+00  0.000000D+00  0.000000D+00  0.000000D+00  0.000000D+00
    310   0.000000D+00  0.000000D+00  0.000000D+00  0.000000D+00  0.000000D+00
    311   0.000000D+00  0.000000D+00  0.000000D+00  0.000000D+00  0.000000D+00
    312   0.000000D+00  0.000000D+00  0.000000D+00  0.000000D+00  0.000000D+00
    313   0.000000D+00  0.000000D+00  0.000000D+00  0.000000D+00  0.000000D+00
    314   0.168801D-02  0.105377D-01  0.000000D+00  0.000000D+00 -0.404860D-02
    315   0.000000D+00  0.000000D+00  0.128875D-02  0.000000D+00  0.000000D+00
    316   0.000000D+00  0.000000D+00  0.000000D+00  0.128875D-02  0.000000D+00
    317   0.000000D+00  0.000000D+00  0.000000D+00  0.000000D+00  0.000000D+00
    318   0.000000D+00  0.000000D+00  0.000000D+00  0.000000D+00  0.000000D+00
    319   0.000000D+00  0.000000D+00  0.000000D+00  0.000000D+00  0.000000D+00
    320   0.000000D+00  0.000000D+00  0.000000D+00  0.000000D+00  0.000000D+00
    321   0.000000D+00  0.000000D+00  0.000000D+00  0.000000D+00  0.000000D+00
    322   0.000000D+00  0.000000D+00  0.000000D+00  0.000000D+00  0.000000D+00
    323   0.825047D-02  0.490036D-01  0.000000D+00  0.000000D+00 -0.665297D-02
    324   0.000000D+00  0.000000D+00  0.602125D-02  0.000000D+00  0.000000D+00
    325   0.000000D+00  0.000000D+00  0.000000D+00  0.602125D-02  0.000000D+00
    326   0.000000D+00  0.000000D+00  0.000000D+00  0.000000D+00  0.000000D+00
    327   0.000000D+00  0.000000D+00  0.000000D+00  0.000000D+00  0.000000D+00
    328   0.000000D+00  0.000000D+00  0.000000D+00  0.000000D+00  0.000000D+00
    329   0.000000D+00  0.000000D+00  0.000000D+00  0.000000D+00  0.000000D+00
    330   0.000000D+00  0.000000D+00  0.000000D+00  0.000000D+00  0.000000D+00
    331   0.000000D+00  0.000000D+00  0.000000D+00  0.000000D+00  0.000000D+00
    332   0.000000D+00  0.000000D+00  0.000000D+00  0.000000D+00  0.000000D+00
[...]
   24    |  1.608166  2.202850  1.084656  0.314372  0.000000  0.638686
         |
   25    |  1.608166  2.202850  0.314372  1.084656  0.880671  1.122808
   25    |  1.608166  2.202850  0.314372  1.084656  0.880671  0.000000
         |
   26    |  2.253347  2.043931  1.047909  1.047909  0.807721  0.807721
   26    |  2.253347  2.043931  1.047909  1.047909  0.807721  0.807721
         |

 AB - AA |     26
 BA - BB |     26
--------------------
   20    |  2.962956
   20    |  2.962956
         |
   21    |  2.633195
   21    |  2.633195
         |
   22    |  1.123954
   22    |  1.123954
         |
   23    |  1.123954
   23    |  1.123954
         |
   24    |  0.851918
   24    |  0.851918
         |
   25    |  0.851918
   25    |  0.851918
         |
   26    |  0.892554
   26    |  0.000000
         |

                   MP2(CBS) Pair Energies
                   ----------------------

 AB - AA |     20        21        22        23        24        25
 BA - BB |     20        21        22        23        24        25
----------------------------------------------------------------------
   20    | -0.012832 -0.000040 -0.002099 -0.002099 -0.000155 -0.000155
   20    |  0.000000 -0.000040 -0.002099 -0.002099 -0.000155 -0.000155
         |
   21    | -0.000070 -0.014287 -0.000127 -0.000127 -0.002407 -0.002407
   21    | -0.000070  0.000000 -0.000127 -0.000127 -0.002407 -0.002407
         |
   22    | -0.009595 -0.000194 -0.020308 -0.006018 -0.000617 -0.000489
   22    | -0.009595 -0.000194  0.000000 -0.006018 -0.000617 -0.000489
         |
   23    | -0.009595 -0.000194 -0.008938 -0.020308 -0.000489 -0.000617
   23    | -0.009595 -0.000194 -0.008938  0.000000 -0.000489 -0.000617
         |
   24    | -0.000210 -0.010490 -0.000825 -0.000524 -0.023002 -0.007351
   24    | -0.000210 -0.010490 -0.000825 -0.000524  0.000000 -0.007351
         |
   25    | -0.000210 -0.010490 -0.000524 -0.000825 -0.010427 -0.023002
   25    | -0.000210 -0.010490 -0.000524 -0.000825 -0.010427  0.000000
         |
   26    | -0.004241 -0.005560 -0.005073 -0.005073 -0.007143 -0.007143
   26    | -0.004241 -0.005560 -0.005073 -0.005073 -0.007143 -0.007143
         |

 AB - AA |     26
 BA - BB |     26
--------------------
   20    | -0.001555
   20    | -0.001555
         |
   21    | -0.001913
   21    | -0.001913
         |
   22    | -0.003843
   22    | -0.003843
         |
   23    | -0.003843
   23    | -0.003843
         |
   24    | -0.005379
   24    | -0.005379
         |
   25    | -0.005379
   25    | -0.005379
         |
   26    | -0.025800
   26    |  0.000000
         |

                     Sum of ab pair energies =    -0.236882 A.U.
                     Sum of ba pair energies =    -0.097344 A.U.
                     Sum of aa pair energies =    -0.047106 A.U.
                     Sum of bb pair energies =    -0.047106 A.U.

           Sum of intraorbital pair energies =    -0.139538 A.U.
           Sum of interorbital pair energies =    -0.288901 A.U.
                                                  ----------
                         Total pair energies =    -0.428439 A.U.

                         Single Excitations  =     0.000000 A.U.

                          Total second order =    -0.428439 A.U.



            MP2(CBS) (With Interference Correction) 
            ---------------------------------------

 AB - AA |     20        21        22        23        24        25
 BA - BB |     20        21        22        23        24        25
----------------------------------------------------------------------
   20    | -0.012488 -0.000040 -0.002091 -0.002091 -0.000155 -0.000155
   20    |  0.000000 -0.000040 -0.002091 -0.002091 -0.000155 -0.000155
         |
   21    | -0.000070 -0.013964 -0.000126 -0.000126 -0.002399 -0.002399
   21    | -0.000070  0.000000 -0.000126 -0.000126 -0.002399 -0.002399
         |
   22    | -0.009369 -0.000193 -0.019789 -0.006004 -0.000615 -0.000489
   22    | -0.009369 -0.000193  0.000000 -0.006004 -0.000615 -0.000489
         |
   23    | -0.009369 -0.000193 -0.008794 -0.019789 -0.000489 -0.000615
   23    | -0.009369 -0.000193 -0.008794  0.000000 -0.000489 -0.000615
         |
   24    | -0.000209 -0.010280 -0.000820 -0.000523 -0.022530 -0.007340
   24    | -0.000209 -0.010280 -0.000820 -0.000523  0.000000 -0.007340
         |
   25    | -0.000209 -0.010280 -0.000523 -0.000820 -0.010296 -0.022530
   25    | -0.000209 -0.010280 -0.000523 -0.000820 -0.010296  0.000000
         |
   26    | -0.004173 -0.005479 -0.005009 -0.005009 -0.007064 -0.007064
   26    | -0.004173 -0.005479 -0.005009 -0.005009 -0.007064 -0.007064
         |

 AB - AA |     26
 BA - BB |     26
--------------------
   20    | -0.001547
   20    | -0.001547
         |
   21    | -0.001904
   21    | -0.001904
         |
   22    | -0.003833
   22    | -0.003833
         |
   23    | -0.003833
   23    | -0.003833
         |
   24    | -0.005368
   24    | -0.005368
         |
   25    | -0.005368
   25    | -0.005368
         |
   26    | -0.025204
   26    |  0.000000
         |

                     Sum of ab pair energies =    -0.232043 A.U.
                     Sum of ba pair energies =    -0.095749 A.U.
                     Sum of aa pair energies =    -0.046986 A.U.
                     Sum of bb pair energies =    -0.046986 A.U.

           Sum of intraorbital pair energies =    -0.136294 A.U.
           Sum of interorbital pair energies =    -0.285470 A.U.
                                                  ----------
                         Total pair energies =    -0.421764 A.U.

                         Single Excitations  =     0.000000 A.U.

                          Total second order =    -0.421764 A.U.

                         E2(CBS) - E2(Dir) =      -0.014332 A.U.

 E2(CBS)=      -0.428439 CBS-Int=       0.006675 OIii=       2.754285

 **********************************************************************

            Population analysis using the SCF density.

 **********************************************************************

 Orbital symmetries:
       Occupied  (SG) (SG) (SG) (SG) (PI) (PI) (SG) (SG) (SG) (PI)
                 (PI) (SG) (PI) (PI) (SG) (PI) (PI) (DLTA) (DLTA)
                 (SG) (SG) (SG) (PI) (PI) (PI) (PI)
       Virtual   (SG) (PI) (PI) (SG) (SG) (SG) (PI) (PI) (DLTA)
                 (DLTA) (PI) (PI) (SG) (SG) (PI) (PI) (DLTA) (DLTA)
                 (SG) (SG) (PI) (PI) (SG) (PI) (PI) (PHI) (PHI)
                 (DLTA) (DLTA) (DLTA) (DLTA) (PI) (PI) (SG) (DLTA)
                 (DLTA) (PHI) (PHI) (PI) (PI) (SG) (PI) (PI) (SG)
                 (SG) (PI) (PI) (DLTA) (DLTA) (SG) (?A) (?A) (PHI)
                 (PHI) (SG) (PI) (PI) (PI) (PI) (?A) (?A) (DLTA)
                 (DLTA) (PHI) (PHI) (SG) (DLTA) (DLTA) (SG) (DLTA)
                 (DLTA) (PI) (PI) (PHI) (PHI) (DLTA) (DLTA) (SG)
                 (PI) (PI) (SG) (PHI) (PHI) (SG) (PI) (PI) (PI)
                 (PI) (DLTA) (DLTA) (SG) (PI) (PI) (?B) (?B) (DLTA)
                 (DLTA) (?A) (?A) (SG) (PHI) (PHI) (?B) (?B) (PI)
                 (PI) (DLTA) (DLTA) (SG) (PI) (PI) (PHI) (PHI)
                 (?A) (?A) (SG) (PI) (PI) (PHI) (PHI) (?A) (?A)
                 (SG) (DLTA) (DLTA) (SG) (DLTA) (DLTA) (PI) (PI)
                 (PHI) (PHI) (DLTA) (DLTA) (?A) (?A) (SG) (PI)
                 (PI) (PHI) (PHI) (DLTA) (DLTA) (SG) (PI) (PI)
                 (DLTA) (DLTA) (SG) (PI) (PI) (PHI) (PHI) (SG)
                 (SG) (DLTA) (DLTA) (PI) (PI) (SG) (PI) (PI) (PI)
                 (PI) (DLTA) (DLTA) (?B) (?B) (PI) (PI) (?A) (?A)
                 (PHI) (PHI) (PHI) (PHI) (DLTA) (DLTA) (SG) (SG)
                 (DLTA) (DLTA) (PI) (PI) (SG) (?A) (?A) (PI) (PI)
                 (PHI) (PHI) (SG) (SG) (DLTA) (DLTA) (PI) (PI)
                 (?B) (?B) (?A) (?A) (PI) (PI) (SG) (PHI) (PHI)
                 (DLTA) (DLTA) (?A) (?A) (PHI) (PHI) (SG) (PI)
                 (PI) (DLTA) (DLTA) (SG) (DLTA) (DLTA) (PI) (PI)
                 (PI) (PI) (SG) (SG) (PHI) (PHI) (DLTA) (DLTA)
                 (PHI) (PHI) (PI) (PI) (SG) (DLTA) (DLTA) (?B)
                 (?B) (?A) (?A) (SG) (SG) (PHI) (PHI) (PI) (PI)
                 (SG) (PI) (PI) (DLTA) (DLTA) (SG) (PI) (PI) (DLTA)
                 (DLTA) (SG) (?A) (?A) (?B) (?B) (PHI) (PHI) (SG)
                 (PI) (PI) (DLTA) (DLTA) (?A) (?A) (PHI) (PHI)
                 (SG) (PI) (PI) (DLTA) (DLTA) (?B) (?B) (?A) (?A)
                 (SG) (SG) (SG) (PI) (PI) (PHI) (PHI) (SG) (DLTA)
                 (DLTA) (PI) (PI) (SG) (PI) (PI) (?A) (?A) (PHI)
                 (PHI) (DLTA) (DLTA) (SG) (PI) (PI) (?B) (?B) (?A)
                 (?A) (PHI) (PHI) (DLTA) (DLTA) (SG) (PI) (PI)
                 (SG) (SG) (SG) (PHI) (PHI) (DLTA) (DLTA) (DLTA)
                 (DLTA) (PI) (PI) (PI) (PI) (SG) (SG) (PI) (PI)
                 (SG) (DLTA) (DLTA) (PI) (PI) (SG) (SG) (PI) (PI)
                 (SG) (DLTA) (DLTA) (PI) (PI) (SG) (SG) (SG)
 The electronic state is 1-SG.
 Alpha  occ. eigenvalues -- -490.08058-104.88461 -65.21955 -58.57557 -58.57311
 Alpha  occ. eigenvalues --  -58.57311 -10.60720  -9.89172  -8.07400  -8.07192
 Alpha  occ. eigenvalues --   -8.07192  -7.50495  -7.49478  -7.49478  -3.24989
 Alpha  occ. eigenvalues --   -3.24475  -3.24475  -3.23106  -3.23106  -1.16479
 Alpha  occ. eigenvalues --   -0.97508  -0.56534  -0.53944  -0.53944  -0.42186
 Alpha  occ. eigenvalues --   -0.42186
 Alpha virt. eigenvalues --    0.00937   0.06262   0.06262   0.06554   0.07512
 Alpha virt. eigenvalues --    0.12395   0.14149   0.14149   0.20183   0.20183
 Alpha virt. eigenvalues --    0.23748   0.23748   0.24393   0.26326   0.26390
 Alpha virt. eigenvalues --    0.26390   0.30166   0.30166   0.31908   0.35600
 Alpha virt. eigenvalues --    0.37349   0.37349   0.46647   0.48832   0.48832
 Alpha virt. eigenvalues --    0.50013   0.50013   0.50358   0.50358   0.56865
 Alpha virt. eigenvalues --    0.56865   0.57694   0.57694   0.58472   0.63445
 Alpha virt. eigenvalues --    0.63445   0.64979   0.64979   0.69399   0.69399
 Alpha virt. eigenvalues --    0.70053   0.71198   0.71198   0.72308   0.76333
 Alpha virt. eigenvalues --    0.76397   0.76397   0.77864   0.77864   0.86480
 Alpha virt. eigenvalues --    0.96150   0.96150   1.01154   1.01154   1.05098
 Alpha virt. eigenvalues --    1.09315   1.09315   1.12437   1.12437   1.12970
 Alpha virt. eigenvalues --    1.12970   1.13253   1.13253   1.17517   1.17517
 Alpha virt. eigenvalues --    1.17628   1.20988   1.20988   1.23581   1.24640
 Alpha virt. eigenvalues --    1.24640   1.29949   1.29949   1.30395   1.30395
 Alpha virt. eigenvalues --    1.32594   1.32594   1.33794   1.34350   1.34350
 Alpha virt. eigenvalues --    1.48003   1.52469   1.52469   1.54758   1.54829
 Alpha virt. eigenvalues --    1.54829   1.56312   1.56312   1.57428   1.57428
 Alpha virt. eigenvalues --    1.62449   1.66891   1.66891   1.67170   1.67170
 Alpha virt. eigenvalues --    1.68923   1.68923   1.70324   1.70324   1.85077
 Alpha virt. eigenvalues --    1.91613   1.91613   2.02302   2.02302   2.02990
 Alpha virt. eigenvalues --    2.02990   2.10362   2.10362   2.11926   2.12116
 Alpha virt. eigenvalues --    2.12116   2.17067   2.17067   2.18328   2.18328
 Alpha virt. eigenvalues --    2.21147   2.25522   2.25522   2.26786   2.26786
 Alpha virt. eigenvalues --    2.26909   2.26909   2.28831   2.31031   2.31031
 Alpha virt. eigenvalues --    2.34179   2.37960   2.37960   2.45677   2.45677
 Alpha virt. eigenvalues --    2.53141   2.53141   2.57611   2.57611   2.58297
 Alpha virt. eigenvalues --    2.58297   2.61524   2.67074   2.67074   2.68102
 Alpha virt. eigenvalues --    2.68102   2.71196   2.71196   2.73325   2.83754
 Alpha virt. eigenvalues --    2.83754   2.91542   2.91542   2.96351   3.01066
 Alpha virt. eigenvalues --    3.01066   3.17228   3.17228   3.21346   3.32766
 Alpha virt. eigenvalues --    3.33839   3.33839   3.35978   3.35978   3.42400
 Alpha virt. eigenvalues --    3.46096   3.46096   3.64344   3.64344   3.65187
 Alpha virt. eigenvalues --    3.65187   3.89291   3.89291   3.89355   3.89355
 Alpha virt. eigenvalues --    3.90094   3.90094   3.93641   3.93641   3.96085
 Alpha virt. eigenvalues --    3.96085   3.96643   3.96643   3.98028   4.09189
 Alpha virt. eigenvalues --    4.09478   4.09478   4.27057   4.27057   4.35416
 Alpha virt. eigenvalues --    4.50479   4.50479   4.52331   4.52331   4.54772
 Alpha virt. eigenvalues --    4.54772   4.56849   4.63943   4.72922   4.72922
 Alpha virt. eigenvalues --    4.80872   4.80872   4.92521   4.92521   4.96130
 Alpha virt. eigenvalues --    4.96130   5.01634   5.01634   5.05897   5.06670
 Alpha virt. eigenvalues --    5.06670   5.15504   5.15504   5.20001   5.20001
 Alpha virt. eigenvalues --    5.30361   5.30361   5.31796   5.36177   5.36177
 Alpha virt. eigenvalues --    5.49781   5.49781   5.67627   5.79670   5.79670
 Alpha virt. eigenvalues --    5.94916   5.94916   6.13620   6.13620   6.25542
 Alpha virt. eigenvalues --    6.35523   6.36234   6.36234   6.50848   6.50848
 Alpha virt. eigenvalues --    6.54458   6.54458   6.56410   6.56410   6.57485
 Alpha virt. eigenvalues --    6.59116   6.59116   6.63291   6.63291   6.63850
 Alpha virt. eigenvalues --    6.63850   6.65019   6.65019   6.74013   6.74013
 Alpha virt. eigenvalues --    6.91557   6.91557   7.02269   7.02500   7.02500
 Alpha virt. eigenvalues --    7.07366   7.07366   7.39714   7.58201   7.58201
 Alpha virt. eigenvalues --    7.60956   7.60956   7.76180   7.99862   7.99862
 Alpha virt. eigenvalues --    7.99880   7.99880   8.03726   8.03726   8.06386
 Alpha virt. eigenvalues --    8.11472   8.11472   8.19750   8.19750   8.46445
 Alpha virt. eigenvalues --    8.46445   8.49413   8.49413   8.54983   8.56471
 Alpha virt. eigenvalues --    8.56471   8.63199   8.63199   8.68617   8.68617
 Alpha virt. eigenvalues --    8.68995   8.68995   8.70444   8.70444   8.82150
 Alpha virt. eigenvalues --    8.82918   8.82918   8.85412   8.85412   9.28232
 Alpha virt. eigenvalues --    9.33151   9.33151   9.51529   9.51529   9.67107
 Alpha virt. eigenvalues --    9.84418   9.84418  10.07704  10.07704  10.10530
 Alpha virt. eigenvalues --   10.10530  10.20478  10.20478  10.24534  10.56917
 Alpha virt. eigenvalues --   10.56917  10.93777  10.93777  10.95158  10.95158
 Alpha virt. eigenvalues --   11.05842  11.05842  11.25068  11.25068  11.27324
 Alpha virt. eigenvalues --   11.55062  11.55062  11.60195  11.76423  12.55259
 Alpha virt. eigenvalues --   12.78408  12.78408  12.85327  12.85327  12.95992
 Alpha virt. eigenvalues --   12.95992  13.01325  13.01325  13.42174  13.42174
 Alpha virt. eigenvalues --   13.67855  14.44258  16.49895  16.49895  17.28821
 Alpha virt. eigenvalues --   17.84535  17.84535  18.31327  18.31327  19.46034
 Alpha virt. eigenvalues --   23.22684  24.34425  24.34425  25.99489  47.11440
 Alpha virt. eigenvalues --   47.11440  47.42704  47.42704  48.08200 252.41229
 Alpha virt. eigenvalues --  264.63121
          Condensed to atoms (all electrons):
              1          2
     1  Br  34.541893   0.268666
     2  Cl   0.268666  16.920774
 Mulliken atomic charges:
              1
     1  Br   0.189441
     2  Cl  -0.189441
 Sum of Mulliken atomic charges =   0.00000
 Mulliken charges with hydrogens summed into heavy atoms:
              1
     1  Br   0.189441
     2  Cl  -0.189441
 Sum of Mulliken charges with hydrogens summed into heavy atoms =   0.00000
          Atomic-Atomic Spin Densities.
              1          2
     1  Br   0.000000   0.000000
     2  Cl   0.000000   0.000000
 Mulliken atomic spin densities:
              1
     1  Br   0.000000
     2  Cl   0.000000
 Sum of Mulliken atomic spin densities =   0.00000
 Electronic spatial extent (au):  <R**2>=            253.8994
 Charge=              0.0000 electrons
 Dipole moment (field-independent basis, Debye):
    X=              0.0000    Y=              0.0000    Z=              0.5012  Tot=              0.5012
 Quadrupole moment (field-independent basis, Debye-Ang):
   XX=            -31.3833   YY=            -31.3833   ZZ=            -27.9679
   XY=              0.0000   XZ=              0.0000   YZ=              0.0000
 Traceless Quadrupole moment (field-independent basis, Debye-Ang):
   XX=             -1.1385   YY=             -1.1385   ZZ=              2.2769
   XY=              0.0000   XZ=              0.0000   YZ=              0.0000
 Octapole moment (field-independent basis, Debye-Ang**2):
  XXX=              0.0000  YYY=              0.0000  ZZZ=             15.9273  XYY=              0.0000
  XXY=              0.0000  XXZ=              5.3415  XZZ=              0.0000  YZZ=              0.0000
  YYZ=              5.3415  XYZ=              0.0000
 Hexadecapole moment (field-independent basis, Debye-Ang**3):
 XXXX=            -36.6834 YYYY=            -36.6834 ZZZZ=           -212.6134 XXXY=              0.0000
 XXXZ=              0.0000 YYYX=              0.0000 YYYZ=              0.0000 ZZZX=              0.0000
 ZZZY=              0.0000 XXYY=            -12.2278 XXZZ=            -47.7483 YYZZ=            -47.7483
 XXYZ=              0.0000 YYXZ=              0.0000 ZZXY=              0.0000
 N-N= 1.474020870671D+02 E-N=-1.131417688348D+04  KE= 4.547911222494D+03
                          Isotropic Fermi Contact Couplings
        Atom                 a.u.       MegaHertz       Gauss      10(-4) cm-1
     1  Br(79)             0.00000       0.00000       0.00000       0.00000
     2  Cl(35)             0.00000       0.00000       0.00000       0.00000
 --------------------------------------------------------
       Center         ----  Spin Dipole Couplings  ----
                      3XX-RR        3YY-RR        3ZZ-RR
 --------------------------------------------------------
     1   Atom        0.000000      0.000000      0.000000
     2   Atom        0.000000      0.000000      0.000000
 --------------------------------------------------------
                        XY            XZ            YZ
 --------------------------------------------------------
     1   Atom        0.000000      0.000000      0.000000
     2   Atom        0.000000      0.000000      0.000000
 --------------------------------------------------------


 ---------------------------------------------------------------------------------
              Anisotropic Spin Dipole Couplings in Principal Axis System
 ---------------------------------------------------------------------------------

       Atom             a.u.   MegaHertz   Gauss  10(-4) cm-1        Axes

              Baa     0.0000     0.000     0.000     0.000  1.0000  0.0000  0.0000
     1 Br(79) Bbb     0.0000     0.000     0.000     0.000  0.0000  1.0000  0.0000
              Bcc     0.0000     0.000     0.000     0.000  0.0000  0.0000  1.0000
 
              Baa     0.0000     0.000     0.000     0.000  1.0000  0.0000  0.0000
     2 Cl(35) Bbb     0.0000     0.000     0.000     0.000  0.0000  1.0000  0.0000
              Bcc     0.0000     0.000     0.000     0.000  0.0000  0.0000  1.0000
 

 ---------------------------------------------------------------------------------


 Test job not archived.
 1\1\GINC-C33\SP\ROMP2-RW\Gen\Br1Cl1\GPETERSSON\08-Jul-2013\0\\# ROMP2(
 RW) Gen GFinput Int=NoBasisTransform Int(Grid=Ultrafine) IOp(3/32=2,5/
 6=10,8/11=1,9/33=1) Maxdisk=128GB CBSextrapolate(Nmin=20,MinPop)\\BrCl
  1Sg+\\0,1\Br\Cl,1,2.136065\\Version=EM64L-G09RevA.02\State=1-SG\HF=-3
 031.9669426\MP2=-3032.3810493\E2(CBS)=-0.4284389\CBS-Int=-0.4217639\OI
 ii=2.7542846\RMSD=1.605e-11\PG=C*V [C*(Cl1Br1)]\\@


 ... THE UNIVERSE IS NOT ONLY QUEERER THAN WE SUPPOSE,
 BUT QUEERER THAN WE CAN SUPPOSE ... 

                                   -- J. B. S. HALDANE
 Job cpu time:  1 days  2 hours 24 minutes 29.5 seconds.
 File lengths (MBytes):  RWF=   7692 Int=      0 D2E=      0 Chk=     12 Scr=      1
 Normal termination of Gaussian 09 at Mon Jul  8 13:06:41 2013.
