 Entering Gaussian System, Link 0=gdv
 AtFile(1): 7ZaPa-NR.gbs
 Initial command:
 /share/apps/gaussian/gdvh12/gdv/l1.exe /localscratch/934872/Gau-32091.inp -scrdir=/localscratch/934872/
 Entering Link 1 = /share/apps/gaussian/gdvh12/gdv/l1.exe PID=     32092.
  
 Copyright (c) 1988,1990,1992,1993,1995,1998,2003,2009,2011,
            Gaussian, Inc.  All Rights Reserved.
  
 This is the private, development version of
 the Gaussian(R) DV system of programs. It is based on
 the Gaussian(R) 09 system (copyright 2009, Gaussian, Inc.),
 the Gaussian(R) 03 system (copyright 2003, Gaussian, Inc.),
 the Gaussian(R) 98 system (copyright 1998, Gaussian, Inc.),
 the Gaussian(R) 94 system (copyright 1995, Gaussian, Inc.),
 the Gaussian 92(TM) system (copyright 1992, Gaussian, Inc.),
 the Gaussian 90(TM) system (copyright 1990, Gaussian, Inc.),
 the Gaussian 88(TM) system (copyright 1988, Gaussian, Inc.),
 the Gaussian 86(TM) system (copyright 1986, Carnegie Mellon
 University), and the Gaussian 82(TM) system (copyright 1983,
 Carnegie Mellon University). Gaussian is a federally registered
 trademark of Gaussian, Inc.
  
 This software contains proprietary and confidential information,
 including trade secrets, belonging to Gaussian, Inc.
  
 This software is provided under written license and may be
 used, copied, transmitted, or stored only in accord with that
 written license.
  
 The following legend is applicable only to US Government
 contracts under FAR:
  
                    RESTRICTED RIGHTS LEGEND
  
 Use, reproduction and disclosure by the US Government is
 subject to restrictions as set forth in subparagraphs (a)
 and (c) of the Commercial Computer Software - Restricted
 Rights clause in FAR 52.227-19.
  
 Gaussian, Inc.
 340 Quinnipiac St., Bldg. 40, Wallingford CT 06492
  
  
 ---------------------------------------------------------------
 Warning -- This program may not be used in any manner that
 competes with the business of Gaussian, Inc. or will provide
 assistance to any competitor of Gaussian, Inc.  The licensee
 of this program is prohibited from giving any competitor of
 Gaussian, Inc. access to this program.  By using this program,
 the user acknowledges that Gaussian, Inc. is engaged in the
 business of creating and licensing software in the field of
 computational chemistry and represents and warrants to the
 licensee that it is not a competitor of Gaussian, Inc. and that
 it will not use this program in any manner prohibited above.
 ---------------------------------------------------------------
  

 Cite this work as:
 Gaussian Development Version, Revision H.12,
 M. J. Frisch, G. W. Trucks, H. B. Schlegel, G. E. Scuseria, 
 M. A. Robb, J. R. Cheeseman, G. Scalmani, V. Barone, B. Mennucci, 
 G. A. Petersson, H. Nakatsuji, M. Caricato, X. Li, H. P. Hratchian, 
 A. F. Izmaylov, J. Bloino, G. Zheng, J. L. Sonnenberg, M. Hada, 
 M. Ehara, K. Toyota, R. Fukuda, J. Hasegawa, M. Ishida, T. Nakajima, 
 Y. Honda, O. Kitao, H. Nakai, T. Vreven, J. A. Montgomery, Jr., 
 J. E. Peralta, F. Ogliaro, M. Bearpark, J. J. Heyd, E. Brothers, 
 K. N. Kudin, V. N. Staroverov, T. Keith, R. Kobayashi, J. Normand, 
 K. Raghavachari, A. Rendell, J. C. Burant, S. S. Iyengar, J. Tomasi, 
 M. Cossi, N. Rega, J. M. Millam, M. Klene, J. E. Knox, J. B. Cross, 
 V. Bakken, C. Adamo, J. Jaramillo, R. Gomperts, R. E. Stratmann, 
 O. Yazyev, A. J. Austin, R. Cammi, C. Pomelli, J. W. Ochterski, 
 R. L. Martin, K. Morokuma, V. G. Zakrzewski, G. A. Voth, 
 P. Salvador, J. J. Dannenberg, S. Dapprich, P. V. Parandekar, 
 N. J. Mayhall, A. D. Daniels, O. Farkas, J. B. Foresman, 
 J. V. Ortiz, J. Cioslowski, and D. J. Fox, 
 Gaussian, Inc., Wallingford CT, 2010.
 
 ******************************************
 Gaussian DV:  EM64L-GDVRevH.12  9-Jun-2011
                21-May-2013 
 ******************************************
 % Mem=12GB
 % Nproc=8
 Will use up to    8 processors via shared memory.
 ----------------------------------------------------------------------
 # ROMP2(RW) Gen GFinput Int=NoBasisTransform Int(Grid=Ultrafine) IOp(3
 /32=2,5/6=10,8/11=1,9/33=1) Maxdisk=128GB CBSextrapolate(Nmin=25,MinPo
 p)
 ----------------------------------------------------------------------
 1/38=1/1;
 2/12=2,17=6,18=5,40=1/2;
 3/5=7,11=2,16=1,24=10,25=1,30=1,32=2,60=-1,75=-5,116=101/1,2,3;
 4//1;
 5/5=2,6=10,38=5/2;
 8/5=-1,10=91,11=1/1;
 9/16=-3,33=1,75=2,81=25,83=4/6,4;
 6/7=2,8=2,9=2,10=2/1;
 99/5=1,9=1/99;
 --------
 BrF 1Sg+
 --------
 Charge =  0 Multiplicity = 1
 Symbolic Z-Matrix:
 Br
 F                    1     1.75894 
 
                          Input orientation:                          
 ---------------------------------------------------------------------
 Center     Atomic      Atomic             Coordinates (Angstroms)
 Number     Number       Type             X           Y           Z
 ---------------------------------------------------------------------
      1         35           0        0.000000    0.000000    0.000000
      2          9           0        0.000000    0.000000    1.758940
 ---------------------------------------------------------------------
 Stoichiometry    BrF
 Framework group  C*V[C*(FBr)]
 Deg. of freedom     1
 Full point group                 C*V     NOp   4
 Largest Abelian subgroup         C2V     NOp   4
 Largest concise Abelian subgroup C1      NOp   1
                         Standard orientation:                         
 ---------------------------------------------------------------------
 Center     Atomic      Atomic             Coordinates (Angstroms)
 Number     Number       Type             X           Y           Z
 ---------------------------------------------------------------------
      1         35           0        0.000000    0.000000    0.359783
      2          9           0        0.000000    0.000000   -1.399157
 ---------------------------------------------------------------------
 Rotational constants (GHZ):      0.0000000     10.6678541     10.6678541
 General basis read from cards:  (5D, 7F)
 AO basis set in the form of general basis input (Overlap normalization):
      1 0
 S  19 1.00       0.000000000000
      0.1084089110D+09  0.2897699584D-06
      0.2017723730D+08  0.1824866800D-05
      0.4606851830D+07  0.1038807919D-04
      0.1247136140D+07  0.4708813254D-04
      0.3886300470D+06  0.1814051699D-03
      0.1358926290D+06  0.6102148031D-03
      0.5217333690D+05  0.1843419936D-02
      0.2159416810D+05  0.5103438024D-02
      0.9489448890D+04  0.1312406995D-01
      0.4372571600D+04  0.3150120384D-01
      0.2091443270D+04  0.6997810635D-01
      0.1030127600D+04  0.1400640193D+00
      0.5192168730D+03  0.2383775848D+00
      0.2665046050D+03  0.3080972525D+00
      0.1387733520D+03  0.2451695558D+00
      0.7308292400D+02  0.8608897484D-01
      0.3882100000D+02  0.7995888776D-02
      0.2074503800D+02  0.9489470514D-03
      0.1111965000D+02  0.4953062091D-04
 S  15 1.00       0.000000000000
      0.2159416810D+05 -0.9678985889D-05
      0.9489448890D+04 -0.4863764938D-04
      0.4372571600D+04 -0.2977365187D-03
      0.2091443270D+04 -0.1372218990D-02
      0.1030127600D+04 -0.5849453272D-02
      0.5192168730D+03 -0.2048702530D-01
      0.2665046050D+03 -0.5658275134D-01
      0.1387733520D+03 -0.9041113573D-01
      0.7308292400D+02 -0.2938125153D-02
      0.3882100000D+02  0.3072534665D+00
      0.2074503800D+02  0.5066413436D+00
      0.1111965000D+02  0.2631655220D+00
      0.5957454000D+01  0.3964223360D-01
      0.3175930000D+01  0.3292853492D-02
      0.1674973000D+01  0.4898347019D-03
 P  17 1.00       0.000000000000
      0.1489059560D+06  0.2740260182D-05
      0.3964636200D+05  0.2176321263D-04
      0.1264734410D+05  0.1403834625D-03
      0.4668245390D+04  0.6948952544D-03
      0.1934889060D+04  0.2808105022D-02
      0.8778986460D+03  0.9526976658D-02
      0.4267924460D+03  0.2770298382D-01
      0.2183954360D+03  0.6953677487D-01
      0.1159257070D+03  0.1469386723D+00
      0.6307782300D+02  0.2493208911D+00
      0.3484932500D+02  0.3157753200D+00
      0.1940052200D+02  0.2488553914D+00
      0.1081551700D+02  0.9796365660D-01
      0.6006953000D+01  0.1592384613D-01
      0.3308640000D+01  0.1533209791D-02
      0.1799357000D+01  0.3395022310D-03
      0.9616640000D+00  0.2293710392D-04
 S  11 1.00       0.000000000000
      0.2665046050D+03  0.7045882210D-03
      0.1387733520D+03  0.2554017970D-02
      0.7308292400D+02  0.2249779309D-02
      0.3882100000D+02 -0.3797473952D-01
      0.2074503800D+02 -0.1751230827D+00
      0.1111965000D+02 -0.1392406230D+00
      0.5957454000D+01  0.2628491860D+00
      0.3175930000D+01  0.5920876138D+00
      0.1674973000D+01  0.3388251456D+00
      0.8674590000D+00  0.3744989864D-01
      0.4370370000D+00  0.2232780462D-02
 P  14 1.00       0.000000000000
      0.8778986460D+03 -0.3377811447D-04
      0.4267924460D+03 -0.2222521929D-03
      0.2183954360D+03 -0.1192581069D-02
      0.1159257070D+03 -0.4604030998D-02
      0.6307782300D+02 -0.1233507946D-01
      0.3484932500D+02 -0.2302104199D-01
      0.1940052200D+02  0.3236711412D-02
      0.1081551700D+02  0.1367969390D+00
      0.6006953000D+01  0.3183466610D+00
      0.3308640000D+01  0.3836335349D+00
      0.1799357000D+01  0.2240687451D+00
      0.9616640000D+00  0.4713264893D-01
      0.5023720000D+00  0.3459205239D-02
      0.2548520000D+00  0.3310734587D-03
 D  16 1.00       0.000000000000
      0.5237200060D+04  0.5069540497D-05
      0.1612175470D+04  0.5373351511D-04
      0.6179331500D+03  0.3636041628D-03
      0.2751743010D+03  0.1742056614D-02
      0.1352802610D+03  0.6602255191D-02
      0.7083381400D+02  0.2016098071D-01
      0.3857775800D+02  0.5069376509D-01
      0.2153871200D+02  0.1079671851D+00
      0.1222546500D+02  0.1840055841D+00
      0.7018196000D+01  0.2440961743D+00
      0.4054348000D+01  0.2626492965D+00
      0.2338499000D+01  0.2241806785D+00
      0.1328367000D+01  0.1352922333D+00
      0.7265420000D+00  0.4881548799D-01
      0.3696680000D+00  0.7884050075D-02
      0.1665550000D+00  0.6446766657D-03
 S  10 1.00       0.000000000000
      0.3882100000D+02  0.2300144399D-03
      0.2074503800D+02  0.3863835953D-02
      0.1111965000D+02  0.2640130519D-02
      0.5957454000D+01 -0.8966677182D-02
      0.3175930000D+01 -0.9457293054D-01
      0.1674973000D+01 -0.2184827177D+00
      0.8674590000D+00  0.8325308406D-01
      0.4370370000D+00  0.5053966275D+00
      0.2117090000D+00  0.4987155701D+00
      0.9720500000D-01  0.1240336784D+00
 S   1 1.00       0.000000000000
      0.1209560000D+00  0.1000000000D+01
 S   1 1.00       0.000000000000
      0.4734000000D-01  0.1000000000D+01
 P  11 1.00       0.000000000000
      0.3484932500D+02  0.1184665237D-03
      0.1940052200D+02 -0.4435072015D-03
      0.1081551700D+02 -0.3741457556D-02
      0.6006953000D+01 -0.9005010777D-02
      0.3308640000D+01 -0.2542087043D-01
      0.1799357000D+01 -0.2314468429D-01
      0.9616640000D+00  0.1187990779D+00
      0.5023720000D+00  0.3164600821D+00
      0.2548520000D+00  0.3904801352D+00
      0.1245350000D+00  0.2667515036D+00
      0.5802900000D-01  0.6072639074D-01
 P   1 1.00       0.000000000000
      0.6083700000D-01  0.1000000000D+01
 P   1 1.00       0.000000000000
      0.2547600000D-01  0.1000000000D+01
 S   1 1.00       0.000000000000
      0.4239434000D+01  0.1000000000D+01
 S   1 1.00       0.000000000000
      0.2478441000D+01  0.1000000000D+01
 S   1 1.00       0.000000000000
      0.1448937000D+01  0.1000000000D+01
 S   1 1.00       0.000000000000
      0.8470720000D+00  0.1000000000D+01
 S   1 1.00       0.000000000000
      0.4952120000D+00  0.1000000000D+01
 S   1 1.00       0.000000000000
      0.2895090000D+00  0.1000000000D+01
 P   1 1.00       0.000000000000
      0.3530439000D+01  0.1000000000D+01
 P   1 1.00       0.000000000000
      0.2050080000D+01  0.1000000000D+01
 P   1 1.00       0.000000000000
      0.1190455000D+01  0.1000000000D+01
 P   1 1.00       0.000000000000
      0.6912820000D+00  0.1000000000D+01
 P   1 1.00       0.000000000000
      0.4014180000D+00  0.1000000000D+01
 P   1 1.00       0.000000000000
      0.2330980000D+00  0.1000000000D+01
 D   1 1.00       0.000000000000
      0.2746111000D+01  0.1000000000D+01
 D   1 1.00       0.000000000000
      0.1533907000D+01  0.1000000000D+01
 D   1 1.00       0.000000000000
      0.8568010000D+00  0.1000000000D+01
 D   1 1.00       0.000000000000
      0.4785870000D+00  0.1000000000D+01
 D   1 1.00       0.000000000000
      0.2673260000D+00  0.1000000000D+01
 D   1 1.00       0.000000000000
      0.1493220000D+00  0.1000000000D+01
 D   1 1.00       0.000000000000
      0.8340770000D-01  0.1000000000D+01
 F   1 1.00       0.000000000000
      0.3187656000D+01  0.1000000000D+01
 F   1 1.00       0.000000000000
      0.1674453000D+01  0.1000000000D+01
 F   1 1.00       0.000000000000
      0.8795780000D+00  0.1000000000D+01
 F   1 1.00       0.000000000000
      0.4620360000D+00  0.1000000000D+01
 F   1 1.00       0.000000000000
      0.2427040000D+00  0.1000000000D+01
 F   1 1.00       0.000000000000
      0.1274910000D+00  0.1000000000D+01
 G   1 1.00       0.000000000000
      0.1560226000D+01  0.1000000000D+01
 G   1 1.00       0.000000000000
      0.9434780000D+00  0.1000000000D+01
 G   1 1.00       0.000000000000
      0.5705260000D+00  0.1000000000D+01
 G   1 1.00       0.000000000000
      0.3450010000D+00  0.1000000000D+01
 G   1 1.00       0.000000000000
      0.2086240000D+00  0.1000000000D+01
 H   1 1.00       0.000000000000
      0.1384770000D+01  0.1000000000D+01
 H   1 1.00       0.000000000000
      0.8134390000D+00  0.1000000000D+01
 H   1 1.00       0.000000000000
      0.4778280000D+00  0.1000000000D+01
 H   1 1.00       0.000000000000
      0.2806840000D+00  0.1000000000D+01
 I   1 1.00       0.000000000000
      0.1302811000D+01  0.1000000000D+01
 I   1 1.00       0.000000000000
      0.6956320000D+00  0.1000000000D+01
 I   1 1.00       0.000000000000
      0.3714310000D+00  0.1000000000D+01
 J   1 1.00       0.000000000000
      0.1102245215D+01  0.1000000000D+01
 ****
      2 0
 S  17 1.00       0.000000000000
      0.3048244770D+07  0.8396810573D-06
      0.5369968820D+06  0.5676545607D-05
      0.1199883200D+06  0.3254964624D-04
      0.3245363880D+05  0.1460551024D-03
      0.1021678190D+05  0.5510724130D-03
      0.3623944150D+04  0.1811665599D-02
      0.1410396690D+04  0.5358354648D-02
      0.5895474470D+03  0.1452539685D-01
      0.2602273170D+03  0.3633701983D-01
      0.1196906900D+03  0.8281703613D-01
      0.5676751100D+02  0.1661259345D+00
      0.2753188800D+02  0.2741990864D+00
      0.1355825000D+02  0.3232958507D+00
      0.6735532000D+01  0.2025864722D+00
      0.3352805000D+01  0.4301269879D-01
      0.1659369000D+01  0.2646600918D-02
      0.8087840000D+00  0.5220454936D-03
 S  11 1.00       0.000000000000
      0.2602273170D+03 -0.2385176003D-03
      0.1196906900D+03 -0.9798822232D-03
      0.5676751100D+02 -0.4826796172D-02
      0.2753188800D+02 -0.1721310513D-01
      0.1355825000D+02 -0.4852233298D-01
      0.6735532000D+01 -0.6936525834D-01
      0.3352805000D+01  0.3551075826D-01
      0.1659369000D+01  0.2641572510D+00
      0.8087840000D+00  0.4234159692D+00
      0.3835520000D+00  0.3317589638D+00
      0.1742700000D+00  0.7587766348D-01
 S   1 1.00       0.000000000000
      0.1003107033D+00  0.1000000000D+01
 P  14 1.00       0.000000000000
      0.4131222500D+04  0.6941429714D-05
      0.1005024520D+04  0.6277603815D-04
      0.3153760590D+03  0.3928396657D-03
      0.1184334420D+03  0.1785103608D-02
      0.5027007200D+02  0.6387638435D-02
      0.2312552200D+02  0.1888831068D-01
      0.1119294000D+02  0.4840532696D-01
      0.5586791000D+01  0.1064977579D+00
      0.2838035000D+01  0.1869575638D+00
      0.1453994000D+01  0.2545242188D+00
      0.7454810000D+00  0.2744026778D+00
      0.3790260000D+00  0.2294936918D+00
      0.1885760000D+00  0.1210457339D+00
      0.8997400000D-01  0.2246455738D-01
 P   1 1.00       0.000000000000
      0.5438434490D-01  0.1000000000D+01
 S   1 1.00       0.000000000000
      0.1068242600D+02  0.1000000000D+01
 S   1 1.00       0.000000000000
      0.4919101000D+01  0.1000000000D+01
 S   1 1.00       0.000000000000
      0.2265174000D+01  0.1000000000D+01
 S   1 1.00       0.000000000000
      0.1043079000D+01  0.1000000000D+01
 S   1 1.00       0.000000000000
      0.4803230000D+00  0.1000000000D+01
 S   1 1.00       0.000000000000
      0.2211820000D+00  0.1000000000D+01
 P   1 1.00       0.000000000000
      0.6754664000D+01  0.1000000000D+01
 P   1 1.00       0.000000000000
      0.3104005000D+01  0.1000000000D+01
 P   1 1.00       0.000000000000
      0.1426399000D+01  0.1000000000D+01
 P   1 1.00       0.000000000000
      0.6554800000D+00  0.1000000000D+01
 P   1 1.00       0.000000000000
      0.3012160000D+00  0.1000000000D+01
 P   1 1.00       0.000000000000
      0.1384190000D+00  0.1000000000D+01
 D   1 1.00       0.000000000000
      0.1635237200D+02  0.1000000000D+01
 D   1 1.00       0.000000000000
      0.7681640000D+01  0.1000000000D+01
 D   1 1.00       0.000000000000
      0.3608503000D+01  0.1000000000D+01
 D   1 1.00       0.000000000000
      0.1695119000D+01  0.1000000000D+01
 D   1 1.00       0.000000000000
      0.7962940000D+00  0.1000000000D+01
 D   1 1.00       0.000000000000
      0.3740650000D+00  0.1000000000D+01
 D   1 1.00       0.000000000000
      0.1757190000D+00  0.1000000000D+01
 F   1 1.00       0.000000000000
      0.8996481000D+01  0.1000000000D+01
 F   1 1.00       0.000000000000
      0.4445515000D+01  0.1000000000D+01
 F   1 1.00       0.000000000000
      0.2196704000D+01  0.1000000000D+01
 F   1 1.00       0.000000000000
      0.1085478000D+01  0.1000000000D+01
 F   1 1.00       0.000000000000
      0.5363770000D+00  0.1000000000D+01
 F   1 1.00       0.000000000000
      0.2650440000D+00  0.1000000000D+01
 G   1 1.00       0.000000000000
      0.9784986000D+01  0.1000000000D+01
 G   1 1.00       0.000000000000
      0.4586666000D+01  0.1000000000D+01
 G   1 1.00       0.000000000000
      0.2149978000D+01  0.1000000000D+01
 G   1 1.00       0.000000000000
      0.1007792000D+01  0.1000000000D+01
 G   1 1.00       0.000000000000
      0.4723977000D+00  0.1000000000D+01
 H   1 1.00       0.000000000000
      0.6419402000D+01  0.1000000000D+01
 H   1 1.00       0.000000000000
      0.2953824000D+01  0.1000000000D+01
 H   1 1.00       0.000000000000
      0.1359173000D+01  0.1000000000D+01
 H   1 1.00       0.000000000000
      0.6254100000D+00  0.1000000000D+01
 I   1 1.00       0.000000000000
      0.5940514000D+01  0.1000000000D+01
 I   1 1.00       0.000000000000
      0.2322489000D+01  0.1000000000D+01
 I   1 1.00       0.000000000000
      0.9079946000D+00  0.1000000000D+01
 J   1 1.00       0.000000000000
      0.3904785650D+01  0.1000000000D+01
 ****

 There are   309 symmetry adapted cartesian basis functions of A1  symmetry.
 There are   129 symmetry adapted cartesian basis functions of A2  symmetry.
 There are   204 symmetry adapted cartesian basis functions of B1  symmetry.
 There are   204 symmetry adapted cartesian basis functions of B2  symmetry.
 There are   180 symmetry adapted basis functions of A1  symmetry.
 There are    87 symmetry adapted basis functions of A2  symmetry.
 There are   128 symmetry adapted basis functions of B1  symmetry.
 There are   128 symmetry adapted basis functions of B2  symmetry.
   523 basis functions,  1169 primitive gaussians,   846 cartesian basis functions
    22 alpha electrons       22 beta electrons
       nuclear repulsion energy        94.7677696259 Hartrees.
 NAtoms=    2 NActive=    2 NUniq=    2 SFac= 1.00D+00 NAtFMM=   60 NAOKFM=F Big=F
 Integral buffers will be    131072 words long.
 Raffenetti 2 integral format.
 Two-electron integral symmetry is turned on.
 One-electron integrals computed using PRISM.
 PrsmSu:  requested number of processors reduced to:   2 ShMem   1 Linda.
 NBasis=   523 RedAO= F EigKep=  0.00D+00  NBF=   180    87   128   128
 NBsUse=   523 1.00D-04 EigRej=  0.00D+00 NBFU=   180    87   128   128
 ExpMin= 2.55D-02 ExpMax= 1.08D+08 ExpMxC= 9.49D+03 IAcc=3 IRadAn=         5 AccDes= 0.00D+00
 Harris functional with IExCor=  205 and IRadAn=       5 diagonalized for initial guess.
 HarFok:  IExCor=  205 AccDes= 0.00D+00 IRadAn=         5 IDoV= 1 UseB2=F ITyADJ=14
 ICtDFT=  3500011 ScaDFX=  1.000000  1.000000  1.000000  1.000000
 FoFCou: FMM=F IPFlag=           0 FMFlag=      100000 FMFlg1=           0
         NFxFlg=           0 DoJE=T BraDBF=F KetDBF=T FulRan=T
         wScrn=  0.000000 ICntrl=     500 IOpCl=  0 I1Cent=   200000004 NGrid=           0
         NMat0=    1 NMatS0=      1 NMatT0=    0 NMatD0=    1 NMtDS0=    0 NMtDT0=    0
 Petite list used in FoFCou.
 DSYEVD returned Info=        1047 IAlg= 4 N=   523 NDim=   523 NE2=     3076758 trying DSYEV.
 Initial guess orbital symmetries:
       Occupied  (SG) (SG) (SG) (PI) (PI) (SG) (SG) (SG) (PI) (PI)
                 (SG) (PI) (PI) (DLTA) (DLTA) (SG) (SG) (SG) (PI)
                 (PI) (PI) (PI)
       Virtual   (SG) (SG) (PI) (PI) (SG) (DLTA) (DLTA) (PI) (PI)
                 (SG) (PI) (PI) (SG) (PI) (PI) (SG) (SG) (DLTA)
                 (DLTA) (DLTA) (DLTA) (PHI) (PHI) (PI) (PI) (SG)
                 (SG) (PI) (PI) (PI) (PI) (SG) (SG) (PI) (PI) (DLTA)
                 (DLTA) (SG) (SG) (PI) (PI) (PHI) (PHI) (?A) (?A)
                 (DLTA) (DLTA) (PI) (PI) (SG) (DLTA) (DLTA) (PHI)
                 (PHI) (DLTA) (DLTA) (PI) (PI) (SG) (PHI) (PHI)
                 (PI) (PI) (SG) (SG) (DLTA) (DLTA) (SG) (PI) (PI)
                 (PI) (PI) (DLTA) (DLTA) (?A) (?A) (?B) (?B) (PI)
                 (PI) (SG) (SG) (PHI) (PHI) (SG) (PI) (PI) (PHI)
                 (PHI) (DLTA) (DLTA) (?A) (?A) (SG) (PI) (PI) (DLTA)
                 (DLTA) (DLTA) (DLTA) (SG) (PHI) (PHI) (PI) (PI)
                 (DLTA) (DLTA) (PI) (PI) (?A) (?A) (SG) (?B) (?B)
                 (SG) (SG) (PHI) (PHI) (SG) (PI) (PI) (SG) (DLTA)
                 (DLTA) (?A) (?A) (PHI) (PHI) (SG) (DLTA) (DLTA)
                 (PI) (PI) (SG) (PI) (PI) (SG) (DLTA) (DLTA) (PI)
                 (PI) (?A) (?A) (?B) (?B) (PHI) (PHI) (SG) (PHI)
                 (PHI) (PI) (PI) (PI) (PI) (SG) (DLTA) (DLTA) (PI)
                 (PI) (?A) (?A) (PHI) (PHI) (SG) (SG) (DLTA) (DLTA)
                 (PI) (PI) (?B) (?B) (DLTA) (DLTA) (PHI) (PHI)
                 (DLTA) (DLTA) (SG) (?A) (?A) (SG) (DLTA) (DLTA)
                 (PI) (PI) (PI) (PI) (PHI) (PHI) (SG) (DLTA) (DLTA)
                 (PI) (PI) (SG) (PI) (PI) (SG) (?A) (?A) (?B) (?B)
                 (SG) (SG) (SG) (PHI) (PHI) (DLTA) (DLTA) (PI)
                 (PI) (PHI) (PHI) (?A) (?A) (SG) (?B) (?B) (PI)
                 (PI) (?A) (?A) (DLTA) (DLTA) (SG) (PHI) (PHI)
                 (SG) (PHI) (PHI) (?A) (?A) (PI) (PI) (DLTA) (DLTA)
                 (DLTA) (DLTA) (PHI) (PHI) (SG) (SG) (?B) (?B)
                 (PI) (PI) (SG) (PI) (PI) (SG) (DLTA) (DLTA) (?A)
                 (?A) (SG) (SG) (DLTA) (DLTA) (PI) (PI) (PHI) (PHI)
                 (PHI) (PHI) (PI) (PI) (DLTA) (DLTA) (PI) (PI)
                 (DLTA) (DLTA) (SG) (SG) (PI) (PI) (DLTA) (DLTA)
                 (SG) (?C) (?C) (SG) (?B) (?B) (SG) (?A) (?A) (PI)
                 (PI) (?B) (?B) (SG) (?A) (?A) (PI) (PI) (DLTA)
                 (DLTA) (PI) (PI) (PHI) (PHI) (SG) (PHI) (PHI)
                 (SG) (SG) (DLTA) (DLTA) (PI) (PI) (SG) (SG) (?B)
                 (?B) (SG) (?A) (?A) (?D) (?D) (?D) (?D) (?D) (?D)
                 (?D) (?D) (DLTA) (DLTA) (PHI) (PHI) (PI) (PI)
                 (PHI) (PHI) (SG) (SG) (DLTA) (DLTA) (PHI) (PHI)
                 (PI) (PI) (DLTA) (DLTA) (SG) (PI) (PI) (DLTA)
                 (DLTA) (SG) (?A) (?A) (PI) (PI) (PHI) (PHI) (PI)
                 (PI) (SG) (DLTA) (DLTA) (SG) (PHI) (PHI) (PI)
                 (PI) (DLTA) (DLTA) (DLTA) (DLTA) (PI) (PI) (SG)
                 (SG) (PI) (PI) (DLTA) (DLTA) (SG) (PI) (PI) (SG)
                 (SG) (?B) (?B) (?A) (?A) (PHI) (PHI) (DLTA) (DLTA)
                 (SG) (PI) (PI) (SG) (?B) (?B) (?A) (?A) (PHI)
                 (PHI) (PI) (PI) (DLTA) (DLTA) (SG) (PI) (PI) (SG)
                 (SG) (SG) (PHI) (PHI) (DLTA) (DLTA) (PI) (PI)
                 (SG) (?A) (?A) (PHI) (PHI) (DLTA) (DLTA) (PI)
                 (PI) (SG) (PI) (PI) (SG) (?A) (?A) (PI) (PI) (SG)
                 (SG) (PHI) (PHI) (PI) (PI) (DLTA) (DLTA) (PI)
                 (PI) (SG) (DLTA) (DLTA) (PI) (PI) (SG) (SG) (SG)
                 (?B) (?B) (?A) (?A) (PHI) (PHI) (DLTA) (DLTA)
                 (PI) (PI) (SG) (?B) (?B) (?A) (?A) (PHI) (PHI)
                 (DLTA) (DLTA) (PI) (PI) (SG) (PHI) (PHI) (DLTA)
                 (DLTA) (PI) (PI) (SG) (SG) (PI) (PI) (?A) (?A)
                 (PHI) (PHI) (DLTA) (DLTA) (SG) (PI) (PI) (SG)
                 (DLTA) (DLTA) (PI) (PI) (SG) (SG) (SG)
 The electronic state of the initial guess is 1-SG.
 Requested convergence on RMS density matrix=1.00D-10 within 128 cycles.
 Requested convergence on MAX density matrix=1.00D-08.
 Requested convergence on             energy=1.00D-08.
 No special actions if energy rises.
 Initial convergence to 1.0D-05 achieved.  Increase integral accuracy.
 SCF Done:  E(ROHF) =  -2671.88277828     A.U. after   15 cycles
            NFock= 15  Conv=0.22D-10     -V/T= 2.0000
 <Sx>= 0.0000 <Sy>= 0.0000 <Sz>= 0.0000 <S**2>= 0.0000 S= 0.0000
 <L.S>= 0.000000000000E+00
 Annihilation of the first spin contaminant:
 S**2 before annihilation     0.0000,   after     0.0000
 GenMOA:  NOpAll=  4 NOp2=4 NOpUse=  4 JSym2X=1
 <Sx>= 0.0000 <Sy>= 0.0000 <Sz>= 0.0000 <S**2>= 0.0000 S= 0.0000
 Range of M.O.s used for correlation:    16   523
 NBasis=   523 NAE=    22 NBE=    22 NFC=    15 NFV=     0
 NROrb=    508 NOA=     7 NOB=     7 NVA=   501 NVB=   501

 **** Warning!!: The largest alpha MO coefficient is  0.71044718D+03


 **** Warning!!: The largest beta MO coefficient is  0.71044718D+03

 Singles contribution to E2=   -0.2903574024D-14
 Disk-based method using OVN memory for  7 occupieds at a time.
 Permanent disk used for amplitudes and <ij||ab> integrals=    35119098 words.
 Estimated scratch disk usage=  3211639591 words.
 IUseRI=2 ITolRI= 6 IR12RI=0
 Actual    scratch disk usage=  3209820967 words.
 GetIJB would need an additional  1732815531 words of memory to use all   8 processors.
 JobTyp=2 Pass  1:  I=   1 to   7 NPSUse=  1 ParTrn=F ParDer=F DoDerP=F.
 T,EIJ(AA): I=   1 J=   2      0.1032797E-03     -0.5886716E-03
 T,EIJ(AA): I=   1 J=   3      0.3950781E-03     -0.2730807E-02
 T,EIJ(AA): I=   1 J=   4      0.3950781E-03     -0.2730807E-02
 T,EIJ(AA): I=   1 J=   5      0.4638282E-03     -0.2592501E-02
 T,EIJ(AA): I=   1 J=   6      0.1003837E-03     -0.5265641E-03
 T,EIJ(AA): I=   1 J=   7      0.1003837E-03     -0.5265641E-03
 T,EIJ(AA): I=   2 J=   3      0.3301323E-03     -0.1496605E-02
 T,EIJ(AA): I=   2 J=   4      0.3301323E-03     -0.1496605E-02
 T,EIJ(AA): I=   2 J=   5      0.3944063E-03     -0.1334647E-02
 T,EIJ(AA): I=   2 J=   6      0.4599429E-03     -0.1549161E-02
 T,EIJ(AA): I=   2 J=   7      0.4599429E-03     -0.1549161E-02
 T,EIJ(AA): I=   3 J=   4      0.1399698E-02     -0.7860080E-02
 T,EIJ(AA): I=   3 J=   5      0.1811824E-02     -0.7636153E-02
 T,EIJ(AA): I=   3 J=   6      0.3762267E-03     -0.1443611E-02
 T,EIJ(AA): I=   3 J=   7      0.1351880E-03     -0.4211695E-03
 T,EIJ(AA): I=   4 J=   5      0.1811824E-02     -0.7636153E-02
 T,EIJ(AA): I=   4 J=   6      0.1351880E-03     -0.4211695E-03
 T,EIJ(AA): I=   4 J=   7      0.3762267E-03     -0.1443611E-02
 T,EIJ(AA): I=   5 J=   6      0.1528539E-02     -0.3777631E-02
 T,EIJ(AA): I=   5 J=   7      0.1528539E-02     -0.3777631E-02
 T,EIJ(AA): I=   6 J=   7      0.2303090E-02     -0.5475679E-02
 T,EIJ(AB): I=   1 J=   1      0.1447327E-02     -0.1215722E-01
 T,EIJ(AB): I=   1 J=   2      0.2677660E-03     -0.2011494E-02
 T,EIJ(AB): I=   1 J=   3      0.1281317E-02     -0.1032256E-01
 T,EIJ(AB): I=   1 J=   4      0.1281317E-02     -0.1032256E-01
 T,EIJ(AB): I=   1 J=   5      0.1447185E-02     -0.9325118E-02
 T,EIJ(AB): I=   1 J=   6      0.2126821E-03     -0.1398613E-02
 T,EIJ(AB): I=   1 J=   7      0.2126821E-03     -0.1398613E-02
 T,EIJ(AB): I=   2 J=   1      0.2677660E-03     -0.2011494E-02
 T,EIJ(AB): I=   2 J=   2      0.2613345E-02     -0.1006945E-01
 T,EIJ(AB): I=   2 J=   3      0.5635423E-03     -0.2766305E-02
 T,EIJ(AB): I=   2 J=   4      0.5635423E-03     -0.2766305E-02
 T,EIJ(AB): I=   2 J=   5      0.1506621E-02     -0.6502385E-02
 T,EIJ(AB): I=   2 J=   6      0.2086900E-02     -0.7740687E-02
 T,EIJ(AB): I=   2 J=   7      0.2086900E-02     -0.7740687E-02
 T,EIJ(AB): I=   3 J=   1      0.1281317E-02     -0.1032256E-01
 T,EIJ(AB): I=   3 J=   2      0.5635423E-03     -0.2766305E-02
 T,EIJ(AB): I=   3 J=   3      0.3616747E-02     -0.2197524E-01
 T,EIJ(AB): I=   3 J=   4      0.1857502E-02     -0.1106338E-01
 T,EIJ(AB): I=   3 J=   5      0.2294150E-02     -0.1035961E-01
 T,EIJ(AB): I=   3 J=   6      0.4699899E-03     -0.1936300E-02
 T,EIJ(AB): I=   3 J=   7      0.8576768E-03     -0.3686539E-02
 T,EIJ(AB): I=   4 J=   1      0.1281317E-02     -0.1032256E-01
 T,EIJ(AB): I=   4 J=   2      0.5635423E-03     -0.2766305E-02
 T,EIJ(AB): I=   4 J=   3      0.1857502E-02     -0.1106338E-01
 T,EIJ(AB): I=   4 J=   4      0.3616747E-02     -0.2197524E-01
 T,EIJ(AB): I=   4 J=   5      0.2294150E-02     -0.1035961E-01
 T,EIJ(AB): I=   4 J=   6      0.8576768E-03     -0.3686539E-02
 T,EIJ(AB): I=   4 J=   7      0.4699899E-03     -0.1936300E-02
 T,EIJ(AB): I=   5 J=   1      0.1447185E-02     -0.9325118E-02
 T,EIJ(AB): I=   5 J=   2      0.1506621E-02     -0.6502385E-02
 T,EIJ(AB): I=   5 J=   3      0.2294150E-02     -0.1035961E-01
 T,EIJ(AB): I=   5 J=   4      0.2294150E-02     -0.1035961E-01
 T,EIJ(AB): I=   5 J=   5      0.1116419E-01     -0.2838371E-01
 T,EIJ(AB): I=   5 J=   6      0.1967955E-02     -0.5502669E-02
 T,EIJ(AB): I=   5 J=   7      0.1967955E-02     -0.5502669E-02
 T,EIJ(AB): I=   6 J=   1      0.2126821E-03     -0.1398613E-02
 T,EIJ(AB): I=   6 J=   2      0.2086900E-02     -0.7740687E-02
 T,EIJ(AB): I=   6 J=   3      0.4699899E-03     -0.1936300E-02
 T,EIJ(AB): I=   6 J=   4      0.8576768E-03     -0.3686539E-02
 T,EIJ(AB): I=   6 J=   5      0.1967955E-02     -0.5502669E-02
 T,EIJ(AB): I=   6 J=   6      0.7042694E-02     -0.1817365E-01
 T,EIJ(AB): I=   6 J=   7      0.2998100E-02     -0.7946444E-02
 T,EIJ(AB): I=   7 J=   1      0.2126821E-03     -0.1398613E-02
 T,EIJ(AB): I=   7 J=   2      0.2086900E-02     -0.7740687E-02
 T,EIJ(AB): I=   7 J=   3      0.8576768E-03     -0.3686539E-02
 T,EIJ(AB): I=   7 J=   4      0.4699899E-03     -0.1936300E-02
 T,EIJ(AB): I=   7 J=   5      0.1967955E-02     -0.5502669E-02
 T,EIJ(AB): I=   7 J=   6      0.2998100E-02     -0.7946444E-02
 T,EIJ(AB): I=   7 J=   7      0.7042694E-02     -0.1817365E-01
 Actual    scratch disk usage=  3209820967 words.
 GetIJB would need an additional  1732815531 words of memory to use all   8 processors.
 JobTyp=3 Pass  1:  I=   1 to   7 NPSUse=  1 ParTrn=F ParDer=F DoDerP=F.
 T,EIJ(BB): I=   1 J=   2      0.1032797E-03     -0.5886716E-03
 T,EIJ(BB): I=   1 J=   3      0.3950781E-03     -0.2730807E-02
 T,EIJ(BB): I=   1 J=   4      0.3950781E-03     -0.2730807E-02
 T,EIJ(BB): I=   1 J=   5      0.4638282E-03     -0.2592501E-02
 T,EIJ(BB): I=   1 J=   6      0.1003837E-03     -0.5265641E-03
 T,EIJ(BB): I=   1 J=   7      0.1003837E-03     -0.5265641E-03
 T,EIJ(BB): I=   2 J=   3      0.3301323E-03     -0.1496605E-02
 T,EIJ(BB): I=   2 J=   4      0.3301323E-03     -0.1496605E-02
 T,EIJ(BB): I=   2 J=   5      0.3944063E-03     -0.1334647E-02
 T,EIJ(BB): I=   2 J=   6      0.4599429E-03     -0.1549161E-02
 T,EIJ(BB): I=   2 J=   7      0.4599429E-03     -0.1549161E-02
 T,EIJ(BB): I=   3 J=   4      0.1399698E-02     -0.7860080E-02
 T,EIJ(BB): I=   3 J=   5      0.1811824E-02     -0.7636153E-02
 T,EIJ(BB): I=   3 J=   6      0.3762267E-03     -0.1443611E-02
 T,EIJ(BB): I=   3 J=   7      0.1351880E-03     -0.4211695E-03
 T,EIJ(BB): I=   4 J=   5      0.1811824E-02     -0.7636153E-02
 T,EIJ(BB): I=   4 J=   6      0.1351880E-03     -0.4211695E-03
 T,EIJ(BB): I=   4 J=   7      0.3762267E-03     -0.1443611E-02
 T,EIJ(BB): I=   5 J=   6      0.1528539E-02     -0.3777631E-02
 T,EIJ(BB): I=   5 J=   7      0.1528539E-02     -0.3777631E-02
 T,EIJ(BB): I=   6 J=   7      0.2303090E-02     -0.5475679E-02
 Spin components of T(2) and E(2):
     alpha-alpha T2 =       0.1493893041D-01 E2=     -0.5701497970D-01
     alpha-beta  T2 =       0.9163494755D-01 E2=     -0.3794589410D+00
     beta-beta   T2 =       0.1493893041D-01 E2=     -0.5701497970D-01
 ANorm=    0.1059015018D+01
 E2 =    -0.4934889004D+00 EUMP2 =    -0.26723762671800D+04

 Complete Basis Set (CBS) Extrapolation:
 M. R. Nyden and G. A. Petersson, JCP 75, 1843 (1981)
 G. A. Petersson and M. A. Al-Laham, JCP 94, 6081 (1991)
 G. A. Petersson, T. Tensfeldt, and J. A. Montgomery, JCP 94, 6091 (1991)
 J. A. Montgomery, J. W. Ochterski, and G. A. Petersson, JCP 101, 5900 (1994)
 
 Minimum Number of PNO for Extrapolation =  25
 Absolute Overlaps: IRadAn =         5
 LocTrn: ILocal=3 LocCor=F DoCore=F.
 Entering OneElI...
 Overlap between basis sets.
 Requested accuracy = 0.1000D-12
 PrsmSu:  NPrtUS=   1 ThrOK=F IAlg=1 NPAlg=1 LenDen=           0.
 Prism:   IPart=     0 DynPar=F LinDyn=F Incr=           1.
 PRISM was handed  1609335638 working-precision words and    60 shell-pairs
 IPart=  0 NShTot=          60 NBatch=          16 AvBLen=         3.8
 PrSmSu:  NxtVal=              2.
 CnvPC2: ToCart=F DoDens=F IPureD=0 IPureF=0.
 Transformed matrix in CnvPC2: 
                 1             2             3             4             5 
      1   0.100000D+01  0.406589D+00  0.000000D+00  0.000000D+00  0.000000D+00
      2   0.406589D+00  0.100000D+01  0.000000D+00  0.000000D+00  0.000000D+00
      3   0.000000D+00  0.000000D+00  0.100000D+01  0.000000D+00  0.000000D+00
      4   0.000000D+00  0.000000D+00  0.000000D+00  0.100000D+01  0.000000D+00
      5   0.000000D+00  0.000000D+00  0.000000D+00  0.000000D+00  0.100000D+01
      6   0.319944D-01  0.362204D+00  0.000000D+00  0.000000D+00  0.000000D+00
      7   0.000000D+00  0.000000D+00  0.375020D+00  0.000000D+00  0.000000D+00
      8   0.000000D+00  0.000000D+00  0.000000D+00  0.375020D+00  0.000000D+00
      9   0.000000D+00  0.000000D+00  0.000000D+00  0.000000D+00  0.375020D+00
     10   0.000000D+00  0.000000D+00  0.000000D+00  0.000000D+00  0.000000D+00
     11   0.000000D+00  0.000000D+00  0.000000D+00  0.000000D+00  0.000000D+00
     12   0.000000D+00  0.000000D+00  0.000000D+00  0.000000D+00  0.000000D+00
     13   0.000000D+00  0.000000D+00  0.000000D+00  0.000000D+00  0.000000D+00
     14   0.000000D+00  0.000000D+00  0.000000D+00  0.000000D+00  0.000000D+00
     15  -0.396207D-03  0.612395D-02  0.000000D+00  0.000000D+00  0.000000D+00
     16   0.000000D+00  0.000000D+00  0.149285D-01  0.000000D+00  0.000000D+00
     17   0.000000D+00  0.000000D+00  0.000000D+00  0.149285D-01  0.000000D+00
     18   0.000000D+00  0.000000D+00  0.000000D+00  0.000000D+00  0.149285D-01
     19   0.000000D+00  0.000000D+00  0.000000D+00  0.000000D+00  0.000000D+00
     20   0.000000D+00  0.000000D+00  0.000000D+00  0.000000D+00  0.000000D+00
     21   0.000000D+00  0.000000D+00  0.000000D+00  0.000000D+00  0.000000D+00
     22   0.000000D+00  0.000000D+00  0.000000D+00  0.000000D+00  0.000000D+00
     23   0.000000D+00  0.000000D+00  0.000000D+00  0.000000D+00  0.000000D+00
     24   0.000000D+00  0.000000D+00  0.000000D+00  0.000000D+00  0.000000D+00
     25   0.911810D-04  0.602051D-03  0.000000D+00  0.000000D+00 -0.296651D-03
     26   0.000000D+00  0.000000D+00  0.714870D-04  0.000000D+00  0.000000D+00
     27   0.000000D+00  0.000000D+00  0.000000D+00  0.714870D-04  0.000000D+00
     28   0.236549D-03  0.152677D-02  0.000000D+00  0.000000D+00 -0.682652D-03
                 6             7             8             9            10 
      1   0.319944D-01  0.000000D+00  0.000000D+00  0.000000D+00  0.000000D+00
      2   0.362204D+00  0.000000D+00  0.000000D+00  0.000000D+00  0.000000D+00
      3   0.000000D+00  0.375020D+00  0.000000D+00  0.000000D+00  0.000000D+00
      4   0.000000D+00  0.000000D+00  0.375020D+00  0.000000D+00  0.000000D+00
      5   0.000000D+00  0.000000D+00  0.000000D+00  0.375020D+00  0.000000D+00
      6   0.100000D+01  0.000000D+00  0.000000D+00  0.000000D+00  0.000000D+00
      7   0.000000D+00  0.100000D+01  0.000000D+00  0.000000D+00  0.000000D+00
      8   0.000000D+00  0.000000D+00  0.100000D+01  0.000000D+00  0.000000D+00
      9   0.000000D+00  0.000000D+00  0.000000D+00  0.100000D+01  0.000000D+00
     10   0.000000D+00  0.000000D+00  0.000000D+00  0.000000D+00  0.100000D+01
     11   0.000000D+00  0.000000D+00  0.000000D+00  0.000000D+00  0.000000D+00
     12   0.000000D+00  0.000000D+00  0.000000D+00  0.000000D+00  0.000000D+00
     13   0.000000D+00  0.000000D+00  0.000000D+00  0.000000D+00  0.000000D+00
     14   0.000000D+00  0.000000D+00  0.000000D+00  0.000000D+00  0.000000D+00
     15   0.201919D+00  0.000000D+00  0.000000D+00  0.000000D+00  0.000000D+00
     16   0.000000D+00  0.218356D+00  0.000000D+00  0.000000D+00  0.000000D+00
     17   0.000000D+00  0.000000D+00  0.218356D+00  0.000000D+00  0.000000D+00
     18   0.000000D+00  0.000000D+00  0.000000D+00  0.218356D+00  0.000000D+00
     19   0.000000D+00  0.000000D+00  0.000000D+00  0.000000D+00  0.404997D-01
     20   0.000000D+00  0.000000D+00  0.000000D+00  0.000000D+00  0.000000D+00
     21   0.000000D+00  0.000000D+00  0.000000D+00  0.000000D+00  0.000000D+00
     22   0.000000D+00  0.000000D+00  0.000000D+00  0.000000D+00  0.000000D+00
     23   0.000000D+00  0.000000D+00  0.000000D+00  0.000000D+00  0.000000D+00
     24   0.000000D+00  0.000000D+00  0.000000D+00  0.000000D+00  0.000000D+00
     25   0.524504D-02  0.000000D+00  0.000000D+00 -0.598923D-02  0.394493D-02
     26   0.000000D+00  0.144765D-02  0.000000D+00  0.000000D+00  0.000000D+00
     27   0.000000D+00  0.000000D+00  0.144765D-02  0.000000D+00  0.000000D+00
     28   0.113823D-01  0.000000D+00  0.000000D+00 -0.119213D-01  0.709175D-02
                11            12            13            14            15 
      1   0.000000D+00  0.000000D+00  0.000000D+00  0.000000D+00 -0.396207D-03
      2   0.000000D+00  0.000000D+00  0.000000D+00  0.000000D+00  0.612395D-02
      3   0.000000D+00  0.000000D+00  0.000000D+00  0.000000D+00  0.000000D+00
      4   0.000000D+00  0.000000D+00  0.000000D+00  0.000000D+00  0.000000D+00
      5   0.000000D+00  0.000000D+00  0.000000D+00  0.000000D+00  0.000000D+00
      6   0.000000D+00  0.000000D+00  0.000000D+00  0.000000D+00  0.201919D+00
      7   0.000000D+00  0.000000D+00  0.000000D+00  0.000000D+00  0.000000D+00
      8   0.000000D+00  0.000000D+00  0.000000D+00  0.000000D+00  0.000000D+00
      9   0.000000D+00  0.000000D+00  0.000000D+00  0.000000D+00  0.000000D+00
     10   0.000000D+00  0.000000D+00  0.000000D+00  0.000000D+00  0.000000D+00
     11   0.100000D+01  0.000000D+00  0.000000D+00  0.000000D+00  0.000000D+00
     12   0.000000D+00  0.100000D+01  0.000000D+00  0.000000D+00  0.000000D+00
     13   0.000000D+00  0.000000D+00  0.100000D+01  0.000000D+00  0.000000D+00
     14   0.000000D+00  0.000000D+00  0.000000D+00  0.100000D+01  0.000000D+00
     15   0.000000D+00  0.000000D+00  0.000000D+00  0.000000D+00  0.100000D+01
     16   0.000000D+00  0.000000D+00  0.000000D+00  0.000000D+00  0.000000D+00
     17   0.000000D+00  0.000000D+00  0.000000D+00  0.000000D+00  0.000000D+00
     18   0.000000D+00  0.000000D+00  0.000000D+00  0.000000D+00  0.000000D+00
     19   0.000000D+00  0.000000D+00  0.000000D+00  0.000000D+00  0.000000D+00
     20   0.404997D-01  0.000000D+00  0.000000D+00  0.000000D+00  0.000000D+00
     21   0.000000D+00  0.404997D-01  0.000000D+00  0.000000D+00  0.000000D+00
     22   0.000000D+00  0.000000D+00  0.404997D-01  0.000000D+00  0.000000D+00
     23   0.000000D+00  0.000000D+00  0.000000D+00  0.404997D-01  0.000000D+00
     24   0.000000D+00  0.000000D+00  0.000000D+00  0.000000D+00  0.118896D-01
     25   0.000000D+00  0.000000D+00  0.000000D+00  0.000000D+00  0.151810D+00
     26  -0.165716D-02  0.000000D+00  0.000000D+00  0.000000D+00  0.000000D+00
     27   0.000000D+00 -0.165716D-02  0.000000D+00  0.000000D+00  0.000000D+00
     28   0.000000D+00  0.000000D+00  0.000000D+00  0.000000D+00  0.148837D+00
                16            17            18            19            20 
      1   0.000000D+00  0.000000D+00  0.000000D+00  0.000000D+00  0.000000D+00
      2   0.000000D+00  0.000000D+00  0.000000D+00  0.000000D+00  0.000000D+00
      3   0.149285D-01  0.000000D+00  0.000000D+00  0.000000D+00  0.000000D+00
      4   0.000000D+00  0.149285D-01  0.000000D+00  0.000000D+00  0.000000D+00
      5   0.000000D+00  0.000000D+00  0.149285D-01  0.000000D+00  0.000000D+00
      6   0.000000D+00  0.000000D+00  0.000000D+00  0.000000D+00  0.000000D+00
      7   0.218356D+00  0.000000D+00  0.000000D+00  0.000000D+00  0.000000D+00
      8   0.000000D+00  0.218356D+00  0.000000D+00  0.000000D+00  0.000000D+00
      9   0.000000D+00  0.000000D+00  0.218356D+00  0.000000D+00  0.000000D+00
     10   0.000000D+00  0.000000D+00  0.000000D+00  0.404997D-01  0.000000D+00
     11   0.000000D+00  0.000000D+00  0.000000D+00  0.000000D+00  0.404997D-01
     12   0.000000D+00  0.000000D+00  0.000000D+00  0.000000D+00  0.000000D+00
     13   0.000000D+00  0.000000D+00  0.000000D+00  0.000000D+00  0.000000D+00
     14   0.000000D+00  0.000000D+00  0.000000D+00  0.000000D+00  0.000000D+00
     15   0.000000D+00  0.000000D+00  0.000000D+00  0.000000D+00  0.000000D+00
     16   0.100000D+01  0.000000D+00  0.000000D+00  0.000000D+00  0.000000D+00
     17   0.000000D+00  0.100000D+01  0.000000D+00  0.000000D+00  0.000000D+00
     18   0.000000D+00  0.000000D+00  0.100000D+01  0.000000D+00  0.000000D+00
     19   0.000000D+00  0.000000D+00  0.000000D+00  0.100000D+01  0.000000D+00
     20   0.000000D+00  0.000000D+00  0.000000D+00  0.000000D+00  0.100000D+01
     21   0.000000D+00  0.000000D+00  0.000000D+00  0.000000D+00  0.000000D+00
     22   0.000000D+00  0.000000D+00  0.000000D+00  0.000000D+00  0.000000D+00
     23   0.000000D+00  0.000000D+00  0.000000D+00  0.000000D+00  0.000000D+00
     24   0.000000D+00  0.000000D+00 -0.204108D-01  0.659984D-01  0.000000D+00
     25   0.000000D+00  0.000000D+00 -0.233857D+00  0.449549D+00  0.000000D+00
     26   0.642070D-01  0.000000D+00  0.000000D+00  0.000000D+00 -0.224148D+00
     27   0.000000D+00  0.642070D-01  0.000000D+00  0.000000D+00  0.000000D+00
     28   0.000000D+00  0.000000D+00 -0.215146D+00  0.130394D+00  0.000000D+00
                21            22            23            24            25 
      1   0.000000D+00  0.000000D+00  0.000000D+00  0.000000D+00  0.911810D-04
      2   0.000000D+00  0.000000D+00  0.000000D+00  0.000000D+00  0.602051D-03
      3   0.000000D+00  0.000000D+00  0.000000D+00  0.000000D+00  0.000000D+00
      4   0.000000D+00  0.000000D+00  0.000000D+00  0.000000D+00  0.000000D+00
      5   0.000000D+00  0.000000D+00  0.000000D+00  0.000000D+00 -0.296651D-03
      6   0.000000D+00  0.000000D+00  0.000000D+00  0.000000D+00  0.524504D-02
      7   0.000000D+00  0.000000D+00  0.000000D+00  0.000000D+00  0.000000D+00
      8   0.000000D+00  0.000000D+00  0.000000D+00  0.000000D+00  0.000000D+00
      9   0.000000D+00  0.000000D+00  0.000000D+00  0.000000D+00 -0.598923D-02
     10   0.000000D+00  0.000000D+00  0.000000D+00  0.000000D+00  0.394493D-02
     11   0.000000D+00  0.000000D+00  0.000000D+00  0.000000D+00  0.000000D+00
     12   0.404997D-01  0.000000D+00  0.000000D+00  0.000000D+00  0.000000D+00
     13   0.000000D+00  0.404997D-01  0.000000D+00  0.000000D+00  0.000000D+00
     14   0.000000D+00  0.000000D+00  0.404997D-01  0.000000D+00  0.000000D+00
     15   0.000000D+00  0.000000D+00  0.000000D+00  0.118896D-01  0.151810D+00
     16   0.000000D+00  0.000000D+00  0.000000D+00  0.000000D+00  0.000000D+00
     17   0.000000D+00  0.000000D+00  0.000000D+00  0.000000D+00  0.000000D+00
     18   0.000000D+00  0.000000D+00  0.000000D+00 -0.204108D-01 -0.233857D+00
     19   0.000000D+00  0.000000D+00  0.000000D+00  0.659984D-01  0.449549D+00
     20   0.000000D+00  0.000000D+00  0.000000D+00  0.000000D+00  0.000000D+00
     21   0.100000D+01  0.000000D+00  0.000000D+00  0.000000D+00  0.000000D+00
     22   0.000000D+00  0.100000D+01  0.000000D+00  0.000000D+00  0.000000D+00
     23   0.000000D+00  0.000000D+00  0.100000D+01  0.000000D+00  0.000000D+00
     24   0.000000D+00  0.000000D+00  0.000000D+00  0.100000D+01  0.237990D+00
     25   0.000000D+00  0.000000D+00  0.000000D+00  0.237990D+00  0.100000D+01
     26   0.000000D+00  0.000000D+00  0.000000D+00  0.000000D+00  0.000000D+00
     27  -0.224148D+00  0.000000D+00  0.000000D+00  0.000000D+00  0.000000D+00
     28   0.000000D+00  0.000000D+00  0.000000D+00  0.000000D+00  0.000000D+00
                26            27            28 
      1   0.000000D+00  0.000000D+00  0.236549D-03
      2   0.000000D+00  0.000000D+00  0.152677D-02
      3   0.714870D-04  0.000000D+00  0.000000D+00
      4   0.000000D+00  0.714870D-04  0.000000D+00
      5   0.000000D+00  0.000000D+00 -0.682652D-03
      6   0.000000D+00  0.000000D+00  0.113823D-01
      7   0.144765D-02  0.000000D+00  0.000000D+00
      8   0.000000D+00  0.144765D-02  0.000000D+00
      9   0.000000D+00  0.000000D+00 -0.119213D-01
     10   0.000000D+00  0.000000D+00  0.709175D-02
     11  -0.165716D-02  0.000000D+00  0.000000D+00
     12   0.000000D+00 -0.165716D-02  0.000000D+00
     13   0.000000D+00  0.000000D+00  0.000000D+00
     14   0.000000D+00  0.000000D+00  0.000000D+00
     15   0.000000D+00  0.000000D+00  0.148837D+00
     16   0.642070D-01  0.000000D+00  0.000000D+00
     17   0.000000D+00  0.642070D-01  0.000000D+00
     18   0.000000D+00  0.000000D+00 -0.215146D+00
     19   0.000000D+00  0.000000D+00  0.130394D+00
     20  -0.224148D+00  0.000000D+00  0.000000D+00
     21   0.000000D+00 -0.224148D+00  0.000000D+00
     22   0.000000D+00  0.000000D+00  0.000000D+00
     23   0.000000D+00  0.000000D+00  0.000000D+00
     24   0.000000D+00  0.000000D+00  0.000000D+00
     25   0.000000D+00  0.000000D+00  0.000000D+00
     26   0.100000D+01  0.000000D+00  0.000000D+00
     27   0.000000D+00  0.100000D+01  0.000000D+00
     28   0.000000D+00  0.000000D+00  0.100000D+01
 Entering OneElI...
 Overlap between basis sets.
 Requested accuracy = 0.1000D-12
 PrsmSu:  NPrtUS=   1 ThrOK=F IAlg=1 NPAlg=1 LenDen=           0.
 Prism:   IPart=     0 DynPar=F LinDyn=F Incr=           7.
 PRISM was handed  1608378519 working-precision words and   728 shell-pairs
 IPart=  0 NShTot=         728 NBatch=         107 AvBLen=         6.8
 PrSmSu:  NxtVal=              8.
 CnvPC2: ToCart=F DoDens=F IPureD=0 IPureF=0.
 Transformed matrix in CnvPC2: 
                 1             2             3             4             5 
      1   0.999797D+00  0.414271D+00  0.000000D+00  0.000000D+00  0.000000D+00
      2   0.291845D+00  0.988280D+00  0.000000D+00  0.000000D+00  0.000000D+00
      3   0.000000D+00  0.000000D+00  0.999269D+00  0.000000D+00  0.000000D+00
      4   0.000000D+00  0.000000D+00  0.000000D+00  0.999269D+00  0.000000D+00
      5   0.000000D+00  0.000000D+00  0.000000D+00  0.000000D+00  0.999269D+00
      6   0.140811D-01  0.332015D+00  0.000000D+00  0.000000D+00  0.000000D+00
      7   0.000000D+00  0.000000D+00  0.360400D+00  0.000000D+00  0.000000D+00
      8   0.000000D+00  0.000000D+00  0.000000D+00  0.360400D+00  0.000000D+00
      9   0.000000D+00  0.000000D+00  0.000000D+00  0.000000D+00  0.360400D+00
     10   0.000000D+00  0.000000D+00  0.000000D+00  0.000000D+00  0.000000D+00
     11   0.000000D+00  0.000000D+00  0.000000D+00  0.000000D+00  0.000000D+00
     12   0.000000D+00  0.000000D+00  0.000000D+00  0.000000D+00  0.000000D+00
     13   0.000000D+00  0.000000D+00  0.000000D+00  0.000000D+00  0.000000D+00
     14   0.000000D+00  0.000000D+00  0.000000D+00  0.000000D+00  0.000000D+00
     15   0.122173D-03  0.129367D-01  0.000000D+00  0.000000D+00  0.000000D+00
     16   0.997933D-02  0.598910D-01  0.000000D+00  0.000000D+00  0.000000D+00
     17   0.494118D-02  0.298084D-01  0.000000D+00  0.000000D+00  0.000000D+00
     18   0.000000D+00  0.000000D+00  0.111528D-01  0.000000D+00  0.000000D+00
     19   0.000000D+00  0.000000D+00  0.000000D+00  0.111528D-01  0.000000D+00
     20   0.000000D+00  0.000000D+00  0.000000D+00  0.000000D+00  0.111528D-01
     21   0.000000D+00  0.000000D+00  0.276871D-02  0.000000D+00  0.000000D+00
     22   0.000000D+00  0.000000D+00  0.000000D+00  0.276871D-02  0.000000D+00
     23   0.000000D+00  0.000000D+00  0.000000D+00  0.000000D+00  0.276871D-02
     24   0.000000D+00  0.000000D+00  0.936672D-03  0.000000D+00  0.000000D+00
     25   0.000000D+00  0.000000D+00  0.000000D+00  0.936672D-03  0.000000D+00
     26   0.000000D+00  0.000000D+00  0.000000D+00  0.000000D+00  0.936672D-03
     27   0.138765D+00  0.646375D+00  0.000000D+00  0.000000D+00  0.000000D+00
     28   0.941716D-01  0.485019D+00  0.000000D+00  0.000000D+00  0.000000D+00
     29   0.635203D-01  0.348743D+00  0.000000D+00  0.000000D+00  0.000000D+00
     30   0.426901D-01  0.243791D+00  0.000000D+00  0.000000D+00  0.000000D+00
     31   0.286291D-01  0.167423D+00  0.000000D+00  0.000000D+00  0.000000D+00
     32   0.191751D-01  0.113735D+00  0.000000D+00  0.000000D+00  0.000000D+00
     33   0.000000D+00  0.000000D+00  0.305516D+00  0.000000D+00  0.000000D+00
     34   0.000000D+00  0.000000D+00  0.000000D+00  0.305516D+00  0.000000D+00
     35   0.000000D+00  0.000000D+00  0.000000D+00  0.000000D+00  0.305516D+00
     36   0.000000D+00  0.000000D+00  0.179683D+00  0.000000D+00  0.000000D+00
     37   0.000000D+00  0.000000D+00  0.000000D+00  0.179683D+00  0.000000D+00
     38   0.000000D+00  0.000000D+00  0.000000D+00  0.000000D+00  0.179683D+00
     39   0.000000D+00  0.000000D+00  0.999632D-01  0.000000D+00  0.000000D+00
     40   0.000000D+00  0.000000D+00  0.000000D+00  0.999632D-01  0.000000D+00
     41   0.000000D+00  0.000000D+00  0.000000D+00  0.000000D+00  0.999632D-01
     42   0.000000D+00  0.000000D+00  0.536214D-01  0.000000D+00  0.000000D+00
     43   0.000000D+00  0.000000D+00  0.000000D+00  0.536214D-01  0.000000D+00
     44   0.000000D+00  0.000000D+00  0.000000D+00  0.000000D+00  0.536214D-01
     45   0.000000D+00  0.000000D+00  0.281147D-01  0.000000D+00  0.000000D+00
     46   0.000000D+00  0.000000D+00  0.000000D+00  0.281147D-01  0.000000D+00
     47   0.000000D+00  0.000000D+00  0.000000D+00  0.000000D+00  0.281147D-01
     48   0.000000D+00  0.000000D+00  0.145385D-01  0.000000D+00  0.000000D+00
     49   0.000000D+00  0.000000D+00  0.000000D+00  0.145385D-01  0.000000D+00
     50   0.000000D+00  0.000000D+00  0.000000D+00  0.000000D+00  0.145385D-01
     51   0.000000D+00  0.000000D+00  0.000000D+00  0.000000D+00  0.000000D+00
     52   0.000000D+00  0.000000D+00  0.000000D+00  0.000000D+00  0.000000D+00
     53   0.000000D+00  0.000000D+00  0.000000D+00  0.000000D+00  0.000000D+00
     54   0.000000D+00  0.000000D+00  0.000000D+00  0.000000D+00  0.000000D+00
     55   0.000000D+00  0.000000D+00  0.000000D+00  0.000000D+00  0.000000D+00
     56   0.000000D+00  0.000000D+00  0.000000D+00  0.000000D+00  0.000000D+00
     57   0.000000D+00  0.000000D+00  0.000000D+00  0.000000D+00  0.000000D+00
     58   0.000000D+00  0.000000D+00  0.000000D+00  0.000000D+00  0.000000D+00
     59   0.000000D+00  0.000000D+00  0.000000D+00  0.000000D+00  0.000000D+00
     60   0.000000D+00  0.000000D+00  0.000000D+00  0.000000D+00  0.000000D+00
     61   0.000000D+00  0.000000D+00  0.000000D+00  0.000000D+00  0.000000D+00
     62   0.000000D+00  0.000000D+00  0.000000D+00  0.000000D+00  0.000000D+00
     63   0.000000D+00  0.000000D+00  0.000000D+00  0.000000D+00  0.000000D+00
     64   0.000000D+00  0.000000D+00  0.000000D+00  0.000000D+00  0.000000D+00
     65   0.000000D+00  0.000000D+00  0.000000D+00  0.000000D+00  0.000000D+00
     66   0.000000D+00  0.000000D+00  0.000000D+00  0.000000D+00  0.000000D+00
     67   0.000000D+00  0.000000D+00  0.000000D+00  0.000000D+00  0.000000D+00
     68   0.000000D+00  0.000000D+00  0.000000D+00  0.000000D+00  0.000000D+00
     69   0.000000D+00  0.000000D+00  0.000000D+00  0.000000D+00  0.000000D+00
     70   0.000000D+00  0.000000D+00  0.000000D+00  0.000000D+00  0.000000D+00
     71   0.000000D+00  0.000000D+00  0.000000D+00  0.000000D+00  0.000000D+00
     72   0.000000D+00  0.000000D+00  0.000000D+00  0.000000D+00  0.000000D+00
     73   0.000000D+00  0.000000D+00  0.000000D+00  0.000000D+00  0.000000D+00
     74   0.000000D+00  0.000000D+00  0.000000D+00  0.000000D+00  0.000000D+00
     75   0.000000D+00  0.000000D+00  0.000000D+00  0.000000D+00  0.000000D+00
     76   0.000000D+00  0.000000D+00  0.000000D+00  0.000000D+00  0.000000D+00
     77   0.000000D+00  0.000000D+00  0.000000D+00  0.000000D+00  0.000000D+00
     78   0.000000D+00  0.000000D+00  0.000000D+00  0.000000D+00  0.000000D+00
     79   0.000000D+00  0.000000D+00  0.000000D+00  0.000000D+00  0.000000D+00
     80   0.000000D+00  0.000000D+00  0.000000D+00  0.000000D+00  0.000000D+00
     81   0.000000D+00  0.000000D+00  0.000000D+00  0.000000D+00  0.000000D+00
     82   0.000000D+00  0.000000D+00  0.000000D+00  0.000000D+00  0.000000D+00
     83   0.000000D+00  0.000000D+00  0.000000D+00  0.000000D+00  0.000000D+00
     84   0.000000D+00  0.000000D+00  0.000000D+00  0.000000D+00  0.000000D+00
     85   0.000000D+00  0.000000D+00  0.000000D+00  0.000000D+00  0.000000D+00
     86   0.000000D+00  0.000000D+00  0.000000D+00  0.000000D+00  0.000000D+00
     87   0.000000D+00  0.000000D+00  0.000000D+00  0.000000D+00  0.000000D+00
     88   0.000000D+00  0.000000D+00  0.000000D+00  0.000000D+00  0.000000D+00
     89   0.000000D+00  0.000000D+00  0.000000D+00  0.000000D+00  0.000000D+00
     90   0.000000D+00  0.000000D+00  0.000000D+00  0.000000D+00  0.000000D+00
     91   0.000000D+00  0.000000D+00  0.000000D+00  0.000000D+00  0.000000D+00
     92   0.000000D+00  0.000000D+00  0.000000D+00  0.000000D+00  0.000000D+00
     93   0.000000D+00  0.000000D+00  0.000000D+00  0.000000D+00  0.000000D+00
     94   0.000000D+00  0.000000D+00  0.000000D+00  0.000000D+00  0.000000D+00
     95   0.000000D+00  0.000000D+00  0.000000D+00  0.000000D+00  0.000000D+00
     96   0.000000D+00  0.000000D+00  0.000000D+00  0.000000D+00  0.000000D+00
     97   0.000000D+00  0.000000D+00  0.000000D+00  0.000000D+00  0.000000D+00
     98   0.000000D+00  0.000000D+00  0.000000D+00  0.000000D+00  0.000000D+00
     99   0.000000D+00  0.000000D+00  0.000000D+00  0.000000D+00  0.000000D+00
    100   0.000000D+00  0.000000D+00  0.000000D+00  0.000000D+00  0.000000D+00
    101   0.000000D+00  0.000000D+00  0.000000D+00  0.000000D+00  0.000000D+00
    102   0.000000D+00  0.000000D+00  0.000000D+00  0.000000D+00  0.000000D+00
    103   0.000000D+00  0.000000D+00  0.000000D+00  0.000000D+00  0.000000D+00
    104   0.000000D+00  0.000000D+00  0.000000D+00  0.000000D+00  0.000000D+00
    105   0.000000D+00  0.000000D+00  0.000000D+00  0.000000D+00  0.000000D+00
    106   0.000000D+00  0.000000D+00  0.000000D+00  0.000000D+00  0.000000D+00
    107   0.000000D+00  0.000000D+00  0.000000D+00  0.000000D+00  0.000000D+00
    108   0.000000D+00  0.000000D+00  0.000000D+00  0.000000D+00  0.000000D+00
    109   0.000000D+00  0.000000D+00  0.000000D+00  0.000000D+00  0.000000D+00
    110   0.000000D+00  0.000000D+00  0.000000D+00  0.000000D+00  0.000000D+00
    111   0.000000D+00  0.000000D+00  0.000000D+00  0.000000D+00  0.000000D+00
    112   0.000000D+00  0.000000D+00  0.000000D+00  0.000000D+00  0.000000D+00
    113   0.000000D+00  0.000000D+00  0.000000D+00  0.000000D+00  0.000000D+00
    114   0.000000D+00  0.000000D+00  0.000000D+00  0.000000D+00  0.000000D+00
    115   0.000000D+00  0.000000D+00  0.000000D+00  0.000000D+00  0.000000D+00
    116   0.000000D+00  0.000000D+00  0.000000D+00  0.000000D+00  0.000000D+00
    117   0.000000D+00  0.000000D+00  0.000000D+00  0.000000D+00  0.000000D+00
    118   0.000000D+00  0.000000D+00  0.000000D+00  0.000000D+00  0.000000D+00
    119   0.000000D+00  0.000000D+00  0.000000D+00  0.000000D+00  0.000000D+00
    120   0.000000D+00  0.000000D+00  0.000000D+00  0.000000D+00  0.000000D+00
    121   0.000000D+00  0.000000D+00  0.000000D+00  0.000000D+00  0.000000D+00
    122   0.000000D+00  0.000000D+00  0.000000D+00  0.000000D+00  0.000000D+00
    123   0.000000D+00  0.000000D+00  0.000000D+00  0.000000D+00  0.000000D+00
    124   0.000000D+00  0.000000D+00  0.000000D+00  0.000000D+00  0.000000D+00
    125   0.000000D+00  0.000000D+00  0.000000D+00  0.000000D+00  0.000000D+00
    126   0.000000D+00  0.000000D+00  0.000000D+00  0.000000D+00  0.000000D+00
    127   0.000000D+00  0.000000D+00  0.000000D+00  0.000000D+00  0.000000D+00
    128   0.000000D+00  0.000000D+00  0.000000D+00  0.000000D+00  0.000000D+00
    129   0.000000D+00  0.000000D+00  0.000000D+00  0.000000D+00  0.000000D+00
    130   0.000000D+00  0.000000D+00  0.000000D+00  0.000000D+00  0.000000D+00
    131   0.000000D+00  0.000000D+00  0.000000D+00  0.000000D+00  0.000000D+00
    132   0.000000D+00  0.000000D+00  0.000000D+00  0.000000D+00  0.000000D+00
    133   0.000000D+00  0.000000D+00  0.000000D+00  0.000000D+00  0.000000D+00
    134   0.000000D+00  0.000000D+00  0.000000D+00  0.000000D+00  0.000000D+00
    135   0.000000D+00  0.000000D+00  0.000000D+00  0.000000D+00  0.000000D+00
    136   0.000000D+00  0.000000D+00  0.000000D+00  0.000000D+00  0.000000D+00
    137   0.000000D+00  0.000000D+00  0.000000D+00  0.000000D+00  0.000000D+00
    138   0.000000D+00  0.000000D+00  0.000000D+00  0.000000D+00  0.000000D+00
    139   0.000000D+00  0.000000D+00  0.000000D+00  0.000000D+00  0.000000D+00
    140   0.000000D+00  0.000000D+00  0.000000D+00  0.000000D+00  0.000000D+00
    141   0.000000D+00  0.000000D+00  0.000000D+00  0.000000D+00  0.000000D+00
    142   0.000000D+00  0.000000D+00  0.000000D+00  0.000000D+00  0.000000D+00
    143   0.000000D+00  0.000000D+00  0.000000D+00  0.000000D+00  0.000000D+00
    144   0.000000D+00  0.000000D+00  0.000000D+00  0.000000D+00  0.000000D+00
    145   0.000000D+00  0.000000D+00  0.000000D+00  0.000000D+00  0.000000D+00
    146   0.000000D+00  0.000000D+00  0.000000D+00  0.000000D+00  0.000000D+00
    147   0.000000D+00  0.000000D+00  0.000000D+00  0.000000D+00  0.000000D+00
    148   0.000000D+00  0.000000D+00  0.000000D+00  0.000000D+00  0.000000D+00
    149   0.000000D+00  0.000000D+00  0.000000D+00  0.000000D+00  0.000000D+00
    150   0.000000D+00  0.000000D+00  0.000000D+00  0.000000D+00  0.000000D+00
    151   0.000000D+00  0.000000D+00  0.000000D+00  0.000000D+00  0.000000D+00
    152   0.000000D+00  0.000000D+00  0.000000D+00  0.000000D+00  0.000000D+00
    153   0.000000D+00  0.000000D+00  0.000000D+00  0.000000D+00  0.000000D+00
    154   0.000000D+00  0.000000D+00  0.000000D+00  0.000000D+00  0.000000D+00
    155   0.000000D+00  0.000000D+00  0.000000D+00  0.000000D+00  0.000000D+00
    156   0.000000D+00  0.000000D+00  0.000000D+00  0.000000D+00  0.000000D+00
    157   0.000000D+00  0.000000D+00  0.000000D+00  0.000000D+00  0.000000D+00
    158   0.000000D+00  0.000000D+00  0.000000D+00  0.000000D+00  0.000000D+00
    159   0.000000D+00  0.000000D+00  0.000000D+00  0.000000D+00  0.000000D+00
    160   0.000000D+00  0.000000D+00  0.000000D+00  0.000000D+00  0.000000D+00
    161   0.000000D+00  0.000000D+00  0.000000D+00  0.000000D+00  0.000000D+00
    162   0.000000D+00  0.000000D+00  0.000000D+00  0.000000D+00  0.000000D+00
    163   0.000000D+00  0.000000D+00  0.000000D+00  0.000000D+00  0.000000D+00
    164   0.000000D+00  0.000000D+00  0.000000D+00  0.000000D+00  0.000000D+00
    165   0.000000D+00  0.000000D+00  0.000000D+00  0.000000D+00  0.000000D+00
    166   0.000000D+00  0.000000D+00  0.000000D+00  0.000000D+00  0.000000D+00
    167   0.000000D+00  0.000000D+00  0.000000D+00  0.000000D+00  0.000000D+00
    168   0.000000D+00  0.000000D+00  0.000000D+00  0.000000D+00  0.000000D+00
    169   0.000000D+00  0.000000D+00  0.000000D+00  0.000000D+00  0.000000D+00
    170   0.000000D+00  0.000000D+00  0.000000D+00  0.000000D+00  0.000000D+00
    171   0.000000D+00  0.000000D+00  0.000000D+00  0.000000D+00  0.000000D+00
    172   0.000000D+00  0.000000D+00  0.000000D+00  0.000000D+00  0.000000D+00
    173   0.000000D+00  0.000000D+00  0.000000D+00  0.000000D+00  0.000000D+00
    174   0.000000D+00  0.000000D+00  0.000000D+00  0.000000D+00  0.000000D+00
    175   0.000000D+00  0.000000D+00  0.000000D+00  0.000000D+00  0.000000D+00
    176   0.000000D+00  0.000000D+00  0.000000D+00  0.000000D+00  0.000000D+00
    177   0.000000D+00  0.000000D+00  0.000000D+00  0.000000D+00  0.000000D+00
    178   0.000000D+00  0.000000D+00  0.000000D+00  0.000000D+00  0.000000D+00
    179   0.000000D+00  0.000000D+00  0.000000D+00  0.000000D+00  0.000000D+00
    180   0.000000D+00  0.000000D+00  0.000000D+00  0.000000D+00  0.000000D+00
    181   0.000000D+00  0.000000D+00  0.000000D+00  0.000000D+00  0.000000D+00
    182   0.000000D+00  0.000000D+00  0.000000D+00  0.000000D+00  0.000000D+00
    183   0.000000D+00  0.000000D+00  0.000000D+00  0.000000D+00  0.000000D+00
    184   0.000000D+00  0.000000D+00  0.000000D+00  0.000000D+00  0.000000D+00
    185   0.000000D+00  0.000000D+00  0.000000D+00  0.000000D+00  0.000000D+00
    186   0.000000D+00  0.000000D+00  0.000000D+00  0.000000D+00  0.000000D+00
    187   0.000000D+00  0.000000D+00  0.000000D+00  0.000000D+00  0.000000D+00
    188   0.000000D+00  0.000000D+00  0.000000D+00  0.000000D+00  0.000000D+00
    189   0.000000D+00  0.000000D+00  0.000000D+00  0.000000D+00  0.000000D+00
    190   0.000000D+00  0.000000D+00  0.000000D+00  0.000000D+00  0.000000D+00
    191   0.000000D+00  0.000000D+00  0.000000D+00  0.000000D+00  0.000000D+00
    192   0.000000D+00  0.000000D+00  0.000000D+00  0.000000D+00  0.000000D+00
    193   0.000000D+00  0.000000D+00  0.000000D+00  0.000000D+00  0.000000D+00
    194   0.000000D+00  0.000000D+00  0.000000D+00  0.000000D+00  0.000000D+00
    195   0.000000D+00  0.000000D+00  0.000000D+00  0.000000D+00  0.000000D+00
    196   0.000000D+00  0.000000D+00  0.000000D+00  0.000000D+00  0.000000D+00
    197   0.000000D+00  0.000000D+00  0.000000D+00  0.000000D+00  0.000000D+00
    198   0.000000D+00  0.000000D+00  0.000000D+00  0.000000D+00  0.000000D+00
    199   0.000000D+00  0.000000D+00  0.000000D+00  0.000000D+00  0.000000D+00
    200   0.000000D+00  0.000000D+00  0.000000D+00  0.000000D+00  0.000000D+00
    201   0.000000D+00  0.000000D+00  0.000000D+00  0.000000D+00  0.000000D+00
    202   0.000000D+00  0.000000D+00  0.000000D+00  0.000000D+00  0.000000D+00
    203   0.000000D+00  0.000000D+00  0.000000D+00  0.000000D+00  0.000000D+00
    204   0.000000D+00  0.000000D+00  0.000000D+00  0.000000D+00  0.000000D+00
    205   0.000000D+00  0.000000D+00  0.000000D+00  0.000000D+00  0.000000D+00
    206   0.000000D+00  0.000000D+00  0.000000D+00  0.000000D+00  0.000000D+00
    207   0.000000D+00  0.000000D+00  0.000000D+00  0.000000D+00  0.000000D+00
    208   0.000000D+00  0.000000D+00  0.000000D+00  0.000000D+00  0.000000D+00
    209   0.000000D+00  0.000000D+00  0.000000D+00  0.000000D+00  0.000000D+00
    210   0.000000D+00  0.000000D+00  0.000000D+00  0.000000D+00  0.000000D+00
    211   0.000000D+00  0.000000D+00  0.000000D+00  0.000000D+00  0.000000D+00
    212   0.000000D+00  0.000000D+00  0.000000D+00  0.000000D+00  0.000000D+00
    213   0.000000D+00  0.000000D+00  0.000000D+00  0.000000D+00  0.000000D+00
    214   0.000000D+00  0.000000D+00  0.000000D+00  0.000000D+00  0.000000D+00
    215   0.000000D+00  0.000000D+00  0.000000D+00  0.000000D+00  0.000000D+00
    216   0.000000D+00  0.000000D+00  0.000000D+00  0.000000D+00  0.000000D+00
    217   0.000000D+00  0.000000D+00  0.000000D+00  0.000000D+00  0.000000D+00
    218   0.000000D+00  0.000000D+00  0.000000D+00  0.000000D+00  0.000000D+00
    219   0.000000D+00  0.000000D+00  0.000000D+00  0.000000D+00  0.000000D+00
    220   0.000000D+00  0.000000D+00  0.000000D+00  0.000000D+00  0.000000D+00
    221   0.000000D+00  0.000000D+00  0.000000D+00  0.000000D+00  0.000000D+00
    222   0.000000D+00  0.000000D+00  0.000000D+00  0.000000D+00  0.000000D+00
    223   0.000000D+00  0.000000D+00  0.000000D+00  0.000000D+00  0.000000D+00
    224   0.000000D+00  0.000000D+00  0.000000D+00  0.000000D+00  0.000000D+00
    225   0.000000D+00  0.000000D+00  0.000000D+00  0.000000D+00  0.000000D+00
    226   0.000000D+00  0.000000D+00  0.000000D+00  0.000000D+00  0.000000D+00
    227   0.000000D+00  0.000000D+00  0.000000D+00  0.000000D+00  0.000000D+00
    228   0.000000D+00  0.000000D+00  0.000000D+00  0.000000D+00  0.000000D+00
    229   0.000000D+00  0.000000D+00  0.000000D+00  0.000000D+00  0.000000D+00
    230   0.000000D+00  0.000000D+00  0.000000D+00  0.000000D+00  0.000000D+00
    231   0.000000D+00  0.000000D+00  0.000000D+00  0.000000D+00  0.000000D+00
    232   0.000000D+00  0.000000D+00  0.000000D+00  0.000000D+00  0.000000D+00
    233   0.000000D+00  0.000000D+00  0.000000D+00  0.000000D+00  0.000000D+00
    234   0.000000D+00  0.000000D+00  0.000000D+00  0.000000D+00  0.000000D+00
    235   0.000000D+00  0.000000D+00  0.000000D+00  0.000000D+00  0.000000D+00
    236   0.000000D+00  0.000000D+00  0.000000D+00  0.000000D+00  0.000000D+00
    237   0.000000D+00  0.000000D+00  0.000000D+00  0.000000D+00  0.000000D+00
    238   0.000000D+00  0.000000D+00  0.000000D+00  0.000000D+00  0.000000D+00
    239   0.000000D+00  0.000000D+00  0.000000D+00  0.000000D+00  0.000000D+00
    240   0.000000D+00  0.000000D+00  0.000000D+00  0.000000D+00  0.000000D+00
    241   0.000000D+00  0.000000D+00  0.000000D+00  0.000000D+00  0.000000D+00
    242   0.000000D+00  0.000000D+00  0.000000D+00  0.000000D+00  0.000000D+00
    243   0.000000D+00  0.000000D+00  0.000000D+00  0.000000D+00  0.000000D+00
    244   0.000000D+00  0.000000D+00  0.000000D+00  0.000000D+00  0.000000D+00
    245   0.000000D+00  0.000000D+00  0.000000D+00  0.000000D+00  0.000000D+00
    246   0.000000D+00  0.000000D+00  0.000000D+00  0.000000D+00  0.000000D+00
    247   0.000000D+00  0.000000D+00  0.000000D+00  0.000000D+00  0.000000D+00
    248   0.000000D+00  0.000000D+00  0.000000D+00  0.000000D+00  0.000000D+00
    249   0.000000D+00  0.000000D+00  0.000000D+00  0.000000D+00  0.000000D+00
    250   0.000000D+00  0.000000D+00  0.000000D+00  0.000000D+00  0.000000D+00
    251   0.000000D+00  0.000000D+00  0.000000D+00  0.000000D+00  0.000000D+00
    252   0.000000D+00  0.000000D+00  0.000000D+00  0.000000D+00  0.000000D+00
    253   0.000000D+00  0.000000D+00  0.000000D+00  0.000000D+00  0.000000D+00
    254   0.000000D+00  0.000000D+00  0.000000D+00  0.000000D+00  0.000000D+00
    255   0.000000D+00  0.000000D+00  0.000000D+00  0.000000D+00  0.000000D+00
    256   0.000000D+00  0.000000D+00  0.000000D+00  0.000000D+00  0.000000D+00
    257   0.000000D+00  0.000000D+00  0.000000D+00  0.000000D+00  0.000000D+00
    258   0.000000D+00  0.000000D+00  0.000000D+00  0.000000D+00  0.000000D+00
    259   0.000000D+00  0.000000D+00  0.000000D+00  0.000000D+00  0.000000D+00
    260   0.000000D+00  0.000000D+00  0.000000D+00  0.000000D+00  0.000000D+00
    261   0.000000D+00  0.000000D+00  0.000000D+00  0.000000D+00  0.000000D+00
    262   0.000000D+00  0.000000D+00  0.000000D+00  0.000000D+00  0.000000D+00
    263   0.000000D+00  0.000000D+00  0.000000D+00  0.000000D+00  0.000000D+00
    264   0.000000D+00  0.000000D+00  0.000000D+00  0.000000D+00  0.000000D+00
    265   0.000000D+00  0.000000D+00  0.000000D+00  0.000000D+00  0.000000D+00
    266   0.000000D+00  0.000000D+00  0.000000D+00  0.000000D+00  0.000000D+00
    267   0.000000D+00  0.000000D+00  0.000000D+00  0.000000D+00  0.000000D+00
    268   0.000000D+00  0.000000D+00  0.000000D+00  0.000000D+00  0.000000D+00
    269   0.000000D+00  0.000000D+00  0.000000D+00  0.000000D+00  0.000000D+00
    270   0.000000D+00  0.000000D+00  0.000000D+00  0.000000D+00  0.000000D+00
    271   0.000000D+00  0.000000D+00  0.000000D+00  0.000000D+00  0.000000D+00
    272   0.262245D-03  0.162900D-02  0.000000D+00  0.000000D+00 -0.457383D-03
    273   0.286539D-02  0.173115D-01  0.000000D+00  0.000000D+00 -0.179894D-02
    274   0.000000D+00  0.000000D+00  0.314025D-03  0.000000D+00  0.000000D+00
    275   0.000000D+00  0.000000D+00  0.000000D+00  0.314025D-03  0.000000D+00
    276   0.109212D-02  0.667294D-02  0.000000D+00  0.000000D+00 -0.137247D-02
    277   0.000000D+00  0.000000D+00  0.132277D-02  0.000000D+00  0.000000D+00
    278   0.000000D+00  0.000000D+00  0.000000D+00  0.132277D-02  0.000000D+00
    279   0.466015D-02  0.280703D-01  0.000000D+00  0.000000D+00 -0.262654D-03
    280   0.000000D+00  0.000000D+00  0.000000D+00  0.000000D+00  0.000000D+00
    281   0.000000D+00  0.000000D+00  0.000000D+00  0.000000D+00  0.000000D+00
    282   0.000000D+00  0.000000D+00  0.000000D+00  0.000000D+00  0.000000D+00
    283   0.000000D+00  0.511129D-05  0.000000D+00  0.000000D+00 -0.507192D-05
    284   0.140811D-03  0.926521D-03  0.000000D+00  0.000000D+00 -0.449084D-03
    285   0.136581D-02  0.834678D-02  0.000000D+00  0.000000D+00 -0.189936D-02
    286   0.000000D+00  0.000000D+00  0.000000D+00  0.000000D+00  0.000000D+00
    287   0.000000D+00  0.000000D+00  0.000000D+00  0.000000D+00  0.000000D+00
    288   0.000000D+00  0.000000D+00  0.000000D+00  0.000000D+00  0.000000D+00
    289   0.000000D+00  0.000000D+00  0.000000D+00  0.000000D+00  0.000000D+00
    290   0.000000D+00  0.000000D+00  0.000000D+00  0.000000D+00  0.000000D+00
    291   0.000000D+00  0.000000D+00  0.000000D+00  0.000000D+00  0.000000D+00
    292   0.000000D+00  0.000000D+00  0.000000D+00  0.000000D+00  0.000000D+00
    293   0.000000D+00  0.000000D+00  0.000000D+00  0.000000D+00  0.000000D+00
    294   0.000000D+00  0.112760D-05  0.000000D+00  0.000000D+00 -0.141593D-05
    295   0.000000D+00  0.000000D+00  0.450798D-04  0.000000D+00  0.000000D+00
    296   0.000000D+00  0.000000D+00  0.000000D+00  0.450798D-04  0.000000D+00
    297   0.139199D-03  0.969230D-03  0.000000D+00  0.000000D+00 -0.587433D-03
    298   0.000000D+00  0.000000D+00  0.747458D-03  0.000000D+00  0.000000D+00
    299   0.000000D+00  0.000000D+00  0.000000D+00  0.747458D-03  0.000000D+00
    300   0.259526D-02  0.158858D-01  0.000000D+00  0.000000D+00 -0.415598D-02
    301   0.000000D+00  0.000000D+00  0.167785D-02  0.000000D+00  0.000000D+00
    302   0.000000D+00  0.000000D+00  0.000000D+00  0.167785D-02  0.000000D+00
    303   0.591907D-02  0.356005D-01  0.000000D+00  0.000000D+00 -0.341991D-02
    304   0.000000D+00  0.000000D+00  0.000000D+00  0.000000D+00  0.000000D+00
    305   0.000000D+00  0.000000D+00  0.000000D+00  0.000000D+00  0.000000D+00
    306   0.000000D+00  0.000000D+00  0.000000D+00  0.000000D+00  0.000000D+00
    307   0.000000D+00  0.000000D+00  0.000000D+00  0.000000D+00  0.000000D+00
    308   0.000000D+00  0.000000D+00  0.000000D+00  0.000000D+00  0.000000D+00
    309   0.000000D+00  0.000000D+00  0.000000D+00  0.000000D+00  0.000000D+00
    310   0.000000D+00  0.000000D+00  0.000000D+00  0.000000D+00  0.000000D+00
    311   0.000000D+00  0.000000D+00  0.000000D+00  0.000000D+00  0.000000D+00
    312   0.000000D+00  0.000000D+00  0.000000D+00  0.000000D+00  0.000000D+00
    313   0.000000D+00  0.000000D+00  0.000000D+00  0.000000D+00  0.000000D+00
    314   0.000000D+00  0.000000D+00  0.000000D+00  0.000000D+00  0.000000D+00
    315   0.000000D+00  0.000000D+00  0.000000D+00  0.000000D+00  0.000000D+00
    316   0.000000D+00  0.000000D+00  0.000000D+00  0.000000D+00  0.000000D+00
    317   0.000000D+00  0.000000D+00  0.000000D+00  0.000000D+00  0.000000D+00
    318   0.000000D+00  0.000000D+00  0.000000D+00  0.000000D+00  0.000000D+00
    319   0.000000D+00  0.000000D+00  0.000000D+00  0.000000D+00  0.000000D+00
    320   0.000000D+00  0.000000D+00  0.000000D+00  0.000000D+00  0.000000D+00
    321   0.000000D+00  0.000000D+00  0.000000D+00  0.000000D+00  0.000000D+00
    322   0.000000D+00  0.000000D+00  0.000000D+00  0.000000D+00  0.000000D+00
    323   0.000000D+00  0.000000D+00  0.000000D+00  0.000000D+00  0.000000D+00
    324   0.129140D-03  0.943131D-03  0.000000D+00  0.000000D+00 -0.652213D-03
    325   0.000000D+00  0.000000D+00  0.756753D-04  0.000000D+00  0.000000D+00
    326   0.000000D+00  0.000000D+00  0.000000D+00  0.756753D-04  0.000000D+00
    327   0.000000D+00  0.000000D+00  0.000000D+00  0.000000D+00  0.000000D+00
    328   0.000000D+00  0.000000D+00  0.000000D+00  0.000000D+00  0.000000D+00
    329   0.357089D-02  0.218356D-01  0.000000D+00  0.000000D+00 -0.628688D-02
    330   0.000000D+00  0.000000D+00  0.177970D-02  0.000000D+00  0.000000D+00
    331   0.000000D+00  0.000000D+00  0.000000D+00  0.177970D-02  0.000000D+00
    332   0.000000D+00  0.000000D+00  0.000000D+00  0.000000D+00  0.000000D+00
    333   0.000000D+00  0.000000D+00  0.000000D+00  0.000000D+00  0.000000D+00
    334   0.849146D-02  0.507376D-01  0.000000D+00  0.000000D+00 -0.442695D-02
    335   0.000000D+00  0.000000D+00  0.414440D-02  0.000000D+00  0.000000D+00
    336   0.000000D+00  0.000000D+00  0.000000D+00  0.414440D-02  0.000000D+00
    337   0.000000D+00  0.000000D+00  0.000000D+00  0.000000D+00  0.000000D+00
    338   0.000000D+00  0.000000D+00  0.000000D+00  0.000000D+00  0.000000D+00
    339   0.000000D+00  0.000000D+00  0.000000D+00  0.000000D+00  0.000000D+00
    340   0.000000D+00  0.000000D+00  0.000000D+00  0.000000D+00  0.000000D+00
    341   0.000000D+00  0.000000D+00  0.000000D+00  0.000000D+00  0.000000D+00
    342   0.000000D+00  0.000000D+00  0.000000D+00  0.000000D+00  0.000000D+00
    343   0.000000D+00  0.000000D+00  0.000000D+00  0.000000D+00  0.000000D+00
    344   0.000000D+00  0.000000D+00  0.000000D+00  0.000000D+00  0.000000D+00
    345   0.000000D+00  0.000000D+00  0.000000D+00  0.000000D+00  0.000000D+00
    346   0.000000D+00  0.000000D+00  0.000000D+00  0.000000D+00  0.000000D+00
    347   0.000000D+00  0.000000D+00  0.000000D+00  0.000000D+00  0.000000D+00
    348   0.000000D+00  0.000000D+00  0.000000D+00  0.000000D+00  0.000000D+00
    349   0.000000D+00  0.000000D+00  0.000000D+00  0.000000D+00  0.000000D+00
    350   0.000000D+00  0.000000D+00  0.000000D+00  0.000000D+00  0.000000D+00
    351   0.000000D+00  0.000000D+00  0.000000D+00  0.000000D+00  0.000000D+00
    352   0.000000D+00  0.000000D+00  0.000000D+00  0.000000D+00  0.000000D+00
    353   0.000000D+00  0.000000D+00  0.000000D+00  0.000000D+00  0.000000D+00
    354   0.000000D+00  0.000000D+00  0.000000D+00  0.000000D+00  0.000000D+00
    355   0.000000D+00  0.000000D+00  0.000000D+00  0.000000D+00  0.000000D+00
    356   0.000000D+00  0.000000D+00  0.000000D+00  0.000000D+00  0.000000D+00
    357   0.000000D+00  0.000000D+00  0.000000D+00  0.000000D+00  0.000000D+00
    358   0.000000D+00  0.000000D+00  0.000000D+00  0.000000D+00  0.000000D+00
    359   0.000000D+00  0.000000D+00  0.000000D+00  0.000000D+00  0.000000D+00
    360   0.288270D-04  0.249294D-03  0.000000D+00  0.000000D+00 -0.224976D-03
    361   0.000000D+00  0.000000D+00  0.279191D-04  0.000000D+00  0.000000D+00
    362   0.000000D+00  0.000000D+00  0.000000D+00  0.279191D-04  0.000000D+00
    363   0.000000D+00  0.000000D+00  0.000000D+00  0.000000D+00  0.000000D+00
    364   0.000000D+00  0.000000D+00  0.000000D+00  0.000000D+00  0.000000D+00
    365   0.000000D+00  0.000000D+00  0.000000D+00  0.000000D+00  0.000000D+00
    366   0.000000D+00  0.000000D+00  0.000000D+00  0.000000D+00  0.000000D+00
    367   0.243854D-02  0.152564D-01  0.000000D+00  0.000000D+00 -0.612627D-02
    368   0.000000D+00  0.000000D+00  0.175482D-02  0.000000D+00  0.000000D+00
    369   0.000000D+00  0.000000D+00  0.000000D+00  0.175482D-02  0.000000D+00
    370   0.000000D+00  0.000000D+00  0.000000D+00  0.000000D+00  0.000000D+00
    371   0.000000D+00  0.000000D+00  0.000000D+00  0.000000D+00  0.000000D+00
    372   0.000000D+00  0.000000D+00  0.000000D+00  0.000000D+00  0.000000D+00
    373   0.000000D+00  0.000000D+00  0.000000D+00  0.000000D+00  0.000000D+00
    374   0.993673D-02  0.589687D-01  0.000000D+00  0.000000D+00 -0.774360D-02
    375   0.000000D+00  0.000000D+00  0.681640D-02  0.000000D+00  0.000000D+00
    376   0.000000D+00  0.000000D+00  0.000000D+00  0.681640D-02  0.000000D+00
    377   0.000000D+00  0.000000D+00  0.000000D+00  0.000000D+00  0.000000D+00
    378   0.000000D+00  0.000000D+00  0.000000D+00  0.000000D+00  0.000000D+00
    379   0.000000D+00  0.000000D+00  0.000000D+00  0.000000D+00  0.000000D+00
    380   0.000000D+00  0.000000D+00  0.000000D+00  0.000000D+00  0.000000D+00
    381   0.000000D+00  0.000000D+00  0.000000D+00  0.000000D+00  0.000000D+00
    382   0.000000D+00  0.000000D+00  0.000000D+00  0.000000D+00  0.000000D+00
    383   0.000000D+00  0.000000D+00  0.000000D+00  0.000000D+00  0.000000D+00
    384   0.000000D+00  0.000000D+00  0.000000D+00  0.000000D+00  0.000000D+00
    385   0.000000D+00  0.000000D+00  0.000000D+00  0.000000D+00  0.000000D+00
    386   0.000000D+00  0.000000D+00  0.000000D+00  0.000000D+00  0.000000D+00
    387   0.000000D+00  0.000000D+00  0.000000D+00  0.000000D+00  0.000000D+00
    388   0.000000D+00  0.000000D+00  0.000000D+00  0.000000D+00  0.000000D+00
    389   0.000000D+00  0.000000D+00  0.000000D+00  0.000000D+00  0.000000D+00
    390   0.000000D+00  0.000000D+00  0.000000D+00  0.000000D+00  0.000000D+00
    391   0.000000D+00  0.000000D+00  0.000000D+00  0.000000D+00  0.000000D+00
    392   0.000000D+00  0.000000D+00  0.000000D+00  0.000000D+00  0.000000D+00
    393   0.000000D+00  0.000000D+00  0.000000D+00  0.000000D+00  0.000000D+00
    394   0.000000D+00  0.000000D+00  0.000000D+00  0.000000D+00  0.000000D+00
    395   0.000000D+00  0.000000D+00  0.000000D+00  0.000000D+00  0.000000D+00
    396   0.000000D+00  0.000000D+00  0.000000D+00  0.000000D+00  0.000000D+00
    397   0.000000D+00  0.000000D+00  0.000000D+00  0.000000D+00  0.000000D+00
    398   0.000000D+00  0.000000D+00  0.000000D+00  0.000000D+00  0.000000D+00
    399   0.000000D+00  0.000000D+00  0.000000D+00  0.000000D+00  0.000000D+00
    400   0.000000D+00  0.000000D+00  0.000000D+00  0.000000D+00  0.000000D+00
    401   0.000000D+00  0.000000D+00  0.000000D+00  0.000000D+00  0.000000D+00
    402   0.000000D+00  0.000000D+00  0.000000D+00  0.000000D+00  0.000000D+00
    403   0.000000D+00  0.000000D+00  0.000000D+00  0.000000D+00  0.000000D+00
    404   0.000000D+00  0.000000D+00  0.000000D+00  0.000000D+00  0.000000D+00
    405   0.000000D+00  0.000000D+00  0.000000D+00  0.000000D+00  0.000000D+00
    406   0.000000D+00  0.000000D+00  0.000000D+00  0.000000D+00  0.000000D+00
    407   0.000000D+00  0.000000D+00  0.000000D+00  0.000000D+00  0.000000D+00
    408   0.143087D-03  0.110819D-02  0.000000D+00  0.000000D+00 -0.879073D-03
    409   0.000000D+00  0.000000D+00  0.161586D-03  0.000000D+00  0.000000D+00
    410   0.000000D+00  0.000000D+00  0.000000D+00  0.161586D-03  0.000000D+00
    411   0.000000D+00  0.000000D+00  0.000000D+00  0.000000D+00  0.000000D+00
    412   0.000000D+00  0.000000D+00  0.000000D+00  0.000000D+00  0.000000D+00
    413   0.000000D+00  0.000000D+00  0.000000D+00  0.000000D+00  0.000000D+00
    414   0.000000D+00  0.000000D+00  0.000000D+00  0.000000D+00  0.000000D+00
[...]
            ---------------------------------------

 AB - AA |     16        17        18        19        20        21
 BA - BB |     16        17        18        19        20        21
----------------------------------------------------------------------
   16    | -0.034457 -0.003426 -0.009070 -0.002411 -0.002411 -0.009070
   16    |  0.000000 -0.003426 -0.009070 -0.002411 -0.002411 -0.009070
         |
   17    | -0.008316 -0.016806 -0.003956 -0.000112 -0.000112 -0.003956
   17    | -0.008316  0.000000 -0.003956 -0.000112 -0.000112 -0.003956
         |
   18    | -0.012734 -0.012409 -0.026331 -0.000364 -0.000428 -0.009512
   18    | -0.012734 -0.012409  0.000000 -0.000364 -0.000428 -0.009512
         |
   19    | -0.003051 -0.000169 -0.000400 -0.020317 -0.006021 -0.000428
   19    | -0.003051 -0.000169 -0.000400  0.000000 -0.006021 -0.000428
         |
   20    | -0.003051 -0.000169 -0.000625 -0.008847 -0.020317 -0.000364
   20    | -0.003051 -0.000169 -0.000625 -0.008847  0.000000 -0.000364
         |
   21    | -0.012734 -0.012409 -0.013427 -0.000625 -0.000400 -0.026331
   21    | -0.012734 -0.012409 -0.013427 -0.000625 -0.000400  0.000000
         |
   22    | -0.002927 -0.000105 -0.000250 -0.009937 -0.009937 -0.000250
   22    | -0.002927 -0.000105 -0.000250 -0.009937 -0.009937 -0.000250
         |

 AB - AA |     22
 BA - BB |     22
--------------------
   16    | -0.001109
   16    | -0.001109
         |
   17    | -0.000058
   17    | -0.000058
         |
   18    | -0.000185
   18    | -0.000185
         |
   19    | -0.002075
   19    | -0.002075
         |
   20    | -0.002075
   20    | -0.002075
         |
   21    | -0.000185
   21    | -0.000185
         |
   22    | -0.013238
   22    |  0.000000
         |

                     Sum of ab pair energies =    -0.270574 A.U.
                     Sum of ba pair energies =    -0.112775 A.U.
                     Sum of aa pair energies =    -0.057331 A.U.
                     Sum of bb pair energies =    -0.057331 A.U.

           Sum of intraorbital pair energies =    -0.157798 A.U.
           Sum of interorbital pair energies =    -0.340213 A.U.
                                                  ----------
                         Total pair energies =    -0.498011 A.U.

                         Single Excitations  =     0.000000 A.U.

                          Total second order =    -0.498011 A.U.

                         E2(CBS) - E2(Dir) =      -0.008032 A.U.

 E2(CBS)=      -0.501521 CBS-Int=       0.003510 OIii=       3.129786

 **********************************************************************

            Population analysis using the SCF density.

 **********************************************************************

 Orbital symmetries:
       Occupied  (SG) (SG) (SG) (PI) (PI) (SG) (SG) (SG) (PI) (PI)
                 (SG) (PI) (PI) (DLTA) (DLTA) (SG) (SG) (PI) (PI)
                 (SG) (PI) (PI)
       Virtual   (SG) (SG) (PI) (PI) (SG) (SG) (PI) (PI) (DLTA)
                 (DLTA) (PI) (PI) (SG) (PI) (PI) (SG) (SG) (DLTA)
                 (DLTA) (SG) (PHI) (PHI) (DLTA) (DLTA) (PI) (PI)
                 (SG) (PI) (PI) (PI) (PI) (SG) (SG) (PI) (PI) (DLTA)
                 (DLTA) (SG) (PI) (PI) (SG) (PHI) (PHI) (?A) (?A)
                 (DLTA) (DLTA) (PI) (PI) (DLTA) (DLTA) (SG) (DLTA)
                 (DLTA) (SG) (PI) (PI) (PHI) (PHI) (PHI) (PHI)
                 (PI) (PI) (SG) (SG) (DLTA) (DLTA) (PI) (PI) (SG)
                 (PI) (PI) (DLTA) (DLTA) (?A) (?A) (?B) (?B) (SG)
                 (PI) (PI) (SG) (PHI) (PHI) (PI) (PI) (SG) (DLTA)
                 (DLTA) (SG) (PHI) (PHI) (?A) (?A) (DLTA) (DLTA)
                 (PI) (PI) (SG) (DLTA) (DLTA) (PI) (PI) (PHI) (PHI)
                 (PI) (PI) (DLTA) (DLTA) (?A) (?A) (SG) (?B) (?B)
                 (SG) (SG) (PHI) (PHI) (SG) (PI) (PI) (SG) (?A)
                 (?A) (DLTA) (DLTA) (PHI) (PHI) (SG) (PI) (PI)
                 (DLTA) (DLTA) (SG) (PI) (PI) (DLTA) (DLTA) (PI)
                 (PI) (PHI) (PHI) (SG) (?A) (?A) (?B) (?B) (SG)
                 (PHI) (PHI) (PI) (PI) (SG) (PI) (PI) (DLTA) (DLTA)
                 (?A) (?A) (PI) (PI) (PHI) (PHI) (SG) (DLTA) (DLTA)
                 (SG) (?B) (?B) (PI) (PI) (DLTA) (DLTA) (PHI) (PHI)
                 (SG) (?A) (?A) (DLTA) (DLTA) (SG) (DLTA) (DLTA)
                 (PI) (PI) (PI) (PI) (PHI) (PHI) (SG) (DLTA) (DLTA)
                 (PI) (PI) (SG) (PI) (PI) (SG) (?A) (?A) (?B) (?B)
                 (SG) (SG) (PHI) (PHI) (SG) (DLTA) (DLTA) (PI)
                 (PI) (PHI) (PHI) (?A) (?A) (SG) (PI) (PI) (?B)
                 (?B) (DLTA) (DLTA) (?A) (?A) (SG) (PHI) (PHI)
                 (SG) (PHI) (PHI) (?A) (?A) (DLTA) (DLTA) (PI)
                 (PI) (SG) (SG) (?B) (?B) (DLTA) (DLTA) (PHI) (PHI)
                 (PI) (PI) (SG) (PI) (PI) (SG) (?A) (?A) (DLTA)
                 (DLTA) (SG) (SG) (DLTA) (DLTA) (PI) (PI) (PHI)
                 (PHI) (PHI) (PHI) (PI) (PI) (DLTA) (DLTA) (PI)
                 (PI) (SG) (DLTA) (DLTA) (SG) (DLTA) (DLTA) (SG)
                 (SG) (PI) (PI) (?C) (?C) (?B) (?B) (SG) (?A) (?A)
                 (?B) (?B) (PI) (PI) (?A) (?A) (PI) (PI) (SG) (DLTA)
                 (DLTA) (PI) (PI) (PHI) (PHI) (SG) (PHI) (PHI)
                 (SG) (SG) (DLTA) (DLTA) (PI) (PI) (?B) (?B) (SG)
                 (SG) (?A) (?A) (SG) (PHI) (PHI) (?A) (?A) (?B)
                 (?B) (?A) (?A) (DLTA) (DLTA) (PHI) (PHI) (PI)
                 (PI) (PHI) (PHI) (SG) (SG) (DLTA) (DLTA) (DLTA)
                 (DLTA) (PI) (PI) (PHI) (PHI) (SG) (PI) (PI) (DLTA)
                 (DLTA) (SG) (?A) (?A) (PHI) (PHI) (PI) (PI) (PI)
                 (PI) (SG) (DLTA) (DLTA) (SG) (PHI) (PHI) (PI)
                 (PI) (DLTA) (DLTA) (DLTA) (DLTA) (PI) (PI) (SG)
                 (SG) (PI) (PI) (DLTA) (DLTA) (SG) (SG) (SG) (?B)
                 (?B) (?A) (?A) (PI) (PI) (PHI) (PHI) (DLTA) (DLTA)
                 (SG) (PI) (PI) (SG) (?B) (?B) (?A) (?A) (PHI)
                 (PHI) (DLTA) (DLTA) (PI) (PI) (SG) (PI) (PI) (SG)
                 (SG) (SG) (PHI) (PHI) (DLTA) (DLTA) (PI) (PI)
                 (SG) (?A) (?A) (PHI) (PHI) (DLTA) (DLTA) (PI)
                 (PI) (SG) (PI) (PI) (SG) (?A) (?A) (?B) (?B) (PHI)
                 (PHI) (SG) (SG) (?C) (?C) (DLTA) (DLTA) (PI) (PI)
                 (SG) (DLTA) (DLTA) (PI) (PI) (SG) (?B) (?B) (SG)
                 (SG) (?A) (?A) (PHI) (PHI) (DLTA) (DLTA) (PI)
                 (PI) (SG) (?B) (?B) (?A) (?A) (PHI) (PHI) (DLTA)
                 (DLTA) (PI) (PI) (SG) (PHI) (PHI) (DLTA) (DLTA)
                 (PI) (PI) (SG) (SG) (PI) (PI) (?A) (?A) (PHI)
                 (PHI) (DLTA) (DLTA) (PI) (PI) (SG) (SG) (DLTA)
                 (DLTA) (PI) (PI) (SG) (SG) (SG)
 The electronic state is 1-SG.
 Alpha  occ. eigenvalues -- -490.10916 -65.24667 -58.60301 -58.60011 -58.60011
 Alpha  occ. eigenvalues --  -26.32872  -9.91818  -7.53230  -7.52028  -7.52028
 Alpha  occ. eigenvalues --   -3.27888  -3.27225  -3.27225  -3.25535  -3.25535
 Alpha  occ. eigenvalues --   -1.60360  -1.03152  -0.69633  -0.69633  -0.66613
 Alpha  occ. eigenvalues --   -0.45366  -0.45366
 Alpha virt. eigenvalues --    0.01246   0.05400   0.05531   0.05531   0.08121
 Alpha virt. eigenvalues --    0.14720   0.15537   0.15537   0.19334   0.19334
 Alpha virt. eigenvalues --    0.21958   0.21958   0.22623   0.26203   0.26203
 Alpha virt. eigenvalues --    0.26605   0.30705   0.44621   0.44621   0.45647
 Alpha virt. eigenvalues --    0.45879   0.45879   0.46438   0.46438   0.49691
 Alpha virt. eigenvalues --    0.49691   0.51943   0.52531   0.52531   0.55095
 Alpha virt. eigenvalues --    0.55095   0.58798   0.63193   0.63971   0.63971
 Alpha virt. eigenvalues --    0.64610   0.64610   0.77012   0.81510   0.81510
 Alpha virt. eigenvalues --    0.82258   0.87556   0.87556   0.89117   0.89117
 Alpha virt. eigenvalues --    1.01031   1.01031   1.01670   1.01670   1.02243
 Alpha virt. eigenvalues --    1.02243   1.04026   1.06716   1.06716   1.07153
 Alpha virt. eigenvalues --    1.08972   1.08972   1.10511   1.10511   1.18470
 Alpha virt. eigenvalues --    1.18470   1.25780   1.25780   1.32403   1.34296
 Alpha virt. eigenvalues --    1.38159   1.38159   1.39874   1.39874   1.40231
 Alpha virt. eigenvalues --    1.48016   1.48016   1.49985   1.49985   1.50393
 Alpha virt. eigenvalues --    1.50393   1.51264   1.51264   1.57270   1.59260
 Alpha virt. eigenvalues --    1.59260   1.59941   1.65854   1.65854   1.79660
 Alpha virt. eigenvalues --    1.79660   1.81401   1.94100   1.94100   1.94360
 Alpha virt. eigenvalues --    1.96544   1.96544   1.98279   1.98279   2.06246
 Alpha virt. eigenvalues --    2.06246   2.07230   2.07230   2.09783   2.12019
 Alpha virt. eigenvalues --    2.12019   2.14363   2.14363   2.19075   2.19075
 Alpha virt. eigenvalues --    2.23117   2.23117   2.23622   2.23622   2.32140
 Alpha virt. eigenvalues --    2.32140   2.42111   2.47460   2.47460   2.48602
 Alpha virt. eigenvalues --    2.48602   2.53071   2.53071   2.57962   2.64680
 Alpha virt. eigenvalues --    2.64680   2.67642   2.76208   2.76208   2.78045
 Alpha virt. eigenvalues --    2.78045   2.81272   2.81272   2.91488   3.01592
 Alpha virt. eigenvalues --    3.01592   3.01847   3.01847   3.08754   3.12094
 Alpha virt. eigenvalues --    3.12094   3.13481   3.13481   3.19826   3.19826
 Alpha virt. eigenvalues --    3.21899   3.21899   3.22947   3.25717   3.25717
 Alpha virt. eigenvalues --    3.27857   3.27857   3.28843   3.39626   3.39626
 Alpha virt. eigenvalues --    3.40132   3.40132   3.56451   3.57192   3.57192
 Alpha virt. eigenvalues --    3.63525   3.63525   3.68290   3.68290   3.68385
 Alpha virt. eigenvalues --    3.68385   3.68614   3.68614   3.72298   3.72468
 Alpha virt. eigenvalues --    3.72468   3.76040   3.82969   3.82969   3.92746
 Alpha virt. eigenvalues --    3.92746   3.97854   3.97854   4.06241   4.06241
 Alpha virt. eigenvalues --    4.13012   4.16773   4.16773   4.19362   4.19362
 Alpha virt. eigenvalues --    4.28137   4.34137   4.34137   4.40039   4.40039
 Alpha virt. eigenvalues --    4.50872   4.50872   4.62343   4.62343   4.70437
 Alpha virt. eigenvalues --    4.94978   4.94978   5.03697   5.03697   5.19581
 Alpha virt. eigenvalues --    5.29813   5.29813   5.33681   5.42399   5.42399
 Alpha virt. eigenvalues --    5.46924   5.46924   5.48867   5.48867   5.68840
 Alpha virt. eigenvalues --    5.68840   5.72683   5.82745   5.82745   5.84912
 Alpha virt. eigenvalues --    5.84912   5.91883   5.91883   6.07592   6.07592
 Alpha virt. eigenvalues --    6.10797   6.16195   6.16195   6.16869   6.16869
 Alpha virt. eigenvalues --    6.19047   6.19047   6.19448   6.19448   6.20541
 Alpha virt. eigenvalues --    6.20768   6.20768   6.36691   6.49033   6.49033
 Alpha virt. eigenvalues --    6.52634   6.52634   6.54889   6.54889   6.55532
 Alpha virt. eigenvalues --    6.55532   6.55947   6.55947   6.59568   6.59568
 Alpha virt. eigenvalues --    6.60309   6.60309   6.61127   6.61127   6.73644
 Alpha virt. eigenvalues --    6.73644   6.77019   6.88229   6.88229   6.89530
 Alpha virt. eigenvalues --    6.92273   6.92273   6.99699   6.99699   7.13013
 Alpha virt. eigenvalues --    7.47812   7.56129   7.56129   7.58593   7.58593
 Alpha virt. eigenvalues --    7.68368   7.68368   7.84153   7.84153   7.99998
 Alpha virt. eigenvalues --    7.99998   8.01057   8.01057   8.07971   8.07971
 Alpha virt. eigenvalues --    8.43192   8.45333   8.45333   8.49607   8.66595
 Alpha virt. eigenvalues --    8.66595   8.80921   8.80921   8.81846   8.81846
 Alpha virt. eigenvalues --    8.82703   8.82703   8.86850   8.86850   8.97870
 Alpha virt. eigenvalues --    9.27187   9.27187   9.41055   9.41055   9.48182
 Alpha virt. eigenvalues --    9.48182   9.58969   9.58969   9.59478   9.59478
 Alpha virt. eigenvalues --    9.60824   9.62018   9.62018   9.79954   9.79954
 Alpha virt. eigenvalues --    9.82042   9.82042   9.99244  10.10180  10.10180
 Alpha virt. eigenvalues --   10.57080  10.63955  10.71298  10.71298  10.85588
 Alpha virt. eigenvalues --   10.85588  10.95636  10.95636  10.97469  10.97469
 Alpha virt. eigenvalues --   10.99760  10.99760  11.02311  11.10979  11.10979
 Alpha virt. eigenvalues --   11.11342  11.11342  11.13234  11.13234  11.15800
 Alpha virt. eigenvalues --   11.15800  11.18214  11.18214  11.20519  11.20519
 Alpha virt. eigenvalues --   11.23101  11.23101  11.26402  11.26402  11.30624
 Alpha virt. eigenvalues --   11.53988  11.55831  11.55831  11.90792  11.90792
 Alpha virt. eigenvalues --   11.92497  11.92497  12.03834  12.03834  12.09177
 Alpha virt. eigenvalues --   12.46912  12.46912  12.73668  12.73668  13.00031
 Alpha virt. eigenvalues --   13.29201  13.29201  13.61151  13.61151  13.61836
 Alpha virt. eigenvalues --   13.61836  13.80526  13.80526  13.85797  14.23215
 Alpha virt. eigenvalues --   14.23215  14.30723  14.52687  14.52687  14.62182
 Alpha virt. eigenvalues --   14.62182  14.70065  14.70065  15.41258  15.41258
 Alpha virt. eigenvalues --   15.49902  15.49902  15.62820  15.85959  16.63939
 Alpha virt. eigenvalues --   16.63939  17.43061  17.43061  17.55062  17.85406
 Alpha virt. eigenvalues --   17.85406  17.86561  17.86561  17.98974  17.98974
 Alpha virt. eigenvalues --   18.07172  18.07172  18.23584  18.23584  18.43006
 Alpha virt. eigenvalues --   18.43006  18.61631  18.62169  18.62169  20.04663
 Alpha virt. eigenvalues --   20.98395  20.98395  21.07077  21.07077  21.23168
 Alpha virt. eigenvalues --   21.23168  21.42114  21.42114  21.55269  21.55269
 Alpha virt. eigenvalues --   21.90495  22.10325  22.10325  22.29833  23.50805
 Alpha virt. eigenvalues --   24.44030  24.52368  24.52368  25.10052  25.10052
 Alpha virt. eigenvalues --   25.90411  25.90411  27.00185  28.49571  28.49571
 Alpha virt. eigenvalues --   28.69567  28.69567  29.00091  29.00091  29.45866
 Alpha virt. eigenvalues --   29.45866  29.60657  31.12855  31.12855  31.78660
 Alpha virt. eigenvalues --   32.15403  32.15403  32.16471  32.16471  32.17367
 Alpha virt. eigenvalues --   32.17367  32.18225  32.18225  32.20198  32.20198
 Alpha virt. eigenvalues --   32.27362  32.27362  32.31354  32.31354  32.42053
 Alpha virt. eigenvalues --   33.33609  33.33609  34.07023  34.07023  34.74135
 Alpha virt. eigenvalues --   46.22875  46.22875  46.24059  46.24059  46.26198
 Alpha virt. eigenvalues --   46.26198  46.35117  46.35117  46.42748  46.42748
 Alpha virt. eigenvalues --   46.43204  46.43204  46.45319  47.02324  47.02324
 Alpha virt. eigenvalues --   47.07049  47.07049  47.17516  47.17516  47.28150
 Alpha virt. eigenvalues --   47.28150  47.50244  47.50244  47.53587  51.85078
 Alpha virt. eigenvalues --   51.85078  52.29378  52.29378  52.90579  52.90579
 Alpha virt. eigenvalues --   53.11831  61.23525  61.47497  61.47497  63.19224
 Alpha virt. eigenvalues --   63.19224  63.32125  63.32125  63.52780  63.52780
 Alpha virt. eigenvalues --   63.91560  63.91560  63.91896  64.21375  75.45650
 Alpha virt. eigenvalues --   75.45650  75.99582  75.99582  76.56233 275.90358
 Alpha virt. eigenvalues --  627.68028
          Condensed to atoms (all electrons):
              1          2
     1  Br  34.630182   0.024729
     2  F    0.024729   9.320359
          Atomic-Atomic Spin Densities.
              1          2
     1  Br   0.000000   0.000000
     2  F    0.000000   0.000000
 Mulliken charges and spin densities:
              1          2
     1  Br   0.345088   0.000000
     2  F   -0.345088   0.000000
 Sum of Mulliken charges =   0.00000 spin densities =   0.000000
 Mulliken charges and spin densities with hydrogens summed into heavy atoms:
              1          2
     1  Br   0.345088   0.000000
     2  F   -0.345088   0.000000
 Sum of Mulliken charges with hydrogens summed into heavy atoms =   0.00000 spin densities =   0.000000
 Electronic spatial extent (au):  <R**2>=            130.4132
 Charge=              0.0000 electrons
 Dipole moment (field-independent basis, Debye):
    X=              0.0000    Y=              0.0000    Z=              1.6412  Tot=              1.6412
 Quadrupole moment (field-independent basis, Debye-Ang):
   XX=            -23.1881   YY=            -23.1881   ZZ=            -22.6465
   XY=              0.0000   XZ=              0.0000   YZ=              0.0000
 Traceless Quadrupole moment (field-independent basis, Debye-Ang):
   XX=             -0.1805   YY=             -0.1805   ZZ=              0.3610
   XY=              0.0000   XZ=              0.0000   YZ=              0.0000
 Octapole moment (field-independent basis, Debye-Ang**2):
  XXX=              0.0000  YYY=              0.0000  ZZZ=              7.2689  XYY=              0.0000
  XXY=              0.0000  XXZ=             -0.3794  XZZ=              0.0000  YZZ=              0.0000
  YYZ=             -0.3794  XYZ=              0.0000
 Hexadecapole moment (field-independent basis, Debye-Ang**3):
 XXXX=            -24.9194 YYYY=            -24.9194 ZZZZ=            -89.0968 XXXY=              0.0000
 XXXZ=              0.0000 YYYX=              0.0000 YYYZ=              0.0000 ZZZX=              0.0000
 ZZZY=              0.0000 XXYY=             -8.3065 XXZZ=            -19.6231 YYZZ=            -19.6231
 XXYZ=              0.0000 YYXZ=              0.0000 ZZXY=              0.0000
 N-N= 9.476776962594D+01 E-N=-9.871886544218D+03  KE= 4.007677302857D+03
                          Isotropic Fermi Contact Couplings
        Atom                 a.u.       MegaHertz       Gauss      10(-4) cm-1
     1  Br(79)             0.00000       0.00000       0.00000       0.00000
     2  F(19)              0.00000       0.00000       0.00000       0.00000
 --------------------------------------------------------
       Center         ----  Spin Dipole Couplings  ----
                      3XX-RR        3YY-RR        3ZZ-RR
 --------------------------------------------------------
     1   Atom        0.000000      0.000000      0.000000
     2   Atom        0.000000      0.000000      0.000000
 --------------------------------------------------------
                        XY            XZ            YZ
 --------------------------------------------------------
     1   Atom        0.000000      0.000000      0.000000
     2   Atom        0.000000      0.000000      0.000000
 --------------------------------------------------------


 ---------------------------------------------------------------------------------
              Anisotropic Spin Dipole Couplings in Principal Axis System
 ---------------------------------------------------------------------------------

       Atom             a.u.   MegaHertz   Gauss  10(-4) cm-1        Axes

              Baa     0.0000     0.000     0.000     0.000  1.0000  0.0000  0.0000
     1 Br(79) Bbb     0.0000     0.000     0.000     0.000  0.0000  1.0000  0.0000
              Bcc     0.0000     0.000     0.000     0.000  0.0000  0.0000  1.0000
 
              Baa     0.0000     0.000     0.000     0.000  1.0000  0.0000  0.0000
     2 F(19)  Bbb     0.0000     0.000     0.000     0.000  0.0000  1.0000  0.0000
              Bcc     0.0000     0.000     0.000     0.000  0.0000  0.0000  1.0000
 

 ---------------------------------------------------------------------------------


 Test job not archived.
 1\1\GINC-C31\SP\ROMP2-RW\Gen\Br1F1\GPETERSSON\22-May-2013\0\\# ROMP2(R
 W) Gen GFinput Int=NoBasisTransform Int(Grid=Ultrafine) IOp(3/32=2,5/6
 =10,8/11=1,9/33=1) Maxdisk=128GB CBSextrapolate(Nmin=25,MinPop)\\BrF 1
 Sg+\\0,1\Br\F,1,1.75894\\Version=EM64L-GDVRevH.12\State=1-SG\HF=-2671.
 8827783\MP2=-2672.3762672\E2(CBS)=-0.501521\CBS-Int=-0.4980111\OIii=3.
 1297861\RMSD=2.221e-11\PG=C*V [C*(F1Br1)]\\@


 EDUCATION IS NOT TRAINING BUT RATHER THE PROCESS THAT EQUIPS YOU TO
 ENTERTAIN YOURSELF, A FRIEND, OR AN IDEA.  -- WALLACE STERLING
 Job cpu time:  5 days 23 hours 54 minutes 18.9 seconds.
 File lengths (MBytes):  RWF=  24829 Int=      0 D2E=      0 Chk=     22 Scr=      1
 Normal termination of Gaussian DV at Wed May 22 17:30:34 2013.
