 Entering Gaussian System, Link 0=gdv
 AtFile(1): 7ZaPa-NR.gbs
 Initial command:
 /share/apps/gaussian/gdvh12/gdv/l1.exe /localscratch/934784/Gau-28177.inp -scrdir=/localscratch/934784/
 Entering Link 1 = /share/apps/gaussian/gdvh12/gdv/l1.exe PID=     28178.
  
 Copyright (c) 1988,1990,1992,1993,1995,1998,2003,2009,2011,
            Gaussian, Inc.  All Rights Reserved.
  
 This is the private, development version of
 the Gaussian(R) DV system of programs. It is based on
 the Gaussian(R) 09 system (copyright 2009, Gaussian, Inc.),
 the Gaussian(R) 03 system (copyright 2003, Gaussian, Inc.),
 the Gaussian(R) 98 system (copyright 1998, Gaussian, Inc.),
 the Gaussian(R) 94 system (copyright 1995, Gaussian, Inc.),
 the Gaussian 92(TM) system (copyright 1992, Gaussian, Inc.),
 the Gaussian 90(TM) system (copyright 1990, Gaussian, Inc.),
 the Gaussian 88(TM) system (copyright 1988, Gaussian, Inc.),
 the Gaussian 86(TM) system (copyright 1986, Carnegie Mellon
 University), and the Gaussian 82(TM) system (copyright 1983,
 Carnegie Mellon University). Gaussian is a federally registered
 trademark of Gaussian, Inc.
  
 This software contains proprietary and confidential information,
 including trade secrets, belonging to Gaussian, Inc.
  
 This software is provided under written license and may be
 used, copied, transmitted, or stored only in accord with that
 written license.
  
 The following legend is applicable only to US Government
 contracts under FAR:
  
                    RESTRICTED RIGHTS LEGEND
  
 Use, reproduction and disclosure by the US Government is
 subject to restrictions as set forth in subparagraphs (a)
 and (c) of the Commercial Computer Software - Restricted
 Rights clause in FAR 52.227-19.
  
 Gaussian, Inc.
 340 Quinnipiac St., Bldg. 40, Wallingford CT 06492
  
  
 ---------------------------------------------------------------
 Warning -- This program may not be used in any manner that
 competes with the business of Gaussian, Inc. or will provide
 assistance to any competitor of Gaussian, Inc.  The licensee
 of this program is prohibited from giving any competitor of
 Gaussian, Inc. access to this program.  By using this program,
 the user acknowledges that Gaussian, Inc. is engaged in the
 business of creating and licensing software in the field of
 computational chemistry and represents and warrants to the
 licensee that it is not a competitor of Gaussian, Inc. and that
 it will not use this program in any manner prohibited above.
 ---------------------------------------------------------------
  

 Cite this work as:
 Gaussian Development Version, Revision H.12,
 M. J. Frisch, G. W. Trucks, H. B. Schlegel, G. E. Scuseria, 
 M. A. Robb, J. R. Cheeseman, G. Scalmani, V. Barone, B. Mennucci, 
 G. A. Petersson, H. Nakatsuji, M. Caricato, X. Li, H. P. Hratchian, 
 A. F. Izmaylov, J. Bloino, G. Zheng, J. L. Sonnenberg, M. Hada, 
 M. Ehara, K. Toyota, R. Fukuda, J. Hasegawa, M. Ishida, T. Nakajima, 
 Y. Honda, O. Kitao, H. Nakai, T. Vreven, J. A. Montgomery, Jr., 
 J. E. Peralta, F. Ogliaro, M. Bearpark, J. J. Heyd, E. Brothers, 
 K. N. Kudin, V. N. Staroverov, T. Keith, R. Kobayashi, J. Normand, 
 K. Raghavachari, A. Rendell, J. C. Burant, S. S. Iyengar, J. Tomasi, 
 M. Cossi, N. Rega, J. M. Millam, M. Klene, J. E. Knox, J. B. Cross, 
 V. Bakken, C. Adamo, J. Jaramillo, R. Gomperts, R. E. Stratmann, 
 O. Yazyev, A. J. Austin, R. Cammi, C. Pomelli, J. W. Ochterski, 
 R. L. Martin, K. Morokuma, V. G. Zakrzewski, G. A. Voth, 
 P. Salvador, J. J. Dannenberg, S. Dapprich, P. V. Parandekar, 
 N. J. Mayhall, A. D. Daniels, O. Farkas, J. B. Foresman, 
 J. V. Ortiz, J. Cioslowski, and D. J. Fox, 
 Gaussian, Inc., Wallingford CT, 2010.
 
 ******************************************
 Gaussian DV:  EM64L-GDVRevH.12  9-Jun-2011
                19-May-2013 
 ******************************************
 % Mem=12GB
 % Nproc=8
 Will use up to    8 processors via shared memory.
 ----------------------------------------------------------------------
 # ROMP2(RW) Gen GFinput Int=NoBasisTransform Int(Grid=Ultrafine) IOp(3
 /32=2,5/6=10,8/11=1,9/33=1) Maxdisk=128GB CBSextrapolate(Nmin=25,MinPo
 p)
 ----------------------------------------------------------------------
 1/38=1/1;
 2/12=2,17=6,18=5,40=1/2;
 3/5=7,11=2,16=1,24=10,25=1,30=1,32=2,60=-1,75=-5,116=101/1,2,3;
 4//1;
 5/5=2,6=10,38=5/2;
 8/5=-1,10=91,11=1/1;
 9/16=-3,33=1,75=2,81=25,83=4/6,4;
 6/7=2,8=2,9=2,10=2/1;
 99/5=1,9=1/99;
 -------
 BrO 2Pi
 -------
 Charge =  0 Multiplicity = 2
 Symbolic Z-Matrix:
 Br
 O                    1     1.7172 
 
                          Input orientation:                          
 ---------------------------------------------------------------------
 Center     Atomic      Atomic             Coordinates (Angstroms)
 Number     Number       Type             X           Y           Z
 ---------------------------------------------------------------------
      1         35           0        0.000000    0.000000    0.000000
      2          8           0        0.000000    0.000000    1.717200
 ---------------------------------------------------------------------
 Stoichiometry    BrO(2)
 Framework group  C*V[C*(OBr)]
 Deg. of freedom     1
 Full point group                 C*V     NOp   4
 Largest Abelian subgroup         C2V     NOp   4
 Largest concise Abelian subgroup C1      NOp   1
                         Standard orientation:                         
 ---------------------------------------------------------------------
 Center     Atomic      Atomic             Coordinates (Angstroms)
 Number     Number       Type             X           Y           Z
 ---------------------------------------------------------------------
      1         35           0        0.000000    0.000000    0.319479
      2          8           0        0.000000    0.000000   -1.397721
 ---------------------------------------------------------------------
 Rotational constants (GHZ):      0.0000000     12.8867213     12.8867213
 General basis read from cards:  (5D, 7F)
 AO basis set in the form of general basis input (Overlap normalization):
      1 0
 S  19 1.00       0.000000000000
      0.1084089110D+09  0.2897699584D-06
      0.2017723730D+08  0.1824866800D-05
      0.4606851830D+07  0.1038807919D-04
      0.1247136140D+07  0.4708813254D-04
      0.3886300470D+06  0.1814051699D-03
      0.1358926290D+06  0.6102148031D-03
      0.5217333690D+05  0.1843419936D-02
      0.2159416810D+05  0.5103438024D-02
      0.9489448890D+04  0.1312406995D-01
      0.4372571600D+04  0.3150120384D-01
      0.2091443270D+04  0.6997810635D-01
      0.1030127600D+04  0.1400640193D+00
      0.5192168730D+03  0.2383775848D+00
      0.2665046050D+03  0.3080972525D+00
      0.1387733520D+03  0.2451695558D+00
      0.7308292400D+02  0.8608897484D-01
      0.3882100000D+02  0.7995888776D-02
      0.2074503800D+02  0.9489470514D-03
      0.1111965000D+02  0.4953062091D-04
 S  15 1.00       0.000000000000
      0.2159416810D+05 -0.9678985889D-05
      0.9489448890D+04 -0.4863764938D-04
      0.4372571600D+04 -0.2977365187D-03
      0.2091443270D+04 -0.1372218990D-02
      0.1030127600D+04 -0.5849453272D-02
      0.5192168730D+03 -0.2048702530D-01
      0.2665046050D+03 -0.5658275134D-01
      0.1387733520D+03 -0.9041113573D-01
      0.7308292400D+02 -0.2938125153D-02
      0.3882100000D+02  0.3072534665D+00
      0.2074503800D+02  0.5066413436D+00
      0.1111965000D+02  0.2631655220D+00
      0.5957454000D+01  0.3964223360D-01
      0.3175930000D+01  0.3292853492D-02
      0.1674973000D+01  0.4898347019D-03
 P  17 1.00       0.000000000000
      0.1489059560D+06  0.2740260182D-05
      0.3964636200D+05  0.2176321263D-04
      0.1264734410D+05  0.1403834625D-03
      0.4668245390D+04  0.6948952544D-03
      0.1934889060D+04  0.2808105022D-02
      0.8778986460D+03  0.9526976658D-02
      0.4267924460D+03  0.2770298382D-01
      0.2183954360D+03  0.6953677487D-01
      0.1159257070D+03  0.1469386723D+00
      0.6307782300D+02  0.2493208911D+00
      0.3484932500D+02  0.3157753200D+00
      0.1940052200D+02  0.2488553914D+00
      0.1081551700D+02  0.9796365660D-01
      0.6006953000D+01  0.1592384613D-01
      0.3308640000D+01  0.1533209791D-02
      0.1799357000D+01  0.3395022310D-03
      0.9616640000D+00  0.2293710392D-04
 S  11 1.00       0.000000000000
      0.2665046050D+03  0.7045882210D-03
      0.1387733520D+03  0.2554017970D-02
      0.7308292400D+02  0.2249779309D-02
      0.3882100000D+02 -0.3797473952D-01
      0.2074503800D+02 -0.1751230827D+00
      0.1111965000D+02 -0.1392406230D+00
      0.5957454000D+01  0.2628491860D+00
      0.3175930000D+01  0.5920876138D+00
      0.1674973000D+01  0.3388251456D+00
      0.8674590000D+00  0.3744989864D-01
      0.4370370000D+00  0.2232780462D-02
 P  14 1.00       0.000000000000
      0.8778986460D+03 -0.3377811447D-04
      0.4267924460D+03 -0.2222521929D-03
      0.2183954360D+03 -0.1192581069D-02
      0.1159257070D+03 -0.4604030998D-02
      0.6307782300D+02 -0.1233507946D-01
      0.3484932500D+02 -0.2302104199D-01
      0.1940052200D+02  0.3236711412D-02
      0.1081551700D+02  0.1367969390D+00
      0.6006953000D+01  0.3183466610D+00
      0.3308640000D+01  0.3836335349D+00
      0.1799357000D+01  0.2240687451D+00
      0.9616640000D+00  0.4713264893D-01
      0.5023720000D+00  0.3459205239D-02
      0.2548520000D+00  0.3310734587D-03
 D  16 1.00       0.000000000000
      0.5237200060D+04  0.5069540497D-05
      0.1612175470D+04  0.5373351511D-04
      0.6179331500D+03  0.3636041628D-03
      0.2751743010D+03  0.1742056614D-02
      0.1352802610D+03  0.6602255191D-02
      0.7083381400D+02  0.2016098071D-01
      0.3857775800D+02  0.5069376509D-01
      0.2153871200D+02  0.1079671851D+00
      0.1222546500D+02  0.1840055841D+00
      0.7018196000D+01  0.2440961743D+00
      0.4054348000D+01  0.2626492965D+00
      0.2338499000D+01  0.2241806785D+00
      0.1328367000D+01  0.1352922333D+00
      0.7265420000D+00  0.4881548799D-01
      0.3696680000D+00  0.7884050075D-02
      0.1665550000D+00  0.6446766657D-03
 S  10 1.00       0.000000000000
      0.3882100000D+02  0.2300144399D-03
      0.2074503800D+02  0.3863835953D-02
      0.1111965000D+02  0.2640130519D-02
      0.5957454000D+01 -0.8966677182D-02
      0.3175930000D+01 -0.9457293054D-01
      0.1674973000D+01 -0.2184827177D+00
      0.8674590000D+00  0.8325308406D-01
      0.4370370000D+00  0.5053966275D+00
      0.2117090000D+00  0.4987155701D+00
      0.9720500000D-01  0.1240336784D+00
 S   1 1.00       0.000000000000
      0.1209560000D+00  0.1000000000D+01
 S   1 1.00       0.000000000000
      0.4734000000D-01  0.1000000000D+01
 P  11 1.00       0.000000000000
      0.3484932500D+02  0.1184665237D-03
      0.1940052200D+02 -0.4435072015D-03
      0.1081551700D+02 -0.3741457556D-02
      0.6006953000D+01 -0.9005010777D-02
      0.3308640000D+01 -0.2542087043D-01
      0.1799357000D+01 -0.2314468429D-01
      0.9616640000D+00  0.1187990779D+00
      0.5023720000D+00  0.3164600821D+00
      0.2548520000D+00  0.3904801352D+00
      0.1245350000D+00  0.2667515036D+00
      0.5802900000D-01  0.6072639074D-01
 P   1 1.00       0.000000000000
      0.6083700000D-01  0.1000000000D+01
 P   1 1.00       0.000000000000
      0.2547600000D-01  0.1000000000D+01
 S   1 1.00       0.000000000000
      0.4239434000D+01  0.1000000000D+01
 S   1 1.00       0.000000000000
      0.2478441000D+01  0.1000000000D+01
 S   1 1.00       0.000000000000
      0.1448937000D+01  0.1000000000D+01
 S   1 1.00       0.000000000000
      0.8470720000D+00  0.1000000000D+01
 S   1 1.00       0.000000000000
      0.4952120000D+00  0.1000000000D+01
 S   1 1.00       0.000000000000
      0.2895090000D+00  0.1000000000D+01
 P   1 1.00       0.000000000000
      0.3530439000D+01  0.1000000000D+01
 P   1 1.00       0.000000000000
      0.2050080000D+01  0.1000000000D+01
 P   1 1.00       0.000000000000
      0.1190455000D+01  0.1000000000D+01
 P   1 1.00       0.000000000000
      0.6912820000D+00  0.1000000000D+01
 P   1 1.00       0.000000000000
      0.4014180000D+00  0.1000000000D+01
 P   1 1.00       0.000000000000
      0.2330980000D+00  0.1000000000D+01
 D   1 1.00       0.000000000000
      0.2746111000D+01  0.1000000000D+01
 D   1 1.00       0.000000000000
      0.1533907000D+01  0.1000000000D+01
 D   1 1.00       0.000000000000
      0.8568010000D+00  0.1000000000D+01
 D   1 1.00       0.000000000000
      0.4785870000D+00  0.1000000000D+01
 D   1 1.00       0.000000000000
      0.2673260000D+00  0.1000000000D+01
 D   1 1.00       0.000000000000
      0.1493220000D+00  0.1000000000D+01
 D   1 1.00       0.000000000000
      0.8340770000D-01  0.1000000000D+01
 F   1 1.00       0.000000000000
      0.3187656000D+01  0.1000000000D+01
 F   1 1.00       0.000000000000
      0.1674453000D+01  0.1000000000D+01
 F   1 1.00       0.000000000000
      0.8795780000D+00  0.1000000000D+01
 F   1 1.00       0.000000000000
      0.4620360000D+00  0.1000000000D+01
 F   1 1.00       0.000000000000
      0.2427040000D+00  0.1000000000D+01
 F   1 1.00       0.000000000000
      0.1274910000D+00  0.1000000000D+01
 G   1 1.00       0.000000000000
      0.1560226000D+01  0.1000000000D+01
 G   1 1.00       0.000000000000
      0.9434780000D+00  0.1000000000D+01
 G   1 1.00       0.000000000000
      0.5705260000D+00  0.1000000000D+01
 G   1 1.00       0.000000000000
      0.3450010000D+00  0.1000000000D+01
 G   1 1.00       0.000000000000
      0.2086240000D+00  0.1000000000D+01
 H   1 1.00       0.000000000000
      0.1384770000D+01  0.1000000000D+01
 H   1 1.00       0.000000000000
      0.8134390000D+00  0.1000000000D+01
 H   1 1.00       0.000000000000
      0.4778280000D+00  0.1000000000D+01
 H   1 1.00       0.000000000000
      0.2806840000D+00  0.1000000000D+01
 I   1 1.00       0.000000000000
      0.1302811000D+01  0.1000000000D+01
 I   1 1.00       0.000000000000
      0.6956320000D+00  0.1000000000D+01
 I   1 1.00       0.000000000000
      0.3714310000D+00  0.1000000000D+01
 J   1 1.00       0.000000000000
      0.1102245215D+01  0.1000000000D+01
 ****
      2 0
 S  16 1.00       0.000000000000
      0.1411246410D+07  0.1627429822D-05
      0.2499102240D+06  0.1092621996D-04
      0.5603410580D+05  0.6238741867D-04
      0.1521153640D+05  0.2783303491D-03
      0.4812287750D+04  0.1040541872D-02
      0.1717755460D+04  0.3380392793D-02
      0.6733958240D+03  0.9828484765D-02
      0.2835101840D+03  0.2605310129D-01
      0.1258620070D+03  0.6280818057D-01
      0.5804472200D+02  0.1348202075D+00
      0.2747198500D+02  0.2435563460D+00
      0.1321062900D+02  0.3323287378D+00
      0.6399806000D+01  0.2607930483D+00
      0.3099614000D+01  0.7430834326D-01
      0.1489856000D+01  0.4189538074D-02
      0.7052010000D+00  0.8706455725D-03
 S  11 1.00       0.000000000000
      0.2835101840D+03 -0.1122588094D-03
      0.1258620070D+03 -0.5559335617D-03
      0.5804472200D+02 -0.2851687904D-02
      0.2747198500D+02 -0.1133494995D-01
      0.1321062900D+02 -0.3657977704D-01
      0.6399806000D+01 -0.7288994197D-01
      0.3099614000D+01 -0.1062032356D-01
      0.1489856000D+01  0.2196705572D+00
      0.7052010000D+00  0.4294832072D+00
      0.3258480000D+00  0.3775832849D+00
      0.1454600000D+00  0.9640261255D-01
 S   1 1.00       0.000000000000
      0.5814297870D-01  0.1000000000D+01
 P  13 1.00       0.000000000000
      0.2085279200D+04  0.1447911740D-04
      0.5101470830D+03  0.1283233588D-03
      0.1616811510D+03  0.7792790007D-03
      0.6114945200D+02  0.3400506049D-02
      0.2597660200D+02  0.1157685214D-01
      0.1187542600D+02  0.3269740339D-01
      0.5677133000D+01  0.8011404242D-01
      0.2786475000D+01  0.1605265057D+00
      0.1387844000D+01  0.2460495026D+00
      0.6952810000D+00  0.2898982926D+00
      0.3470020000D+00  0.2606799382D+00
      0.1700990000D+00  0.1479363112D+00
      0.8008000000D-01  0.2980261453D-01
 P   1 1.00       0.000000000000
      0.4261436033D-01  0.1000000000D+01
 S   1 1.00       0.000000000000
      0.4249866000D+01  0.1000000000D+01
 S   1 1.00       0.000000000000
      0.2167470000D+01  0.1000000000D+01
 S   1 1.00       0.000000000000
      0.1105429000D+01  0.1000000000D+01
 S   1 1.00       0.000000000000
      0.5637790000D+00  0.1000000000D+01
 S   1 1.00       0.000000000000
      0.2875320000D+00  0.1000000000D+01
 S   1 1.00       0.000000000000
      0.1466440000D+00  0.1000000000D+01
 P   1 1.00       0.000000000000
      0.5659724000D+01  0.1000000000D+01
 P   1 1.00       0.000000000000
      0.2575878000D+01  0.1000000000D+01
 P   1 1.00       0.000000000000
      0.1172344000D+01  0.1000000000D+01
 P   1 1.00       0.000000000000
      0.5335620000D+00  0.1000000000D+01
 P   1 1.00       0.000000000000
      0.2428370000D+00  0.1000000000D+01
 P   1 1.00       0.000000000000
      0.1105210000D+00  0.1000000000D+01
 D   1 1.00       0.000000000000
      0.9464211000D+01  0.1000000000D+01
 D   1 1.00       0.000000000000
      0.4752286000D+01  0.1000000000D+01
 D   1 1.00       0.000000000000
      0.2386276000D+01  0.1000000000D+01
 D   1 1.00       0.000000000000
      0.1198226000D+01  0.1000000000D+01
 D   1 1.00       0.000000000000
      0.6016680000D+00  0.1000000000D+01
 D   1 1.00       0.000000000000
      0.3021170000D+00  0.1000000000D+01
 D   1 1.00       0.000000000000
      0.1517020000D+00  0.1000000000D+01
 F   1 1.00       0.000000000000
      0.7001836000D+01  0.1000000000D+01
 F   1 1.00       0.000000000000
      0.3552509000D+01  0.1000000000D+01
 F   1 1.00       0.000000000000
      0.1802430000D+01  0.1000000000D+01
 F   1 1.00       0.000000000000
      0.9144960000D+00  0.1000000000D+01
 F   1 1.00       0.000000000000
      0.4639860000D+00  0.1000000000D+01
 F   1 1.00       0.000000000000
      0.2354110000D+00  0.1000000000D+01
 G   1 1.00       0.000000000000
      0.6472481000D+01  0.1000000000D+01
 G   1 1.00       0.000000000000
      0.3119071000D+01  0.1000000000D+01
 G   1 1.00       0.000000000000
      0.1503072000D+01  0.1000000000D+01
 G   1 1.00       0.000000000000
      0.7243260000D+00  0.1000000000D+01
 G   1 1.00       0.000000000000
      0.3490500000D+00  0.1000000000D+01
 H   1 1.00       0.000000000000
      0.5355083000D+01  0.1000000000D+01
 H   1 1.00       0.000000000000
      0.2414696000D+01  0.1000000000D+01
 H   1 1.00       0.000000000000
      0.1088827000D+01  0.1000000000D+01
 H   1 1.00       0.000000000000
      0.4909703000D+00  0.1000000000D+01
 I   1 1.00       0.000000000000
      0.4322113000D+01  0.1000000000D+01
 I   1 1.00       0.000000000000
      0.1716263000D+01  0.1000000000D+01
 I   1 1.00       0.000000000000
      0.6815089000D+00  0.1000000000D+01
 J   1 1.00       0.000000000000
      0.3060973723D+01  0.1000000000D+01
 ****

 There are   309 symmetry adapted cartesian basis functions of A1  symmetry.
 There are   129 symmetry adapted cartesian basis functions of A2  symmetry.
 There are   204 symmetry adapted cartesian basis functions of B1  symmetry.
 There are   204 symmetry adapted cartesian basis functions of B2  symmetry.
 There are   180 symmetry adapted basis functions of A1  symmetry.
 There are    87 symmetry adapted basis functions of A2  symmetry.
 There are   128 symmetry adapted basis functions of B1  symmetry.
 There are   128 symmetry adapted basis functions of B2  symmetry.
   523 basis functions,  1165 primitive gaussians,   846 cartesian basis functions
    22 alpha electrons       21 beta electrons
       nuclear repulsion energy        86.2855918968 Hartrees.
 NAtoms=    2 NActive=    2 NUniq=    2 SFac= 1.00D+00 NAtFMM=   60 NAOKFM=F Big=F
 Integral buffers will be    131072 words long.
 Raffenetti 2 integral format.
 Two-electron integral symmetry is turned on.
 One-electron integrals computed using PRISM.
 PrsmSu:  requested number of processors reduced to:   2 ShMem   1 Linda.
 NBasis=   523 RedAO= F EigKep=  0.00D+00  NBF=   180    87   128   128
 NBsUse=   523 1.00D-04 EigRej=  0.00D+00 NBFU=   180    87   128   128
 ExpMin= 2.55D-02 ExpMax= 1.08D+08 ExpMxC= 9.49D+03 IAcc=3 IRadAn=         5 AccDes= 0.00D+00
 Harris functional with IExCor=  205 and IRadAn=       5 diagonalized for initial guess.
 HarFok:  IExCor=  205 AccDes= 0.00D+00 IRadAn=         5 IDoV= 1 UseB2=F ITyADJ=14
 ICtDFT=  3500011 ScaDFX=  1.000000  1.000000  1.000000  1.000000
 FoFCou: FMM=F IPFlag=           0 FMFlag=      100000 FMFlg1=           0
         NFxFlg=           0 DoJE=T BraDBF=F KetDBF=T FulRan=T
         wScrn=  0.000000 ICntrl=     500 IOpCl=  0 I1Cent=   200000004 NGrid=           0
         NMat0=    1 NMatS0=      1 NMatT0=    0 NMatD0=    1 NMtDS0=    0 NMtDT0=    0
 Petite list used in FoFCou.
 DSYEVD returned Info=      240515 IAlg= 4 N=   523 NDim=   523 NE2=     3076757 trying DSYEV.
 Initial guess orbital symmetries:
       Occupied  (SG) (SG) (SG) (PI) (PI) (SG) (SG) (SG) (PI) (PI)
                 (SG) (PI) (PI) (DLTA) (DLTA) (SG) (SG) (SG) (PI)
                 (PI) (PI) (PI)
       Virtual   (SG) (SG) (PI) (PI) (SG) (DLTA) (DLTA) (SG) (PI)
                 (PI) (PI) (PI) (SG) (PI) (PI) (SG) (SG) (SG) (DLTA)
                 (DLTA) (DLTA) (DLTA) (PI) (PI) (PHI) (PHI) (SG)
                 (PI) (PI) (PI) (PI) (SG) (DLTA) (DLTA) (SG) (PI)
                 (PI) (SG) (PI) (PI) (SG) (PHI) (PHI) (?A) (?A)
                 (SG) (PI) (PI) (DLTA) (DLTA) (DLTA) (DLTA) (PI)
                 (PI) (PHI) (PHI) (DLTA) (DLTA) (SG) (SG) (PI)
                 (PI) (PHI) (PHI) (DLTA) (DLTA) (SG) (PI) (PI)
                 (SG) (SG) (PI) (PI) (DLTA) (DLTA) (PI) (PI) (?A)
                 (?A) (SG) (?B) (?B) (PHI) (PHI) (PI) (PI) (SG)
                 (SG) (PI) (PI) (DLTA) (DLTA) (PHI) (PHI) (?A)
                 (?A) (?A) (?A) (SG) (DLTA) (DLTA) (SG) (DLTA)
                 (DLTA) (PHI) (PHI) (PI) (PI) (DLTA) (DLTA) (PI)
                 (PI) (PI) (PI) (SG) (DLTA) (DLTA) (PHI) (PHI)
                 (PHI) (PHI) (SG) (?B) (?B) (SG) (SG) (DLTA) (DLTA)
                 (SG) (PI) (PI) (?A) (?A) (SG) (PI) (PI) (SG) (PI)
                 (PI) (DLTA) (DLTA) (SG) (PHI) (PHI) (?B) (?B)
                 (PI) (PI) (SG) (?A) (?A) (?B) (?B) (PHI) (PHI)
                 (PI) (PI) (SG) (DLTA) (DLTA) (DLTA) (DLTA) (?A)
                 (?A) (PI) (PI) (SG) (?A) (?A) (PHI) (PHI) (DLTA)
                 (DLTA) (SG) (PI) (PI) (PI) (PI) (PHI) (PHI) (SG)
                 (DLTA) (DLTA) (PI) (PI) (DLTA) (DLTA) (PHI) (PHI)
                 (SG) (DLTA) (DLTA) (SG) (?A) (?A) (PI) (PI) (PHI)
                 (PHI) (DLTA) (DLTA) (SG) (PI) (PI) (SG) (SG) (PHI)
                 (PHI) (?B) (?B) (SG) (PI) (PI) (SG) (?A) (?A)
                 (DLTA) (DLTA) (SG) (SG) (?B) (?B) (PHI) (PHI)
                 (SG) (SG) (DLTA) (DLTA) (PI) (PI) (?A) (?A) (PI)
                 (PI) (SG) (DLTA) (DLTA) (?B) (?B) (SG) (?A) (?A)
                 (PHI) (PHI) (PI) (PI) (DLTA) (DLTA) (PHI) (PHI)
                 (?A) (?A) (SG) (PI) (PI) (PI) (PI) (PI) (PI) (PHI)
                 (PHI) (DLTA) (DLTA) (SG) (SG) (SG) (DLTA) (DLTA)
                 (PI) (PI) (?B) (?B) (PHI) (PHI) (?A) (?A) (PI)
                 (PI) (SG) (DLTA) (DLTA) (PHI) (PHI) (SG) (DLTA)
                 (DLTA) (DLTA) (DLTA) (?C) (?C) (SG) (SG) (PI)
                 (PI) (PI) (PI) (?B) (?B) (SG) (?A) (?A) (?A) (?A)
                 (PHI) (PHI) (PI) (PI) (SG) (SG) (PHI) (PHI) (DLTA)
                 (DLTA) (PHI) (PHI) (PI) (PI) (SG) (PI) (PI) (DLTA)
                 (DLTA) (SG) (SG) (DLTA) (DLTA) (SG) (SG) (?B)
                 (?B) (DLTA) (DLTA) (?A) (?A) (PHI) (PHI) (?A)
                 (?A) (SG) (?B) (?B) (?A) (?A) (PI) (PI) (DLTA)
                 (DLTA) (PHI) (PHI) (PI) (PI) (SG) (PHI) (PHI)
                 (SG) (DLTA) (DLTA) (PI) (PI) (SG) (PI) (PI) (DLTA)
                 (DLTA) (SG) (SG) (SG) (PI) (PI) (?B) (?B) (?A)
                 (?A) (PI) (PI) (PHI) (PHI) (SG) (PHI) (PHI) (DLTA)
                 (DLTA) (SG) (PI) (PI) (DLTA) (DLTA) (SG) (PI)
                 (PI) (SG) (?B) (?B) (DLTA) (DLTA) (?A) (?A) (PHI)
                 (PHI) (PI) (PI) (DLTA) (DLTA) (SG) (PI) (PI) (PI)
                 (PI) (?A) (?A) (SG) (PHI) (PHI) (PHI) (PHI) (DLTA)
                 (DLTA) (SG) (PI) (PI) (SG) (DLTA) (DLTA) (PI)
                 (PI) (DLTA) (DLTA) (SG) (PI) (PI) (SG) (SG) (?B)
                 (?B) (SG) (SG) (?A) (?A) (?C) (?C) (PHI) (PHI)
                 (DLTA) (DLTA) (PI) (PI) (SG) (SG) (PI) (PI) (SG)
                 (SG) (SG) (?B) (?B) (?A) (?A) (PHI) (PHI) (DLTA)
                 (DLTA) (PI) (PI) (SG) (?B) (?B) (?A) (?A) (PHI)
                 (PHI) (DLTA) (DLTA) (PI) (PI) (SG) (PHI) (PHI)
                 (DLTA) (DLTA) (PI) (PI) (SG) (?A) (?A) (PHI) (PHI)
                 (DLTA) (DLTA) (PI) (PI) (SG) (DLTA) (DLTA) (PI)
                 (PI) (SG) (PI) (PI) (SG) (SG) (SG)
 Requested convergence on RMS density matrix=1.00D-10 within 128 cycles.
 Requested convergence on MAX density matrix=1.00D-08.
 Requested convergence on             energy=1.00D-08.
 No special actions if energy rises.
 Initial convergence to 1.0D-05 achieved.  Increase integral accuracy.
 SCF Done:  E(ROHF) =  -2647.26201498     A.U. after   27 cycles
            NFock= 27  Conv=0.19D-11     -V/T= 2.0000
 <Sx>= 0.0000 <Sy>= 0.0000 <Sz>= 0.5000 <S**2>= 0.7500 S= 0.5000
 <L.S>= 0.000000000000E+00
 Annihilation of the first spin contaminant:
 S**2 before annihilation     0.7500,   after     0.7500
 GenMOA:  NOpAll=  4 NOp2=4 NOpUse=  4 JSym2X=1
 <Sx>= 0.0000 <Sy>= 0.0000 <Sz>= 0.5000 <S**2>= 0.7500 S= 0.5000
 Range of M.O.s used for correlation:    16   523
 NBasis=   523 NAE=    22 NBE=    21 NFC=    15 NFV=     0
 NROrb=    508 NOA=     7 NOB=     6 NVA=   501 NVB=   502

 **** Warning!!: The largest alpha MO coefficient is  0.82431809D+03


 **** Warning!!: The largest beta MO coefficient is  0.82356010D+03

 Singles contribution to E2=   -0.4344991361D-02
 Disk-based method using OVN memory for  7 occupieds at a time.
 Permanent disk used for amplitudes and <ij||ab> integrals=    30159198 words.
 Estimated scratch disk usage=  3218483086 words.
 IUseRI=2 ITolRI= 6 IR12RI=0
 Actual    scratch disk usage=  3210295017 words.
 GetIJB would need an additional  1732814403 words of memory to use all   8 processors.
 JobTyp=2 Pass  1:  I=   1 to   7 NPSUse=  1 ParTrn=F ParDer=F DoDerP=F.
 T,EIJ(AA): I=   1 J=   2      0.1237956E-03     -0.6240328E-03
 T,EIJ(AA): I=   1 J=   3      0.3913263E-03     -0.2335888E-02
 T,EIJ(AA): I=   1 J=   4      0.3925846E-03     -0.2230279E-02
 T,EIJ(AA): I=   1 J=   5      0.4071027E-03     -0.1980016E-02
 T,EIJ(AA): I=   1 J=   6      0.1882429E-03     -0.8400205E-03
 T,EIJ(AA): I=   1 J=   7      0.2022202E-03     -0.9348642E-03
 T,EIJ(AA): I=   2 J=   3      0.3490915E-03     -0.1511088E-02
 T,EIJ(AA): I=   2 J=   4      0.3834787E-03     -0.1560393E-02
 T,EIJ(AA): I=   2 J=   5      0.4731745E-03     -0.1578321E-02
 T,EIJ(AA): I=   2 J=   6      0.4321462E-03     -0.1462758E-02
 T,EIJ(AA): I=   2 J=   7      0.4192117E-03     -0.1454499E-02
 T,EIJ(AA): I=   3 J=   4      0.1341549E-02     -0.6507133E-02
 T,EIJ(AA): I=   3 J=   5      0.1582181E-02     -0.6256567E-02
 T,EIJ(AA): I=   3 J=   6      0.1863794E-03     -0.5757900E-03
 T,EIJ(AA): I=   3 J=   7      0.5536798E-03     -0.2160514E-02
 T,EIJ(AA): I=   4 J=   5      0.1617413E-02     -0.6068642E-02
 T,EIJ(AA): I=   4 J=   6      0.6249953E-03     -0.2048498E-02
 T,EIJ(AA): I=   4 J=   7      0.2046738E-03     -0.5937262E-03
 T,EIJ(AA): I=   5 J=   6      0.1896777E-02     -0.4570287E-02
 T,EIJ(AA): I=   5 J=   7      0.1952871E-02     -0.4814208E-02
 T,EIJ(AA): I=   6 J=   7      0.2194967E-02     -0.5184538E-02
 T,EIJ(AB): I=   1 J=   1      0.1787629E-02     -0.1137903E-01
 T,EIJ(AB): I=   1 J=   2      0.4766918E-03     -0.3203933E-02
 T,EIJ(AB): I=   1 J=   3      0.1293280E-02     -0.8297041E-02
 T,EIJ(AB): I=   1 J=   4      0.1542032E-02     -0.8462575E-02
 T,EIJ(AB): I=   1 J=   5      0.5901426E-03     -0.2418842E-02
 T,EIJ(AB): I=   1 J=   6      0.5535536E-03     -0.3173662E-02
 T,EIJ(AB): I=   2 J=   1      0.5949756E-03     -0.3336504E-02
 T,EIJ(AB): I=   2 J=   2      0.2158367E-02     -0.8772962E-02
 T,EIJ(AB): I=   2 J=   3      0.8760986E-03     -0.3928914E-02
 T,EIJ(AB): I=   2 J=   4      0.1671407E-02     -0.7019446E-02
 T,EIJ(AB): I=   2 J=   5      0.2026101E-02     -0.7341325E-02
 T,EIJ(AB): I=   2 J=   6      0.1753566E-02     -0.6756976E-02
 T,EIJ(AB): I=   3 J=   1      0.1966559E-02     -0.1112812E-01
 T,EIJ(AB): I=   3 J=   2      0.9856905E-03     -0.4839765E-02
 T,EIJ(AB): I=   3 J=   3      0.1748754E-02     -0.8893644E-02
 T,EIJ(AB): I=   3 J=   4      0.2150013E-02     -0.9158164E-02
 T,EIJ(AB): I=   3 J=   5      0.1486901E-02     -0.4641401E-02
 T,EIJ(AB): I=   3 J=   6      0.8233908E-03     -0.3589889E-02
 T,EIJ(AB): I=   4 J=   1      0.1675606E-02     -0.9654010E-02
 T,EIJ(AB): I=   4 J=   2      0.1011547E-02     -0.4750162E-02
 T,EIJ(AB): I=   4 J=   3      0.3526923E-02     -0.1697774E-01
 T,EIJ(AB): I=   4 J=   4      0.2148074E-02     -0.8731883E-02
 T,EIJ(AB): I=   4 J=   5      0.1056863E-02     -0.3015188E-02
 T,EIJ(AB): I=   4 J=   6      0.1815467E-02     -0.7451426E-02
 T,EIJ(AB): I=   5 J=   1      0.1866768E-02     -0.9349120E-02
 T,EIJ(AB): I=   5 J=   2      0.1895269E-02     -0.7718568E-02
 T,EIJ(AB): I=   5 J=   3      0.2012148E-02     -0.8115846E-02
 T,EIJ(AB): I=   5 J=   4      0.9799195E-02     -0.2489630E-01
 T,EIJ(AB): I=   5 J=   5      0.3814913E-02     -0.7818166E-02
 T,EIJ(AB): I=   5 J=   6      0.2515603E-02     -0.7062936E-02
 T,EIJ(AB): I=   6 J=   1      0.6615595E-03     -0.3024997E-02
 T,EIJ(AB): I=   6 J=   2      0.2052512E-02     -0.7442007E-02
 T,EIJ(AB): I=   6 J=   3      0.9357818E-03     -0.3127079E-02
 T,EIJ(AB): I=   6 J=   4      0.2277583E-02     -0.6147307E-02
 T,EIJ(AB): I=   6 J=   5      0.7269074E-02     -0.1815520E-01
 T,EIJ(AB): I=   6 J=   6      0.2780031E-02     -0.7279837E-02
 T,EIJ(AB): I=   7 J=   1      0.6411917E-03     -0.3252900E-02
 T,EIJ(AB): I=   7 J=   2      0.1945981E-02     -0.7206365E-02
 T,EIJ(AB): I=   7 J=   3      0.1914289E-02     -0.7058107E-02
 T,EIJ(AB): I=   7 J=   4      0.2393833E-02     -0.6593016E-02
 T,EIJ(AB): I=   7 J=   5      0.3223867E-02     -0.7858119E-02
 T,EIJ(AB): I=   7 J=   6      0.6038691E-02     -0.1572777E-01
 Actual    scratch disk usage=  3216703374 words.
 GetIJB would need an additional  1732808481 words of memory to use all   8 processors.
 JobTyp=3 Pass  1:  I=   1 to   6 NPSUse=  1 ParTrn=F ParDer=F DoDerP=F.
 (rs|ai) integrals will be sorted in core.
 T,EIJ(BB): I=   1 J=   2      0.1699709E-03     -0.7710208E-03
 T,EIJ(BB): I=   1 J=   3      0.5103276E-03     -0.2574700E-02
 T,EIJ(BB): I=   1 J=   4      0.4829423E-03     -0.2240930E-02
 T,EIJ(BB): I=   1 J=   5      0.4720415E-03     -0.1477765E-02
 T,EIJ(BB): I=   1 J=   6      0.2955485E-03     -0.1309186E-02
 T,EIJ(BB): I=   2 J=   3      0.4608727E-03     -0.1796262E-02
 T,EIJ(BB): I=   2 J=   4      0.5999388E-03     -0.1982487E-02
 T,EIJ(BB): I=   2 J=   5      0.7201540E-03     -0.1984075E-02
 T,EIJ(BB): I=   2 J=   6      0.4723364E-03     -0.1583095E-02
 T,EIJ(BB): I=   3 J=   4      0.1577078E-02     -0.5872113E-02
 T,EIJ(BB): I=   3 J=   5      0.9382699E-03     -0.2474677E-02
 T,EIJ(BB): I=   3 J=   6      0.2105794E-03     -0.6028388E-03
 T,EIJ(BB): I=   4 J=   5      0.3381899E-02     -0.6047019E-02
 T,EIJ(BB): I=   4 J=   6      0.2078079E-02     -0.5165515E-02
 T,EIJ(BB): I=   5 J=   6      0.2459514E-02     -0.5418983E-02
 Spin components of T(2) and E(2):
     alpha-alpha T2 =       0.1591786122D-01 E2=     -0.5529206315D-01
     alpha-beta  T2 =       0.8975792168D-01 E2=     -0.3247562507D+00
     beta-beta   T2 =       0.1482955139D-01 E2=     -0.4130066693D-01
 ANorm=    0.1059673999D+01
 E2 =    -0.4256939721D+00 EUMP2 =    -0.26476877089554D+04

 Complete Basis Set (CBS) Extrapolation:
 M. R. Nyden and G. A. Petersson, JCP 75, 1843 (1981)
 G. A. Petersson and M. A. Al-Laham, JCP 94, 6081 (1991)
 G. A. Petersson, T. Tensfeldt, and J. A. Montgomery, JCP 94, 6091 (1991)
 J. A. Montgomery, J. W. Ochterski, and G. A. Petersson, JCP 101, 5900 (1994)
 
 Minimum Number of PNO for Extrapolation =  25
 Absolute Overlaps: IRadAn =         5
 LocTrn: ILocal=3 LocCor=F DoCore=F.
 Entering OneElI...
 Overlap between basis sets.
 Requested accuracy = 0.1000D-12
 PrsmSu:  NPrtUS=   1 ThrOK=F IAlg=1 NPAlg=1 LenDen=           0.
 Prism:   IPart=     0 DynPar=F LinDyn=F Incr=           1.
 PRISM was handed  1609335673 working-precision words and    60 shell-pairs
 IPart=  0 NShTot=          60 NBatch=          15 AvBLen=         4.0
 PrSmSu:  NxtVal=              2.
 CnvPC2: ToCart=F DoDens=F IPureD=0 IPureF=0.
 Transformed matrix in CnvPC2: 
                 1             2             3             4             5 
      1   0.100000D+01  0.406589D+00  0.000000D+00  0.000000D+00  0.000000D+00
      2   0.406589D+00  0.100000D+01  0.000000D+00  0.000000D+00  0.000000D+00
      3   0.000000D+00  0.000000D+00  0.100000D+01  0.000000D+00  0.000000D+00
      4   0.000000D+00  0.000000D+00  0.000000D+00  0.100000D+01  0.000000D+00
      5   0.000000D+00  0.000000D+00  0.000000D+00  0.000000D+00  0.100000D+01
      6   0.319944D-01  0.362204D+00  0.000000D+00  0.000000D+00  0.000000D+00
      7   0.000000D+00  0.000000D+00  0.375020D+00  0.000000D+00  0.000000D+00
      8   0.000000D+00  0.000000D+00  0.000000D+00  0.375020D+00  0.000000D+00
      9   0.000000D+00  0.000000D+00  0.000000D+00  0.000000D+00  0.375020D+00
     10   0.000000D+00  0.000000D+00  0.000000D+00  0.000000D+00  0.000000D+00
     11   0.000000D+00  0.000000D+00  0.000000D+00  0.000000D+00  0.000000D+00
     12   0.000000D+00  0.000000D+00  0.000000D+00  0.000000D+00  0.000000D+00
     13   0.000000D+00  0.000000D+00  0.000000D+00  0.000000D+00  0.000000D+00
     14   0.000000D+00  0.000000D+00  0.000000D+00  0.000000D+00  0.000000D+00
     15  -0.396207D-03  0.612395D-02  0.000000D+00  0.000000D+00  0.000000D+00
     16   0.000000D+00  0.000000D+00  0.149285D-01  0.000000D+00  0.000000D+00
     17   0.000000D+00  0.000000D+00  0.000000D+00  0.149285D-01  0.000000D+00
     18   0.000000D+00  0.000000D+00  0.000000D+00  0.000000D+00  0.149285D-01
     19   0.000000D+00  0.000000D+00  0.000000D+00  0.000000D+00  0.000000D+00
     20   0.000000D+00  0.000000D+00  0.000000D+00  0.000000D+00  0.000000D+00
     21   0.000000D+00  0.000000D+00  0.000000D+00  0.000000D+00  0.000000D+00
     22   0.000000D+00  0.000000D+00  0.000000D+00  0.000000D+00  0.000000D+00
     23   0.000000D+00  0.000000D+00  0.000000D+00  0.000000D+00  0.000000D+00
     24   0.000000D+00  0.000000D+00  0.000000D+00  0.000000D+00  0.000000D+00
     25   0.302606D-03  0.191381D-02  0.000000D+00  0.000000D+00 -0.724090D-03
     26   0.000000D+00  0.000000D+00  0.202733D-03  0.000000D+00  0.000000D+00
     27   0.000000D+00  0.000000D+00  0.000000D+00  0.202733D-03  0.000000D+00
     28   0.677507D-03  0.421266D-02  0.000000D+00  0.000000D+00 -0.139998D-02
                 6             7             8             9            10 
      1   0.319944D-01  0.000000D+00  0.000000D+00  0.000000D+00  0.000000D+00
      2   0.362204D+00  0.000000D+00  0.000000D+00  0.000000D+00  0.000000D+00
      3   0.000000D+00  0.375020D+00  0.000000D+00  0.000000D+00  0.000000D+00
      4   0.000000D+00  0.000000D+00  0.375020D+00  0.000000D+00  0.000000D+00
      5   0.000000D+00  0.000000D+00  0.000000D+00  0.375020D+00  0.000000D+00
      6   0.100000D+01  0.000000D+00  0.000000D+00  0.000000D+00  0.000000D+00
      7   0.000000D+00  0.100000D+01  0.000000D+00  0.000000D+00  0.000000D+00
      8   0.000000D+00  0.000000D+00  0.100000D+01  0.000000D+00  0.000000D+00
      9   0.000000D+00  0.000000D+00  0.000000D+00  0.100000D+01  0.000000D+00
     10   0.000000D+00  0.000000D+00  0.000000D+00  0.000000D+00  0.100000D+01
     11   0.000000D+00  0.000000D+00  0.000000D+00  0.000000D+00  0.000000D+00
     12   0.000000D+00  0.000000D+00  0.000000D+00  0.000000D+00  0.000000D+00
     13   0.000000D+00  0.000000D+00  0.000000D+00  0.000000D+00  0.000000D+00
     14   0.000000D+00  0.000000D+00  0.000000D+00  0.000000D+00  0.000000D+00
     15   0.201919D+00  0.000000D+00  0.000000D+00  0.000000D+00  0.000000D+00
     16   0.000000D+00  0.218356D+00  0.000000D+00  0.000000D+00  0.000000D+00
     17   0.000000D+00  0.000000D+00  0.218356D+00  0.000000D+00  0.000000D+00
     18   0.000000D+00  0.000000D+00  0.000000D+00  0.218356D+00  0.000000D+00
     19   0.000000D+00  0.000000D+00  0.000000D+00  0.000000D+00  0.404997D-01
     20   0.000000D+00  0.000000D+00  0.000000D+00  0.000000D+00  0.000000D+00
     21   0.000000D+00  0.000000D+00  0.000000D+00  0.000000D+00  0.000000D+00
     22   0.000000D+00  0.000000D+00  0.000000D+00  0.000000D+00  0.000000D+00
     23   0.000000D+00  0.000000D+00  0.000000D+00  0.000000D+00  0.000000D+00
     24   0.000000D+00  0.000000D+00  0.000000D+00  0.000000D+00  0.000000D+00
     25   0.128638D-01  0.000000D+00  0.000000D+00 -0.120221D-01  0.636387D-02
     26   0.000000D+00  0.339092D-02  0.000000D+00  0.000000D+00  0.000000D+00
     27   0.000000D+00  0.000000D+00  0.339092D-02  0.000000D+00  0.000000D+00
     28   0.253251D-01  0.000000D+00  0.000000D+00 -0.212212D-01  0.101087D-01
                11            12            13            14            15 
      1   0.000000D+00  0.000000D+00  0.000000D+00  0.000000D+00 -0.396207D-03
      2   0.000000D+00  0.000000D+00  0.000000D+00  0.000000D+00  0.612395D-02
      3   0.000000D+00  0.000000D+00  0.000000D+00  0.000000D+00  0.000000D+00
      4   0.000000D+00  0.000000D+00  0.000000D+00  0.000000D+00  0.000000D+00
      5   0.000000D+00  0.000000D+00  0.000000D+00  0.000000D+00  0.000000D+00
      6   0.000000D+00  0.000000D+00  0.000000D+00  0.000000D+00  0.201919D+00
      7   0.000000D+00  0.000000D+00  0.000000D+00  0.000000D+00  0.000000D+00
      8   0.000000D+00  0.000000D+00  0.000000D+00  0.000000D+00  0.000000D+00
      9   0.000000D+00  0.000000D+00  0.000000D+00  0.000000D+00  0.000000D+00
     10   0.000000D+00  0.000000D+00  0.000000D+00  0.000000D+00  0.000000D+00
     11   0.100000D+01  0.000000D+00  0.000000D+00  0.000000D+00  0.000000D+00
     12   0.000000D+00  0.100000D+01  0.000000D+00  0.000000D+00  0.000000D+00
     13   0.000000D+00  0.000000D+00  0.100000D+01  0.000000D+00  0.000000D+00
     14   0.000000D+00  0.000000D+00  0.000000D+00  0.100000D+01  0.000000D+00
     15   0.000000D+00  0.000000D+00  0.000000D+00  0.000000D+00  0.100000D+01
     16   0.000000D+00  0.000000D+00  0.000000D+00  0.000000D+00  0.000000D+00
     17   0.000000D+00  0.000000D+00  0.000000D+00  0.000000D+00  0.000000D+00
     18   0.000000D+00  0.000000D+00  0.000000D+00  0.000000D+00  0.000000D+00
     19   0.000000D+00  0.000000D+00  0.000000D+00  0.000000D+00  0.000000D+00
     20   0.404997D-01  0.000000D+00  0.000000D+00  0.000000D+00  0.000000D+00
     21   0.000000D+00  0.404997D-01  0.000000D+00  0.000000D+00  0.000000D+00
     22   0.000000D+00  0.000000D+00  0.404997D-01  0.000000D+00  0.000000D+00
     23   0.000000D+00  0.000000D+00  0.000000D+00  0.404997D-01  0.000000D+00
     24   0.000000D+00  0.000000D+00  0.000000D+00  0.000000D+00  0.160933D-01
     25   0.000000D+00  0.000000D+00  0.000000D+00  0.000000D+00  0.198446D+00
     26  -0.314037D-02  0.000000D+00  0.000000D+00  0.000000D+00  0.000000D+00
     27   0.000000D+00 -0.314037D-02  0.000000D+00  0.000000D+00  0.000000D+00
     28   0.000000D+00  0.000000D+00  0.000000D+00  0.000000D+00  0.200464D+00
                16            17            18            19            20 
      1   0.000000D+00  0.000000D+00  0.000000D+00  0.000000D+00  0.000000D+00
      2   0.000000D+00  0.000000D+00  0.000000D+00  0.000000D+00  0.000000D+00
      3   0.149285D-01  0.000000D+00  0.000000D+00  0.000000D+00  0.000000D+00
      4   0.000000D+00  0.149285D-01  0.000000D+00  0.000000D+00  0.000000D+00
      5   0.000000D+00  0.000000D+00  0.149285D-01  0.000000D+00  0.000000D+00
      6   0.000000D+00  0.000000D+00  0.000000D+00  0.000000D+00  0.000000D+00
      7   0.218356D+00  0.000000D+00  0.000000D+00  0.000000D+00  0.000000D+00
      8   0.000000D+00  0.218356D+00  0.000000D+00  0.000000D+00  0.000000D+00
      9   0.000000D+00  0.000000D+00  0.218356D+00  0.000000D+00  0.000000D+00
     10   0.000000D+00  0.000000D+00  0.000000D+00  0.404997D-01  0.000000D+00
     11   0.000000D+00  0.000000D+00  0.000000D+00  0.000000D+00  0.404997D-01
     12   0.000000D+00  0.000000D+00  0.000000D+00  0.000000D+00  0.000000D+00
     13   0.000000D+00  0.000000D+00  0.000000D+00  0.000000D+00  0.000000D+00
     14   0.000000D+00  0.000000D+00  0.000000D+00  0.000000D+00  0.000000D+00
     15   0.000000D+00  0.000000D+00  0.000000D+00  0.000000D+00  0.000000D+00
     16   0.100000D+01  0.000000D+00  0.000000D+00  0.000000D+00  0.000000D+00
     17   0.000000D+00  0.100000D+01  0.000000D+00  0.000000D+00  0.000000D+00
     18   0.000000D+00  0.000000D+00  0.100000D+01  0.000000D+00  0.000000D+00
     19   0.000000D+00  0.000000D+00  0.000000D+00  0.100000D+01  0.000000D+00
     20   0.000000D+00  0.000000D+00  0.000000D+00  0.000000D+00  0.100000D+01
     21   0.000000D+00  0.000000D+00  0.000000D+00  0.000000D+00  0.000000D+00
     22   0.000000D+00  0.000000D+00  0.000000D+00  0.000000D+00  0.000000D+00
     23   0.000000D+00  0.000000D+00  0.000000D+00  0.000000D+00  0.000000D+00
     24   0.000000D+00  0.000000D+00 -0.274281D-01  0.817243D-01  0.000000D+00
     25   0.000000D+00  0.000000D+00 -0.290276D+00  0.485147D+00  0.000000D+00
     26   0.934537D-01  0.000000D+00  0.000000D+00  0.000000D+00 -0.285613D+00
     27   0.000000D+00  0.934537D-01  0.000000D+00  0.000000D+00  0.000000D+00
     28   0.000000D+00  0.000000D+00 -0.270338D+00  0.121769D+00  0.000000D+00
                21            22            23            24            25 
      1   0.000000D+00  0.000000D+00  0.000000D+00  0.000000D+00  0.302606D-03
      2   0.000000D+00  0.000000D+00  0.000000D+00  0.000000D+00  0.191381D-02
      3   0.000000D+00  0.000000D+00  0.000000D+00  0.000000D+00  0.000000D+00
      4   0.000000D+00  0.000000D+00  0.000000D+00  0.000000D+00  0.000000D+00
      5   0.000000D+00  0.000000D+00  0.000000D+00  0.000000D+00 -0.724090D-03
      6   0.000000D+00  0.000000D+00  0.000000D+00  0.000000D+00  0.128638D-01
      7   0.000000D+00  0.000000D+00  0.000000D+00  0.000000D+00  0.000000D+00
      8   0.000000D+00  0.000000D+00  0.000000D+00  0.000000D+00  0.000000D+00
      9   0.000000D+00  0.000000D+00  0.000000D+00  0.000000D+00 -0.120221D-01
     10   0.000000D+00  0.000000D+00  0.000000D+00  0.000000D+00  0.636387D-02
     11   0.000000D+00  0.000000D+00  0.000000D+00  0.000000D+00  0.000000D+00
     12   0.404997D-01  0.000000D+00  0.000000D+00  0.000000D+00  0.000000D+00
     13   0.000000D+00  0.404997D-01  0.000000D+00  0.000000D+00  0.000000D+00
     14   0.000000D+00  0.000000D+00  0.404997D-01  0.000000D+00  0.000000D+00
     15   0.000000D+00  0.000000D+00  0.000000D+00  0.160933D-01  0.198446D+00
     16   0.000000D+00  0.000000D+00  0.000000D+00  0.000000D+00  0.000000D+00
     17   0.000000D+00  0.000000D+00  0.000000D+00  0.000000D+00  0.000000D+00
     18   0.000000D+00  0.000000D+00  0.000000D+00 -0.274281D-01 -0.290276D+00
     19   0.000000D+00  0.000000D+00  0.000000D+00  0.817243D-01  0.485147D+00
     20   0.000000D+00  0.000000D+00  0.000000D+00  0.000000D+00  0.000000D+00
     21   0.100000D+01  0.000000D+00  0.000000D+00  0.000000D+00  0.000000D+00
     22   0.000000D+00  0.100000D+01  0.000000D+00  0.000000D+00  0.000000D+00
     23   0.000000D+00  0.000000D+00  0.100000D+01  0.000000D+00  0.000000D+00
     24   0.000000D+00  0.000000D+00  0.000000D+00  0.100000D+01  0.236704D+00
     25   0.000000D+00  0.000000D+00  0.000000D+00  0.236704D+00  0.100000D+01
     26   0.000000D+00  0.000000D+00  0.000000D+00  0.000000D+00  0.000000D+00
     27  -0.285613D+00  0.000000D+00  0.000000D+00  0.000000D+00  0.000000D+00
     28   0.000000D+00  0.000000D+00  0.000000D+00  0.000000D+00  0.000000D+00
                26            27            28 
      1   0.000000D+00  0.000000D+00  0.677507D-03
      2   0.000000D+00  0.000000D+00  0.421266D-02
      3   0.202733D-03  0.000000D+00  0.000000D+00
      4   0.000000D+00  0.202733D-03  0.000000D+00
      5   0.000000D+00  0.000000D+00 -0.139998D-02
      6   0.000000D+00  0.000000D+00  0.253251D-01
      7   0.339092D-02  0.000000D+00  0.000000D+00
      8   0.000000D+00  0.339092D-02  0.000000D+00
      9   0.000000D+00  0.000000D+00 -0.212212D-01
     10   0.000000D+00  0.000000D+00  0.101087D-01
     11  -0.314037D-02  0.000000D+00  0.000000D+00
     12   0.000000D+00 -0.314037D-02  0.000000D+00
     13   0.000000D+00  0.000000D+00  0.000000D+00
     14   0.000000D+00  0.000000D+00  0.000000D+00
     15   0.000000D+00  0.000000D+00  0.200464D+00
     16   0.934537D-01  0.000000D+00  0.000000D+00
     17   0.000000D+00  0.934537D-01  0.000000D+00
     18   0.000000D+00  0.000000D+00 -0.270338D+00
     19   0.000000D+00  0.000000D+00  0.121769D+00
     20  -0.285613D+00  0.000000D+00  0.000000D+00
     21   0.000000D+00 -0.285613D+00  0.000000D+00
     22   0.000000D+00  0.000000D+00  0.000000D+00
     23   0.000000D+00  0.000000D+00  0.000000D+00
     24   0.000000D+00  0.000000D+00  0.000000D+00
     25   0.000000D+00  0.000000D+00  0.000000D+00
     26   0.100000D+01  0.000000D+00  0.000000D+00
     27   0.000000D+00  0.100000D+01  0.000000D+00
     28   0.000000D+00  0.000000D+00  0.100000D+01
 Entering OneElI...
 Overlap between basis sets.
 Requested accuracy = 0.1000D-12
 PrsmSu:  NPrtUS=   1 ThrOK=F IAlg=1 NPAlg=1 LenDen=           0.
 Prism:   IPart=     0 DynPar=F LinDyn=F Incr=           7.
 PRISM was handed  1608378255 working-precision words and   735 shell-pairs
 IPart=  0 NShTot=         735 NBatch=         105 AvBLen=         7.0
 PrSmSu:  NxtVal=              8.
 CnvPC2: ToCart=F DoDens=F IPureD=0 IPureF=0.
 Transformed matrix in CnvPC2: 
                 1             2             3             4             5 
      1   0.999797D+00  0.414271D+00  0.000000D+00  0.000000D+00  0.000000D+00
      2   0.291845D+00  0.988280D+00  0.000000D+00  0.000000D+00  0.000000D+00
      3   0.000000D+00  0.000000D+00  0.999269D+00  0.000000D+00  0.000000D+00
      4   0.000000D+00  0.000000D+00  0.000000D+00  0.999269D+00  0.000000D+00
      5   0.000000D+00  0.000000D+00  0.000000D+00  0.000000D+00  0.999269D+00
      6   0.140811D-01  0.332015D+00  0.000000D+00  0.000000D+00  0.000000D+00
      7   0.000000D+00  0.000000D+00  0.360400D+00  0.000000D+00  0.000000D+00
      8   0.000000D+00  0.000000D+00  0.000000D+00  0.360400D+00  0.000000D+00
      9   0.000000D+00  0.000000D+00  0.000000D+00  0.000000D+00  0.360400D+00
     10   0.000000D+00  0.000000D+00  0.000000D+00  0.000000D+00  0.000000D+00
     11   0.000000D+00  0.000000D+00  0.000000D+00  0.000000D+00  0.000000D+00
     12   0.000000D+00  0.000000D+00  0.000000D+00  0.000000D+00  0.000000D+00
     13   0.000000D+00  0.000000D+00  0.000000D+00  0.000000D+00  0.000000D+00
     14   0.000000D+00  0.000000D+00  0.000000D+00  0.000000D+00  0.000000D+00
     15   0.122173D-03  0.129367D-01  0.000000D+00  0.000000D+00  0.000000D+00
     16   0.997933D-02  0.598910D-01  0.000000D+00  0.000000D+00  0.000000D+00
     17   0.494118D-02  0.298084D-01  0.000000D+00  0.000000D+00  0.000000D+00
     18   0.000000D+00  0.000000D+00  0.111528D-01  0.000000D+00  0.000000D+00
     19   0.000000D+00  0.000000D+00  0.000000D+00  0.111528D-01  0.000000D+00
     20   0.000000D+00  0.000000D+00  0.000000D+00  0.000000D+00  0.111528D-01
     21   0.000000D+00  0.000000D+00  0.276871D-02  0.000000D+00  0.000000D+00
     22   0.000000D+00  0.000000D+00  0.000000D+00  0.276871D-02  0.000000D+00
     23   0.000000D+00  0.000000D+00  0.000000D+00  0.000000D+00  0.276871D-02
     24   0.000000D+00  0.000000D+00  0.936672D-03  0.000000D+00  0.000000D+00
     25   0.000000D+00  0.000000D+00  0.000000D+00  0.936672D-03  0.000000D+00
     26   0.000000D+00  0.000000D+00  0.000000D+00  0.000000D+00  0.936672D-03
     27   0.138765D+00  0.646375D+00  0.000000D+00  0.000000D+00  0.000000D+00
     28   0.941716D-01  0.485019D+00  0.000000D+00  0.000000D+00  0.000000D+00
     29   0.635203D-01  0.348743D+00  0.000000D+00  0.000000D+00  0.000000D+00
     30   0.426901D-01  0.243791D+00  0.000000D+00  0.000000D+00  0.000000D+00
     31   0.286291D-01  0.167423D+00  0.000000D+00  0.000000D+00  0.000000D+00
     32   0.191751D-01  0.113735D+00  0.000000D+00  0.000000D+00  0.000000D+00
     33   0.000000D+00  0.000000D+00  0.305516D+00  0.000000D+00  0.000000D+00
     34   0.000000D+00  0.000000D+00  0.000000D+00  0.305516D+00  0.000000D+00
     35   0.000000D+00  0.000000D+00  0.000000D+00  0.000000D+00  0.305516D+00
     36   0.000000D+00  0.000000D+00  0.179683D+00  0.000000D+00  0.000000D+00
     37   0.000000D+00  0.000000D+00  0.000000D+00  0.179683D+00  0.000000D+00
     38   0.000000D+00  0.000000D+00  0.000000D+00  0.000000D+00  0.179683D+00
     39   0.000000D+00  0.000000D+00  0.999632D-01  0.000000D+00  0.000000D+00
     40   0.000000D+00  0.000000D+00  0.000000D+00  0.999632D-01  0.000000D+00
     41   0.000000D+00  0.000000D+00  0.000000D+00  0.000000D+00  0.999632D-01
     42   0.000000D+00  0.000000D+00  0.536214D-01  0.000000D+00  0.000000D+00
     43   0.000000D+00  0.000000D+00  0.000000D+00  0.536214D-01  0.000000D+00
     44   0.000000D+00  0.000000D+00  0.000000D+00  0.000000D+00  0.536214D-01
     45   0.000000D+00  0.000000D+00  0.281147D-01  0.000000D+00  0.000000D+00
     46   0.000000D+00  0.000000D+00  0.000000D+00  0.281147D-01  0.000000D+00
     47   0.000000D+00  0.000000D+00  0.000000D+00  0.000000D+00  0.281147D-01
     48   0.000000D+00  0.000000D+00  0.145385D-01  0.000000D+00  0.000000D+00
     49   0.000000D+00  0.000000D+00  0.000000D+00  0.145385D-01  0.000000D+00
     50   0.000000D+00  0.000000D+00  0.000000D+00  0.000000D+00  0.145385D-01
     51   0.000000D+00  0.000000D+00  0.000000D+00  0.000000D+00  0.000000D+00
     52   0.000000D+00  0.000000D+00  0.000000D+00  0.000000D+00  0.000000D+00
     53   0.000000D+00  0.000000D+00  0.000000D+00  0.000000D+00  0.000000D+00
     54   0.000000D+00  0.000000D+00  0.000000D+00  0.000000D+00  0.000000D+00
     55   0.000000D+00  0.000000D+00  0.000000D+00  0.000000D+00  0.000000D+00
     56   0.000000D+00  0.000000D+00  0.000000D+00  0.000000D+00  0.000000D+00
     57   0.000000D+00  0.000000D+00  0.000000D+00  0.000000D+00  0.000000D+00
     58   0.000000D+00  0.000000D+00  0.000000D+00  0.000000D+00  0.000000D+00
     59   0.000000D+00  0.000000D+00  0.000000D+00  0.000000D+00  0.000000D+00
     60   0.000000D+00  0.000000D+00  0.000000D+00  0.000000D+00  0.000000D+00
     61   0.000000D+00  0.000000D+00  0.000000D+00  0.000000D+00  0.000000D+00
     62   0.000000D+00  0.000000D+00  0.000000D+00  0.000000D+00  0.000000D+00
     63   0.000000D+00  0.000000D+00  0.000000D+00  0.000000D+00  0.000000D+00
     64   0.000000D+00  0.000000D+00  0.000000D+00  0.000000D+00  0.000000D+00
     65   0.000000D+00  0.000000D+00  0.000000D+00  0.000000D+00  0.000000D+00
     66   0.000000D+00  0.000000D+00  0.000000D+00  0.000000D+00  0.000000D+00
     67   0.000000D+00  0.000000D+00  0.000000D+00  0.000000D+00  0.000000D+00
     68   0.000000D+00  0.000000D+00  0.000000D+00  0.000000D+00  0.000000D+00
     69   0.000000D+00  0.000000D+00  0.000000D+00  0.000000D+00  0.000000D+00
     70   0.000000D+00  0.000000D+00  0.000000D+00  0.000000D+00  0.000000D+00
     71   0.000000D+00  0.000000D+00  0.000000D+00  0.000000D+00  0.000000D+00
     72   0.000000D+00  0.000000D+00  0.000000D+00  0.000000D+00  0.000000D+00
     73   0.000000D+00  0.000000D+00  0.000000D+00  0.000000D+00  0.000000D+00
     74   0.000000D+00  0.000000D+00  0.000000D+00  0.000000D+00  0.000000D+00
     75   0.000000D+00  0.000000D+00  0.000000D+00  0.000000D+00  0.000000D+00
     76   0.000000D+00  0.000000D+00  0.000000D+00  0.000000D+00  0.000000D+00
     77   0.000000D+00  0.000000D+00  0.000000D+00  0.000000D+00  0.000000D+00
     78   0.000000D+00  0.000000D+00  0.000000D+00  0.000000D+00  0.000000D+00
     79   0.000000D+00  0.000000D+00  0.000000D+00  0.000000D+00  0.000000D+00
     80   0.000000D+00  0.000000D+00  0.000000D+00  0.000000D+00  0.000000D+00
     81   0.000000D+00  0.000000D+00  0.000000D+00  0.000000D+00  0.000000D+00
     82   0.000000D+00  0.000000D+00  0.000000D+00  0.000000D+00  0.000000D+00
     83   0.000000D+00  0.000000D+00  0.000000D+00  0.000000D+00  0.000000D+00
     84   0.000000D+00  0.000000D+00  0.000000D+00  0.000000D+00  0.000000D+00
     85   0.000000D+00  0.000000D+00  0.000000D+00  0.000000D+00  0.000000D+00
     86   0.000000D+00  0.000000D+00  0.000000D+00  0.000000D+00  0.000000D+00
     87   0.000000D+00  0.000000D+00  0.000000D+00  0.000000D+00  0.000000D+00
     88   0.000000D+00  0.000000D+00  0.000000D+00  0.000000D+00  0.000000D+00
     89   0.000000D+00  0.000000D+00  0.000000D+00  0.000000D+00  0.000000D+00
     90   0.000000D+00  0.000000D+00  0.000000D+00  0.000000D+00  0.000000D+00
     91   0.000000D+00  0.000000D+00  0.000000D+00  0.000000D+00  0.000000D+00
     92   0.000000D+00  0.000000D+00  0.000000D+00  0.000000D+00  0.000000D+00
     93   0.000000D+00  0.000000D+00  0.000000D+00  0.000000D+00  0.000000D+00
     94   0.000000D+00  0.000000D+00  0.000000D+00  0.000000D+00  0.000000D+00
     95   0.000000D+00  0.000000D+00  0.000000D+00  0.000000D+00  0.000000D+00
     96   0.000000D+00  0.000000D+00  0.000000D+00  0.000000D+00  0.000000D+00
     97   0.000000D+00  0.000000D+00  0.000000D+00  0.000000D+00  0.000000D+00
     98   0.000000D+00  0.000000D+00  0.000000D+00  0.000000D+00  0.000000D+00
     99   0.000000D+00  0.000000D+00  0.000000D+00  0.000000D+00  0.000000D+00
    100   0.000000D+00  0.000000D+00  0.000000D+00  0.000000D+00  0.000000D+00
    101   0.000000D+00  0.000000D+00  0.000000D+00  0.000000D+00  0.000000D+00
    102   0.000000D+00  0.000000D+00  0.000000D+00  0.000000D+00  0.000000D+00
    103   0.000000D+00  0.000000D+00  0.000000D+00  0.000000D+00  0.000000D+00
    104   0.000000D+00  0.000000D+00  0.000000D+00  0.000000D+00  0.000000D+00
    105   0.000000D+00  0.000000D+00  0.000000D+00  0.000000D+00  0.000000D+00
    106   0.000000D+00  0.000000D+00  0.000000D+00  0.000000D+00  0.000000D+00
    107   0.000000D+00  0.000000D+00  0.000000D+00  0.000000D+00  0.000000D+00
    108   0.000000D+00  0.000000D+00  0.000000D+00  0.000000D+00  0.000000D+00
    109   0.000000D+00  0.000000D+00  0.000000D+00  0.000000D+00  0.000000D+00
    110   0.000000D+00  0.000000D+00  0.000000D+00  0.000000D+00  0.000000D+00
    111   0.000000D+00  0.000000D+00  0.000000D+00  0.000000D+00  0.000000D+00
    112   0.000000D+00  0.000000D+00  0.000000D+00  0.000000D+00  0.000000D+00
    113   0.000000D+00  0.000000D+00  0.000000D+00  0.000000D+00  0.000000D+00
    114   0.000000D+00  0.000000D+00  0.000000D+00  0.000000D+00  0.000000D+00
    115   0.000000D+00  0.000000D+00  0.000000D+00  0.000000D+00  0.000000D+00
    116   0.000000D+00  0.000000D+00  0.000000D+00  0.000000D+00  0.000000D+00
    117   0.000000D+00  0.000000D+00  0.000000D+00  0.000000D+00  0.000000D+00
    118   0.000000D+00  0.000000D+00  0.000000D+00  0.000000D+00  0.000000D+00
    119   0.000000D+00  0.000000D+00  0.000000D+00  0.000000D+00  0.000000D+00
    120   0.000000D+00  0.000000D+00  0.000000D+00  0.000000D+00  0.000000D+00
    121   0.000000D+00  0.000000D+00  0.000000D+00  0.000000D+00  0.000000D+00
    122   0.000000D+00  0.000000D+00  0.000000D+00  0.000000D+00  0.000000D+00
    123   0.000000D+00  0.000000D+00  0.000000D+00  0.000000D+00  0.000000D+00
    124   0.000000D+00  0.000000D+00  0.000000D+00  0.000000D+00  0.000000D+00
    125   0.000000D+00  0.000000D+00  0.000000D+00  0.000000D+00  0.000000D+00
    126   0.000000D+00  0.000000D+00  0.000000D+00  0.000000D+00  0.000000D+00
    127   0.000000D+00  0.000000D+00  0.000000D+00  0.000000D+00  0.000000D+00
    128   0.000000D+00  0.000000D+00  0.000000D+00  0.000000D+00  0.000000D+00
    129   0.000000D+00  0.000000D+00  0.000000D+00  0.000000D+00  0.000000D+00
    130   0.000000D+00  0.000000D+00  0.000000D+00  0.000000D+00  0.000000D+00
    131   0.000000D+00  0.000000D+00  0.000000D+00  0.000000D+00  0.000000D+00
    132   0.000000D+00  0.000000D+00  0.000000D+00  0.000000D+00  0.000000D+00
    133   0.000000D+00  0.000000D+00  0.000000D+00  0.000000D+00  0.000000D+00
    134   0.000000D+00  0.000000D+00  0.000000D+00  0.000000D+00  0.000000D+00
    135   0.000000D+00  0.000000D+00  0.000000D+00  0.000000D+00  0.000000D+00
    136   0.000000D+00  0.000000D+00  0.000000D+00  0.000000D+00  0.000000D+00
    137   0.000000D+00  0.000000D+00  0.000000D+00  0.000000D+00  0.000000D+00
    138   0.000000D+00  0.000000D+00  0.000000D+00  0.000000D+00  0.000000D+00
    139   0.000000D+00  0.000000D+00  0.000000D+00  0.000000D+00  0.000000D+00
    140   0.000000D+00  0.000000D+00  0.000000D+00  0.000000D+00  0.000000D+00
    141   0.000000D+00  0.000000D+00  0.000000D+00  0.000000D+00  0.000000D+00
    142   0.000000D+00  0.000000D+00  0.000000D+00  0.000000D+00  0.000000D+00
    143   0.000000D+00  0.000000D+00  0.000000D+00  0.000000D+00  0.000000D+00
    144   0.000000D+00  0.000000D+00  0.000000D+00  0.000000D+00  0.000000D+00
    145   0.000000D+00  0.000000D+00  0.000000D+00  0.000000D+00  0.000000D+00
    146   0.000000D+00  0.000000D+00  0.000000D+00  0.000000D+00  0.000000D+00
    147   0.000000D+00  0.000000D+00  0.000000D+00  0.000000D+00  0.000000D+00
    148   0.000000D+00  0.000000D+00  0.000000D+00  0.000000D+00  0.000000D+00
    149   0.000000D+00  0.000000D+00  0.000000D+00  0.000000D+00  0.000000D+00
    150   0.000000D+00  0.000000D+00  0.000000D+00  0.000000D+00  0.000000D+00
    151   0.000000D+00  0.000000D+00  0.000000D+00  0.000000D+00  0.000000D+00
    152   0.000000D+00  0.000000D+00  0.000000D+00  0.000000D+00  0.000000D+00
    153   0.000000D+00  0.000000D+00  0.000000D+00  0.000000D+00  0.000000D+00
    154   0.000000D+00  0.000000D+00  0.000000D+00  0.000000D+00  0.000000D+00
    155   0.000000D+00  0.000000D+00  0.000000D+00  0.000000D+00  0.000000D+00
    156   0.000000D+00  0.000000D+00  0.000000D+00  0.000000D+00  0.000000D+00
    157   0.000000D+00  0.000000D+00  0.000000D+00  0.000000D+00  0.000000D+00
    158   0.000000D+00  0.000000D+00  0.000000D+00  0.000000D+00  0.000000D+00
    159   0.000000D+00  0.000000D+00  0.000000D+00  0.000000D+00  0.000000D+00
    160   0.000000D+00  0.000000D+00  0.000000D+00  0.000000D+00  0.000000D+00
    161   0.000000D+00  0.000000D+00  0.000000D+00  0.000000D+00  0.000000D+00
    162   0.000000D+00  0.000000D+00  0.000000D+00  0.000000D+00  0.000000D+00
    163   0.000000D+00  0.000000D+00  0.000000D+00  0.000000D+00  0.000000D+00
    164   0.000000D+00  0.000000D+00  0.000000D+00  0.000000D+00  0.000000D+00
    165   0.000000D+00  0.000000D+00  0.000000D+00  0.000000D+00  0.000000D+00
    166   0.000000D+00  0.000000D+00  0.000000D+00  0.000000D+00  0.000000D+00
    167   0.000000D+00  0.000000D+00  0.000000D+00  0.000000D+00  0.000000D+00
    168   0.000000D+00  0.000000D+00  0.000000D+00  0.000000D+00  0.000000D+00
    169   0.000000D+00  0.000000D+00  0.000000D+00  0.000000D+00  0.000000D+00
    170   0.000000D+00  0.000000D+00  0.000000D+00  0.000000D+00  0.000000D+00
    171   0.000000D+00  0.000000D+00  0.000000D+00  0.000000D+00  0.000000D+00
    172   0.000000D+00  0.000000D+00  0.000000D+00  0.000000D+00  0.000000D+00
    173   0.000000D+00  0.000000D+00  0.000000D+00  0.000000D+00  0.000000D+00
    174   0.000000D+00  0.000000D+00  0.000000D+00  0.000000D+00  0.000000D+00
    175   0.000000D+00  0.000000D+00  0.000000D+00  0.000000D+00  0.000000D+00
    176   0.000000D+00  0.000000D+00  0.000000D+00  0.000000D+00  0.000000D+00
    177   0.000000D+00  0.000000D+00  0.000000D+00  0.000000D+00  0.000000D+00
    178   0.000000D+00  0.000000D+00  0.000000D+00  0.000000D+00  0.000000D+00
    179   0.000000D+00  0.000000D+00  0.000000D+00  0.000000D+00  0.000000D+00
    180   0.000000D+00  0.000000D+00  0.000000D+00  0.000000D+00  0.000000D+00
    181   0.000000D+00  0.000000D+00  0.000000D+00  0.000000D+00  0.000000D+00
    182   0.000000D+00  0.000000D+00  0.000000D+00  0.000000D+00  0.000000D+00
    183   0.000000D+00  0.000000D+00  0.000000D+00  0.000000D+00  0.000000D+00
    184   0.000000D+00  0.000000D+00  0.000000D+00  0.000000D+00  0.000000D+00
    185   0.000000D+00  0.000000D+00  0.000000D+00  0.000000D+00  0.000000D+00
    186   0.000000D+00  0.000000D+00  0.000000D+00  0.000000D+00  0.000000D+00
    187   0.000000D+00  0.000000D+00  0.000000D+00  0.000000D+00  0.000000D+00
    188   0.000000D+00  0.000000D+00  0.000000D+00  0.000000D+00  0.000000D+00
    189   0.000000D+00  0.000000D+00  0.000000D+00  0.000000D+00  0.000000D+00
    190   0.000000D+00  0.000000D+00  0.000000D+00  0.000000D+00  0.000000D+00
    191   0.000000D+00  0.000000D+00  0.000000D+00  0.000000D+00  0.000000D+00
    192   0.000000D+00  0.000000D+00  0.000000D+00  0.000000D+00  0.000000D+00
    193   0.000000D+00  0.000000D+00  0.000000D+00  0.000000D+00  0.000000D+00
    194   0.000000D+00  0.000000D+00  0.000000D+00  0.000000D+00  0.000000D+00
    195   0.000000D+00  0.000000D+00  0.000000D+00  0.000000D+00  0.000000D+00
    196   0.000000D+00  0.000000D+00  0.000000D+00  0.000000D+00  0.000000D+00
    197   0.000000D+00  0.000000D+00  0.000000D+00  0.000000D+00  0.000000D+00
    198   0.000000D+00  0.000000D+00  0.000000D+00  0.000000D+00  0.000000D+00
    199   0.000000D+00  0.000000D+00  0.000000D+00  0.000000D+00  0.000000D+00
    200   0.000000D+00  0.000000D+00  0.000000D+00  0.000000D+00  0.000000D+00
    201   0.000000D+00  0.000000D+00  0.000000D+00  0.000000D+00  0.000000D+00
    202   0.000000D+00  0.000000D+00  0.000000D+00  0.000000D+00  0.000000D+00
    203   0.000000D+00  0.000000D+00  0.000000D+00  0.000000D+00  0.000000D+00
    204   0.000000D+00  0.000000D+00  0.000000D+00  0.000000D+00  0.000000D+00
    205   0.000000D+00  0.000000D+00  0.000000D+00  0.000000D+00  0.000000D+00
    206   0.000000D+00  0.000000D+00  0.000000D+00  0.000000D+00  0.000000D+00
    207   0.000000D+00  0.000000D+00  0.000000D+00  0.000000D+00  0.000000D+00
    208   0.000000D+00  0.000000D+00  0.000000D+00  0.000000D+00  0.000000D+00
    209   0.000000D+00  0.000000D+00  0.000000D+00  0.000000D+00  0.000000D+00
    210   0.000000D+00  0.000000D+00  0.000000D+00  0.000000D+00  0.000000D+00
    211   0.000000D+00  0.000000D+00  0.000000D+00  0.000000D+00  0.000000D+00
    212   0.000000D+00  0.000000D+00  0.000000D+00  0.000000D+00  0.000000D+00
    213   0.000000D+00  0.000000D+00  0.000000D+00  0.000000D+00  0.000000D+00
    214   0.000000D+00  0.000000D+00  0.000000D+00  0.000000D+00  0.000000D+00
    215   0.000000D+00  0.000000D+00  0.000000D+00  0.000000D+00  0.000000D+00
    216   0.000000D+00  0.000000D+00  0.000000D+00  0.000000D+00  0.000000D+00
    217   0.000000D+00  0.000000D+00  0.000000D+00  0.000000D+00  0.000000D+00
    218   0.000000D+00  0.000000D+00  0.000000D+00  0.000000D+00  0.000000D+00
    219   0.000000D+00  0.000000D+00  0.000000D+00  0.000000D+00  0.000000D+00
    220   0.000000D+00  0.000000D+00  0.000000D+00  0.000000D+00  0.000000D+00
    221   0.000000D+00  0.000000D+00  0.000000D+00  0.000000D+00  0.000000D+00
    222   0.000000D+00  0.000000D+00  0.000000D+00  0.000000D+00  0.000000D+00
    223   0.000000D+00  0.000000D+00  0.000000D+00  0.000000D+00  0.000000D+00
    224   0.000000D+00  0.000000D+00  0.000000D+00  0.000000D+00  0.000000D+00
    225   0.000000D+00  0.000000D+00  0.000000D+00  0.000000D+00  0.000000D+00
    226   0.000000D+00  0.000000D+00  0.000000D+00  0.000000D+00  0.000000D+00
    227   0.000000D+00  0.000000D+00  0.000000D+00  0.000000D+00  0.000000D+00
    228   0.000000D+00  0.000000D+00  0.000000D+00  0.000000D+00  0.000000D+00
    229   0.000000D+00  0.000000D+00  0.000000D+00  0.000000D+00  0.000000D+00
    230   0.000000D+00  0.000000D+00  0.000000D+00  0.000000D+00  0.000000D+00
    231   0.000000D+00  0.000000D+00  0.000000D+00  0.000000D+00  0.000000D+00
    232   0.000000D+00  0.000000D+00  0.000000D+00  0.000000D+00  0.000000D+00
    233   0.000000D+00  0.000000D+00  0.000000D+00  0.000000D+00  0.000000D+00
    234   0.000000D+00  0.000000D+00  0.000000D+00  0.000000D+00  0.000000D+00
    235   0.000000D+00  0.000000D+00  0.000000D+00  0.000000D+00  0.000000D+00
    236   0.000000D+00  0.000000D+00  0.000000D+00  0.000000D+00  0.000000D+00
    237   0.000000D+00  0.000000D+00  0.000000D+00  0.000000D+00  0.000000D+00
    238   0.000000D+00  0.000000D+00  0.000000D+00  0.000000D+00  0.000000D+00
    239   0.000000D+00  0.000000D+00  0.000000D+00  0.000000D+00  0.000000D+00
    240   0.000000D+00  0.000000D+00  0.000000D+00  0.000000D+00  0.000000D+00
    241   0.000000D+00  0.000000D+00  0.000000D+00  0.000000D+00  0.000000D+00
    242   0.000000D+00  0.000000D+00  0.000000D+00  0.000000D+00  0.000000D+00
    243   0.000000D+00  0.000000D+00  0.000000D+00  0.000000D+00  0.000000D+00
    244   0.000000D+00  0.000000D+00  0.000000D+00  0.000000D+00  0.000000D+00
    245   0.000000D+00  0.000000D+00  0.000000D+00  0.000000D+00  0.000000D+00
    246   0.000000D+00  0.000000D+00  0.000000D+00  0.000000D+00  0.000000D+00
    247   0.000000D+00  0.000000D+00  0.000000D+00  0.000000D+00  0.000000D+00
    248   0.000000D+00  0.000000D+00  0.000000D+00  0.000000D+00  0.000000D+00
    249   0.000000D+00  0.000000D+00  0.000000D+00  0.000000D+00  0.000000D+00
    250   0.000000D+00  0.000000D+00  0.000000D+00  0.000000D+00  0.000000D+00
    251   0.000000D+00  0.000000D+00  0.000000D+00  0.000000D+00  0.000000D+00
    252   0.000000D+00  0.000000D+00  0.000000D+00  0.000000D+00  0.000000D+00
    253   0.000000D+00  0.000000D+00  0.000000D+00  0.000000D+00  0.000000D+00
    254   0.000000D+00  0.000000D+00  0.000000D+00  0.000000D+00  0.000000D+00
    255   0.000000D+00  0.000000D+00  0.000000D+00  0.000000D+00  0.000000D+00
    256   0.000000D+00  0.000000D+00  0.000000D+00  0.000000D+00  0.000000D+00
    257   0.000000D+00  0.000000D+00  0.000000D+00  0.000000D+00  0.000000D+00
    258   0.000000D+00  0.000000D+00  0.000000D+00  0.000000D+00  0.000000D+00
    259   0.000000D+00  0.000000D+00  0.000000D+00  0.000000D+00  0.000000D+00
    260   0.000000D+00  0.000000D+00  0.000000D+00  0.000000D+00  0.000000D+00
    261   0.000000D+00  0.000000D+00  0.000000D+00  0.000000D+00  0.000000D+00
    262   0.000000D+00  0.000000D+00  0.000000D+00  0.000000D+00  0.000000D+00
    263   0.000000D+00  0.000000D+00  0.000000D+00  0.000000D+00  0.000000D+00
    264   0.000000D+00  0.000000D+00  0.000000D+00  0.000000D+00  0.000000D+00
    265   0.000000D+00  0.000000D+00  0.000000D+00  0.000000D+00  0.000000D+00
    266   0.000000D+00  0.000000D+00  0.000000D+00  0.000000D+00  0.000000D+00
    267   0.000000D+00  0.000000D+00  0.000000D+00  0.000000D+00  0.000000D+00
    268   0.000000D+00  0.000000D+00  0.000000D+00  0.000000D+00  0.000000D+00
    269   0.000000D+00  0.000000D+00  0.000000D+00  0.000000D+00  0.000000D+00
    270   0.000000D+00  0.000000D+00  0.000000D+00  0.000000D+00  0.000000D+00
    271   0.000000D+00  0.000000D+00  0.000000D+00  0.000000D+00  0.000000D+00
    272   0.506392D-03  0.312342D-02  0.000000D+00  0.000000D+00 -0.782836D-03
    273   0.312558D-02  0.188727D-01  0.000000D+00  0.000000D+00 -0.111210D-02
    274   0.000000D+00  0.000000D+00  0.479633D-03  0.000000D+00  0.000000D+00
    275   0.000000D+00  0.000000D+00  0.000000D+00  0.479633D-03  0.000000D+00
    276   0.163258D-02  0.994760D-02  0.000000D+00  0.000000D+00 -0.188510D-02
    277   0.000000D+00  0.000000D+00  0.113628D-02  0.000000D+00  0.000000D+00
    278   0.000000D+00  0.000000D+00  0.000000D+00  0.113628D-02  0.000000D+00
    279   0.390551D-02  0.235423D-01  0.000000D+00  0.000000D+00  0.118590D-03
    280   0.000000D+00  0.000000D+00  0.000000D+00  0.000000D+00  0.000000D+00
    281   0.000000D+00  0.000000D+00  0.000000D+00  0.000000D+00  0.000000D+00
    282   0.000000D+00  0.493166D-05  0.000000D+00  0.000000D+00 -0.503602D-05
    283   0.849054D-04  0.575848D-03  0.000000D+00  0.000000D+00 -0.317682D-03
    284   0.928454D-03  0.573434D-02  0.000000D+00  0.000000D+00 -0.164915D-02
    285   0.246414D-02  0.149189D-01  0.000000D+00  0.000000D+00 -0.220724D-02
    286   0.000000D+00  0.000000D+00  0.000000D+00  0.000000D+00  0.000000D+00
    287   0.000000D+00  0.000000D+00  0.000000D+00  0.000000D+00  0.000000D+00
    288   0.000000D+00  0.000000D+00  0.000000D+00  0.000000D+00  0.000000D+00
    289   0.000000D+00  0.000000D+00  0.000000D+00  0.000000D+00  0.000000D+00
    290   0.000000D+00  0.000000D+00  0.000000D+00  0.000000D+00  0.000000D+00
    291   0.000000D+00  0.000000D+00  0.000000D+00  0.000000D+00  0.000000D+00
    292   0.000000D+00  0.000000D+00  0.000000D+00  0.000000D+00  0.000000D+00
    293   0.000000D+00  0.000000D+00  0.000000D+00  0.000000D+00  0.000000D+00
    294   0.179427D-05  0.181302D-04  0.000000D+00  0.000000D+00 -0.187171D-04
    295   0.000000D+00  0.000000D+00  0.165178D-03  0.000000D+00  0.000000D+00
    296   0.000000D+00  0.000000D+00  0.000000D+00  0.165178D-03  0.000000D+00
    297   0.528332D-03  0.344741D-02  0.000000D+00  0.000000D+00 -0.164380D-02
    298   0.000000D+00  0.000000D+00  0.122056D-02  0.000000D+00  0.000000D+00
    299   0.000000D+00  0.000000D+00  0.000000D+00  0.122056D-02  0.000000D+00
    300   0.417797D-02  0.252994D-01  0.000000D+00  0.000000D+00 -0.494920D-02
    301   0.000000D+00  0.000000D+00  0.182400D-02  0.000000D+00  0.000000D+00
    302   0.000000D+00  0.000000D+00  0.000000D+00  0.182400D-02  0.000000D+00
    303   0.628540D-02  0.377808D-01  0.000000D+00  0.000000D+00 -0.239901D-02
    304   0.000000D+00  0.000000D+00  0.000000D+00  0.000000D+00  0.000000D+00
    305   0.000000D+00  0.000000D+00  0.000000D+00  0.000000D+00  0.000000D+00
    306   0.000000D+00  0.000000D+00  0.000000D+00  0.000000D+00  0.000000D+00
    307   0.000000D+00  0.000000D+00  0.000000D+00  0.000000D+00  0.000000D+00
    308   0.000000D+00  0.000000D+00  0.000000D+00  0.000000D+00  0.000000D+00
    309   0.000000D+00  0.000000D+00  0.000000D+00  0.000000D+00  0.000000D+00
    310   0.000000D+00  0.000000D+00  0.000000D+00  0.000000D+00  0.000000D+00
    311   0.000000D+00  0.000000D+00  0.000000D+00  0.000000D+00  0.000000D+00
    312   0.000000D+00  0.000000D+00  0.000000D+00  0.000000D+00  0.000000D+00
    313   0.000000D+00  0.000000D+00  0.000000D+00  0.000000D+00  0.000000D+00
    314   0.000000D+00  0.000000D+00  0.000000D+00  0.000000D+00  0.000000D+00
    315   0.000000D+00  0.000000D+00  0.000000D+00  0.000000D+00  0.000000D+00
    316   0.000000D+00  0.000000D+00  0.000000D+00  0.000000D+00  0.000000D+00
    317   0.000000D+00  0.000000D+00  0.000000D+00  0.000000D+00  0.000000D+00
    318   0.000000D+00  0.000000D+00  0.000000D+00  0.000000D+00  0.000000D+00
    319   0.573784D-05  0.561968D-04  0.000000D+00  0.000000D+00 -0.568075D-04
    320   0.000000D+00  0.000000D+00  0.451856D-05  0.000000D+00  0.000000D+00
    321   0.000000D+00  0.000000D+00  0.000000D+00  0.451856D-05  0.000000D+00
    322   0.000000D+00  0.000000D+00  0.000000D+00  0.000000D+00  0.000000D+00
    323   0.000000D+00  0.000000D+00  0.000000D+00  0.000000D+00  0.000000D+00
    324   0.871212D-03  0.568938D-02  0.000000D+00  0.000000D+00 -0.281028D-02
    325   0.000000D+00  0.000000D+00  0.472129D-03  0.000000D+00  0.000000D+00
    326   0.000000D+00  0.000000D+00  0.000000D+00  0.472129D-03  0.000000D+00
    327   0.000000D+00  0.000000D+00  0.000000D+00  0.000000D+00  0.000000D+00
    328   0.000000D+00  0.000000D+00  0.000000D+00  0.000000D+00  0.000000D+00
    329   0.605252D-02  0.364552D-01  0.000000D+00  0.000000D+00 -0.751580D-02
    330   0.000000D+00  0.000000D+00  0.304783D-02  0.000000D+00  0.000000D+00
    331   0.000000D+00  0.000000D+00  0.000000D+00  0.304783D-02  0.000000D+00
    332   0.000000D+00  0.000000D+00  0.000000D+00  0.000000D+00  0.000000D+00
    333   0.000000D+00  0.000000D+00  0.000000D+00  0.000000D+00  0.000000D+00
    334   0.882600D-02  0.527014D-01  0.000000D+00  0.000000D+00 -0.298302D-02
    335   0.000000D+00  0.000000D+00  0.440972D-02  0.000000D+00  0.000000D+00
    336   0.000000D+00  0.000000D+00  0.000000D+00  0.440972D-02  0.000000D+00
    337   0.000000D+00  0.000000D+00  0.000000D+00  0.000000D+00  0.000000D+00
    338   0.000000D+00  0.000000D+00  0.000000D+00  0.000000D+00  0.000000D+00
    339   0.000000D+00  0.000000D+00  0.000000D+00  0.000000D+00  0.000000D+00
    340   0.000000D+00  0.000000D+00  0.000000D+00  0.000000D+00  0.000000D+00
    341   0.000000D+00  0.000000D+00  0.000000D+00  0.000000D+00  0.000000D+00
    342   0.000000D+00  0.000000D+00  0.000000D+00  0.000000D+00  0.000000D+00
    343   0.000000D+00  0.000000D+00  0.000000D+00  0.000000D+00  0.000000D+00
    344   0.000000D+00  0.000000D+00  0.000000D+00  0.000000D+00  0.000000D+00
    345   0.000000D+00  0.000000D+00  0.000000D+00  0.000000D+00  0.000000D+00
    346   0.000000D+00  0.000000D+00  0.000000D+00  0.000000D+00  0.000000D+00
    347   0.000000D+00  0.000000D+00  0.000000D+00  0.000000D+00  0.000000D+00
    348   0.000000D+00  0.000000D+00  0.000000D+00  0.000000D+00  0.000000D+00
    349   0.000000D+00  0.000000D+00  0.000000D+00  0.000000D+00  0.000000D+00
    350   0.000000D+00  0.000000D+00  0.000000D+00  0.000000D+00  0.000000D+00
    351   0.000000D+00  0.000000D+00  0.000000D+00  0.000000D+00  0.000000D+00
    352   0.000000D+00  0.000000D+00  0.000000D+00  0.000000D+00  0.000000D+00
    353   0.000000D+00  0.161136D-05  0.000000D+00  0.000000D+00 -0.228157D-05
    354   0.000000D+00  0.000000D+00  0.000000D+00  0.000000D+00  0.000000D+00
    355   0.000000D+00  0.000000D+00  0.000000D+00  0.000000D+00  0.000000D+00
    356   0.000000D+00  0.000000D+00  0.000000D+00  0.000000D+00  0.000000D+00
    357   0.000000D+00  0.000000D+00  0.000000D+00  0.000000D+00  0.000000D+00
    358   0.000000D+00  0.000000D+00  0.000000D+00  0.000000D+00  0.000000D+00
    359   0.000000D+00  0.000000D+00  0.000000D+00  0.000000D+00  0.000000D+00
    360   0.189906D-03  0.141193D-02  0.000000D+00  0.000000D+00 -0.103190D-02
    361   0.000000D+00  0.000000D+00  0.163878D-03  0.000000D+00  0.000000D+00
    362   0.000000D+00  0.000000D+00  0.000000D+00  0.163878D-03  0.000000D+00
    363   0.000000D+00  0.000000D+00  0.000000D+00  0.000000D+00  0.000000D+00
    364   0.000000D+00  0.000000D+00  0.000000D+00  0.000000D+00  0.000000D+00
    365   0.000000D+00  0.000000D+00  0.000000D+00  0.000000D+00  0.000000D+00
    366   0.000000D+00  0.000000D+00  0.000000D+00  0.000000D+00  0.000000D+00
    367   0.461800D-02  0.281429D-01  0.000000D+00  0.000000D+00 -0.889790D-02
    368   0.000000D+00  0.000000D+00  0.332384D-02  0.000000D+00  0.000000D+00
    369   0.000000D+00  0.000000D+00  0.000000D+00  0.332384D-02  0.000000D+00
    370   0.000000D+00  0.000000D+00  0.000000D+00  0.000000D+00  0.000000D+00
    371   0.000000D+00  0.000000D+00  0.000000D+00  0.000000D+00  0.000000D+00
    372   0.000000D+00  0.000000D+00  0.000000D+00  0.000000D+00  0.000000D+00
    373   0.000000D+00  0.000000D+00  0.000000D+00  0.000000D+00  0.000000D+00
    374   0.110945D-01  0.656631D-01  0.000000D+00  0.000000D+00 -0.603922D-02
    375   0.000000D+00  0.000000D+00  0.777673D-02  0.000000D+00  0.000000D+00
    376   0.000000D+00  0.000000D+00  0.000000D+00  0.777673D-02  0.000000D+00
    377   0.000000D+00  0.000000D+00  0.000000D+00  0.000000D+00  0.000000D+00
    378   0.000000D+00  0.000000D+00  0.000000D+00  0.000000D+00  0.000000D+00
    379   0.000000D+00  0.000000D+00  0.000000D+00  0.000000D+00  0.000000D+00
    380   0.000000D+00  0.000000D+00  0.000000D+00  0.000000D+00  0.000000D+00
    381   0.000000D+00  0.000000D+00  0.000000D+00  0.000000D+00  0.000000D+00
    382   0.000000D+00  0.000000D+00  0.000000D+00  0.000000D+00  0.000000D+00
    383   0.000000D+00  0.000000D+00  0.000000D+00  0.000000D+00  0.000000D+00
    384   0.000000D+00  0.000000D+00  0.000000D+00  0.000000D+00  0.000000D+00
    385   0.000000D+00  0.000000D+00  0.000000D+00  0.000000D+00  0.000000D+00
    386   0.000000D+00  0.000000D+00  0.000000D+00  0.000000D+00  0.000000D+00
    387   0.000000D+00  0.000000D+00  0.000000D+00  0.000000D+00  0.000000D+00
    388   0.000000D+00  0.000000D+00  0.000000D+00  0.000000D+00  0.000000D+00
    389   0.000000D+00  0.000000D+00  0.000000D+00  0.000000D+00  0.000000D+00
    390   0.000000D+00  0.000000D+00  0.000000D+00  0.000000D+00  0.000000D+00
    391   0.000000D+00  0.000000D+00  0.000000D+00  0.000000D+00  0.000000D+00
    392   0.000000D+00  0.000000D+00  0.000000D+00  0.000000D+00  0.000000D+00
    393   0.000000D+00  0.000000D+00  0.000000D+00  0.000000D+00  0.000000D+00
    394   0.000000D+00  0.000000D+00  0.000000D+00  0.000000D+00  0.000000D+00
    395   0.000000D+00  0.000000D+00  0.000000D+00  0.000000D+00  0.000000D+00
    396   0.000000D+00  0.000000D+00  0.000000D+00  0.000000D+00  0.000000D+00
    397   0.000000D+00  0.000000D+00  0.000000D+00  0.000000D+00  0.000000D+00
    398   0.000000D+00  0.000000D+00  0.000000D+00  0.000000D+00  0.000000D+00
    399   0.378359D-05  0.446907D-04  0.000000D+00  0.000000D+00 -0.519901D-04
    400   0.000000D+00  0.000000D+00  0.648461D-05  0.000000D+00  0.000000D+00
    401   0.000000D+00  0.000000D+00  0.000000D+00  0.648461D-05  0.000000D+00
    402   0.000000D+00  0.000000D+00  0.000000D+00  0.000000D+00  0.000000D+00
    403   0.000000D+00  0.000000D+00  0.000000D+00  0.000000D+00  0.000000D+00
    404   0.000000D+00  0.000000D+00  0.000000D+00  0.000000D+00  0.000000D+00
    405   0.000000D+00  0.000000D+00  0.000000D+00  0.000000D+00  0.000000D+00
    406   0.000000D+00  0.000000D+00  0.000000D+00  0.000000D+00  0.000000D+00
    407   0.000000D+00  0.000000D+00  0.000000D+00  0.000000D+00  0.000000D+00
    408   0.170669D-02  0.110304D-01  0.000000D+00  0.000000D+00 -0.567866D-02
    409   0.000000D+00  0.000000D+00  0.167283D-02  0.000000D+00  0.000000D+00
    410   0.000000D+00  0.000000D+00  0.000000D+00  0.167283D-02  0.000000D+00
    411   0.000000D+00  0.000000D+00  0.000000D+00  0.000000D+00  0.000000D+00
    412   0.000000D+00  0.000000D+00  0.000000D+00  0.000000D+00  0.000000D+00
    413   0.000000D+00  0.000000D+00  0.000000D+00  0.000000D+00  0.000000D+00
    414   0.000000D+00  0.000000D+00  0.000000D+00  0.000000D+00  0.000000D+00
    415   0.000000D+00  0.000000D+00  0.000000D+00  0.000000D+00  0.000000D+00
    416   0.000000D+00  0.000000D+00  0.000000D+00  0.000000D+00  0.000000D+00
    417   0.117770D-01  0.691564D-01  0.000000D+00  0.000000D+00 -0.108076D-01
    418   0.000000D+00  0.000000D+00  0.105819D-01  0.000000D+00  0.000000D+00
    419   0.000000D+00  0.000000D+00  0.000000D+00  0.105819D-01  0.000000D+00
    420   0.000000D+00  0.000000D+00  0.000000D+00  0.000000D+00  0.000000D+00
    421   0.000000D+00  0.000000D+00  0.000000D+00  0.000000D+00  0.000000D+00
    422   0.000000D+00  0.000000D+00  0.000000D+00  0.000000D+00  0.000000D+00
    423   0.000000D+00  0.000000D+00  0.000000D+00  0.000000D+00  0.000000D+00
    424   0.000000D+00  0.000000D+00  0.000000D+00  0.000000D+00  0.000000D+00
    425   0.000000D+00  0.000000D+00  0.000000D+00  0.000000D+00  0.000000D+00
    426   0.000000D+00  0.000000D+00  0.000000D+00  0.000000D+00  0.000000D+00
[...]



            MP2(CBS) (With Interference Correction) 
            ---------------------------------------

 AB - AA |     16        17        18        19        20        21
 BA - BB |     16        17        18        19        20        21
----------------------------------------------------------------------
   16    | -0.025578 -0.000604 -0.000972 -0.007862 -0.000208 -0.003851
   16    |  0.000000 -0.000613 -0.002027 -0.007956 -0.000216 -0.004768
         |
   17    | -0.000904 -0.020208 -0.005476 -0.003026 -0.002067 -0.000147
   17    | -0.000891  0.000000 -0.005894 -0.003094 -0.002152 -0.000211
         |
   18    | -0.001264 -0.008121 -0.017799 -0.002983 -0.001913 -0.000330
   18    | -0.002358 -0.008621  0.000000 -0.006159 -0.002401 -0.001018
         |
   19    | -0.011229 -0.003871 -0.007702 -0.030897 -0.001201 -0.002994
   19    | -0.011319 -0.003946 -0.004490  0.000000 -0.001264 -0.003734
         |
   20    | -0.000307 -0.009586 -0.008775 -0.003406 -0.013055 -0.000067
   20    | -0.000305 -0.009815 -0.008725 -0.003438  0.000000 -0.000076
         |
   21    | -0.012576 -0.000227 -0.001354 -0.007074 -0.000116 -0.018409
   21    | -0.014959 -0.000299 -0.001124 -0.008516 -0.000130  0.000000
         |
   22    | -0.012413 -0.001293 -0.005231 -0.011032 -0.001278 -0.015566
   22    |  0.000000  0.000000  0.000000  0.000000  0.000000  0.000000
         |

 AB - AA |     22
 BA - BB |     22
--------------------
   16    | -0.008511
   16    |  0.000000
         |
   17    | -0.000985
   17    |  0.000000
         |
   18    | -0.000620
   18    |  0.000000
         |
   19    | -0.007857
   19    |  0.000000
         |
   20    | -0.000377
   20    |  0.000000
         |
   21    | -0.003634
   21    |  0.000000
         |
   22    |  0.000000
   22    |  0.000000
         |

                     Sum of ab pair energies =    -0.249270 A.U.
                     Sum of ba pair energies =    -0.078934 A.U.
                     Sum of aa pair energies =    -0.055686 A.U.
                     Sum of bb pair energies =    -0.041581 A.U.

           Sum of intraorbital pair energies =    -0.125946 A.U.
           Sum of interorbital pair energies =    -0.299525 A.U.
                                                  ----------
                         Total pair energies =    -0.425471 A.U.

                         Single Excitations  =    -0.004345 A.U.

                          Total second order =    -0.429816 A.U.

                         E2(CBS) - E2(Dir) =      -0.007474 A.U.

 E2(CBS)=      -0.433168 CBS-Int=       0.003352 OIii=       2.514047

 **********************************************************************

            Population analysis using the SCF density.

 **********************************************************************

 Orbital symmetries:
       Occupied  (SG) (SG) (SG) (PI) (PI) (SG) (SG) (SG) (PI) (PI)
                 (?A) (PI) (PI) (?A) (?A) (SG) (SG) (?B) (SG) (?B)
                 (?B) (?B)
       Virtual   (SG) (SG) (PI) (PI) (SG) (SG) (PI) (PI) (?C) (?C)
                 (?C) (PI) (PI) (SG) (PI) (PI) (SG) (SG) (PI) (PI)
                 (?D) (?D) (?D) (PHI) (PHI) (DLTA) (DLTA) (PI)
                 (PI) (PI) (PI) (?E) (?E) (?E) (SG) (PI) (PI) (SG)
                 (PI) (PI) (SG) (PHI) (PHI) (?F) (?F) (?G) (PI)
                 (PI) (?G) (?G) (DLTA) (DLTA) (?H) (?H) (?I) (?I)
                 (?I) (?H) (?H) (?H) (?H) (?J) (PHI) (PHI) (?J)
                 (?J) (?J) (PI) (PI) (?J) (?J) (?J) (?J) (PI) (PI)
                 (PI) (?F) (?F) (PI) (?K) (?K) (SG) (PHI) (PHI)
                 (PI) (?L) (PI) (?L) (?L) (?L) (?L) (?L) (?L) (?L)
                 (?L) (?L) (?L) (?F) (?F) (?L) (?L) (?L) (?L) (?L)
                 (PI) (PI) (PI) (PI) (?L) (?L) (PHI) (PHI) (?L)
                 (?L) (?L) (?L) (?L) (?L) (?L) (?L) (?L) (?K) (?K)
                 (SG) (SG) (?J) (?J) (?J) (?J) (?F) (?F) (PI) (PI)
                 (SG) (PI) (PI) (?J) (?J) (?J) (?L) (?L) (?L) (?L)
                 (?J) (?L) (?L) (SG) (PI) (?F) (?F) (PI) (?K) (?K)
                 (?L) (?L) (?L) (?L) (?L) (?L) (?L) (?L) (?L) (?L)
                 (?L) (PI) (PI) (?L) (?F) (?F) (PHI) (PHI) (?L)
                 (?L) (?L) (PI) (PI) (PI) (PI) (PHI) (PHI) (?J)
                 (?J) (?J) (?L) (?L) (?J) (?L) (?L) (DLTA) (DLTA)
                 (?L) (?L) (?L) (?L) (SG) (?L) (?L) (?L) (?L) (?L)
                 (?L) (?L) (SG) (SG) (PI) (PI) (?L) (?L) (?L) (?L)
                 (SG) (?L) (?L) (?F) (?F) (?L) (?L) (?L) (SG) (SG)
                 (?K) (?K) (PHI) (PHI) (?L) (?L) (?L) (?L) (?L)
                 (?L) (PI) (PI) (PI) (PI) (SG) (?L) (?L) (?L) (?K)
                 (?K) (?L) (?L) (?L) (?L) (?L) (?L) (DLTA) (DLTA)
                 (PHI) (PHI) (SG) (?F) (?F) (PI) (PI) (PI) (PI)
                 (?L) (?L) (?L) (?L) (?L) (?L) (SG) (?L) (?L) (?L)
                 (?L) (PI) (PI) (?K) (?K) (?F) (?F) (?L) (?L) (?L)
                 (?L) (?L) (?L) (?L) (?L) (?L) (?L) (?L) (?L) (DLTA)
                 (DLTA) (SG) (SG) (?L) (?L) (PI) (?K) (?K) (PI)
                 (PI) (PI) (?F) (?F) (SG) (?F) (?F) (?L) (?L) (?L)
                 (?L) (?L) (?L) (PHI) (PHI) (?L) (?L) (?L) (?L)
                 (?L) (?L) (?L) (?L) (?L) (?L) (?L) (SG) (?L) (?K)
                 (?K) (?L) (?L) (SG) (SG) (?F) (?F) (?L) (?L) (?L)
                 (?L) (?L) (?K) (?K) (?F) (?F) (?L) (?L) (?F) (?F)
                 (DLTA) (DLTA) (?L) (?L) (?L) (?L) (SG) (PHI) (PHI)
                 (?L) (?L) (?L) (PI) (PI) (SG) (PI) (PI) (DLTA)
                 (DLTA) (SG) (?L) (?L) (?K) (?K) (PI) (PI) (?L)
                 (?L) (PHI) (PHI) (PI) (PI) (SG) (?L) (?L) (?L)
                 (PI) (PI) (PHI) (PHI) (DLTA) (DLTA) (SG) (PI)
                 (PI) (SG) (?K) (?K) (?F) (?F) (?L) (?L) (DLTA)
                 (DLTA) (?L) (?L) (?L) (?L) (?L) (PI) (PI) (?L)
                 (?L) (?F) (?F) (?L) (?L) (?L) (?L) (?L) (?L) (?L)
                 (?L) (?L) (?L) (?L) (?L) (?L) (PI) (PI) (?L) (?L)
                 (?L) (PI) (PI) (SG) (SG) (?L) (?L) (?L) (?L) (?L)
                 (?L) (?L) (?L) (?L) (?L) (?L) (?L) (?L) (?L) (?L)
                 (SG) (PI) (PI) (SG) (?L) (?L) (?L) (?L) (?L) (?L)
                 (?L) (?L) (?L) (?L) (?L) (?L) (?L) (?L) (?L) (?L)
                 (?L) (?L) (?L) (?L) (?L) (?L) (?L) (?L) (PHI)
                 (PHI) (?L) (?L) (PI) (PI) (?L) (?F) (?F) (PHI)
                 (PHI) (?L) (?L) (PI) (PI) (?L) (DLTA) (DLTA) (PI)
                 (PI) (SG) (PI) (PI) (SG) (SG) (SG)
 Unable to determine electronic state:  an orbital has unidentified symmetry.
 Alpha  occ. eigenvalues -- -490.08767 -65.22633 -58.58206 -58.58071 -58.57987
 Alpha  occ. eigenvalues --  -20.68372  -9.89941  -7.51185  -7.50457  -7.50208
 Alpha  occ. eigenvalues --   -3.25775  -3.25323  -3.25136  -3.23976  -3.23968
 Alpha  occ. eigenvalues --   -1.42639  -1.00172  -0.70935  -0.63750  -0.62252
 Alpha  occ. eigenvalues --   -0.44388  -0.42599
 Alpha virt. eigenvalues --    0.03614   0.05338   0.05447   0.05562   0.09510
 Alpha virt. eigenvalues --    0.11836   0.11993   0.12311   0.19277   0.19293
 Alpha virt. eigenvalues --    0.19924   0.21958   0.22215   0.24999   0.25325
 Alpha virt. eigenvalues --    0.25701   0.29581   0.37307   0.38881   0.40057
 Alpha virt. eigenvalues --    0.42482   0.42701   0.43111   0.45907   0.45907
 Alpha virt. eigenvalues --    0.46522   0.46524   0.50443   0.51220   0.53532
 Alpha virt. eigenvalues --    0.53939   0.56134   0.56379   0.56829   0.61390
 Alpha virt. eigenvalues --    0.62185   0.62658   0.64986   0.72919   0.73627
 Alpha virt. eigenvalues --    0.77218   0.85154   0.85154   0.89185   0.89185
 Alpha virt. eigenvalues --    0.89190   0.96304   0.97350   0.98288   0.98290
 Alpha virt. eigenvalues --    1.01422   1.01432   1.02360   1.03938   1.04901
 Alpha virt. eigenvalues --    1.04964   1.06688   1.07479   1.07489   1.08642
 Alpha virt. eigenvalues --    1.09386   1.10488   1.11116   1.11116   1.12325
 Alpha virt. eigenvalues --    1.12369   1.19969   1.29010   1.29932   1.32071
 Alpha virt. eigenvalues --    1.38993   1.40027   1.40052   1.40284   1.41390
 Alpha virt. eigenvalues --    1.48117   1.48416   1.48416   1.48989   1.51359
 Alpha virt. eigenvalues --    1.51359   1.51605   1.64800   1.64800   1.76946
 Alpha virt. eigenvalues --    1.77488   1.78217   1.84224   1.87441   1.87771
 Alpha virt. eigenvalues --    1.87771   1.88320   1.88331   1.88647   1.91676
 Alpha virt. eigenvalues --    1.95426   1.95427   1.98394   1.98394   2.01543
 Alpha virt. eigenvalues --    2.01570   2.06914   2.08720   2.08728   2.11449
 Alpha virt. eigenvalues --    2.12629   2.14285   2.15132   2.15650   2.15683
 Alpha virt. eigenvalues --    2.18641   2.18641   2.22715   2.24822   2.24825
 Alpha virt. eigenvalues --    2.26592   2.27810   2.29642   2.29666   2.36327
 Alpha virt. eigenvalues --    2.36329   2.45805   2.45805   2.48724   2.48724
 Alpha virt. eigenvalues --    2.53712   2.57027   2.57856   2.59501   2.62268
 Alpha virt. eigenvalues --    2.62268   2.68908   2.70329   2.72914   2.73497
 Alpha virt. eigenvalues --    2.76204   2.92179   2.98109   2.98335   2.98451
 Alpha virt. eigenvalues --    3.00018   3.03740   3.03750   3.06947   3.08215
 Alpha virt. eigenvalues --    3.08215   3.20244   3.23494   3.24627   3.24627
 Alpha virt. eigenvalues --    3.25054   3.28023   3.28023   3.30742   3.30744
 Alpha virt. eigenvalues --    3.35360   3.36272   3.37079   3.37649   3.37852
 Alpha virt. eigenvalues --    3.52652   3.52652   3.56413   3.56425   3.63912
 Alpha virt. eigenvalues --    3.65231   3.68474   3.68885   3.68885   3.69232
 Alpha virt. eigenvalues --    3.69232   3.71620   3.71745   3.74850   3.76875
 Alpha virt. eigenvalues --    3.78830   3.89450   3.90603   3.97486   3.97487
 Alpha virt. eigenvalues --    3.99906   4.06208   4.06213   4.08699   4.10424
 Alpha virt. eigenvalues --    4.12792   4.16119   4.16120   4.23613   4.23623
 Alpha virt. eigenvalues --    4.33808   4.33820   4.36392   4.36392   4.41753
 Alpha virt. eigenvalues --    4.57029   4.58692   4.61828   4.61872   4.84041
 Alpha virt. eigenvalues --    4.84877   4.87969   4.90537   4.90537   4.95194
 Alpha virt. eigenvalues --    4.97774   5.02779   5.02779   5.06324   5.06328
 Alpha virt. eigenvalues --    5.21173   5.21604   5.24014   5.24167   5.24167
 Alpha virt. eigenvalues --    5.25679   5.47348   5.47357   5.49101   5.49101
 Alpha virt. eigenvalues --    5.49729   5.49729   5.64895   5.64895   5.71045
 Alpha virt. eigenvalues --    5.76767   5.76920   5.83221   5.86890   5.86913
 Alpha virt. eigenvalues --    5.86913   5.89453   5.95763   5.97755   6.03014
 Alpha virt. eigenvalues --    6.11944   6.13524   6.13692   6.17334   6.17334
 Alpha virt. eigenvalues --    6.17694   6.17695   6.22828   6.22830   6.26339
 Alpha virt. eigenvalues --    6.28047   6.30819   6.30832   6.44527   6.44528
 Alpha virt. eigenvalues --    6.48416   6.53669   6.53669   6.54791   6.56612
 Alpha virt. eigenvalues --    6.62247   6.63051   6.73100   6.75267   6.76629
 Alpha virt. eigenvalues --    6.76637   6.81017   6.81034   6.89088   6.96693
 Alpha virt. eigenvalues --    7.17895   7.18069   7.19790   7.33905   7.35788
 Alpha virt. eigenvalues --    7.50259   7.50259   7.72270   7.72270   7.83456
 Alpha virt. eigenvalues --    7.83469   7.86794   7.90030   7.97775   8.00576
 Alpha virt. eigenvalues --    8.00774   8.05113   8.05118   8.25208   8.34281
 Alpha virt. eigenvalues --    8.34397   8.51277   8.51283   8.81768   8.81768
 Alpha virt. eigenvalues --    8.82889   8.82889   8.89769   8.90736   8.90736
 Alpha virt. eigenvalues --    8.91378   8.93274   8.96653   9.26564   9.26564
 Alpha virt. eigenvalues --    9.27255   9.43905   9.43905   9.53420   9.53424
 Alpha virt. eigenvalues --    9.61169   9.62509   9.97832  10.00737  10.03305
 Alpha virt. eigenvalues --   10.03307  10.09198  10.09684  10.15167  10.15177
 Alpha virt. eigenvalues --   10.32417  10.35706  10.42576  10.44057  10.45395
 Alpha virt. eigenvalues --   10.45553  10.47668  10.64056  10.80037  10.96635
 Alpha virt. eigenvalues --   10.96742  10.96840  10.96840  10.97803  10.97803
 Alpha virt. eigenvalues --   11.04552  11.04552  11.07798  11.07913  11.12080
 Alpha virt. eigenvalues --   11.12081  11.12655  11.13775  11.13775  11.14336
 Alpha virt. eigenvalues --   11.14336  11.14556  11.15777  11.16683  11.16683
 Alpha virt. eigenvalues --   11.22803  11.22817  11.27756  11.27759  11.30345
 Alpha virt. eigenvalues --   11.32425  11.35813  11.40349  11.40350  11.46335
 Alpha virt. eigenvalues --   11.46390  11.47525  11.63686  11.65426  11.91358
 Alpha virt. eigenvalues --   12.08892  12.12276  12.35307  12.35326  13.06390
 Alpha virt. eigenvalues --   13.21140  13.21140  13.25595  13.25595  13.30026
 Alpha virt. eigenvalues --   13.32215  13.38518  13.38518  13.64210  13.64212
 Alpha virt. eigenvalues --   13.71885  13.72517  13.97586  14.35066  14.35144
 Alpha virt. eigenvalues --   14.47318  14.47857  14.50521  14.54959  14.54959
 Alpha virt. eigenvalues --   14.78981  14.78984  15.07872  16.11836  16.13505
 Alpha virt. eigenvalues --   16.95568  16.99010  16.99010  17.12323  17.12323
 Alpha virt. eigenvalues --   17.41469  17.41482  17.46505  17.46505  17.65842
 Alpha virt. eigenvalues --   17.69696  17.78831  17.79388  17.94846  18.54891
 Alpha virt. eigenvalues --   18.56102  19.26780  19.33797  19.73888  19.73888
 Alpha virt. eigenvalues --   19.93751  19.93760  19.97434  20.11064  20.11073
 Alpha virt. eigenvalues --   20.34112  20.34538  20.46490  20.52263  20.57748
 Alpha virt. eigenvalues --   20.62623  20.90463  20.90758  21.99009  22.03641
 Alpha virt. eigenvalues --   22.25298  22.25389  22.55241  22.93830  22.98878
 Alpha virt. eigenvalues --   23.51890  24.12473  25.18730  25.18730  25.19130
 Alpha virt. eigenvalues --   25.19130  25.21497  25.21497  25.21982  25.21983
 Alpha virt. eigenvalues --   25.34252  25.34264  25.60743  25.61031  25.78138
 Alpha virt. eigenvalues --   25.83216  25.92604  26.80700  31.21146  31.21491
 Alpha virt. eigenvalues --   31.96806  33.81622  33.81622  33.82919  33.82919
 Alpha virt. eigenvalues --   33.88623  33.88624  33.97801  33.97822  34.16530
 Alpha virt. eigenvalues --   34.16911  34.34828  34.40303  34.53608  38.79556
 Alpha virt. eigenvalues --   38.79556  38.86987  38.86988  39.03463  39.03486
 Alpha virt. eigenvalues --   39.21986  39.22771  39.37012  39.40635  39.42504
 Alpha virt. eigenvalues --   41.53607  41.53609  42.04232  42.04473  42.43183
 Alpha virt. eigenvalues --   42.48499  42.52379  42.66093  42.66093  42.80982
 Alpha virt. eigenvalues --   42.80989  43.21673  43.21929  43.58389  43.63811
 Alpha virt. eigenvalues --   43.70350  46.70917  46.70962  47.01808  47.06420
 Alpha virt. eigenvalues --   47.94476  53.25639  53.30182  55.20637 108.94508
 Alpha virt. eigenvalues --  628.73914
          Condensed to atoms (all electrons):
              1          2
     1  Br  34.659093   0.103852
     2  O    0.103852   8.133204
          Atomic-Atomic Spin Densities.
              1          2
     1  Br   0.137882  -0.051797
     2  O   -0.051797   0.965712
 Mulliken charges and spin densities:
              1          2
     1  Br   0.237055   0.086085
     2  O   -0.237055   0.913915
 Sum of Mulliken charges =   0.00000 spin densities =   1.000000
 Mulliken charges and spin densities with hydrogens summed into heavy atoms:
              1          2
     1  Br   0.237055   0.086085
     2  O   -0.237055   0.913915
 Sum of Mulliken charges with hydrogens summed into heavy atoms =   0.00000 spin densities =   1.000000
 Electronic spatial extent (au):  <R**2>=            120.7798
 Charge=              0.0000 electrons
 Dipole moment (field-independent basis, Debye):
    X=              0.0000    Y=              0.0000    Z=              1.0504  Tot=              1.0504
 Quadrupole moment (field-independent basis, Debye-Ang):
   XX=            -22.9166   YY=            -24.1098   ZZ=            -23.1987
   XY=              0.0000   XZ=              0.0000   YZ=              0.0000
 Traceless Quadrupole moment (field-independent basis, Debye-Ang):
   XX=              0.4918   YY=             -0.7014   ZZ=              0.2096
   XY=              0.0000   XZ=              0.0000   YZ=              0.0000
 Octapole moment (field-independent basis, Debye-Ang**2):
  XXX=              0.0000  YYY=              0.0000  ZZZ=             10.0932  XYY=              0.0000
  XXY=              0.0000  XXZ=              0.3084  XZZ=              0.0000  YZZ=              0.0000
  YYZ=              1.2251  XYZ=              0.0000
 Hexadecapole moment (field-independent basis, Debye-Ang**3):
 XXXX=            -25.0746 YYYY=            -26.8305 ZZZZ=            -94.7616 XXXY=              0.0000
 XXXZ=              0.0000 YYYX=              0.0000 YYYZ=              0.0000 ZZZX=              0.0000
 ZZZY=              0.0000 XXYY=             -8.6506 XXZZ=            -18.8206 YYZZ=            -21.4177
 XXYZ=              0.0000 YYXZ=              0.0000 ZZXY=              0.0000
 N-N= 8.628559189681D+01 E-N=-9.746020327757D+03  KE= 3.969596674411D+03
                          Isotropic Fermi Contact Couplings
        Atom                 a.u.       MegaHertz       Gauss      10(-4) cm-1
     1  Br(79)             0.00000       0.00000       0.00000       0.00000
     2  O(17)              0.00000       0.00000       0.00000       0.00000
 --------------------------------------------------------
       Center         ----  Spin Dipole Couplings  ----
                      3XX-RR        3YY-RR        3ZZ-RR
 --------------------------------------------------------
     1   Atom        0.882767     -0.481483     -0.401283
     2   Atom        3.805094     -1.907684     -1.897410
 --------------------------------------------------------
                        XY            XZ            YZ
 --------------------------------------------------------
     1   Atom        0.000000      0.000000      0.000000
     2   Atom        0.000000      0.000000      0.000000
 --------------------------------------------------------


 ---------------------------------------------------------------------------------
              Anisotropic Spin Dipole Couplings in Principal Axis System
 ---------------------------------------------------------------------------------

       Atom             a.u.   MegaHertz   Gauss  10(-4) cm-1        Axes

              Baa    -0.4815   -64.585   -23.045   -21.543  0.0000  1.0000  0.0000
     1 Br(79) Bbb    -0.4013   -53.827   -19.207   -17.955  0.0000  0.0000  1.0000
              Bcc     0.8828   118.412    42.252    39.498  1.0000  0.0000  0.0000
 
              Baa    -1.9077   138.039    49.256    46.045  0.0000  1.0000  0.0000
     2 O(17)  Bbb    -1.8974   137.295    48.990    45.797  0.0000  0.0000  1.0000
              Bcc     3.8051  -275.334   -98.246   -91.842  1.0000  0.0000  0.0000
 

 ---------------------------------------------------------------------------------


 Test job not archived.
 1\1\GINC-C17\SP\ROMP2-RW\Gen\Br1O1(2)\GPETERSSON\20-May-2013\0\\# ROMP
 2(RW) Gen GFinput Int=NoBasisTransform Int(Grid=Ultrafine) IOp(3/32=2,
 5/6=10,8/11=1,9/33=1) Maxdisk=128GB CBSextrapolate(Nmin=25,MinPop)\\Br
 O 2Pi\\0,2\Br\O,1,1.7172\\Version=EM64L-GDVRevH.12\HF=-2647.262015\MP2
 =-2647.687709\E2(CBS)=-0.4331676\CBS-Int=-0.429816\OIii=2.5140466\RMSD
 =1.931e-12\PG=C*V [C*(O1Br1)]\\@


 IT IS A PROFOUNDLY ERRONEOUS TRUISM ... THAT WE SHOULD CULTIVATE
 THE HABIT OF THINKING OF WHAT WE ARE DOING.
 THE PRECISE OPPOSITE IS THE CASE.
 CIVILIZATION ADVANCES BY EXTENDING THE NUMBER OF IMPORTANT OPERATIONS
 WHICH WE CAN PERFORM WITHOUT THINKING ABOUT THEM.

                                    -- ALFRED NORTH WHITEHEAD
 Job cpu time:  8 days 18 hours 49 minutes 47.5 seconds.
 File lengths (MBytes):  RWF=  24842 Int=      0 D2E=      0 Chk=     22 Scr=      1
 Normal termination of Gaussian DV at Mon May 20 23:26:57 2013.
