 Entering Gaussian System, Link 0=gdv
 Initial command:
 /share/apps/gaussian/gdvh12/gdv/l1.exe /localscratch/12936/Gau-10337.inp -scrdir=/localscratch/12936/
 Entering Link 1 = /share/apps/gaussian/gdvh12/gdv/l1.exe PID=     10338.
  
 Copyright (c) 1988,1990,1992,1993,1995,1998,2003,2009,2011,
            Gaussian, Inc.  All Rights Reserved.
  
 This is the private, development version of
 the Gaussian(R) DV system of programs. It is based on
 the Gaussian(R) 09 system (copyright 2009, Gaussian, Inc.),
 the Gaussian(R) 03 system (copyright 2003, Gaussian, Inc.),
 the Gaussian(R) 98 system (copyright 1998, Gaussian, Inc.),
 the Gaussian(R) 94 system (copyright 1995, Gaussian, Inc.),
 the Gaussian 92(TM) system (copyright 1992, Gaussian, Inc.),
 the Gaussian 90(TM) system (copyright 1990, Gaussian, Inc.),
 the Gaussian 88(TM) system (copyright 1988, Gaussian, Inc.),
 the Gaussian 86(TM) system (copyright 1986, Carnegie Mellon
 University), and the Gaussian 82(TM) system (copyright 1983,
 Carnegie Mellon University). Gaussian is a federally registered
 trademark of Gaussian, Inc.
  
 This software contains proprietary and confidential information,
 including trade secrets, belonging to Gaussian, Inc.
  
 This software is provided under written license and may be
 used, copied, transmitted, or stored only in accord with that
 written license.
  
 The following legend is applicable only to US Government
 contracts under FAR:
  
                    RESTRICTED RIGHTS LEGEND
  
 Use, reproduction and disclosure by the US Government is
 subject to restrictions as set forth in subparagraphs (a)
 and (c) of the Commercial Computer Software - Restricted
 Rights clause in FAR 52.227-19.
  
 Gaussian, Inc.
 340 Quinnipiac St., Bldg. 40, Wallingford CT 06492
  
  
 ---------------------------------------------------------------
 Warning -- This program may not be used in any manner that
 competes with the business of Gaussian, Inc. or will provide
 assistance to any competitor of Gaussian, Inc.  The licensee
 of this program is prohibited from giving any competitor of
 Gaussian, Inc. access to this program.  By using this program,
 the user acknowledges that Gaussian, Inc. is engaged in the
 business of creating and licensing software in the field of
 computational chemistry and represents and warrants to the
 licensee that it is not a competitor of Gaussian, Inc. and that
 it will not use this program in any manner prohibited above.
 ---------------------------------------------------------------
  

 Cite this work as:
 Gaussian Development Version, Revision H.12,
 M. J. Frisch, G. W. Trucks, H. B. Schlegel, G. E. Scuseria, 
 M. A. Robb, J. R. Cheeseman, G. Scalmani, V. Barone, B. Mennucci, 
 G. A. Petersson, H. Nakatsuji, M. Caricato, X. Li, H. P. Hratchian, 
 A. F. Izmaylov, J. Bloino, G. Zheng, J. L. Sonnenberg, M. Hada, 
 M. Ehara, K. Toyota, R. Fukuda, J. Hasegawa, M. Ishida, T. Nakajima, 
 Y. Honda, O. Kitao, H. Nakai, T. Vreven, J. A. Montgomery, Jr., 
 J. E. Peralta, F. Ogliaro, M. Bearpark, J. J. Heyd, E. Brothers, 
 K. N. Kudin, V. N. Staroverov, T. Keith, R. Kobayashi, J. Normand, 
 K. Raghavachari, A. Rendell, J. C. Burant, S. S. Iyengar, J. Tomasi, 
 M. Cossi, N. Rega, J. M. Millam, M. Klene, J. E. Knox, J. B. Cross, 
 V. Bakken, C. Adamo, J. Jaramillo, R. Gomperts, R. E. Stratmann, 
 O. Yazyev, A. J. Austin, R. Cammi, C. Pomelli, J. W. Ochterski, 
 R. L. Martin, K. Morokuma, V. G. Zakrzewski, G. A. Voth, 
 P. Salvador, J. J. Dannenberg, S. Dapprich, P. V. Parandekar, 
 N. J. Mayhall, A. D. Daniels, O. Farkas, J. B. Foresman, 
 J. V. Ortiz, J. Cioslowski, and D. J. Fox, 
 Gaussian, Inc., Wallingford CT, 2010.
 
 ******************************************
 Gaussian DV:  EM64L-GDVRevH.12  9-Jun-2011
                29-Jul-2013 
 ******************************************
 %chk=CCCCCl.chk
 %mem=4gb
 %nproc=2
 Will use up to    2 processors via shared memory.
 ----------------------------------------------------------------------
 #p apfd/ugbs1p opt=(tight,cartesian) freq=(vibrot,anharm) int=(acc2e=1
 2,grid=299974) test gfprint gfinput output=pickett
 ----------------------------------------------------------------------
 1/7=10,10=7,14=-1,18=10,26=1,38=1,80=1/1,3;
 2/12=2,17=6,18=5,29=2,40=1/2;
 3/5=23,7=7,11=2,16=1,24=110,25=1,30=1,71=1,74=-44,75=299974/1,2,3;
 4//1;
 5/5=2,38=5,87=12/2;
 6/7=2,8=2,9=2,10=2,28=1/1;
 7/7=1,29=1,87=12/1,2,3,16;
 1/7=10,10=7,14=-1,18=10,80=1/3(2);
 2/29=1/2;
 99/8=1100,10=1024,12=1/99;
 2/29=1/2;
 3/5=23,7=7,11=2,16=1,25=1,30=1,71=1,74=-44,75=299974/1,2,3;
 4/5=5,16=3,69=1/1;
 5/5=2,38=5,87=12/2;
 7/7=1,87=12/1,2,3,16;
 1/7=10,14=-1,18=10,80=1/3(-5);
 2/29=1/2;
 6/7=2,8=2,9=2,10=2,19=2,28=1/1;
 99/8=1100,9=1,10=1024,12=1/99;
 Leave Link    1 at Mon Jul 29 11:40:22 2013, MaxMem=  536870912 cpu:       0.2
 (Enter /share/apps/gaussian/gdvh12/gdv/l101.exe)
 ----------------------------------------
 CCCCCl pre-optimized at apfd/aug-cc-pVTZ
 ----------------------------------------
 Charge =  0 Multiplicity = 2
 Symbolic Z-Matrix:
 C                    -0.49022   0.        0. 
 C                     0.71875   0.        0. 
 C                     2.07745   0.        0. 
 C                     3.28443   0.        0. 
 Cl                    4.90959   0.        0. 
 
 NAtoms=      5 NQM=        0 NQMF=       0 NMMI=      5 NMMIF=      0
                NMic=       0 NMicF=      0.
                    Isotopes and Nuclear Properties:
 (Nuclear quadrupole moments (NQMom) in fm**2, nuclear magnetic moments (NMagM)
  in nuclear magnetons)

  Atom         1           2           3           4           5
 IAtWgt=          12          12          12          12          35
 AtmWgt=  12.0000000  12.0000000  12.0000000  12.0000000  34.9688527
 NucSpn=           0           0           0           0           3
 AtZEff=   0.0000000   0.0000000   0.0000000   0.0000000   0.0000000
 NQMom=    0.0000000   0.0000000   0.0000000   0.0000000  -8.1650000
 NMagM=    0.0000000   0.0000000   0.0000000   0.0000000   0.8218740
 AtZNuc=   6.0000000   6.0000000   6.0000000   6.0000000  17.0000000
 Leave Link  101 at Mon Jul 29 11:40:23 2013, MaxMem=  536870912 cpu:       0.4
 (Enter /share/apps/gaussian/gdvh12/gdv/l103.exe)

 GradGradGradGradGradGradGradGradGradGradGradGradGradGradGradGradGradGrad
 Berny optimization.
 Initialization pass.
 No Z-matrix variables, so optimization will use Cartesian coordinates.
 Trust Radius=3.00D-01 FncErr=1.00D-07 GrdErr=1.00D-07
 Number of steps in this run=     25 maximum allowed number of steps=    100.
 GradGradGradGradGradGradGradGradGradGradGradGradGradGradGradGradGradGrad

 Leave Link  103 at Mon Jul 29 11:40:23 2013, MaxMem=  536870912 cpu:       0.1
 (Enter /share/apps/gaussian/gdvh12/gdv/l202.exe)
 ---------------------------------------------------------------------------------------------------
                            Z-MATRIX (ANGSTROMS AND DEGREES)
   CD    Cent   Atom    N1       Length/X        N2       Alpha/Y        N3        Beta/Z          J
 ---------------------------------------------------------------------------------------------------
      1      1  C        0  -0.490219          0.000000          0.000000
      2      2  C        0   0.718753          0.000000          0.000000
      3      3  C        0   2.077449          0.000000          0.000000
      4      4  C        0   3.284427          0.000000          0.000000
      5      5  Cl       0   4.909589          0.000000          0.000000
 ---------------------------------------------------------------------------------------------------
                         Z-Matrix orientation:                         
 ---------------------------------------------------------------------
 Center     Atomic      Atomic             Coordinates (Angstroms)
 Number     Number       Type             X           Y           Z
 ---------------------------------------------------------------------
      1          6           0       -0.490219    0.000000    0.000000
      2          6           0        0.718753    0.000000    0.000000
      3          6           0        2.077449    0.000000    0.000000
      4          6           0        3.284427    0.000000    0.000000
      5         17           0        4.909589    0.000000    0.000000
 ---------------------------------------------------------------------
                    Distance matrix (angstroms):
                    1          2          3          4          5
     1  C    0.000000
     2  C    1.208972   0.000000
     3  C    2.567668   1.358696   0.000000
     4  C    3.774646   2.565674   1.206978   0.000000
     5  Cl   5.399808   4.190836   2.832140   1.625162   0.000000
 Stoichiometry    C4Cl(2)
 Framework group  C*V[C*(CCCCCl)]
 Deg. of freedom     4
 Full point group                 C*V     NOp   4
 Largest Abelian subgroup         C2V     NOp   4
 Largest concise Abelian subgroup C1      NOp   1
                         Standard orientation:                         
 ---------------------------------------------------------------------
 Center     Atomic      Atomic             Coordinates (Angstroms)
 Number     Number       Type             X           Y           Z
 ---------------------------------------------------------------------
      1          6           0        0.000000    0.000000   -3.344011
      2          6           0        0.000000    0.000000   -2.135039
      3          6           0        0.000000    0.000000   -0.776343
      4          6           0        0.000000    0.000000    0.430635
      5         17           0        0.000000    0.000000    2.055797
 ---------------------------------------------------------------------
 Rotational constants (GHZ):      0.0000000      1.4602591      1.4602591
 Leave Link  202 at Mon Jul 29 11:40:23 2013, MaxMem=  536870912 cpu:       0.0
 (Enter /share/apps/gaussian/gdvh12/gdv/l301.exe)
 Standard basis: UGBS1P (5D, 7F)
 Ernie: Thresh=  0.10000D-02 Tol=  0.10000D-05 Strict=F.
 AO basis set in the form of general basis input (Overlap normalization):
      1 0
 S   1 1.00       0.000000000000
      0.2019953588D+06  0.1000000000D+01
 S   1 1.00       0.000000000000
      0.1031562389D+06  0.1000000000D+01
 S   1 1.00       0.000000000000
      0.5268046591D+05  0.1000000000D+01
 S   1 1.00       0.000000000000
      0.2690318607D+05  0.1000000000D+01
 S   1 1.00       0.000000000000
      0.1373908542D+05  0.1000000000D+01
 S   1 1.00       0.000000000000
      0.7016361094D+04  0.1000000000D+01
 S   1 1.00       0.000000000000
      0.3583158668D+04  0.1000000000D+01
 S   1 1.00       0.000000000000
      0.1829869625D+04  0.1000000000D+01
 S   1 1.00       0.000000000000
      0.9344891347D+03  0.1000000000D+01
 S   1 1.00       0.000000000000
      0.4772306896D+03  0.1000000000D+01
 S   1 1.00       0.000000000000
      0.2437151195D+03  0.1000000000D+01
 S   1 1.00       0.000000000000
      0.1244619442D+03  0.1000000000D+01
 S   1 1.00       0.000000000000
      0.6356099525D+02  0.1000000000D+01
 S   1 1.00       0.000000000000
      0.3245972208D+02  0.1000000000D+01
 S   1 1.00       0.000000000000
      0.1657673158D+02  0.1000000000D+01
 S   1 1.00       0.000000000000
      0.8465507783D+01  0.1000000000D+01
 S   1 1.00       0.000000000000
      0.4323217860D+01  0.1000000000D+01
 S   1 1.00       0.000000000000
      0.2207807629D+01  0.1000000000D+01
 S   1 1.00       0.000000000000
      0.1127496852D+01  0.1000000000D+01
 S   1 1.00       0.000000000000
      0.5757970639D+00  0.1000000000D+01
 S   1 1.00       0.000000000000
      0.2940516050D+00  0.1000000000D+01
 S   1 1.00       0.000000000000
      0.1501680918D+00  0.1000000000D+01
 S   1 1.00       0.000000000000
      0.7668876969D-01  0.1000000000D+01
 P   1 1.00       0.000000000000
      0.2019953588D+06  0.1000000000D+01
 P   1 1.00       0.000000000000
      0.1031562389D+06  0.1000000000D+01
 P   1 1.00       0.000000000000
      0.5268046591D+05  0.1000000000D+01
 P   1 1.00       0.000000000000
      0.2690318607D+05  0.1000000000D+01
 P   1 1.00       0.000000000000
      0.1373908542D+05  0.1000000000D+01
 P   1 1.00       0.000000000000
      0.7016361094D+04  0.1000000000D+01
 P   1 1.00       0.000000000000
      0.3583158668D+04  0.1000000000D+01
 P   1 1.00       0.000000000000
      0.1829869625D+04  0.1000000000D+01
 P   1 1.00       0.000000000000
      0.9344891347D+03  0.1000000000D+01
 P   1 1.00       0.000000000000
      0.4772306896D+03  0.1000000000D+01
 P   1 1.00       0.000000000000
      0.2437151195D+03  0.1000000000D+01
 P   1 1.00       0.000000000000
      0.1244619442D+03  0.1000000000D+01
 P   1 1.00       0.000000000000
      0.6356099525D+02  0.1000000000D+01
 P   1 1.00       0.000000000000
      0.3245972208D+02  0.1000000000D+01
 P   1 1.00       0.000000000000
      0.1657673158D+02  0.1000000000D+01
 P   1 1.00       0.000000000000
      0.8465507783D+01  0.1000000000D+01
 P   1 1.00       0.000000000000
      0.4323217860D+01  0.1000000000D+01
 P   1 1.00       0.000000000000
      0.2207807629D+01  0.1000000000D+01
 P   1 1.00       0.000000000000
      0.1127496852D+01  0.1000000000D+01
 P   1 1.00       0.000000000000
      0.5757970639D+00  0.1000000000D+01
 P   1 1.00       0.000000000000
      0.2940516050D+00  0.1000000000D+01
 P   1 1.00       0.000000000000
      0.1501680918D+00  0.1000000000D+01
 P   1 1.00       0.000000000000
      0.7668876969D-01  0.1000000000D+01
 P   1 1.00       0.000000000000
      0.3916389510D-01  0.1000000000D+01
 D   1 1.00       0.000000000000
      0.4772306896D+03  0.1000000000D+01
 D   1 1.00       0.000000000000
      0.2437151195D+03  0.1000000000D+01
 D   1 1.00       0.000000000000
      0.1244619442D+03  0.1000000000D+01
 D   1 1.00       0.000000000000
      0.6356099525D+02  0.1000000000D+01
 D   1 1.00       0.000000000000
      0.3245972208D+02  0.1000000000D+01
 D   1 1.00       0.000000000000
      0.1657673158D+02  0.1000000000D+01
 D   1 1.00       0.000000000000
      0.8465507783D+01  0.1000000000D+01
 D   1 1.00       0.000000000000
      0.4323217860D+01  0.1000000000D+01
 D   1 1.00       0.000000000000
      0.2207807629D+01  0.1000000000D+01
 D   1 1.00       0.000000000000
      0.1127496852D+01  0.1000000000D+01
 D   1 1.00       0.000000000000
      0.5757970639D+00  0.1000000000D+01
 D   1 1.00       0.000000000000
      0.2940516050D+00  0.1000000000D+01
 D   1 1.00       0.000000000000
      0.1501680918D+00  0.1000000000D+01
 D   1 1.00       0.000000000000
      0.7668876969D-01  0.1000000000D+01
 D   1 1.00       0.000000000000
      0.3916389510D-01  0.1000000000D+01
 ****
      2 0
 S   1 1.00       0.000000000000
      0.2019953588D+06  0.1000000000D+01
 S   1 1.00       0.000000000000
      0.1031562389D+06  0.1000000000D+01
 S   1 1.00       0.000000000000
      0.5268046591D+05  0.1000000000D+01
 S   1 1.00       0.000000000000
      0.2690318607D+05  0.1000000000D+01
 S   1 1.00       0.000000000000
      0.1373908542D+05  0.1000000000D+01
 S   1 1.00       0.000000000000
      0.7016361094D+04  0.1000000000D+01
 S   1 1.00       0.000000000000
      0.3583158668D+04  0.1000000000D+01
 S   1 1.00       0.000000000000
      0.1829869625D+04  0.1000000000D+01
 S   1 1.00       0.000000000000
      0.9344891347D+03  0.1000000000D+01
 S   1 1.00       0.000000000000
      0.4772306896D+03  0.1000000000D+01
 S   1 1.00       0.000000000000
      0.2437151195D+03  0.1000000000D+01
 S   1 1.00       0.000000000000
      0.1244619442D+03  0.1000000000D+01
 S   1 1.00       0.000000000000
      0.6356099525D+02  0.1000000000D+01
 S   1 1.00       0.000000000000
      0.3245972208D+02  0.1000000000D+01
 S   1 1.00       0.000000000000
      0.1657673158D+02  0.1000000000D+01
 S   1 1.00       0.000000000000
      0.8465507783D+01  0.1000000000D+01
 S   1 1.00       0.000000000000
      0.4323217860D+01  0.1000000000D+01
 S   1 1.00       0.000000000000
      0.2207807629D+01  0.1000000000D+01
 S   1 1.00       0.000000000000
      0.1127496852D+01  0.1000000000D+01
 S   1 1.00       0.000000000000
      0.5757970639D+00  0.1000000000D+01
 S   1 1.00       0.000000000000
      0.2940516050D+00  0.1000000000D+01
 S   1 1.00       0.000000000000
      0.1501680918D+00  0.1000000000D+01
 S   1 1.00       0.000000000000
      0.7668876969D-01  0.1000000000D+01
 P   1 1.00       0.000000000000
      0.2019953588D+06  0.1000000000D+01
 P   1 1.00       0.000000000000
      0.1031562389D+06  0.1000000000D+01
 P   1 1.00       0.000000000000
      0.5268046591D+05  0.1000000000D+01
 P   1 1.00       0.000000000000
      0.2690318607D+05  0.1000000000D+01
 P   1 1.00       0.000000000000
      0.1373908542D+05  0.1000000000D+01
 P   1 1.00       0.000000000000
      0.7016361094D+04  0.1000000000D+01
 P   1 1.00       0.000000000000
      0.3583158668D+04  0.1000000000D+01
 P   1 1.00       0.000000000000
      0.1829869625D+04  0.1000000000D+01
 P   1 1.00       0.000000000000
      0.9344891347D+03  0.1000000000D+01
 P   1 1.00       0.000000000000
      0.4772306896D+03  0.1000000000D+01
 P   1 1.00       0.000000000000
      0.2437151195D+03  0.1000000000D+01
 P   1 1.00       0.000000000000
      0.1244619442D+03  0.1000000000D+01
 P   1 1.00       0.000000000000
      0.6356099525D+02  0.1000000000D+01
 P   1 1.00       0.000000000000
      0.3245972208D+02  0.1000000000D+01
 P   1 1.00       0.000000000000
      0.1657673158D+02  0.1000000000D+01
 P   1 1.00       0.000000000000
      0.8465507783D+01  0.1000000000D+01
 P   1 1.00       0.000000000000
      0.4323217860D+01  0.1000000000D+01
 P   1 1.00       0.000000000000
      0.2207807629D+01  0.1000000000D+01
 P   1 1.00       0.000000000000
      0.1127496852D+01  0.1000000000D+01
 P   1 1.00       0.000000000000
      0.5757970639D+00  0.1000000000D+01
 P   1 1.00       0.000000000000
      0.2940516050D+00  0.1000000000D+01
 P   1 1.00       0.000000000000
      0.1501680918D+00  0.1000000000D+01
 P   1 1.00       0.000000000000
      0.7668876969D-01  0.1000000000D+01
 P   1 1.00       0.000000000000
      0.3916389510D-01  0.1000000000D+01
 D   1 1.00       0.000000000000
      0.4772306896D+03  0.1000000000D+01
 D   1 1.00       0.000000000000
      0.2437151195D+03  0.1000000000D+01
 D   1 1.00       0.000000000000
      0.1244619442D+03  0.1000000000D+01
 D   1 1.00       0.000000000000
      0.6356099525D+02  0.1000000000D+01
 D   1 1.00       0.000000000000
      0.3245972208D+02  0.1000000000D+01
 D   1 1.00       0.000000000000
      0.1657673158D+02  0.1000000000D+01
 D   1 1.00       0.000000000000
      0.8465507783D+01  0.1000000000D+01
 D   1 1.00       0.000000000000
      0.4323217860D+01  0.1000000000D+01
 D   1 1.00       0.000000000000
      0.2207807629D+01  0.1000000000D+01
 D   1 1.00       0.000000000000
      0.1127496852D+01  0.1000000000D+01
 D   1 1.00       0.000000000000
      0.5757970639D+00  0.1000000000D+01
 D   1 1.00       0.000000000000
      0.2940516050D+00  0.1000000000D+01
 D   1 1.00       0.000000000000
      0.1501680918D+00  0.1000000000D+01
 D   1 1.00       0.000000000000
      0.7668876969D-01  0.1000000000D+01
 D   1 1.00       0.000000000000
      0.3916389510D-01  0.1000000000D+01
 ****
      3 0
 S   1 1.00       0.000000000000
      0.2019953588D+06  0.1000000000D+01
 S   1 1.00       0.000000000000
      0.1031562389D+06  0.1000000000D+01
 S   1 1.00       0.000000000000
      0.5268046591D+05  0.1000000000D+01
 S   1 1.00       0.000000000000
      0.2690318607D+05  0.1000000000D+01
 S   1 1.00       0.000000000000
      0.1373908542D+05  0.1000000000D+01
 S   1 1.00       0.000000000000
      0.7016361094D+04  0.1000000000D+01
 S   1 1.00       0.000000000000
      0.3583158668D+04  0.1000000000D+01
 S   1 1.00       0.000000000000
      0.1829869625D+04  0.1000000000D+01
 S   1 1.00       0.000000000000
      0.9344891347D+03  0.1000000000D+01
 S   1 1.00       0.000000000000
      0.4772306896D+03  0.1000000000D+01
 S   1 1.00       0.000000000000
      0.2437151195D+03  0.1000000000D+01
 S   1 1.00       0.000000000000
      0.1244619442D+03  0.1000000000D+01
 S   1 1.00       0.000000000000
      0.6356099525D+02  0.1000000000D+01
 S   1 1.00       0.000000000000
      0.3245972208D+02  0.1000000000D+01
 S   1 1.00       0.000000000000
      0.1657673158D+02  0.1000000000D+01
 S   1 1.00       0.000000000000
      0.8465507783D+01  0.1000000000D+01
 S   1 1.00       0.000000000000
      0.4323217860D+01  0.1000000000D+01
 S   1 1.00       0.000000000000
      0.2207807629D+01  0.1000000000D+01
 S   1 1.00       0.000000000000
      0.1127496852D+01  0.1000000000D+01
 S   1 1.00       0.000000000000
      0.5757970639D+00  0.1000000000D+01
 S   1 1.00       0.000000000000
      0.2940516050D+00  0.1000000000D+01
 S   1 1.00       0.000000000000
      0.1501680918D+00  0.1000000000D+01
 S   1 1.00       0.000000000000
      0.7668876969D-01  0.1000000000D+01
 P   1 1.00       0.000000000000
      0.2019953588D+06  0.1000000000D+01
 P   1 1.00       0.000000000000
      0.1031562389D+06  0.1000000000D+01
 P   1 1.00       0.000000000000
      0.5268046591D+05  0.1000000000D+01
 P   1 1.00       0.000000000000
      0.2690318607D+05  0.1000000000D+01
 P   1 1.00       0.000000000000
      0.1373908542D+05  0.1000000000D+01
 P   1 1.00       0.000000000000
      0.7016361094D+04  0.1000000000D+01
 P   1 1.00       0.000000000000
      0.3583158668D+04  0.1000000000D+01
 P   1 1.00       0.000000000000
      0.1829869625D+04  0.1000000000D+01
 P   1 1.00       0.000000000000
      0.9344891347D+03  0.1000000000D+01
 P   1 1.00       0.000000000000
      0.4772306896D+03  0.1000000000D+01
 P   1 1.00       0.000000000000
      0.2437151195D+03  0.1000000000D+01
 P   1 1.00       0.000000000000
      0.1244619442D+03  0.1000000000D+01
 P   1 1.00       0.000000000000
      0.6356099525D+02  0.1000000000D+01
 P   1 1.00       0.000000000000
      0.3245972208D+02  0.1000000000D+01
 P   1 1.00       0.000000000000
      0.1657673158D+02  0.1000000000D+01
 P   1 1.00       0.000000000000
      0.8465507783D+01  0.1000000000D+01
 P   1 1.00       0.000000000000
      0.4323217860D+01  0.1000000000D+01
 P   1 1.00       0.000000000000
      0.2207807629D+01  0.1000000000D+01
 P   1 1.00       0.000000000000
      0.1127496852D+01  0.1000000000D+01
 P   1 1.00       0.000000000000
      0.5757970639D+00  0.1000000000D+01
 P   1 1.00       0.000000000000
      0.2940516050D+00  0.1000000000D+01
 P   1 1.00       0.000000000000
      0.1501680918D+00  0.1000000000D+01
 P   1 1.00       0.000000000000
      0.7668876969D-01  0.1000000000D+01
 P   1 1.00       0.000000000000
      0.3916389510D-01  0.1000000000D+01
 D   1 1.00       0.000000000000
      0.4772306896D+03  0.1000000000D+01
 D   1 1.00       0.000000000000
      0.2437151195D+03  0.1000000000D+01
 D   1 1.00       0.000000000000
      0.1244619442D+03  0.1000000000D+01
 D   1 1.00       0.000000000000
      0.6356099525D+02  0.1000000000D+01
 D   1 1.00       0.000000000000
      0.3245972208D+02  0.1000000000D+01
 D   1 1.00       0.000000000000
      0.1657673158D+02  0.1000000000D+01
 D   1 1.00       0.000000000000
      0.8465507783D+01  0.1000000000D+01
 D   1 1.00       0.000000000000
      0.4323217860D+01  0.1000000000D+01
 D   1 1.00       0.000000000000
      0.2207807629D+01  0.1000000000D+01
 D   1 1.00       0.000000000000
      0.1127496852D+01  0.1000000000D+01
 D   1 1.00       0.000000000000
      0.5757970639D+00  0.1000000000D+01
 D   1 1.00       0.000000000000
      0.2940516050D+00  0.1000000000D+01
 D   1 1.00       0.000000000000
      0.1501680918D+00  0.1000000000D+01
 D   1 1.00       0.000000000000
      0.7668876969D-01  0.1000000000D+01
 D   1 1.00       0.000000000000
      0.3916389510D-01  0.1000000000D+01
 ****
      4 0
 S   1 1.00       0.000000000000
      0.2019953588D+06  0.1000000000D+01
 S   1 1.00       0.000000000000
      0.1031562389D+06  0.1000000000D+01
 S   1 1.00       0.000000000000
      0.5268046591D+05  0.1000000000D+01
 S   1 1.00       0.000000000000
      0.2690318607D+05  0.1000000000D+01
 S   1 1.00       0.000000000000
      0.1373908542D+05  0.1000000000D+01
 S   1 1.00       0.000000000000
      0.7016361094D+04  0.1000000000D+01
 S   1 1.00       0.000000000000
      0.3583158668D+04  0.1000000000D+01
 S   1 1.00       0.000000000000
      0.1829869625D+04  0.1000000000D+01
 S   1 1.00       0.000000000000
      0.9344891347D+03  0.1000000000D+01
 S   1 1.00       0.000000000000
      0.4772306896D+03  0.1000000000D+01
 S   1 1.00       0.000000000000
      0.2437151195D+03  0.1000000000D+01
 S   1 1.00       0.000000000000
      0.1244619442D+03  0.1000000000D+01
 S   1 1.00       0.000000000000
      0.6356099525D+02  0.1000000000D+01
 S   1 1.00       0.000000000000
      0.3245972208D+02  0.1000000000D+01
 S   1 1.00       0.000000000000
      0.1657673158D+02  0.1000000000D+01
 S   1 1.00       0.000000000000
      0.8465507783D+01  0.1000000000D+01
 S   1 1.00       0.000000000000
      0.4323217860D+01  0.1000000000D+01
 S   1 1.00       0.000000000000
      0.2207807629D+01  0.1000000000D+01
 S   1 1.00       0.000000000000
      0.1127496852D+01  0.1000000000D+01
 S   1 1.00       0.000000000000
      0.5757970639D+00  0.1000000000D+01
 S   1 1.00       0.000000000000
      0.2940516050D+00  0.1000000000D+01
 S   1 1.00       0.000000000000
      0.1501680918D+00  0.1000000000D+01
 S   1 1.00       0.000000000000
      0.7668876969D-01  0.1000000000D+01
 P   1 1.00       0.000000000000
      0.2019953588D+06  0.1000000000D+01
 P   1 1.00       0.000000000000
      0.1031562389D+06  0.1000000000D+01
 P   1 1.00       0.000000000000
      0.5268046591D+05  0.1000000000D+01
 P   1 1.00       0.000000000000
      0.2690318607D+05  0.1000000000D+01
 P   1 1.00       0.000000000000
      0.1373908542D+05  0.1000000000D+01
 P   1 1.00       0.000000000000
      0.7016361094D+04  0.1000000000D+01
 P   1 1.00       0.000000000000
      0.3583158668D+04  0.1000000000D+01
 P   1 1.00       0.000000000000
      0.1829869625D+04  0.1000000000D+01
 P   1 1.00       0.000000000000
      0.9344891347D+03  0.1000000000D+01
 P   1 1.00       0.000000000000
      0.4772306896D+03  0.1000000000D+01
 P   1 1.00       0.000000000000
      0.2437151195D+03  0.1000000000D+01
 P   1 1.00       0.000000000000
      0.1244619442D+03  0.1000000000D+01
 P   1 1.00       0.000000000000
      0.6356099525D+02  0.1000000000D+01
 P   1 1.00       0.000000000000
      0.3245972208D+02  0.1000000000D+01
 P   1 1.00       0.000000000000
      0.1657673158D+02  0.1000000000D+01
 P   1 1.00       0.000000000000
      0.8465507783D+01  0.1000000000D+01
 P   1 1.00       0.000000000000
      0.4323217860D+01  0.1000000000D+01
 P   1 1.00       0.000000000000
      0.2207807629D+01  0.1000000000D+01
 P   1 1.00       0.000000000000
      0.1127496852D+01  0.1000000000D+01
 P   1 1.00       0.000000000000
      0.5757970639D+00  0.1000000000D+01
 P   1 1.00       0.000000000000
      0.2940516050D+00  0.1000000000D+01
 P   1 1.00       0.000000000000
      0.1501680918D+00  0.1000000000D+01
 P   1 1.00       0.000000000000
      0.7668876969D-01  0.1000000000D+01
 P   1 1.00       0.000000000000
      0.3916389510D-01  0.1000000000D+01
 D   1 1.00       0.000000000000
      0.4772306896D+03  0.1000000000D+01
 D   1 1.00       0.000000000000
      0.2437151195D+03  0.1000000000D+01
 D   1 1.00       0.000000000000
      0.1244619442D+03  0.1000000000D+01
 D   1 1.00       0.000000000000
      0.6356099525D+02  0.1000000000D+01
 D   1 1.00       0.000000000000
      0.3245972208D+02  0.1000000000D+01
 D   1 1.00       0.000000000000
      0.1657673158D+02  0.1000000000D+01
 D   1 1.00       0.000000000000
      0.8465507783D+01  0.1000000000D+01
 D   1 1.00       0.000000000000
      0.4323217860D+01  0.1000000000D+01
 D   1 1.00       0.000000000000
      0.2207807629D+01  0.1000000000D+01
 D   1 1.00       0.000000000000
      0.1127496852D+01  0.1000000000D+01
 D   1 1.00       0.000000000000
      0.5757970639D+00  0.1000000000D+01
 D   1 1.00       0.000000000000
      0.2940516050D+00  0.1000000000D+01
 D   1 1.00       0.000000000000
      0.1501680918D+00  0.1000000000D+01
 D   1 1.00       0.000000000000
      0.7668876969D-01  0.1000000000D+01
 D   1 1.00       0.000000000000
      0.3916389510D-01  0.1000000000D+01
 ****
      5 0
 S   1 1.00       0.000000000000
      0.2969784651D+07  0.1000000000D+01
 S   1 1.00       0.000000000000
      0.1516627989D+07  0.1000000000D+01
 S   1 1.00       0.000000000000
      0.7745209592D+06  0.1000000000D+01
 S   1 1.00       0.000000000000
      0.3955371526D+06  0.1000000000D+01
 S   1 1.00       0.000000000000
      0.2019953588D+06  0.1000000000D+01
 S   1 1.00       0.000000000000
      0.1031562389D+06  0.1000000000D+01
 S   1 1.00       0.000000000000
      0.5268046591D+05  0.1000000000D+01
 S   1 1.00       0.000000000000
      0.2690318607D+05  0.1000000000D+01
 S   1 1.00       0.000000000000
      0.1373908542D+05  0.1000000000D+01
 S   1 1.00       0.000000000000
      0.7016361094D+04  0.1000000000D+01
 S   1 1.00       0.000000000000
      0.3583158668D+04  0.1000000000D+01
 S   1 1.00       0.000000000000
      0.1829869625D+04  0.1000000000D+01
 S   1 1.00       0.000000000000
      0.9344891347D+03  0.1000000000D+01
 S   1 1.00       0.000000000000
      0.4772306896D+03  0.1000000000D+01
 S   1 1.00       0.000000000000
      0.2437151195D+03  0.1000000000D+01
 S   1 1.00       0.000000000000
      0.1244619442D+03  0.1000000000D+01
 S   1 1.00       0.000000000000
      0.6356099525D+02  0.1000000000D+01
 S   1 1.00       0.000000000000
      0.3245972208D+02  0.1000000000D+01
 S   1 1.00       0.000000000000
      0.1657673158D+02  0.1000000000D+01
 S   1 1.00       0.000000000000
      0.8465507783D+01  0.1000000000D+01
 S   1 1.00       0.000000000000
      0.4323217860D+01  0.1000000000D+01
 S   1 1.00       0.000000000000
      0.2207807629D+01  0.1000000000D+01
 S   1 1.00       0.000000000000
      0.1127496852D+01  0.1000000000D+01
 S   1 1.00       0.000000000000
      0.5757970639D+00  0.1000000000D+01
 S   1 1.00       0.000000000000
      0.2940516050D+00  0.1000000000D+01
 S   1 1.00       0.000000000000
      0.1501680918D+00  0.1000000000D+01
 S   1 1.00       0.000000000000
      0.7668876969D-01  0.1000000000D+01
 P   1 1.00       0.000000000000
      0.2969784651D+07  0.1000000000D+01
 P   1 1.00       0.000000000000
      0.1516627989D+07  0.1000000000D+01
 P   1 1.00       0.000000000000
      0.7745209592D+06  0.1000000000D+01
 P   1 1.00       0.000000000000
      0.3955371526D+06  0.1000000000D+01
 P   1 1.00       0.000000000000
      0.2019953588D+06  0.1000000000D+01
 P   1 1.00       0.000000000000
      0.1031562389D+06  0.1000000000D+01
 P   1 1.00       0.000000000000
      0.5268046591D+05  0.1000000000D+01
 P   1 1.00       0.000000000000
      0.2690318607D+05  0.1000000000D+01
 P   1 1.00       0.000000000000
      0.1373908542D+05  0.1000000000D+01
 P   1 1.00       0.000000000000
      0.7016361094D+04  0.1000000000D+01
 P   1 1.00       0.000000000000
      0.3583158668D+04  0.1000000000D+01
 P   1 1.00       0.000000000000
      0.1829869625D+04  0.1000000000D+01
 P   1 1.00       0.000000000000
      0.9344891347D+03  0.1000000000D+01
 P   1 1.00       0.000000000000
      0.4772306896D+03  0.1000000000D+01
 P   1 1.00       0.000000000000
      0.2437151195D+03  0.1000000000D+01
 P   1 1.00       0.000000000000
      0.1244619442D+03  0.1000000000D+01
 P   1 1.00       0.000000000000
      0.6356099525D+02  0.1000000000D+01
 P   1 1.00       0.000000000000
      0.3245972208D+02  0.1000000000D+01
 P   1 1.00       0.000000000000
      0.1657673158D+02  0.1000000000D+01
 P   1 1.00       0.000000000000
      0.8465507783D+01  0.1000000000D+01
 P   1 1.00       0.000000000000
      0.4323217860D+01  0.1000000000D+01
 P   1 1.00       0.000000000000
      0.2207807629D+01  0.1000000000D+01
 P   1 1.00       0.000000000000
      0.1127496852D+01  0.1000000000D+01
 P   1 1.00       0.000000000000
      0.5757970639D+00  0.1000000000D+01
 P   1 1.00       0.000000000000
      0.2940516050D+00  0.1000000000D+01
 P   1 1.00       0.000000000000
      0.1501680918D+00  0.1000000000D+01
 P   1 1.00       0.000000000000
      0.7668876969D-01  0.1000000000D+01
 D   1 1.00       0.000000000000
      0.1373908542D+05  0.1000000000D+01
 D   1 1.00       0.000000000000
      0.7016361094D+04  0.1000000000D+01
 D   1 1.00       0.000000000000
      0.3583158668D+04  0.1000000000D+01
 D   1 1.00       0.000000000000
      0.1829869625D+04  0.1000000000D+01
 D   1 1.00       0.000000000000
      0.9344891347D+03  0.1000000000D+01
 D   1 1.00       0.000000000000
      0.4772306896D+03  0.1000000000D+01
 D   1 1.00       0.000000000000
      0.2437151195D+03  0.1000000000D+01
 D   1 1.00       0.000000000000
      0.1244619442D+03  0.1000000000D+01
 D   1 1.00       0.000000000000
      0.6356099525D+02  0.1000000000D+01
 D   1 1.00       0.000000000000
      0.3245972208D+02  0.1000000000D+01
 D   1 1.00       0.000000000000
      0.1657673158D+02  0.1000000000D+01
 D   1 1.00       0.000000000000
      0.8465507783D+01  0.1000000000D+01
 D   1 1.00       0.000000000000
      0.4323217860D+01  0.1000000000D+01
 D   1 1.00       0.000000000000
      0.2207807629D+01  0.1000000000D+01
 D   1 1.00       0.000000000000
      0.1127496852D+01  0.1000000000D+01
 D   1 1.00       0.000000000000
      0.5757970639D+00  0.1000000000D+01
 D   1 1.00       0.000000000000
      0.2940516050D+00  0.1000000000D+01
 D   1 1.00       0.000000000000
      0.1501680918D+00  0.1000000000D+01
 D   1 1.00       0.000000000000
      0.7668876969D-01  0.1000000000D+01
 ****

 AO basis set (Overlap normalization):
 Atom C1       Shell     1 S   1     bf    1 -     1          0.000000000000          0.000000000000         -6.319265517990
      0.2019953588D+06  0.1000000000D+01
 Atom C1       Shell     2 S   1     bf    2 -     2          0.000000000000          0.000000000000         -6.319265517990
      0.1031562389D+06  0.1000000000D+01
 Atom C1       Shell     3 S   1     bf    3 -     3          0.000000000000          0.000000000000         -6.319265517990
      0.5268046591D+05  0.1000000000D+01
 Atom C1       Shell     4 S   1     bf    4 -     4          0.000000000000          0.000000000000         -6.319265517990
      0.2690318607D+05  0.1000000000D+01
 Atom C1       Shell     5 S   1     bf    5 -     5          0.000000000000          0.000000000000         -6.319265517990
      0.1373908542D+05  0.1000000000D+01
 Atom C1       Shell     6 S   1     bf    6 -     6          0.000000000000          0.000000000000         -6.319265517990
      0.7016361094D+04  0.1000000000D+01
 Atom C1       Shell     7 S   1     bf    7 -     7          0.000000000000          0.000000000000         -6.319265517990
      0.3583158668D+04  0.1000000000D+01
 Atom C1       Shell     8 S   1     bf    8 -     8          0.000000000000          0.000000000000         -6.319265517990
      0.1829869625D+04  0.1000000000D+01
 Atom C1       Shell     9 S   1     bf    9 -     9          0.000000000000          0.000000000000         -6.319265517990
      0.9344891347D+03  0.1000000000D+01
 Atom C1       Shell    10 S   1     bf   10 -    10          0.000000000000          0.000000000000         -6.319265517990
      0.4772306896D+03  0.1000000000D+01
 Atom C1       Shell    11 S   1     bf   11 -    11          0.000000000000          0.000000000000         -6.319265517990
      0.2437151195D+03  0.1000000000D+01
 Atom C1       Shell    12 S   1     bf   12 -    12          0.000000000000          0.000000000000         -6.319265517990
      0.1244619442D+03  0.1000000000D+01
 Atom C1       Shell    13 S   1     bf   13 -    13          0.000000000000          0.000000000000         -6.319265517990
      0.6356099525D+02  0.1000000000D+01
 Atom C1       Shell    14 S   1     bf   14 -    14          0.000000000000          0.000000000000         -6.319265517990
      0.3245972208D+02  0.1000000000D+01
 Atom C1       Shell    15 S   1     bf   15 -    15          0.000000000000          0.000000000000         -6.319265517990
      0.1657673158D+02  0.1000000000D+01
 Atom C1       Shell    16 S   1     bf   16 -    16          0.000000000000          0.000000000000         -6.319265517990
      0.8465507783D+01  0.1000000000D+01
 Atom C1       Shell    17 S   1     bf   17 -    17          0.000000000000          0.000000000000         -6.319265517990
      0.4323217860D+01  0.1000000000D+01
 Atom C1       Shell    18 S   1     bf   18 -    18          0.000000000000          0.000000000000         -6.319265517990
      0.2207807629D+01  0.1000000000D+01
 Atom C1       Shell    19 S   1     bf   19 -    19          0.000000000000          0.000000000000         -6.319265517990
      0.1127496852D+01  0.1000000000D+01
 Atom C1       Shell    20 S   1     bf   20 -    20          0.000000000000          0.000000000000         -6.319265517990
      0.5757970639D+00  0.1000000000D+01
 Atom C1       Shell    21 S   1     bf   21 -    21          0.000000000000          0.000000000000         -6.319265517990
      0.2940516050D+00  0.1000000000D+01
 Atom C1       Shell    22 S   1     bf   22 -    22          0.000000000000          0.000000000000         -6.319265517990
      0.1501680918D+00  0.1000000000D+01
 Atom C1       Shell    23 S   1     bf   23 -    23          0.000000000000          0.000000000000         -6.319265517990
      0.7668876969D-01  0.1000000000D+01
 Atom C1       Shell    24 P   1     bf   24 -    26          0.000000000000          0.000000000000         -6.319265517990
      0.2019953588D+06  0.1000000000D+01
 Atom C1       Shell    25 P   1     bf   27 -    29          0.000000000000          0.000000000000         -6.319265517990
      0.1031562389D+06  0.1000000000D+01
 Atom C1       Shell    26 P   1     bf   30 -    32          0.000000000000          0.000000000000         -6.319265517990
      0.5268046591D+05  0.1000000000D+01
 Atom C1       Shell    27 P   1     bf   33 -    35          0.000000000000          0.000000000000         -6.319265517990
      0.2690318607D+05  0.1000000000D+01
 Atom C1       Shell    28 P   1     bf   36 -    38          0.000000000000          0.000000000000         -6.319265517990
      0.1373908542D+05  0.1000000000D+01
 Atom C1       Shell    29 P   1     bf   39 -    41          0.000000000000          0.000000000000         -6.319265517990
      0.7016361094D+04  0.1000000000D+01
 Atom C1       Shell    30 P   1     bf   42 -    44          0.000000000000          0.000000000000         -6.319265517990
      0.3583158668D+04  0.1000000000D+01
 Atom C1       Shell    31 P   1     bf   45 -    47          0.000000000000          0.000000000000         -6.319265517990
      0.1829869625D+04  0.1000000000D+01
 Atom C1       Shell    32 P   1     bf   48 -    50          0.000000000000          0.000000000000         -6.319265517990
      0.9344891347D+03  0.1000000000D+01
 Atom C1       Shell    33 P   1     bf   51 -    53          0.000000000000          0.000000000000         -6.319265517990
      0.4772306896D+03  0.1000000000D+01
 Atom C1       Shell    34 P   1     bf   54 -    56          0.000000000000          0.000000000000         -6.319265517990
      0.2437151195D+03  0.1000000000D+01
 Atom C1       Shell    35 P   1     bf   57 -    59          0.000000000000          0.000000000000         -6.319265517990
      0.1244619442D+03  0.1000000000D+01
 Atom C1       Shell    36 P   1     bf   60 -    62          0.000000000000          0.000000000000         -6.319265517990
      0.6356099525D+02  0.1000000000D+01
 Atom C1       Shell    37 P   1     bf   63 -    65          0.000000000000          0.000000000000         -6.319265517990
      0.3245972208D+02  0.1000000000D+01
 Atom C1       Shell    38 P   1     bf   66 -    68          0.000000000000          0.000000000000         -6.319265517990
      0.1657673158D+02  0.1000000000D+01
 Atom C1       Shell    39 P   1     bf   69 -    71          0.000000000000          0.000000000000         -6.319265517990
      0.8465507783D+01  0.1000000000D+01
 Atom C1       Shell    40 P   1     bf   72 -    74          0.000000000000          0.000000000000         -6.319265517990
      0.4323217860D+01  0.1000000000D+01
 Atom C1       Shell    41 P   1     bf   75 -    77          0.000000000000          0.000000000000         -6.319265517990
      0.2207807629D+01  0.1000000000D+01
 Atom C1       Shell    42 P   1     bf   78 -    80          0.000000000000          0.000000000000         -6.319265517990
      0.1127496852D+01  0.1000000000D+01
 Atom C1       Shell    43 P   1     bf   81 -    83          0.000000000000          0.000000000000         -6.319265517990
      0.5757970639D+00  0.1000000000D+01
 Atom C1       Shell    44 P   1     bf   84 -    86          0.000000000000          0.000000000000         -6.319265517990
      0.2940516050D+00  0.1000000000D+01
 Atom C1       Shell    45 P   1     bf   87 -    89          0.000000000000          0.000000000000         -6.319265517990
      0.1501680918D+00  0.1000000000D+01
 Atom C1       Shell    46 P   1     bf   90 -    92          0.000000000000          0.000000000000         -6.319265517990
      0.7668876969D-01  0.1000000000D+01
 Atom C1       Shell    47 P   1     bf   93 -    95          0.000000000000          0.000000000000         -6.319265517990
      0.3916389510D-01  0.1000000000D+01
 Atom C1       Shell    48 D   1     bf   96 -   100          0.000000000000          0.000000000000         -6.319265517990
      0.4772306896D+03  0.1000000000D+01
 Atom C1       Shell    49 D   1     bf  101 -   105          0.000000000000          0.000000000000         -6.319265517990
      0.2437151195D+03  0.1000000000D+01
 Atom C1       Shell    50 D   1     bf  106 -   110          0.000000000000          0.000000000000         -6.319265517990
      0.1244619442D+03  0.1000000000D+01
 Atom C1       Shell    51 D   1     bf  111 -   115          0.000000000000          0.000000000000         -6.319265517990
      0.6356099525D+02  0.1000000000D+01
 Atom C1       Shell    52 D   1     bf  116 -   120          0.000000000000          0.000000000000         -6.319265517990
      0.3245972208D+02  0.1000000000D+01
 Atom C1       Shell    53 D   1     bf  121 -   125          0.000000000000          0.000000000000         -6.319265517990
      0.1657673158D+02  0.1000000000D+01
 Atom C1       Shell    54 D   1     bf  126 -   130          0.000000000000          0.000000000000         -6.319265517990
      0.8465507783D+01  0.1000000000D+01
 Atom C1       Shell    55 D   1     bf  131 -   135          0.000000000000          0.000000000000         -6.319265517990
      0.4323217860D+01  0.1000000000D+01
 Atom C1       Shell    56 D   1     bf  136 -   140          0.000000000000          0.000000000000         -6.319265517990
      0.2207807629D+01  0.1000000000D+01
 Atom C1       Shell    57 D   1     bf  141 -   145          0.000000000000          0.000000000000         -6.319265517990
      0.1127496852D+01  0.1000000000D+01
 Atom C1       Shell    58 D   1     bf  146 -   150          0.000000000000          0.000000000000         -6.319265517990
      0.5757970639D+00  0.1000000000D+01
 Atom C1       Shell    59 D   1     bf  151 -   155          0.000000000000          0.000000000000         -6.319265517990
      0.2940516050D+00  0.1000000000D+01
 Atom C1       Shell    60 D   1     bf  156 -   160          0.000000000000          0.000000000000         -6.319265517990
      0.1501680918D+00  0.1000000000D+01
 Atom C1       Shell    61 D   1     bf  161 -   165          0.000000000000          0.000000000000         -6.319265517990
      0.7668876969D-01  0.1000000000D+01
 Atom C1       Shell    62 D   1     bf  166 -   170          0.000000000000          0.000000000000         -6.319265517990
      0.3916389510D-01  0.1000000000D+01
 Atom C2       Shell    63 S   1     bf  171 -   171          0.000000000000          0.000000000000         -4.034638994445
      0.2019953588D+06  0.1000000000D+01
 Atom C2       Shell    64 S   1     bf  172 -   172          0.000000000000          0.000000000000         -4.034638994445
      0.1031562389D+06  0.1000000000D+01
 Atom C2       Shell    65 S   1     bf  173 -   173          0.000000000000          0.000000000000         -4.034638994445
      0.5268046591D+05  0.1000000000D+01
 Atom C2       Shell    66 S   1     bf  174 -   174          0.000000000000          0.000000000000         -4.034638994445
      0.2690318607D+05  0.1000000000D+01
 Atom C2       Shell    67 S   1     bf  175 -   175          0.000000000000          0.000000000000         -4.034638994445
      0.1373908542D+05  0.1000000000D+01
 Atom C2       Shell    68 S   1     bf  176 -   176          0.000000000000          0.000000000000         -4.034638994445
      0.7016361094D+04  0.1000000000D+01
 Atom C2       Shell    69 S   1     bf  177 -   177          0.000000000000          0.000000000000         -4.034638994445
      0.3583158668D+04  0.1000000000D+01
 Atom C2       Shell    70 S   1     bf  178 -   178          0.000000000000          0.000000000000         -4.034638994445
      0.1829869625D+04  0.1000000000D+01
 Atom C2       Shell    71 S   1     bf  179 -   179          0.000000000000          0.000000000000         -4.034638994445
      0.9344891347D+03  0.1000000000D+01
 Atom C2       Shell    72 S   1     bf  180 -   180          0.000000000000          0.000000000000         -4.034638994445
      0.4772306896D+03  0.1000000000D+01
 Atom C2       Shell    73 S   1     bf  181 -   181          0.000000000000          0.000000000000         -4.034638994445
      0.2437151195D+03  0.1000000000D+01
 Atom C2       Shell    74 S   1     bf  182 -   182          0.000000000000          0.000000000000         -4.034638994445
      0.1244619442D+03  0.1000000000D+01
 Atom C2       Shell    75 S   1     bf  183 -   183          0.000000000000          0.000000000000         -4.034638994445
      0.6356099525D+02  0.1000000000D+01
 Atom C2       Shell    76 S   1     bf  184 -   184          0.000000000000          0.000000000000         -4.034638994445
      0.3245972208D+02  0.1000000000D+01
 Atom C2       Shell    77 S   1     bf  185 -   185          0.000000000000          0.000000000000         -4.034638994445
      0.1657673158D+02  0.1000000000D+01
 Atom C2       Shell    78 S   1     bf  186 -   186          0.000000000000          0.000000000000         -4.034638994445
      0.8465507783D+01  0.1000000000D+01
 Atom C2       Shell    79 S   1     bf  187 -   187          0.000000000000          0.000000000000         -4.034638994445
      0.4323217860D+01  0.1000000000D+01
 Atom C2       Shell    80 S   1     bf  188 -   188          0.000000000000          0.000000000000         -4.034638994445
      0.2207807629D+01  0.1000000000D+01
 Atom C2       Shell    81 S   1     bf  189 -   189          0.000000000000          0.000000000000         -4.034638994445
      0.1127496852D+01  0.1000000000D+01
 Atom C2       Shell    82 S   1     bf  190 -   190          0.000000000000          0.000000000000         -4.034638994445
      0.5757970639D+00  0.1000000000D+01
 Atom C2       Shell    83 S   1     bf  191 -   191          0.000000000000          0.000000000000         -4.034638994445
      0.2940516050D+00  0.1000000000D+01
 Atom C2       Shell    84 S   1     bf  192 -   192          0.000000000000          0.000000000000         -4.034638994445
      0.1501680918D+00  0.1000000000D+01
 Atom C2       Shell    85 S   1     bf  193 -   193          0.000000000000          0.000000000000         -4.034638994445
      0.7668876969D-01  0.1000000000D+01
 Atom C2       Shell    86 P   1     bf  194 -   196          0.000000000000          0.000000000000         -4.034638994445
      0.2019953588D+06  0.1000000000D+01
 Atom C2       Shell    87 P   1     bf  197 -   199          0.000000000000          0.000000000000         -4.034638994445
      0.1031562389D+06  0.1000000000D+01
 Atom C2       Shell    88 P   1     bf  200 -   202          0.000000000000          0.000000000000         -4.034638994445
      0.5268046591D+05  0.1000000000D+01
 Atom C2       Shell    89 P   1     bf  203 -   205          0.000000000000          0.000000000000         -4.034638994445
      0.2690318607D+05  0.1000000000D+01
 Atom C2       Shell    90 P   1     bf  206 -   208          0.000000000000          0.000000000000         -4.034638994445
      0.1373908542D+05  0.1000000000D+01
 Atom C2       Shell    91 P   1     bf  209 -   211          0.000000000000          0.000000000000         -4.034638994445
      0.7016361094D+04  0.1000000000D+01
 Atom C2       Shell    92 P   1     bf  212 -   214          0.000000000000          0.000000000000         -4.034638994445
      0.3583158668D+04  0.1000000000D+01
 Atom C2       Shell    93 P   1     bf  215 -   217          0.000000000000          0.000000000000         -4.034638994445
      0.1829869625D+04  0.1000000000D+01
 Atom C2       Shell    94 P   1     bf  218 -   220          0.000000000000          0.000000000000         -4.034638994445
      0.9344891347D+03  0.1000000000D+01
 Atom C2       Shell    95 P   1     bf  221 -   223          0.000000000000          0.000000000000         -4.034638994445
      0.4772306896D+03  0.1000000000D+01
 Atom C2       Shell    96 P   1     bf  224 -   226          0.000000000000          0.000000000000         -4.034638994445
      0.2437151195D+03  0.1000000000D+01
 Atom C2       Shell    97 P   1     bf  227 -   229          0.000000000000          0.000000000000         -4.034638994445
      0.1244619442D+03  0.1000000000D+01
 Atom C2       Shell    98 P   1     bf  230 -   232          0.000000000000          0.000000000000         -4.034638994445
      0.6356099525D+02  0.1000000000D+01
 Atom C2       Shell    99 P   1     bf  233 -   235          0.000000000000          0.000000000000         -4.034638994445
      0.3245972208D+02  0.1000000000D+01
 Atom C2       Shell   100 P   1     bf  236 -   238          0.000000000000          0.000000000000         -4.034638994445
      0.1657673158D+02  0.1000000000D+01
 Atom C2       Shell   101 P   1     bf  239 -   241          0.000000000000          0.000000000000         -4.034638994445
      0.8465507783D+01  0.1000000000D+01
 Atom C2       Shell   102 P   1     bf  242 -   244          0.000000000000          0.000000000000         -4.034638994445
      0.4323217860D+01  0.1000000000D+01
 Atom C2       Shell   103 P   1     bf  245 -   247          0.000000000000          0.000000000000         -4.034638994445
      0.2207807629D+01  0.1000000000D+01
 Atom C2       Shell   104 P   1     bf  248 -   250          0.000000000000          0.000000000000         -4.034638994445
      0.1127496852D+01  0.1000000000D+01
 Atom C2       Shell   105 P   1     bf  251 -   253          0.000000000000          0.000000000000         -4.034638994445
      0.5757970639D+00  0.1000000000D+01
 Atom C2       Shell   106 P   1     bf  254 -   256          0.000000000000          0.000000000000         -4.034638994445
      0.2940516050D+00  0.1000000000D+01
 Atom C2       Shell   107 P   1     bf  257 -   259          0.000000000000          0.000000000000         -4.034638994445
      0.1501680918D+00  0.1000000000D+01
 Atom C2       Shell   108 P   1     bf  260 -   262          0.000000000000          0.000000000000         -4.034638994445
      0.7668876969D-01  0.1000000000D+01
 Atom C2       Shell   109 P   1     bf  263 -   265          0.000000000000          0.000000000000         -4.034638994445
      0.3916389510D-01  0.1000000000D+01
 Atom C2       Shell   110 D   1     bf  266 -   270          0.000000000000          0.000000000000         -4.034638994445
      0.4772306896D+03  0.1000000000D+01
 Atom C2       Shell   111 D   1     bf  271 -   275          0.000000000000          0.000000000000         -4.034638994445
      0.2437151195D+03  0.1000000000D+01
 Atom C2       Shell   112 D   1     bf  276 -   280          0.000000000000          0.000000000000         -4.034638994445
      0.1244619442D+03  0.1000000000D+01
 Atom C2       Shell   113 D   1     bf  281 -   285          0.000000000000          0.000000000000         -4.034638994445
      0.6356099525D+02  0.1000000000D+01
 Atom C2       Shell   114 D   1     bf  286 -   290          0.000000000000          0.000000000000         -4.034638994445
      0.3245972208D+02  0.1000000000D+01
 Atom C2       Shell   115 D   1     bf  291 -   295          0.000000000000          0.000000000000         -4.034638994445
      0.1657673158D+02  0.1000000000D+01
 Atom C2       Shell   116 D   1     bf  296 -   300          0.000000000000          0.000000000000         -4.034638994445
      0.8465507783D+01  0.1000000000D+01
 Atom C2       Shell   117 D   1     bf  301 -   305          0.000000000000          0.000000000000         -4.034638994445
      0.4323217860D+01  0.1000000000D+01
 Atom C2       Shell   118 D   1     bf  306 -   310          0.000000000000          0.000000000000         -4.034638994445
      0.2207807629D+01  0.1000000000D+01
 Atom C2       Shell   119 D   1     bf  311 -   315          0.000000000000          0.000000000000         -4.034638994445
      0.1127496852D+01  0.1000000000D+01
 Atom C2       Shell   120 D   1     bf  316 -   320          0.000000000000          0.000000000000         -4.034638994445
      0.5757970639D+00  0.1000000000D+01
 Atom C2       Shell   121 D   1     bf  321 -   325          0.000000000000          0.000000000000         -4.034638994445
      0.2940516050D+00  0.1000000000D+01
 Atom C2       Shell   122 D   1     bf  326 -   330          0.000000000000          0.000000000000         -4.034638994445
      0.1501680918D+00  0.1000000000D+01
 Atom C2       Shell   123 D   1     bf  331 -   335          0.000000000000          0.000000000000         -4.034638994445
      0.7668876969D-01  0.1000000000D+01
 Atom C2       Shell   124 D   1     bf  336 -   340          0.000000000000          0.000000000000         -4.034638994445
      0.3916389510D-01  0.1000000000D+01
 Atom C3       Shell   125 S   1     bf  341 -   341          0.000000000000          0.000000000000         -1.467075771871
      0.2019953588D+06  0.1000000000D+01
 Atom C3       Shell   126 S   1     bf  342 -   342          0.000000000000          0.000000000000         -1.467075771871
      0.1031562389D+06  0.1000000000D+01
 Atom C3       Shell   127 S   1     bf  343 -   343          0.000000000000          0.000000000000         -1.467075771871
      0.5268046591D+05  0.1000000000D+01
 Atom C3       Shell   128 S   1     bf  344 -   344          0.000000000000          0.000000000000         -1.467075771871
      0.2690318607D+05  0.1000000000D+01
 Atom C3       Shell   129 S   1     bf  345 -   345          0.000000000000          0.000000000000         -1.467075771871
      0.1373908542D+05  0.1000000000D+01
 Atom C3       Shell   130 S   1     bf  346 -   346          0.000000000000          0.000000000000         -1.467075771871
      0.7016361094D+04  0.1000000000D+01
 Atom C3       Shell   131 S   1     bf  347 -   347          0.000000000000          0.000000000000         -1.467075771871
      0.3583158668D+04  0.1000000000D+01
 Atom C3       Shell   132 S   1     bf  348 -   348          0.000000000000          0.000000000000         -1.467075771871
      0.1829869625D+04  0.1000000000D+01
 Atom C3       Shell   133 S   1     bf  349 -   349          0.000000000000          0.000000000000         -1.467075771871
      0.9344891347D+03  0.1000000000D+01
 Atom C3       Shell   134 S   1     bf  350 -   350          0.000000000000          0.000000000000         -1.467075771871
      0.4772306896D+03  0.1000000000D+01
 Atom C3       Shell   135 S   1     bf  351 -   351          0.000000000000          0.000000000000         -1.467075771871
      0.2437151195D+03  0.1000000000D+01
 Atom C3       Shell   136 S   1     bf  352 -   352          0.000000000000          0.000000000000         -1.467075771871
      0.1244619442D+03  0.1000000000D+01
 Atom C3       Shell   137 S   1     bf  353 -   353          0.000000000000          0.000000000000         -1.467075771871
      0.6356099525D+02  0.1000000000D+01
 Atom C3       Shell   138 S   1     bf  354 -   354          0.000000000000          0.000000000000         -1.467075771871
      0.3245972208D+02  0.1000000000D+01
 Atom C3       Shell   139 S   1     bf  355 -   355          0.000000000000          0.000000000000         -1.467075771871
      0.1657673158D+02  0.1000000000D+01
 Atom C3       Shell   140 S   1     bf  356 -   356          0.000000000000          0.000000000000         -1.467075771871
      0.8465507783D+01  0.1000000000D+01
 Atom C3       Shell   141 S   1     bf  357 -   357          0.000000000000          0.000000000000         -1.467075771871
      0.4323217860D+01  0.1000000000D+01
 Atom C3       Shell   142 S   1     bf  358 -   358          0.000000000000          0.000000000000         -1.467075771871
      0.2207807629D+01  0.1000000000D+01
 Atom C3       Shell   143 S   1     bf  359 -   359          0.000000000000          0.000000000000         -1.467075771871
      0.1127496852D+01  0.1000000000D+01
 Atom C3       Shell   144 S   1     bf  360 -   360          0.000000000000          0.000000000000         -1.467075771871
      0.5757970639D+00  0.1000000000D+01
 Atom C3       Shell   145 S   1     bf  361 -   361          0.000000000000          0.000000000000         -1.467075771871
      0.2940516050D+00  0.1000000000D+01
 Atom C3       Shell   146 S   1     bf  362 -   362          0.000000000000          0.000000000000         -1.467075771871
      0.1501680918D+00  0.1000000000D+01
 Atom C3       Shell   147 S   1     bf  363 -   363          0.000000000000          0.000000000000         -1.467075771871
      0.7668876969D-01  0.1000000000D+01
 Atom C3       Shell   148 P   1     bf  364 -   366          0.000000000000          0.000000000000         -1.467075771871
      0.2019953588D+06  0.1000000000D+01
 Atom C3       Shell   149 P   1     bf  367 -   369          0.000000000000          0.000000000000         -1.467075771871
      0.1031562389D+06  0.1000000000D+01
 Atom C3       Shell   150 P   1     bf  370 -   372          0.000000000000          0.000000000000         -1.467075771871
      0.5268046591D+05  0.1000000000D+01
 Atom C3       Shell   151 P   1     bf  373 -   375          0.000000000000          0.000000000000         -1.467075771871
      0.2690318607D+05  0.1000000000D+01
 Atom C3       Shell   152 P   1     bf  376 -   378          0.000000000000          0.000000000000         -1.467075771871
      0.1373908542D+05  0.1000000000D+01
 Atom C3       Shell   153 P   1     bf  379 -   381          0.000000000000          0.000000000000         -1.467075771871
      0.7016361094D+04  0.1000000000D+01
 Atom C3       Shell   154 P   1     bf  382 -   384          0.000000000000          0.000000000000         -1.467075771871
      0.3583158668D+04  0.1000000000D+01
 Atom C3       Shell   155 P   1     bf  385 -   387          0.000000000000          0.000000000000         -1.467075771871
      0.1829869625D+04  0.1000000000D+01
 Atom C3       Shell   156 P   1     bf  388 -   390          0.000000000000          0.000000000000         -1.467075771871
      0.9344891347D+03  0.1000000000D+01
 Atom C3       Shell   157 P   1     bf  391 -   393          0.000000000000          0.000000000000         -1.467075771871
      0.4772306896D+03  0.1000000000D+01
 Atom C3       Shell   158 P   1     bf  394 -   396          0.000000000000          0.000000000000         -1.467075771871
      0.2437151195D+03  0.1000000000D+01
 Atom C3       Shell   159 P   1     bf  397 -   399          0.000000000000          0.000000000000         -1.467075771871
      0.1244619442D+03  0.1000000000D+01
 Atom C3       Shell   160 P   1     bf  400 -   402          0.000000000000          0.000000000000         -1.467075771871
      0.6356099525D+02  0.1000000000D+01
 Atom C3       Shell   161 P   1     bf  403 -   405          0.000000000000          0.000000000000         -1.467075771871
      0.3245972208D+02  0.1000000000D+01
 Atom C3       Shell   162 P   1     bf  406 -   408          0.000000000000          0.000000000000         -1.467075771871
      0.1657673158D+02  0.1000000000D+01
 Atom C3       Shell   163 P   1     bf  409 -   411          0.000000000000          0.000000000000         -1.467075771871
      0.8465507783D+01  0.1000000000D+01
 Atom C3       Shell   164 P   1     bf  412 -   414          0.000000000000          0.000000000000         -1.467075771871
      0.4323217860D+01  0.1000000000D+01
 Atom C3       Shell   165 P   1     bf  415 -   417          0.000000000000          0.000000000000         -1.467075771871
      0.2207807629D+01  0.1000000000D+01
 Atom C3       Shell   166 P   1     bf  418 -   420          0.000000000000          0.000000000000         -1.467075771871
      0.1127496852D+01  0.1000000000D+01
 Atom C3       Shell   167 P   1     bf  421 -   423          0.000000000000          0.000000000000         -1.467075771871
      0.5757970639D+00  0.1000000000D+01
 Atom C3       Shell   168 P   1     bf  424 -   426          0.000000000000          0.000000000000         -1.467075771871
      0.2940516050D+00  0.1000000000D+01
 Atom C3       Shell   169 P   1     bf  427 -   429          0.000000000000          0.000000000000         -1.467075771871
      0.1501680918D+00  0.1000000000D+01
 Atom C3       Shell   170 P   1     bf  430 -   432          0.000000000000          0.000000000000         -1.467075771871
      0.7668876969D-01  0.1000000000D+01
 Atom C3       Shell   171 P   1     bf  433 -   435          0.000000000000          0.000000000000         -1.467075771871
      0.3916389510D-01  0.1000000000D+01
 Atom C3       Shell   172 D   1     bf  436 -   440          0.000000000000          0.000000000000         -1.467075771871
      0.4772306896D+03  0.1000000000D+01
 Atom C3       Shell   173 D   1     bf  441 -   445          0.000000000000          0.000000000000         -1.467075771871
      0.2437151195D+03  0.1000000000D+01
 Atom C3       Shell   174 D   1     bf  446 -   450          0.000000000000          0.000000000000         -1.467075771871
      0.1244619442D+03  0.1000000000D+01
 Atom C3       Shell   175 D   1     bf  451 -   455          0.000000000000          0.000000000000         -1.467075771871
      0.6356099525D+02  0.1000000000D+01
 Atom C3       Shell   176 D   1     bf  456 -   460          0.000000000000          0.000000000000         -1.467075771871
      0.3245972208D+02  0.1000000000D+01
 Atom C3       Shell   177 D   1     bf  461 -   465          0.000000000000          0.000000000000         -1.467075771871
      0.1657673158D+02  0.1000000000D+01
 Atom C3       Shell   178 D   1     bf  466 -   470          0.000000000000          0.000000000000         -1.467075771871
      0.8465507783D+01  0.1000000000D+01
 Atom C3       Shell   179 D   1     bf  471 -   475          0.000000000000          0.000000000000         -1.467075771871
      0.4323217860D+01  0.1000000000D+01
 Atom C3       Shell   180 D   1     bf  476 -   480          0.000000000000          0.000000000000         -1.467075771871
      0.2207807629D+01  0.1000000000D+01
 Atom C3       Shell   181 D   1     bf  481 -   485          0.000000000000          0.000000000000         -1.467075771871
      0.1127496852D+01  0.1000000000D+01
 Atom C3       Shell   182 D   1     bf  486 -   490          0.000000000000          0.000000000000         -1.467075771871
      0.5757970639D+00  0.1000000000D+01
 Atom C3       Shell   183 D   1     bf  491 -   495          0.000000000000          0.000000000000         -1.467075771871
      0.2940516050D+00  0.1000000000D+01
 Atom C3       Shell   184 D   1     bf  496 -   500          0.000000000000          0.000000000000         -1.467075771871
      0.1501680918D+00  0.1000000000D+01
 Atom C3       Shell   185 D   1     bf  501 -   505          0.000000000000          0.000000000000         -1.467075771871
      0.7668876969D-01  0.1000000000D+01
 Atom C3       Shell   186 D   1     bf  506 -   510          0.000000000000          0.000000000000         -1.467075771871
      0.3916389510D-01  0.1000000000D+01
 Atom C4       Shell   187 S   1     bf  511 -   511          0.000000000000          0.000000000000          0.813782387943
      0.2019953588D+06  0.1000000000D+01
 Atom C4       Shell   188 S   1     bf  512 -   512          0.000000000000          0.000000000000          0.813782387943
      0.1031562389D+06  0.1000000000D+01
 Atom C4       Shell   189 S   1     bf  513 -   513          0.000000000000          0.000000000000          0.813782387943
      0.5268046591D+05  0.1000000000D+01
 Atom C4       Shell   190 S   1     bf  514 -   514          0.000000000000          0.000000000000          0.813782387943
      0.2690318607D+05  0.1000000000D+01
 Atom C4       Shell   191 S   1     bf  515 -   515          0.000000000000          0.000000000000          0.813782387943
      0.1373908542D+05  0.1000000000D+01
 Atom C4       Shell   192 S   1     bf  516 -   516          0.000000000000          0.000000000000          0.813782387943
      0.7016361094D+04  0.1000000000D+01
 Atom C4       Shell   193 S   1     bf  517 -   517          0.000000000000          0.000000000000          0.813782387943
      0.3583158668D+04  0.1000000000D+01
 Atom C4       Shell   194 S   1     bf  518 -   518          0.000000000000          0.000000000000          0.813782387943
      0.1829869625D+04  0.1000000000D+01
 Atom C4       Shell   195 S   1     bf  519 -   519          0.000000000000          0.000000000000          0.813782387943
      0.9344891347D+03  0.1000000000D+01
 Atom C4       Shell   196 S   1     bf  520 -   520          0.000000000000          0.000000000000          0.813782387943
      0.4772306896D+03  0.1000000000D+01
 Atom C4       Shell   197 S   1     bf  521 -   521          0.000000000000          0.000000000000          0.813782387943
      0.2437151195D+03  0.1000000000D+01
 Atom C4       Shell   198 S   1     bf  522 -   522          0.000000000000          0.000000000000          0.813782387943
      0.1244619442D+03  0.1000000000D+01
 Atom C4       Shell   199 S   1     bf  523 -   523          0.000000000000          0.000000000000          0.813782387943
      0.6356099525D+02  0.1000000000D+01
 Atom C4       Shell   200 S   1     bf  524 -   524          0.000000000000          0.000000000000          0.813782387943
      0.3245972208D+02  0.1000000000D+01
 Atom C4       Shell   201 S   1     bf  525 -   525          0.000000000000          0.000000000000          0.813782387943
      0.1657673158D+02  0.1000000000D+01
 Atom C4       Shell   202 S   1     bf  526 -   526          0.000000000000          0.000000000000          0.813782387943
      0.8465507783D+01  0.1000000000D+01
 Atom C4       Shell   203 S   1     bf  527 -   527          0.000000000000          0.000000000000          0.813782387943
      0.4323217860D+01  0.1000000000D+01
 Atom C4       Shell   204 S   1     bf  528 -   528          0.000000000000          0.000000000000          0.813782387943
      0.2207807629D+01  0.1000000000D+01
 Atom C4       Shell   205 S   1     bf  529 -   529          0.000000000000          0.000000000000          0.813782387943
      0.1127496852D+01  0.1000000000D+01
 Atom C4       Shell   206 S   1     bf  530 -   530          0.000000000000          0.000000000000          0.813782387943
      0.5757970639D+00  0.1000000000D+01
 Atom C4       Shell   207 S   1     bf  531 -   531          0.000000000000          0.000000000000          0.813782387943
      0.2940516050D+00  0.1000000000D+01
 Atom C4       Shell   208 S   1     bf  532 -   532          0.000000000000          0.000000000000          0.813782387943
      0.1501680918D+00  0.1000000000D+01
 Atom C4       Shell   209 S   1     bf  533 -   533          0.000000000000          0.000000000000          0.813782387943
      0.7668876969D-01  0.1000000000D+01
 Atom C4       Shell   210 P   1     bf  534 -   536          0.000000000000          0.000000000000          0.813782387943
      0.2019953588D+06  0.1000000000D+01
 Atom C4       Shell   211 P   1     bf  537 -   539          0.000000000000          0.000000000000          0.813782387943
      0.1031562389D+06  0.1000000000D+01
 Atom C4       Shell   212 P   1     bf  540 -   542          0.000000000000          0.000000000000          0.813782387943
      0.5268046591D+05  0.1000000000D+01
 Atom C4       Shell   213 P   1     bf  543 -   545          0.000000000000          0.000000000000          0.813782387943
      0.2690318607D+05  0.1000000000D+01
 Atom C4       Shell   214 P   1     bf  546 -   548          0.000000000000          0.000000000000          0.813782387943
      0.1373908542D+05  0.1000000000D+01
 Atom C4       Shell   215 P   1     bf  549 -   551          0.000000000000          0.000000000000          0.813782387943
      0.7016361094D+04  0.1000000000D+01
 Atom C4       Shell   216 P   1     bf  552 -   554          0.000000000000          0.000000000000          0.813782387943
      0.3583158668D+04  0.1000000000D+01
 Atom C4       Shell   217 P   1     bf  555 -   557          0.000000000000          0.000000000000          0.813782387943
      0.1829869625D+04  0.1000000000D+01
 Atom C4       Shell   218 P   1     bf  558 -   560          0.000000000000          0.000000000000          0.813782387943
      0.9344891347D+03  0.1000000000D+01
 Atom C4       Shell   219 P   1     bf  561 -   563          0.000000000000          0.000000000000          0.813782387943
      0.4772306896D+03  0.1000000000D+01
 Atom C4       Shell   220 P   1     bf  564 -   566          0.000000000000          0.000000000000          0.813782387943
      0.2437151195D+03  0.1000000000D+01
 Atom C4       Shell   221 P   1     bf  567 -   569          0.000000000000          0.000000000000          0.813782387943
      0.1244619442D+03  0.1000000000D+01
 Atom C4       Shell   222 P   1     bf  570 -   572          0.000000000000          0.000000000000          0.813782387943
      0.6356099525D+02  0.1000000000D+01
 Atom C4       Shell   223 P   1     bf  573 -   575          0.000000000000          0.000000000000          0.813782387943
      0.3245972208D+02  0.1000000000D+01
 Atom C4       Shell   224 P   1     bf  576 -   578          0.000000000000          0.000000000000          0.813782387943
      0.1657673158D+02  0.1000000000D+01
 Atom C4       Shell   225 P   1     bf  579 -   581          0.000000000000          0.000000000000          0.813782387943
      0.8465507783D+01  0.1000000000D+01
 Atom C4       Shell   226 P   1     bf  582 -   584          0.000000000000          0.000000000000          0.813782387943
      0.4323217860D+01  0.1000000000D+01
 Atom C4       Shell   227 P   1     bf  585 -   587          0.000000000000          0.000000000000          0.813782387943
      0.2207807629D+01  0.1000000000D+01
 Atom C4       Shell   228 P   1     bf  588 -   590          0.000000000000          0.000000000000          0.813782387943
      0.1127496852D+01  0.1000000000D+01
 Atom C4       Shell   229 P   1     bf  591 -   593          0.000000000000          0.000000000000          0.813782387943
      0.5757970639D+00  0.1000000000D+01
 Atom C4       Shell   230 P   1     bf  594 -   596          0.000000000000          0.000000000000          0.813782387943
      0.2940516050D+00  0.1000000000D+01
 Atom C4       Shell   231 P   1     bf  597 -   599          0.000000000000          0.000000000000          0.813782387943
      0.1501680918D+00  0.1000000000D+01
 Atom C4       Shell   232 P   1     bf  600 -   602          0.000000000000          0.000000000000          0.813782387943
      0.7668876969D-01  0.1000000000D+01
 Atom C4       Shell   233 P   1     bf  603 -   605          0.000000000000          0.000000000000          0.813782387943
      0.3916389510D-01  0.1000000000D+01
 Atom C4       Shell   234 D   1     bf  606 -   610          0.000000000000          0.000000000000          0.813782387943
      0.4772306896D+03  0.1000000000D+01
 Atom C4       Shell   235 D   1     bf  611 -   615          0.000000000000          0.000000000000          0.813782387943
      0.2437151195D+03  0.1000000000D+01
 Atom C4       Shell   236 D   1     bf  616 -   620          0.000000000000          0.000000000000          0.813782387943
      0.1244619442D+03  0.1000000000D+01
 Atom C4       Shell   237 D   1     bf  621 -   625          0.000000000000          0.000000000000          0.813782387943
      0.6356099525D+02  0.1000000000D+01
 Atom C4       Shell   238 D   1     bf  626 -   630          0.000000000000          0.000000000000          0.813782387943
      0.3245972208D+02  0.1000000000D+01
 Atom C4       Shell   239 D   1     bf  631 -   635          0.000000000000          0.000000000000          0.813782387943
      0.1657673158D+02  0.1000000000D+01
 Atom C4       Shell   240 D   1     bf  636 -   640          0.000000000000          0.000000000000          0.813782387943
      0.8465507783D+01  0.1000000000D+01
 Atom C4       Shell   241 D   1     bf  641 -   645          0.000000000000          0.000000000000          0.813782387943
      0.4323217860D+01  0.1000000000D+01
 Atom C4       Shell   242 D   1     bf  646 -   650          0.000000000000          0.000000000000          0.813782387943
      0.2207807629D+01  0.1000000000D+01
 Atom C4       Shell   243 D   1     bf  651 -   655          0.000000000000          0.000000000000          0.813782387943
      0.1127496852D+01  0.1000000000D+01
 Atom C4       Shell   244 D   1     bf  656 -   660          0.000000000000          0.000000000000          0.813782387943
      0.5757970639D+00  0.1000000000D+01
 Atom C4       Shell   245 D   1     bf  661 -   665          0.000000000000          0.000000000000          0.813782387943
      0.2940516050D+00  0.1000000000D+01
 Atom C4       Shell   246 D   1     bf  666 -   670          0.000000000000          0.000000000000          0.813782387943
      0.1501680918D+00  0.1000000000D+01
 Atom C4       Shell   247 D   1     bf  671 -   675          0.000000000000          0.000000000000          0.813782387943
      0.7668876969D-01  0.1000000000D+01
 Atom C4       Shell   248 D   1     bf  676 -   680          0.000000000000          0.000000000000          0.813782387943
      0.3916389510D-01  0.1000000000D+01
 Atom Cl5      Shell   249 S   1     bf  681 -   681          0.000000000000          0.000000000000          3.884893375187
      0.2969784651D+07  0.1000000000D+01
 Atom Cl5      Shell   250 S   1     bf  682 -   682          0.000000000000          0.000000000000          3.884893375187
      0.1516627989D+07  0.1000000000D+01
 Atom Cl5      Shell   251 S   1     bf  683 -   683          0.000000000000          0.000000000000          3.884893375187
      0.7745209592D+06  0.1000000000D+01
 Atom Cl5      Shell   252 S   1     bf  684 -   684          0.000000000000          0.000000000000          3.884893375187
      0.3955371526D+06  0.1000000000D+01
 Atom Cl5      Shell   253 S   1     bf  685 -   685          0.000000000000          0.000000000000          3.884893375187
      0.2019953588D+06  0.1000000000D+01
 Atom Cl5      Shell   254 S   1     bf  686 -   686          0.000000000000          0.000000000000          3.884893375187
      0.1031562389D+06  0.1000000000D+01
 Atom Cl5      Shell   255 S   1     bf  687 -   687          0.000000000000          0.000000000000          3.884893375187
      0.5268046591D+05  0.1000000000D+01
 Atom Cl5      Shell   256 S   1     bf  688 -   688          0.000000000000          0.000000000000          3.884893375187
      0.2690318607D+05  0.1000000000D+01
 Atom Cl5      Shell   257 S   1     bf  689 -   689          0.000000000000          0.000000000000          3.884893375187
      0.1373908542D+05  0.1000000000D+01
 Atom Cl5      Shell   258 S   1     bf  690 -   690          0.000000000000          0.000000000000          3.884893375187
      0.7016361094D+04  0.1000000000D+01
 Atom Cl5      Shell   259 S   1     bf  691 -   691          0.000000000000          0.000000000000          3.884893375187
      0.3583158668D+04  0.1000000000D+01
 Atom Cl5      Shell   260 S   1     bf  692 -   692          0.000000000000          0.000000000000          3.884893375187
      0.1829869625D+04  0.1000000000D+01
 Atom Cl5      Shell   261 S   1     bf  693 -   693          0.000000000000          0.000000000000          3.884893375187
      0.9344891347D+03  0.1000000000D+01
 Atom Cl5      Shell   262 S   1     bf  694 -   694          0.000000000000          0.000000000000          3.884893375187
      0.4772306896D+03  0.1000000000D+01
 Atom Cl5      Shell   263 S   1     bf  695 -   695          0.000000000000          0.000000000000          3.884893375187
      0.2437151195D+03  0.1000000000D+01
 Atom Cl5      Shell   264 S   1     bf  696 -   696          0.000000000000          0.000000000000          3.884893375187
      0.1244619442D+03  0.1000000000D+01
 Atom Cl5      Shell   265 S   1     bf  697 -   697          0.000000000000          0.000000000000          3.884893375187
      0.6356099525D+02  0.1000000000D+01
 Atom Cl5      Shell   266 S   1     bf  698 -   698          0.000000000000          0.000000000000          3.884893375187
      0.3245972208D+02  0.1000000000D+01
 Atom Cl5      Shell   267 S   1     bf  699 -   699          0.000000000000          0.000000000000          3.884893375187
      0.1657673158D+02  0.1000000000D+01
 Atom Cl5      Shell   268 S   1     bf  700 -   700          0.000000000000          0.000000000000          3.884893375187
      0.8465507783D+01  0.1000000000D+01
 Atom Cl5      Shell   269 S   1     bf  701 -   701          0.000000000000          0.000000000000          3.884893375187
      0.4323217860D+01  0.1000000000D+01
 Atom Cl5      Shell   270 S   1     bf  702 -   702          0.000000000000          0.000000000000          3.884893375187
      0.2207807629D+01  0.1000000000D+01
 Atom Cl5      Shell   271 S   1     bf  703 -   703          0.000000000000          0.000000000000          3.884893375187
      0.1127496852D+01  0.1000000000D+01
 Atom Cl5      Shell   272 S   1     bf  704 -   704          0.000000000000          0.000000000000          3.884893375187
      0.5757970639D+00  0.1000000000D+01
 Atom Cl5      Shell   273 S   1     bf  705 -   705          0.000000000000          0.000000000000          3.884893375187
      0.2940516050D+00  0.1000000000D+01
 Atom Cl5      Shell   274 S   1     bf  706 -   706          0.000000000000          0.000000000000          3.884893375187
      0.1501680918D+00  0.1000000000D+01
 Atom Cl5      Shell   275 S   1     bf  707 -   707          0.000000000000          0.000000000000          3.884893375187
      0.7668876969D-01  0.1000000000D+01
 Atom Cl5      Shell   276 P   1     bf  708 -   710          0.000000000000          0.000000000000          3.884893375187
      0.2969784651D+07  0.1000000000D+01
 Atom Cl5      Shell   277 P   1     bf  711 -   713          0.000000000000          0.000000000000          3.884893375187
      0.1516627989D+07  0.1000000000D+01
[...]
  Beta virt. eigenvalues -- **************************************************
  Beta virt. eigenvalues -- **************************************************
  Beta virt. eigenvalues -- **************************************************
  Beta virt. eigenvalues -- **************************************************
  Beta virt. eigenvalues -- **************************************************
  Beta virt. eigenvalues -- **************************************************
  Beta virt. eigenvalues -- **************************************************
  Beta virt. eigenvalues -- **************************************************
  Beta virt. eigenvalues -- **************************************************
  Beta virt. eigenvalues -- **************************************************
  Beta virt. eigenvalues -- **************************************************
  Beta virt. eigenvalues -- **************************************************
  Beta virt. eigenvalues -- **************************************************
  Beta virt. eigenvalues -- **************************************************
  Beta virt. eigenvalues -- **************************************************
  Beta virt. eigenvalues -- **************************************************
  Beta virt. eigenvalues -- **************************************************
  Beta virt. eigenvalues -- **************************************************
  Beta virt. eigenvalues -- **************************************************
  Beta virt. eigenvalues -- **************************************************
  Beta virt. eigenvalues -- **************************************************
  Beta virt. eigenvalues -- **************************************************
  Beta virt. eigenvalues -- **************************************************
          Condensed to atoms (all electrons):
              1          2          3          4          5
     1  C    4.971329   0.796860   0.113666  -0.040745   0.003081
     2  C    0.796860   5.047086  -0.039396   0.073080  -0.016023
     3  C    0.113666  -0.039396   7.650169  -0.242793  -0.041095
     4  C   -0.040745   0.073080  -0.242793   5.548163   0.160938
     5  Cl   0.003081  -0.016023  -0.041095   0.160938  16.248107
          Atomic-Atomic Spin Densities.
              1          2          3          4          5
     1  C    0.265596   0.131441  -0.032274   0.008789  -0.000057
     2  C    0.131441   0.225262  -0.020981  -0.013186   0.002417
     3  C   -0.032274  -0.020981  -0.144108   0.174075  -0.037603
     4  C    0.008789  -0.013186   0.174075   0.093693   0.003427
     5  Cl  -0.000057   0.002417  -0.037603   0.003427   0.127460
 Mulliken charges and spin densities:
              1          2
     1  C    0.155809   0.373495
     2  C    0.138393   0.324953
     3  C   -1.440551  -0.060891
     4  C    0.501357   0.266799
     5  Cl   0.644992   0.095644
 Sum of Mulliken charges =   0.00000 spin densities =   1.000000
 Mulliken charges and spin densities with hydrogens summed into heavy atoms:
              1          2
     1  C    0.155809   0.373495
     2  C    0.138393   0.324953
     3  C   -1.440551  -0.060891
     4  C    0.501357   0.266799
     5  Cl   0.644992   0.095644
 Sum of Mulliken charges with hydrogens summed into heavy atoms =   0.00000 spin densities =   1.000000
 APT charges:
              1
     1  C    0.279861
     2  C   -0.509941
     3  C    0.183983
     4  C    0.009194
     5  Cl   0.036903
 Sum of APT charges =   0.00000
 APT charges with hydrogens summed into heavy atoms:
              1
     1  C    0.279861
     2  C   -0.509941
     3  C    0.183983
     4  C    0.009194
     5  Cl   0.036903
 Sum of APT charges with hydrogens summed into heavy atoms =   0.00000
 Electronic spatial extent (au):  <R**2>=            696.8121
 Charge=              0.0000 electrons
 Dipole moment (field-independent basis, Debye):
    X=             -0.0024    Y=             -0.0007    Z=              5.6492  Tot=              5.6492
 Quadrupole moment (field-independent basis, Debye-Ang):
   XX=            -34.5641   YY=            -34.0024   ZZ=            -48.3260
   XY=             -0.8456   XZ=              0.0028   YZ=             -0.0001
 Traceless Quadrupole moment (field-independent basis, Debye-Ang):
   XX=              4.4001   YY=              4.9618   ZZ=             -9.3618
   XY=             -0.8456   XZ=              0.0028   YZ=             -0.0001
 Octapole moment (field-independent basis, Debye-Ang**2):
  XXX=             -0.0073  YYY=             -0.0005  ZZZ=            124.3878  XYY=             -0.0023
  XXY=             -0.0007  XXZ=             10.2324  XZZ=             -0.0333  YZZ=              0.0017
  YYZ=              9.3446  XYZ=              1.3366
 Hexadecapole moment (field-independent basis, Debye-Ang**3):
 XXXX=            -38.8325 YYYY=            -37.7695 ZZZZ=          -1242.6010 XXXY=             -0.8001
 XXXZ=             -0.0016 YYYX=             -0.7999 YYYZ=              0.0002 ZZZX=              0.0142
 ZZZY=             -0.0042 XXYY=            -12.7672 XXZZ=           -166.8999 YYZZ=           -163.3647
 XXYZ=              0.0001 YYXZ=             -0.0005 ZZXY=             -5.3219
 N-N= 1.407037217734D+02 E-N=-2.585569453128D+03  KE= 9.160452755044D+02
  Exact polarizability:  41.750   1.819  33.380   0.053  -0.011 137.111
 Approx polarizability:  53.604  -0.656  54.040   0.125   0.026 237.522
                          Isotropic Fermi Contact Couplings
        Atom                 a.u.       MegaHertz       Gauss      10(-4) cm-1
     1  C(13)             -0.00083      -0.92799      -0.33113      -0.30954
     2  C(13)              0.00868       9.75337       3.48025       3.25338
     3  C(13)             -0.03457     -38.86355     -13.86748     -12.96349
     4  C(13)              0.02160      24.28136       8.66419       8.09939
     5  Cl(35)             0.00788       3.45706       1.23356       1.15315
 --------------------------------------------------------
       Center         ----  Spin Dipole Couplings  ----
                      3XX-RR        3YY-RR        3ZZ-RR
 --------------------------------------------------------
     1   Atom       -0.004373      0.230669     -0.226296
     2   Atom       -0.008622      0.228486     -0.219865
     3   Atom       -0.035091     -0.026216      0.061308
     4   Atom        0.014853      0.212672     -0.227525
     5   Atom        0.047067      0.312084     -0.359151
 --------------------------------------------------------
                        XY            XZ            YZ
 --------------------------------------------------------
     1   Atom       -0.353833      0.000080     -0.000135
     2   Atom       -0.356948      0.000096     -0.000173
     3   Atom       -0.013348     -0.000136      0.000294
     4   Atom       -0.297800     -0.000209      0.000336
     5   Atom       -0.398964     -0.000285      0.000451
 --------------------------------------------------------


 ---------------------------------------------------------------------------------
              Anisotropic Spin Dipole Couplings in Principal Axis System
 ---------------------------------------------------------------------------------

       Atom             a.u.   MegaHertz   Gauss  10(-4) cm-1        Axes

              Baa    -0.2597   -34.848   -12.435   -11.624  0.8109  0.5851  0.0004
     1 C(13)  Bbb    -0.2263   -30.367   -10.836   -10.129 -0.0005 -0.0001  1.0000
              Bcc     0.4860    65.215    23.270    21.753 -0.5851  0.8109 -0.0002
 
              Baa    -0.2662   -35.720   -12.746   -11.915  0.8109  0.5851  0.0005
     2 C(13)  Bbb    -0.2199   -29.504   -10.528    -9.841 -0.0006 -0.0001  1.0000
              Bcc     0.4861    65.224    23.273    21.756 -0.5851  0.8109 -0.0003
 
              Baa    -0.0447    -6.001    -2.141    -2.002  0.8110  0.5850 -0.0006
     3 C(13)  Bbb    -0.0166    -2.226    -0.794    -0.743 -0.5850  0.8110 -0.0041
              Bcc     0.0613     8.227     2.936     2.744 -0.0019  0.0036  1.0000
 
              Baa    -0.2275   -30.532   -10.894   -10.184 -0.0005 -0.0011  1.0000
     4 C(13)  Bbb    -0.2000   -26.843    -9.578    -8.954  0.8109  0.5851  0.0010
              Bcc     0.4276    57.374    20.473    19.138 -0.5851  0.8109  0.0006
 
              Baa    -0.3592   -18.797    -6.707    -6.270  0.0001 -0.0006  1.0000
     5 Cl(35) Bbb    -0.2408   -12.604    -4.497    -4.204  0.8109  0.5851  0.0003
              Bcc     0.6000    31.401    11.205    10.474 -0.5851  0.8109  0.0006
 

 ---------------------------------------------------------------------------------

 No NMR shielding tensors so no spin-rotation constants.
 Leave Link  601 at Tue Aug 13 18:29:21 2013, MaxMem=  536870912 cpu:       8.3
 (Enter /share/apps/gaussian/gdvh12/gdv/l701.exe)
 Compute integral second derivatives.
 ... and contract with generalized density number  0.
 R6Disp: Adding Petersson-Frisch dispersion energy 2nd derivatives to the Hessian.
 Leave Link  701 at Tue Aug 13 18:29:23 2013, MaxMem=  536870912 cpu:       4.0
 (Enter /share/apps/gaussian/gdvh12/gdv/l702.exe)
 L702 exits ... SP integral derivatives will be done elsewhere.
 Leave Link  702 at Tue Aug 13 18:29:23 2013, MaxMem=  536870912 cpu:       0.0
 (Enter /share/apps/gaussian/gdvh12/gdv/l703.exe)
 Compute integral second derivatives, UseDBF=F ICtDFT=           0.
 Integral derivatives from FoFJK, PRISM(SPDF).
 Calling FoFJK, ICntrl=    100127 FMM=F ISym2X=0 I1Cent= 0 IOpClX= 1 NMat=1 NMatS=1 NMatT=0.
 FoFJK:  IHMeth= 1 ICntrl=  100127 DoSepK=F KAlg= 0 I1Cent=   0 FoldK=F
 IRaf=       0 NMat=   1 IRICut=       1 DoRegI=T DoRafI=F ISym2E= 0.
 FoFCou: FMM=F IPFlag=           0 FMFlag=      100000 FMFlg1=         800
         NFxFlg=           0 DoJE=F BraDBF=F KetDBF=F FulRan=T
         wScrn=  0.000000 ICntrl=  100127 IOpCl=  1 I1Cent=           0 NGrid=           0
         NMat0=    1 NMatS0=      1 NMatT0=    0 NMatD0=    1 NMtDS0=    0 NMtDT0=    0
 Symmetry not used in FoFCou.
 Leave Link  703 at Wed Aug 14 00:22:15 2013, MaxMem=  536870912 cpu:   42337.3
 (Enter /share/apps/gaussian/gdvh12/gdv/l716.exe)
 Dipole        =-9.56484798D-04-2.60010088D-04 2.22254795D+00
 Polarizability= 4.17504339D+01 1.81853983D+00 3.33797704D+01
                 5.32825615D-02-1.05102612D-02 1.37110901D+02
 -------------------------------------------------------------------
 Center     Atomic                   Forces (Hartrees/Bohr)
 Number     Number              X              Y              Z
 -------------------------------------------------------------------
      1        6           0.000047454    0.000002872   -0.121972916
      2        6          -0.000068681   -0.000004867    0.150957434
      3        6           0.000037177   -0.000030504   -0.058629917
      4        6          -0.000092641    0.000055662    0.039083297
      5       17           0.000076692   -0.000023164   -0.009437898
 -------------------------------------------------------------------
 Cartesian Forces:  Max     0.150957434 RMS     0.053366414
 Force constants in Cartesian coordinates: 
                1             2             3             4             5 
      1 -0.409767D-01
      2 -0.907614D-02 -0.343593D-01
      3 -0.696731D-03  0.916279D-05  0.107582D+01
      4  0.311020D-01  0.176727D-01  0.738188D-03  0.551621D-02
      5  0.176805D-01  0.183276D-01 -0.337412D-04 -0.333346D-01  0.294616D-01
      6  0.580703D-03  0.505664D-04 -0.106954D+01 -0.737558D-03 -0.748075D-04
      7  0.146196D-01 -0.128388D-01  0.422625D-03 -0.487194D-01  0.227225D-01
      8 -0.107665D-01  0.145904D-01 -0.138347D-03  0.192001D-01 -0.487836D-01
      9  0.885717D-04 -0.411954D-04 -0.252026D-02  0.181683D-03  0.113335D-03
     10 -0.927189D-02  0.695515D-02 -0.802129D-03  0.165080D-01 -0.123790D-01
     11  0.344374D-02  0.170362D-02  0.294230D-03 -0.642511D-02 -0.263290D-02
     12  0.552229D-04 -0.209755D-04 -0.895788D-02 -0.303714D-03 -0.700811D-05
     13  0.452702D-02 -0.271294D-02  0.338046D-03 -0.440680D-02  0.531066D-02
     14 -0.128165D-02 -0.262337D-03 -0.131305D-03  0.288691D-02  0.362733D-02
     15 -0.277667D-04  0.244173D-05  0.519576D-02  0.121401D-03  0.222230D-05
                6             7             8             9            10 
      6  0.152013D+01
      7  0.153040D-02 -0.656428D-01
      8 -0.322169D-03  0.193224D-01  0.258838D-01
      9 -0.376838D+00  0.258052D-03  0.416642D-03  0.131695D+01
     10 -0.227361D-02  0.172499D+00 -0.474538D-01  0.110846D-02 -0.299846D+00
     11  0.600464D-03 -0.512563D-01  0.136996D-01 -0.876673D-03  0.945218D-01
     12 -0.772124D-01 -0.204289D-02  0.722243D-04 -0.903460D+00  0.138415D-02
     13  0.900060D-03 -0.727560D-01  0.196977D-01 -0.163676D-02  0.120111D+00
     14 -0.254054D-03  0.220502D-01 -0.539024D-02  0.387892D-03 -0.416441D-01
     15  0.346358D-02 -0.168186D-03 -0.283504D-04 -0.341291D-01  0.583125D-03
               11            12            13            14            15 
     11 -0.110262D-01
     12 -0.629406D-04  0.131553D+01
     13 -0.402841D-01  0.907229D-03 -0.474756D-01
     14 -0.174414D-02  0.186999D-04  0.179887D-01  0.376939D-02
     15  0.449201D-04 -0.325898D+00 -0.508574D-03 -0.212338D-04  0.351367D+00
 Leave Link  716 at Wed Aug 14 00:22:16 2013, MaxMem=  536870912 cpu:       0.0
 (Enter /share/apps/gaussian/gdvh12/gdv/l106.exe)
 NDeriv=  10 NFrqRd=  0 LFDDif=       1
 NDeriv=  10 NFrqRd=  0 LFDDif=       1
 Re-enter D2Numr: Normal Mode=  5 IStep= 2.
 Leave Link  106 at Wed Aug 14 00:22:16 2013, MaxMem=  536870912 cpu:       1.0
 (Enter /share/apps/gaussian/gdvh12/gdv/l301.exe)
 Standard basis: UGBS1P (5D, 7F)
 Ernie: Thresh=  0.10000D-02 Tol=  0.10000D-05 Strict=F.
   883 basis functions,   962 primitive gaussians,   962 cartesian basis functions
    21 alpha electrons       20 beta electrons
       nuclear repulsion energy       140.7045729388 Hartrees.
 IExCor= 3731 DFT=T Ex+Corr=APFD ExCW=0 ScaHFX=  0.229450
 ScaDFX=  1.000000  1.000000  1.000000  1.000000 ScalE2=  1.000000  1.000000
 IRadAn= 299974 IRanWt=     -1 IRanGd=            0 ICorTp=0 IEmpDi=211
 NAtoms=    5 NActive=    5 NUniq=    5 SFac= 1.00D+00 NAtFMM=   60 NAOKFM=F Big=F
 Integral buffers will be    131072 words long.
 Raffenetti 2 integral format.
 Two-electron integral symmetry is turned off.
 R6Disp:  Petersson-Frisch Dispersion energy=       -0.0008511655 Hartrees.
 Nuclear repulsion after empirical dispersion term =      140.7037217734 Hartrees.
 Leave Link  301 at Wed Aug 14 00:22:16 2013, MaxMem=  536870912 cpu:       0.0
 (Enter /share/apps/gaussian/gdvh12/gdv/l302.exe)
 NPDir=0 NMtPBC=     1 NCelOv=     1 NCel=       1 NClECP=     1 NCelD=      1
         NCelK=      1 NCelE2=     1 NClLst=     1 CellRange=     0.0.
 One-electron integrals computed using PRISM.
 NBasis=   883 RedAO= T EigKep=  1.23D-06  NBF=   883
 NBsUse=   870 1.00D-06 EigRej=  6.00D-07 NBFU=   870
 Precomputing XC quadrature grid using
 IXCGrd= 2 IRadAn=      299974 IRanWt=          -1 IRanGd=           0 AccXCQ= 0.00D+00.
 NRdTot=    1495 NPtTot=     1226266 NUsed=     1236809 NTot=     1236841
 NSgBfM=   571   571   571   571   571 NAtAll=     5     5.
 Leave Link  302 at Wed Aug 14 00:22:21 2013, MaxMem=  536870912 cpu:       8.3
 (Enter /share/apps/gaussian/gdvh12/gdv/l303.exe)
 DipDrv:  MaxL=1.
 Leave Link  303 at Wed Aug 14 00:22:22 2013, MaxMem=  536870912 cpu:       1.5
 (Enter /share/apps/gaussian/gdvh12/gdv/l401.exe)
 Initial guess from the checkpoint file:  CCCCCl.chk
 B after Tr=     0.000000    0.000008    0.000000
         Rot=    1.000000    0.000001    0.000000    0.000000 Ang=   0.00 deg.
 Guess basis will be translated and rotated to current coordinates.
 Initial guess <Sx>= 0.0000 <Sy>= 0.0000 <Sz>= 0.5000 <S**2>= 1.7868 S= 0.9272
 Leave Link  401 at Wed Aug 14 00:22:31 2013, MaxMem=  536870912 cpu:      15.5
 (Enter /share/apps/gaussian/gdvh12/gdv/l502.exe)
 UHF open shell SCF:
 Using DIIS extrapolation, IDIIS=  1040.
 Two-electron integral symmetry not used.
      1236751 words used for storage of precomputed grid.
 IVT=     4042783 IEndB=     4042783 NGot=   536870912 MDV=   533771176
 LenX=   533771176 LenY=   532844770
 Requested convergence on RMS density matrix=1.00D-08 within 128 cycles.
 Requested convergence on MAX density matrix=1.00D-06.
 Requested convergence on             energy=1.00D-06.
 No special actions if energy rises.
 Fock matrices will be formed incrementally for  20 cycles.

 Cycle   1  Pass 1  IDiag  1:
 FoFJK:  IHMeth= 1 ICntrl=       0 DoSepK=F KAlg= 0 I1Cent=   0 FoldK=F
 IRaf=       0 NMat=   1 IRICut=       1 DoRegI=T DoRafI=F ISym2E= 0.
 FoFCou: FMM=F IPFlag=           0 FMFlag=      100000 FMFlg1=           0
         NFxFlg=           0 DoJE=F BraDBF=F KetDBF=F FulRan=T
         wScrn=  0.000000 ICntrl=       0 IOpCl=  1 I1Cent=           0 NGrid=           0
         NMat0=    1 NMatS0=      1 NMatT0=    0 NMatD0=    1 NMtDS0=    0 NMtDT0=    0
 Symmetry not used in FoFCou.
 E=  16100907.5757609    
 DIIS: error= 8.89D+00 at cycle   1 NSaved=   1.
 NSaved= 1 IEnMin= 1 EnMin=  16100907.5757609     IErMin= 1 ErrMin= 8.89D+00
 ErrMax= 8.89D+00  0.00D+00 EMaxC= 1.00D-01 BMatC= 2.15D+05 BMatP= 2.15D+05
 IDIUse=3 WtCom= 0.00D+00 WtEn= 1.00D+00
 Coeff-Com:  0.100D+01
 Coeff-En:   0.100D+01
 Coeff:      0.100D+01
 Gap=    18.681 Goal=   None    Shift=    0.000
 Gap=    18.524 Goal=   None    Shift=    0.000
 RMSDP=1.34D-01 MaxDP=4.77D+01              OVMax= 9.99D-01

 Cycle   2  Pass 1  IDiag  1:
 RMSU=  2.87D-03    CP:  3.99D-04
 E= -602.413678126647     Delta-E=-16101509.989439060000 Rises=F Damp=F
 DIIS: error= 2.90D+00 at cycle   2 NSaved=   2.
 NSaved= 2 IEnMin= 2 EnMin= -602.413678126647     IErMin= 2 ErrMin= 2.90D+00
 ErrMax= 2.90D+00  0.00D+00 EMaxC= 1.00D-01 BMatC= 1.10D+03 BMatP= 2.15D+05
 IDIUse=3 WtCom= 0.00D+00 WtEn= 1.00D+00
 Coeff-Com:  0.101D-01 0.990D+00
 Coeff-En:   0.000D+00 0.100D+01
 Coeff:      0.000D+00 0.100D+01
 Gap=     2.170 Goal=   None    Shift=    0.000
 Gap=     2.104 Goal=   None    Shift=    0.000
 RMSDP=7.77D-03 MaxDP=1.53D+00 DE=-1.61D+07 OVMax= 1.00D+00

 Cycle   3  Pass 1  IDiag  1:
 RMSU=  7.52D-03    CP:  7.37D-04  1.68D+00
 E= -532.420791818474     Delta-E=       69.992886308173 Rises=F Damp=F
 DIIS: error= 3.09D-01 at cycle   3 NSaved=   3.
 NSaved= 3 IEnMin= 2 EnMin= -602.413678126647     IErMin= 3 ErrMin= 3.09D-01
 ErrMax= 3.09D-01  0.00D+00 EMaxC= 1.00D-01 BMatC= 2.93D+02 BMatP= 1.10D+03
 IDIUse=3 WtCom= 0.00D+00 WtEn= 1.00D+00
 Coeff-Com:  0.190D-02 0.239D+00 0.759D+00
 Coeff-En:   0.000D+00 0.827D+00 0.173D+00
 Coeff:      0.000D+00 0.827D+00 0.173D+00
 Gap=     0.026 Goal=   None    Shift=    0.000
 DSYEVD returned Info=      521510 IAlg= 4 N=   870 NDim=   870 NE2=      612464 trying DSYEV.
 Gap=     0.174 Goal=   None    Shift=    0.000
 DSYEVD returned Info=      616558 IAlg= 4 N=   870 NDim=   870 NE2=      612464 trying DSYEV.
 RMSDP=5.59D-03 MaxDP=1.17D+00 DE= 7.00D+01 OVMax= 9.96D-01

 Cycle   4  Pass 1  IDiag  1:
 RMSU=  4.36D-03    CP:  7.82D-04  1.72D+00  5.34D-01
 E= -605.388574277160     Delta-E=      -72.967782458686 Rises=F Damp=F
 DIIS: error= 1.76D-01 at cycle   4 NSaved=   4.
 NSaved= 4 IEnMin= 4 EnMin= -605.388574277160     IErMin= 4 ErrMin= 1.76D-01
 ErrMax= 1.76D-01  0.00D+00 EMaxC= 1.00D-01 BMatC= 2.24D+01 BMatP= 2.93D+02
 IDIUse=3 WtCom= 0.00D+00 WtEn= 1.00D+00
 Coeff-Com:  0.191D-03 0.594D-01-0.319D-01 0.972D+00
 Coeff-En:   0.000D+00 0.427D+00 0.000D+00 0.573D+00
 Coeff:      0.000D+00 0.427D+00 0.000D+00 0.573D+00
 Gap=     0.145 Goal=   None    Shift=    0.000
 DSYEVD returned Info=      569524 IAlg= 4 N=   870 NDim=   870 NE2=      612464 trying DSYEV.
 Gap=     0.050 Goal=   None    Shift=    0.000
 RMSDP=7.43D-03 MaxDP=1.58D+00 DE=-7.30D+01 OVMax= 9.92D-01

 Cycle   5  Pass 1  IDiag  1:
 RMSU=  1.89D-03    CP:  1.98D-04  3.79D-01 -2.45D-02 -4.89D-03
