 Entering Gaussian System, Link 0=gdv
 Initial command:
 /share/apps/gaussian/gdvh12/gdv/l1.exe /localscratch/12835/Gau-4626.inp -scrdir=/localscratch/12835/
 Entering Link 1 = /share/apps/gaussian/gdvh12/gdv/l1.exe PID=      4627.
  
 Copyright (c) 1988,1990,1992,1993,1995,1998,2003,2009,2011,
            Gaussian, Inc.  All Rights Reserved.
  
 This is the private, development version of
 the Gaussian(R) DV system of programs. It is based on
 the Gaussian(R) 09 system (copyright 2009, Gaussian, Inc.),
 the Gaussian(R) 03 system (copyright 2003, Gaussian, Inc.),
 the Gaussian(R) 98 system (copyright 1998, Gaussian, Inc.),
 the Gaussian(R) 94 system (copyright 1995, Gaussian, Inc.),
 the Gaussian 92(TM) system (copyright 1992, Gaussian, Inc.),
 the Gaussian 90(TM) system (copyright 1990, Gaussian, Inc.),
 the Gaussian 88(TM) system (copyright 1988, Gaussian, Inc.),
 the Gaussian 86(TM) system (copyright 1986, Carnegie Mellon
 University), and the Gaussian 82(TM) system (copyright 1983,
 Carnegie Mellon University). Gaussian is a federally registered
 trademark of Gaussian, Inc.
  
 This software contains proprietary and confidential information,
 including trade secrets, belonging to Gaussian, Inc.
  
 This software is provided under written license and may be
 used, copied, transmitted, or stored only in accord with that
 written license.
  
 The following legend is applicable only to US Government
 contracts under FAR:
  
                    RESTRICTED RIGHTS LEGEND
  
 Use, reproduction and disclosure by the US Government is
 subject to restrictions as set forth in subparagraphs (a)
 and (c) of the Commercial Computer Software - Restricted
 Rights clause in FAR 52.227-19.
  
 Gaussian, Inc.
 340 Quinnipiac St., Bldg. 40, Wallingford CT 06492
  
  
 ---------------------------------------------------------------
 Warning -- This program may not be used in any manner that
 competes with the business of Gaussian, Inc. or will provide
 assistance to any competitor of Gaussian, Inc.  The licensee
 of this program is prohibited from giving any competitor of
 Gaussian, Inc. access to this program.  By using this program,
 the user acknowledges that Gaussian, Inc. is engaged in the
 business of creating and licensing software in the field of
 computational chemistry and represents and warrants to the
 licensee that it is not a competitor of Gaussian, Inc. and that
 it will not use this program in any manner prohibited above.
 ---------------------------------------------------------------
  

 Cite this work as:
 Gaussian Development Version, Revision H.12,
 M. J. Frisch, G. W. Trucks, H. B. Schlegel, G. E. Scuseria, 
 M. A. Robb, J. R. Cheeseman, G. Scalmani, V. Barone, B. Mennucci, 
 G. A. Petersson, H. Nakatsuji, M. Caricato, X. Li, H. P. Hratchian, 
 A. F. Izmaylov, J. Bloino, G. Zheng, J. L. Sonnenberg, M. Hada, 
 M. Ehara, K. Toyota, R. Fukuda, J. Hasegawa, M. Ishida, T. Nakajima, 
 Y. Honda, O. Kitao, H. Nakai, T. Vreven, J. A. Montgomery, Jr., 
 J. E. Peralta, F. Ogliaro, M. Bearpark, J. J. Heyd, E. Brothers, 
 K. N. Kudin, V. N. Staroverov, T. Keith, R. Kobayashi, J. Normand, 
 K. Raghavachari, A. Rendell, J. C. Burant, S. S. Iyengar, J. Tomasi, 
 M. Cossi, N. Rega, J. M. Millam, M. Klene, J. E. Knox, J. B. Cross, 
 V. Bakken, C. Adamo, J. Jaramillo, R. Gomperts, R. E. Stratmann, 
 O. Yazyev, A. J. Austin, R. Cammi, C. Pomelli, J. W. Ochterski, 
 R. L. Martin, K. Morokuma, V. G. Zakrzewski, G. A. Voth, 
 P. Salvador, J. J. Dannenberg, S. Dapprich, P. V. Parandekar, 
 N. J. Mayhall, A. D. Daniels, O. Farkas, J. B. Foresman, 
 J. V. Ortiz, J. Cioslowski, and D. J. Fox, 
 Gaussian, Inc., Wallingford CT, 2010.
 
 ******************************************
 Gaussian DV:  EM64L-GDVRevH.12  9-Jun-2011
                27-Jul-2013 
 ******************************************
 %chk=CCCCl_bent.chk
 %mem=4gb
 %nproc=2
 Will use up to    2 processors via shared memory.
 ----------------------------------------------------------------------
 #p apfd/ugbs1p opt=tight freq=(vibrot,anharm) int=(acc2e=12,grid=29997
 4) test gfprint gfinput output=pickett
 ----------------------------------------------------------------------
 1/7=10,14=-1,18=20,19=15,26=1,38=1,80=1/1,3;
 2/9=110,12=2,17=6,18=5,40=1/2;
 3/5=23,7=7,11=2,16=1,24=110,25=1,30=1,71=1,74=-44,75=299974/1,2,3;
 4//1;
 5/5=2,38=5,87=12/2;
 6/7=2,8=2,9=2,10=2,28=1/1;
 7/87=12/1,2,3,16;
 1/7=10,14=-1,18=20,19=15,80=1/3(2);
 2/9=110/2;
 99/8=1100,10=1024/99;
 2/9=110/2;
 3/5=23,7=7,11=2,16=1,25=1,30=1,71=1,74=-44,75=299974/1,2,3;
 4/5=5,16=3,69=1/1;
 5/5=2,38=5,87=12/2;
 7/87=12/1,2,3,16;
 1/7=10,14=-1,18=20,19=15,80=1/3(-5);
 2/9=110/2;
 6/7=2,8=2,9=2,10=2,19=2,28=1/1;
 99/8=1100,9=1,10=1024/99;
 Leave Link    1 at Sat Jul 27 14:52:51 2013, MaxMem=  536870912 cpu:       0.2
 (Enter /share/apps/gaussian/gdvh12/gdv/l101.exe)
 ---------------------------------------
 CCCCl bent, coordinates from Endo paper
 ---------------------------------------
 Charge =  0 Multiplicity = 2
 Symbolic Z-Matrix:
 Cl
 C                    1    Rccl
 C                    2    Rcc1     1    Acccl
 C                    3    Rcc2     2    Accc     1    Dccccl   0
       Variables:
  Rccl                  1.645                    
  Rcc1                  1.283                    
  Rcc2                  1.308                    
  Acccl               143.3                      
  Accc                169.5                      
  Dccccl              180.                       
 
 NAtoms=      4 NQM=        0 NQMF=       0 NMMI=      4 NMMIF=      0
                NMic=       0 NMicF=      0.
                    Isotopes and Nuclear Properties:
 (Nuclear quadrupole moments (NQMom) in fm**2, nuclear magnetic moments (NMagM)
  in nuclear magnetons)

  Atom         1           2           3           4
 IAtWgt=          35          12          12          12
 AtmWgt=  34.9688527  12.0000000  12.0000000  12.0000000
 NucSpn=           3           0           0           0
 AtZEff=   0.0000000   0.0000000   0.0000000   0.0000000
 NQMom=   -8.1650000   0.0000000   0.0000000   0.0000000
 NMagM=    0.8218740   0.0000000   0.0000000   0.0000000
 AtZNuc=  17.0000000   6.0000000   6.0000000   6.0000000
 Leave Link  101 at Sat Jul 27 14:52:51 2013, MaxMem=  536870912 cpu:       0.7
 (Enter /share/apps/gaussian/gdvh12/gdv/l103.exe)

 GradGradGradGradGradGradGradGradGradGradGradGradGradGradGradGradGradGrad
 Berny optimization.
 Initialization pass.
                           ----------------------------
                           !    Initial Parameters    !
                           ! (Angstroms and Degrees)  !
 --------------------------                            --------------------------
 ! Name  Definition              Value          Derivative Info.                !
 --------------------------------------------------------------------------------
 ! R1    R(1,2)                  1.645          estimate D2E/DX2                !
 ! R2    R(2,3)                  1.283          estimate D2E/DX2                !
 ! R3    R(3,4)                  1.308          estimate D2E/DX2                !
 ! A1    A(1,2,3)              143.3            estimate D2E/DX2                !
 ! A2    L(2,3,4,1,-1)         190.5            estimate D2E/DX2                !
 ! A3    L(2,3,4,1,-2)         180.0            estimate D2E/DX2                !
 --------------------------------------------------------------------------------
 Trust Radius=3.00D-01 FncErr=1.00D-07 GrdErr=1.00D-07
 Number of steps in this run=     20 maximum allowed number of steps=    100.
 GradGradGradGradGradGradGradGradGradGradGradGradGradGradGradGradGradGrad

 Leave Link  103 at Sat Jul 27 14:52:51 2013, MaxMem=  536870912 cpu:       0.0
 (Enter /share/apps/gaussian/gdvh12/gdv/l202.exe)
                          Input orientation:                          
 ---------------------------------------------------------------------
 Center     Atomic      Atomic             Coordinates (Angstroms)
 Number     Number       Type             X           Y           Z
 ---------------------------------------------------------------------
      1         17           0        0.000000    0.000000    0.000000
      2          6           0        0.000000    0.000000    1.645000
      3          6           0        0.766753    0.000000    2.673678
      4          6           0        1.344243    0.000000    3.847292
 ---------------------------------------------------------------------
                    Distance matrix (angstroms):
                    1          2          3          4
     1  Cl   0.000000
     2  C    1.645000   0.000000
     3  C    2.781450   1.283000   0.000000
     4  C    4.075371   2.580132   1.308000   0.000000
 Stoichiometry    C3Cl(2)
 Framework group  CS[SG(C3Cl)]
 Deg. of freedom     5
 Full point group                 CS      NOp   2
 Largest Abelian subgroup         CS      NOp   2
 Largest concise Abelian subgroup C1      NOp   1
                         Standard orientation:                         
 ---------------------------------------------------------------------
 Center     Atomic      Atomic             Coordinates (Angstroms)
 Number     Number       Type             X           Y           Z
 ---------------------------------------------------------------------
      1         17           0       -1.361976   -0.485436    0.000000
      2          6           0        0.000000    0.437086    0.000000
      3          6           0        1.281691    0.379140    0.000000
      4          6           0        2.577241    0.559175    0.000000
 ---------------------------------------------------------------------
 Rotational constants (GHZ):    182.4935864      2.8472325      2.8034929
 Leave Link  202 at Sat Jul 27 14:52:51 2013, MaxMem=  536870912 cpu:       0.0
 (Enter /share/apps/gaussian/gdvh12/gdv/l301.exe)
 Standard basis: UGBS1P (5D, 7F)
 Ernie: Thresh=  0.10000D-02 Tol=  0.10000D-05 Strict=F.
 AO basis set in the form of general basis input (Overlap normalization):
      1 0
 S   1 1.00       0.000000000000
      0.2969784651D+07  0.1000000000D+01
 S   1 1.00       0.000000000000
      0.1516627989D+07  0.1000000000D+01
 S   1 1.00       0.000000000000
      0.7745209592D+06  0.1000000000D+01
 S   1 1.00       0.000000000000
      0.3955371526D+06  0.1000000000D+01
 S   1 1.00       0.000000000000
      0.2019953588D+06  0.1000000000D+01
 S   1 1.00       0.000000000000
      0.1031562389D+06  0.1000000000D+01
 S   1 1.00       0.000000000000
      0.5268046591D+05  0.1000000000D+01
 S   1 1.00       0.000000000000
      0.2690318607D+05  0.1000000000D+01
 S   1 1.00       0.000000000000
      0.1373908542D+05  0.1000000000D+01
 S   1 1.00       0.000000000000
      0.7016361094D+04  0.1000000000D+01
 S   1 1.00       0.000000000000
      0.3583158668D+04  0.1000000000D+01
 S   1 1.00       0.000000000000
      0.1829869625D+04  0.1000000000D+01
 S   1 1.00       0.000000000000
      0.9344891347D+03  0.1000000000D+01
 S   1 1.00       0.000000000000
      0.4772306896D+03  0.1000000000D+01
 S   1 1.00       0.000000000000
      0.2437151195D+03  0.1000000000D+01
 S   1 1.00       0.000000000000
      0.1244619442D+03  0.1000000000D+01
 S   1 1.00       0.000000000000
      0.6356099525D+02  0.1000000000D+01
 S   1 1.00       0.000000000000
      0.3245972208D+02  0.1000000000D+01
 S   1 1.00       0.000000000000
      0.1657673158D+02  0.1000000000D+01
 S   1 1.00       0.000000000000
      0.8465507783D+01  0.1000000000D+01
 S   1 1.00       0.000000000000
      0.4323217860D+01  0.1000000000D+01
 S   1 1.00       0.000000000000
      0.2207807629D+01  0.1000000000D+01
 S   1 1.00       0.000000000000
      0.1127496852D+01  0.1000000000D+01
 S   1 1.00       0.000000000000
      0.5757970639D+00  0.1000000000D+01
 S   1 1.00       0.000000000000
      0.2940516050D+00  0.1000000000D+01
 S   1 1.00       0.000000000000
      0.1501680918D+00  0.1000000000D+01
 S   1 1.00       0.000000000000
      0.7668876969D-01  0.1000000000D+01
 P   1 1.00       0.000000000000
      0.2969784651D+07  0.1000000000D+01
 P   1 1.00       0.000000000000
      0.1516627989D+07  0.1000000000D+01
 P   1 1.00       0.000000000000
      0.7745209592D+06  0.1000000000D+01
 P   1 1.00       0.000000000000
      0.3955371526D+06  0.1000000000D+01
 P   1 1.00       0.000000000000
      0.2019953588D+06  0.1000000000D+01
 P   1 1.00       0.000000000000
      0.1031562389D+06  0.1000000000D+01
 P   1 1.00       0.000000000000
      0.5268046591D+05  0.1000000000D+01
 P   1 1.00       0.000000000000
      0.2690318607D+05  0.1000000000D+01
 P   1 1.00       0.000000000000
      0.1373908542D+05  0.1000000000D+01
 P   1 1.00       0.000000000000
      0.7016361094D+04  0.1000000000D+01
 P   1 1.00       0.000000000000
      0.3583158668D+04  0.1000000000D+01
 P   1 1.00       0.000000000000
      0.1829869625D+04  0.1000000000D+01
 P   1 1.00       0.000000000000
      0.9344891347D+03  0.1000000000D+01
 P   1 1.00       0.000000000000
      0.4772306896D+03  0.1000000000D+01
 P   1 1.00       0.000000000000
      0.2437151195D+03  0.1000000000D+01
 P   1 1.00       0.000000000000
      0.1244619442D+03  0.1000000000D+01
 P   1 1.00       0.000000000000
      0.6356099525D+02  0.1000000000D+01
 P   1 1.00       0.000000000000
      0.3245972208D+02  0.1000000000D+01
 P   1 1.00       0.000000000000
      0.1657673158D+02  0.1000000000D+01
 P   1 1.00       0.000000000000
      0.8465507783D+01  0.1000000000D+01
 P   1 1.00       0.000000000000
      0.4323217860D+01  0.1000000000D+01
 P   1 1.00       0.000000000000
      0.2207807629D+01  0.1000000000D+01
 P   1 1.00       0.000000000000
      0.1127496852D+01  0.1000000000D+01
 P   1 1.00       0.000000000000
      0.5757970639D+00  0.1000000000D+01
 P   1 1.00       0.000000000000
      0.2940516050D+00  0.1000000000D+01
 P   1 1.00       0.000000000000
      0.1501680918D+00  0.1000000000D+01
 P   1 1.00       0.000000000000
      0.7668876969D-01  0.1000000000D+01
 D   1 1.00       0.000000000000
      0.1373908542D+05  0.1000000000D+01
 D   1 1.00       0.000000000000
      0.7016361094D+04  0.1000000000D+01
 D   1 1.00       0.000000000000
      0.3583158668D+04  0.1000000000D+01
 D   1 1.00       0.000000000000
      0.1829869625D+04  0.1000000000D+01
 D   1 1.00       0.000000000000
      0.9344891347D+03  0.1000000000D+01
 D   1 1.00       0.000000000000
      0.4772306896D+03  0.1000000000D+01
 D   1 1.00       0.000000000000
      0.2437151195D+03  0.1000000000D+01
 D   1 1.00       0.000000000000
      0.1244619442D+03  0.1000000000D+01
 D   1 1.00       0.000000000000
      0.6356099525D+02  0.1000000000D+01
 D   1 1.00       0.000000000000
      0.3245972208D+02  0.1000000000D+01
 D   1 1.00       0.000000000000
      0.1657673158D+02  0.1000000000D+01
 D   1 1.00       0.000000000000
      0.8465507783D+01  0.1000000000D+01
 D   1 1.00       0.000000000000
      0.4323217860D+01  0.1000000000D+01
 D   1 1.00       0.000000000000
      0.2207807629D+01  0.1000000000D+01
 D   1 1.00       0.000000000000
      0.1127496852D+01  0.1000000000D+01
 D   1 1.00       0.000000000000
      0.5757970639D+00  0.1000000000D+01
 D   1 1.00       0.000000000000
      0.2940516050D+00  0.1000000000D+01
 D   1 1.00       0.000000000000
      0.1501680918D+00  0.1000000000D+01
 D   1 1.00       0.000000000000
      0.7668876969D-01  0.1000000000D+01
 ****
      2 0
 S   1 1.00       0.000000000000
      0.2019953588D+06  0.1000000000D+01
 S   1 1.00       0.000000000000
      0.1031562389D+06  0.1000000000D+01
 S   1 1.00       0.000000000000
      0.5268046591D+05  0.1000000000D+01
 S   1 1.00       0.000000000000
      0.2690318607D+05  0.1000000000D+01
 S   1 1.00       0.000000000000
      0.1373908542D+05  0.1000000000D+01
 S   1 1.00       0.000000000000
      0.7016361094D+04  0.1000000000D+01
 S   1 1.00       0.000000000000
      0.3583158668D+04  0.1000000000D+01
 S   1 1.00       0.000000000000
      0.1829869625D+04  0.1000000000D+01
 S   1 1.00       0.000000000000
      0.9344891347D+03  0.1000000000D+01
 S   1 1.00       0.000000000000
      0.4772306896D+03  0.1000000000D+01
 S   1 1.00       0.000000000000
      0.2437151195D+03  0.1000000000D+01
 S   1 1.00       0.000000000000
      0.1244619442D+03  0.1000000000D+01
 S   1 1.00       0.000000000000
      0.6356099525D+02  0.1000000000D+01
 S   1 1.00       0.000000000000
      0.3245972208D+02  0.1000000000D+01
 S   1 1.00       0.000000000000
      0.1657673158D+02  0.1000000000D+01
 S   1 1.00       0.000000000000
      0.8465507783D+01  0.1000000000D+01
 S   1 1.00       0.000000000000
      0.4323217860D+01  0.1000000000D+01
 S   1 1.00       0.000000000000
      0.2207807629D+01  0.1000000000D+01
 S   1 1.00       0.000000000000
      0.1127496852D+01  0.1000000000D+01
 S   1 1.00       0.000000000000
      0.5757970639D+00  0.1000000000D+01
 S   1 1.00       0.000000000000
      0.2940516050D+00  0.1000000000D+01
 S   1 1.00       0.000000000000
      0.1501680918D+00  0.1000000000D+01
 S   1 1.00       0.000000000000
      0.7668876969D-01  0.1000000000D+01
 P   1 1.00       0.000000000000
      0.2019953588D+06  0.1000000000D+01
 P   1 1.00       0.000000000000
      0.1031562389D+06  0.1000000000D+01
 P   1 1.00       0.000000000000
      0.5268046591D+05  0.1000000000D+01
 P   1 1.00       0.000000000000
      0.2690318607D+05  0.1000000000D+01
 P   1 1.00       0.000000000000
      0.1373908542D+05  0.1000000000D+01
 P   1 1.00       0.000000000000
      0.7016361094D+04  0.1000000000D+01
 P   1 1.00       0.000000000000
      0.3583158668D+04  0.1000000000D+01
 P   1 1.00       0.000000000000
      0.1829869625D+04  0.1000000000D+01
 P   1 1.00       0.000000000000
      0.9344891347D+03  0.1000000000D+01
 P   1 1.00       0.000000000000
      0.4772306896D+03  0.1000000000D+01
 P   1 1.00       0.000000000000
      0.2437151195D+03  0.1000000000D+01
 P   1 1.00       0.000000000000
      0.1244619442D+03  0.1000000000D+01
 P   1 1.00       0.000000000000
      0.6356099525D+02  0.1000000000D+01
 P   1 1.00       0.000000000000
      0.3245972208D+02  0.1000000000D+01
 P   1 1.00       0.000000000000
      0.1657673158D+02  0.1000000000D+01
 P   1 1.00       0.000000000000
      0.8465507783D+01  0.1000000000D+01
 P   1 1.00       0.000000000000
      0.4323217860D+01  0.1000000000D+01
 P   1 1.00       0.000000000000
      0.2207807629D+01  0.1000000000D+01
 P   1 1.00       0.000000000000
      0.1127496852D+01  0.1000000000D+01
 P   1 1.00       0.000000000000
      0.5757970639D+00  0.1000000000D+01
 P   1 1.00       0.000000000000
      0.2940516050D+00  0.1000000000D+01
 P   1 1.00       0.000000000000
      0.1501680918D+00  0.1000000000D+01
 P   1 1.00       0.000000000000
      0.7668876969D-01  0.1000000000D+01
 P   1 1.00       0.000000000000
      0.3916389510D-01  0.1000000000D+01
 D   1 1.00       0.000000000000
      0.4772306896D+03  0.1000000000D+01
 D   1 1.00       0.000000000000
      0.2437151195D+03  0.1000000000D+01
 D   1 1.00       0.000000000000
      0.1244619442D+03  0.1000000000D+01
 D   1 1.00       0.000000000000
      0.6356099525D+02  0.1000000000D+01
 D   1 1.00       0.000000000000
      0.3245972208D+02  0.1000000000D+01
 D   1 1.00       0.000000000000
      0.1657673158D+02  0.1000000000D+01
 D   1 1.00       0.000000000000
      0.8465507783D+01  0.1000000000D+01
 D   1 1.00       0.000000000000
      0.4323217860D+01  0.1000000000D+01
 D   1 1.00       0.000000000000
      0.2207807629D+01  0.1000000000D+01
 D   1 1.00       0.000000000000
      0.1127496852D+01  0.1000000000D+01
 D   1 1.00       0.000000000000
      0.5757970639D+00  0.1000000000D+01
 D   1 1.00       0.000000000000
      0.2940516050D+00  0.1000000000D+01
 D   1 1.00       0.000000000000
      0.1501680918D+00  0.1000000000D+01
 D   1 1.00       0.000000000000
      0.7668876969D-01  0.1000000000D+01
 D   1 1.00       0.000000000000
      0.3916389510D-01  0.1000000000D+01
 ****
      3 0
 S   1 1.00       0.000000000000
      0.2019953588D+06  0.1000000000D+01
 S   1 1.00       0.000000000000
      0.1031562389D+06  0.1000000000D+01
 S   1 1.00       0.000000000000
      0.5268046591D+05  0.1000000000D+01
 S   1 1.00       0.000000000000
      0.2690318607D+05  0.1000000000D+01
 S   1 1.00       0.000000000000
      0.1373908542D+05  0.1000000000D+01
 S   1 1.00       0.000000000000
      0.7016361094D+04  0.1000000000D+01
 S   1 1.00       0.000000000000
      0.3583158668D+04  0.1000000000D+01
 S   1 1.00       0.000000000000
      0.1829869625D+04  0.1000000000D+01
 S   1 1.00       0.000000000000
      0.9344891347D+03  0.1000000000D+01
 S   1 1.00       0.000000000000
      0.4772306896D+03  0.1000000000D+01
 S   1 1.00       0.000000000000
      0.2437151195D+03  0.1000000000D+01
 S   1 1.00       0.000000000000
      0.1244619442D+03  0.1000000000D+01
 S   1 1.00       0.000000000000
      0.6356099525D+02  0.1000000000D+01
 S   1 1.00       0.000000000000
      0.3245972208D+02  0.1000000000D+01
 S   1 1.00       0.000000000000
      0.1657673158D+02  0.1000000000D+01
 S   1 1.00       0.000000000000
      0.8465507783D+01  0.1000000000D+01
 S   1 1.00       0.000000000000
      0.4323217860D+01  0.1000000000D+01
 S   1 1.00       0.000000000000
      0.2207807629D+01  0.1000000000D+01
 S   1 1.00       0.000000000000
      0.1127496852D+01  0.1000000000D+01
 S   1 1.00       0.000000000000
      0.5757970639D+00  0.1000000000D+01
 S   1 1.00       0.000000000000
      0.2940516050D+00  0.1000000000D+01
 S   1 1.00       0.000000000000
      0.1501680918D+00  0.1000000000D+01
 S   1 1.00       0.000000000000
      0.7668876969D-01  0.1000000000D+01
 P   1 1.00       0.000000000000
      0.2019953588D+06  0.1000000000D+01
 P   1 1.00       0.000000000000
      0.1031562389D+06  0.1000000000D+01
 P   1 1.00       0.000000000000
      0.5268046591D+05  0.1000000000D+01
 P   1 1.00       0.000000000000
      0.2690318607D+05  0.1000000000D+01
 P   1 1.00       0.000000000000
      0.1373908542D+05  0.1000000000D+01
 P   1 1.00       0.000000000000
      0.7016361094D+04  0.1000000000D+01
 P   1 1.00       0.000000000000
      0.3583158668D+04  0.1000000000D+01
 P   1 1.00       0.000000000000
      0.1829869625D+04  0.1000000000D+01
 P   1 1.00       0.000000000000
      0.9344891347D+03  0.1000000000D+01
 P   1 1.00       0.000000000000
      0.4772306896D+03  0.1000000000D+01
 P   1 1.00       0.000000000000
      0.2437151195D+03  0.1000000000D+01
 P   1 1.00       0.000000000000
      0.1244619442D+03  0.1000000000D+01
 P   1 1.00       0.000000000000
      0.6356099525D+02  0.1000000000D+01
 P   1 1.00       0.000000000000
      0.3245972208D+02  0.1000000000D+01
 P   1 1.00       0.000000000000
      0.1657673158D+02  0.1000000000D+01
 P   1 1.00       0.000000000000
      0.8465507783D+01  0.1000000000D+01
 P   1 1.00       0.000000000000
      0.4323217860D+01  0.1000000000D+01
 P   1 1.00       0.000000000000
      0.2207807629D+01  0.1000000000D+01
 P   1 1.00       0.000000000000
      0.1127496852D+01  0.1000000000D+01
 P   1 1.00       0.000000000000
      0.5757970639D+00  0.1000000000D+01
 P   1 1.00       0.000000000000
      0.2940516050D+00  0.1000000000D+01
 P   1 1.00       0.000000000000
      0.1501680918D+00  0.1000000000D+01
 P   1 1.00       0.000000000000
      0.7668876969D-01  0.1000000000D+01
 P   1 1.00       0.000000000000
      0.3916389510D-01  0.1000000000D+01
 D   1 1.00       0.000000000000
      0.4772306896D+03  0.1000000000D+01
 D   1 1.00       0.000000000000
      0.2437151195D+03  0.1000000000D+01
 D   1 1.00       0.000000000000
      0.1244619442D+03  0.1000000000D+01
 D   1 1.00       0.000000000000
      0.6356099525D+02  0.1000000000D+01
 D   1 1.00       0.000000000000
      0.3245972208D+02  0.1000000000D+01
 D   1 1.00       0.000000000000
      0.1657673158D+02  0.1000000000D+01
 D   1 1.00       0.000000000000
      0.8465507783D+01  0.1000000000D+01
 D   1 1.00       0.000000000000
      0.4323217860D+01  0.1000000000D+01
 D   1 1.00       0.000000000000
      0.2207807629D+01  0.1000000000D+01
 D   1 1.00       0.000000000000
      0.1127496852D+01  0.1000000000D+01
 D   1 1.00       0.000000000000
      0.5757970639D+00  0.1000000000D+01
 D   1 1.00       0.000000000000
      0.2940516050D+00  0.1000000000D+01
 D   1 1.00       0.000000000000
      0.1501680918D+00  0.1000000000D+01
 D   1 1.00       0.000000000000
      0.7668876969D-01  0.1000000000D+01
 D   1 1.00       0.000000000000
      0.3916389510D-01  0.1000000000D+01
 ****
      4 0
 S   1 1.00       0.000000000000
      0.2019953588D+06  0.1000000000D+01
 S   1 1.00       0.000000000000
      0.1031562389D+06  0.1000000000D+01
 S   1 1.00       0.000000000000
      0.5268046591D+05  0.1000000000D+01
 S   1 1.00       0.000000000000
      0.2690318607D+05  0.1000000000D+01
 S   1 1.00       0.000000000000
      0.1373908542D+05  0.1000000000D+01
 S   1 1.00       0.000000000000
      0.7016361094D+04  0.1000000000D+01
 S   1 1.00       0.000000000000
      0.3583158668D+04  0.1000000000D+01
 S   1 1.00       0.000000000000
      0.1829869625D+04  0.1000000000D+01
 S   1 1.00       0.000000000000
      0.9344891347D+03  0.1000000000D+01
 S   1 1.00       0.000000000000
      0.4772306896D+03  0.1000000000D+01
 S   1 1.00       0.000000000000
      0.2437151195D+03  0.1000000000D+01
 S   1 1.00       0.000000000000
      0.1244619442D+03  0.1000000000D+01
 S   1 1.00       0.000000000000
      0.6356099525D+02  0.1000000000D+01
 S   1 1.00       0.000000000000
      0.3245972208D+02  0.1000000000D+01
 S   1 1.00       0.000000000000
      0.1657673158D+02  0.1000000000D+01
 S   1 1.00       0.000000000000
      0.8465507783D+01  0.1000000000D+01
 S   1 1.00       0.000000000000
      0.4323217860D+01  0.1000000000D+01
 S   1 1.00       0.000000000000
      0.2207807629D+01  0.1000000000D+01
 S   1 1.00       0.000000000000
      0.1127496852D+01  0.1000000000D+01
 S   1 1.00       0.000000000000
      0.5757970639D+00  0.1000000000D+01
 S   1 1.00       0.000000000000
      0.2940516050D+00  0.1000000000D+01
 S   1 1.00       0.000000000000
      0.1501680918D+00  0.1000000000D+01
 S   1 1.00       0.000000000000
      0.7668876969D-01  0.1000000000D+01
 P   1 1.00       0.000000000000
      0.2019953588D+06  0.1000000000D+01
 P   1 1.00       0.000000000000
      0.1031562389D+06  0.1000000000D+01
 P   1 1.00       0.000000000000
      0.5268046591D+05  0.1000000000D+01
 P   1 1.00       0.000000000000
      0.2690318607D+05  0.1000000000D+01
 P   1 1.00       0.000000000000
      0.1373908542D+05  0.1000000000D+01
 P   1 1.00       0.000000000000
      0.7016361094D+04  0.1000000000D+01
 P   1 1.00       0.000000000000
      0.3583158668D+04  0.1000000000D+01
 P   1 1.00       0.000000000000
      0.1829869625D+04  0.1000000000D+01
 P   1 1.00       0.000000000000
      0.9344891347D+03  0.1000000000D+01
 P   1 1.00       0.000000000000
      0.4772306896D+03  0.1000000000D+01
 P   1 1.00       0.000000000000
      0.2437151195D+03  0.1000000000D+01
 P   1 1.00       0.000000000000
      0.1244619442D+03  0.1000000000D+01
 P   1 1.00       0.000000000000
      0.6356099525D+02  0.1000000000D+01
 P   1 1.00       0.000000000000
      0.3245972208D+02  0.1000000000D+01
 P   1 1.00       0.000000000000
      0.1657673158D+02  0.1000000000D+01
 P   1 1.00       0.000000000000
      0.8465507783D+01  0.1000000000D+01
 P   1 1.00       0.000000000000
      0.4323217860D+01  0.1000000000D+01
 P   1 1.00       0.000000000000
      0.2207807629D+01  0.1000000000D+01
 P   1 1.00       0.000000000000
      0.1127496852D+01  0.1000000000D+01
 P   1 1.00       0.000000000000
      0.5757970639D+00  0.1000000000D+01
 P   1 1.00       0.000000000000
      0.2940516050D+00  0.1000000000D+01
 P   1 1.00       0.000000000000
      0.1501680918D+00  0.1000000000D+01
 P   1 1.00       0.000000000000
      0.7668876969D-01  0.1000000000D+01
 P   1 1.00       0.000000000000
      0.3916389510D-01  0.1000000000D+01
 D   1 1.00       0.000000000000
      0.4772306896D+03  0.1000000000D+01
 D   1 1.00       0.000000000000
      0.2437151195D+03  0.1000000000D+01
 D   1 1.00       0.000000000000
      0.1244619442D+03  0.1000000000D+01
 D   1 1.00       0.000000000000
      0.6356099525D+02  0.1000000000D+01
 D   1 1.00       0.000000000000
      0.3245972208D+02  0.1000000000D+01
 D   1 1.00       0.000000000000
      0.1657673158D+02  0.1000000000D+01
 D   1 1.00       0.000000000000
      0.8465507783D+01  0.1000000000D+01
 D   1 1.00       0.000000000000
      0.4323217860D+01  0.1000000000D+01
 D   1 1.00       0.000000000000
      0.2207807629D+01  0.1000000000D+01
 D   1 1.00       0.000000000000
      0.1127496852D+01  0.1000000000D+01
 D   1 1.00       0.000000000000
      0.5757970639D+00  0.1000000000D+01
 D   1 1.00       0.000000000000
      0.2940516050D+00  0.1000000000D+01
 D   1 1.00       0.000000000000
      0.1501680918D+00  0.1000000000D+01
 D   1 1.00       0.000000000000
      0.7668876969D-01  0.1000000000D+01
 D   1 1.00       0.000000000000
      0.3916389510D-01  0.1000000000D+01
 ****

 AO basis set (Overlap normalization):
 Atom Cl1      Shell     1 S   1     bf    1 -     1         -2.573761771477         -0.917340232157          0.000000000000
      0.2969784651D+07  0.1000000000D+01
 Atom Cl1      Shell     2 S   1     bf    2 -     2         -2.573761771477         -0.917340232157          0.000000000000
      0.1516627989D+07  0.1000000000D+01
 Atom Cl1      Shell     3 S   1     bf    3 -     3         -2.573761771477         -0.917340232157          0.000000000000
      0.7745209592D+06  0.1000000000D+01
 Atom Cl1      Shell     4 S   1     bf    4 -     4         -2.573761771477         -0.917340232157          0.000000000000
      0.3955371526D+06  0.1000000000D+01
 Atom Cl1      Shell     5 S   1     bf    5 -     5         -2.573761771477         -0.917340232157          0.000000000000
      0.2019953588D+06  0.1000000000D+01
 Atom Cl1      Shell     6 S   1     bf    6 -     6         -2.573761771477         -0.917340232157          0.000000000000
      0.1031562389D+06  0.1000000000D+01
 Atom Cl1      Shell     7 S   1     bf    7 -     7         -2.573761771477         -0.917340232157          0.000000000000
      0.5268046591D+05  0.1000000000D+01
 Atom Cl1      Shell     8 S   1     bf    8 -     8         -2.573761771477         -0.917340232157          0.000000000000
      0.2690318607D+05  0.1000000000D+01
 Atom Cl1      Shell     9 S   1     bf    9 -     9         -2.573761771477         -0.917340232157          0.000000000000
      0.1373908542D+05  0.1000000000D+01
 Atom Cl1      Shell    10 S   1     bf   10 -    10         -2.573761771477         -0.917340232157          0.000000000000
      0.7016361094D+04  0.1000000000D+01
 Atom Cl1      Shell    11 S   1     bf   11 -    11         -2.573761771477         -0.917340232157          0.000000000000
      0.3583158668D+04  0.1000000000D+01
 Atom Cl1      Shell    12 S   1     bf   12 -    12         -2.573761771477         -0.917340232157          0.000000000000
      0.1829869625D+04  0.1000000000D+01
 Atom Cl1      Shell    13 S   1     bf   13 -    13         -2.573761771477         -0.917340232157          0.000000000000
      0.9344891347D+03  0.1000000000D+01
 Atom Cl1      Shell    14 S   1     bf   14 -    14         -2.573761771477         -0.917340232157          0.000000000000
      0.4772306896D+03  0.1000000000D+01
 Atom Cl1      Shell    15 S   1     bf   15 -    15         -2.573761771477         -0.917340232157          0.000000000000
      0.2437151195D+03  0.1000000000D+01
 Atom Cl1      Shell    16 S   1     bf   16 -    16         -2.573761771477         -0.917340232157          0.000000000000
      0.1244619442D+03  0.1000000000D+01
 Atom Cl1      Shell    17 S   1     bf   17 -    17         -2.573761771477         -0.917340232157          0.000000000000
      0.6356099525D+02  0.1000000000D+01
 Atom Cl1      Shell    18 S   1     bf   18 -    18         -2.573761771477         -0.917340232157          0.000000000000
      0.3245972208D+02  0.1000000000D+01
 Atom Cl1      Shell    19 S   1     bf   19 -    19         -2.573761771477         -0.917340232157          0.000000000000
      0.1657673158D+02  0.1000000000D+01
 Atom Cl1      Shell    20 S   1     bf   20 -    20         -2.573761771477         -0.917340232157          0.000000000000
      0.8465507783D+01  0.1000000000D+01
 Atom Cl1      Shell    21 S   1     bf   21 -    21         -2.573761771477         -0.917340232157          0.000000000000
      0.4323217860D+01  0.1000000000D+01
 Atom Cl1      Shell    22 S   1     bf   22 -    22         -2.573761771477         -0.917340232157          0.000000000000
      0.2207807629D+01  0.1000000000D+01
 Atom Cl1      Shell    23 S   1     bf   23 -    23         -2.573761771477         -0.917340232157          0.000000000000
      0.1127496852D+01  0.1000000000D+01
 Atom Cl1      Shell    24 S   1     bf   24 -    24         -2.573761771477         -0.917340232157          0.000000000000
      0.5757970639D+00  0.1000000000D+01
 Atom Cl1      Shell    25 S   1     bf   25 -    25         -2.573761771477         -0.917340232157          0.000000000000
      0.2940516050D+00  0.1000000000D+01
 Atom Cl1      Shell    26 S   1     bf   26 -    26         -2.573761771477         -0.917340232157          0.000000000000
      0.1501680918D+00  0.1000000000D+01
 Atom Cl1      Shell    27 S   1     bf   27 -    27         -2.573761771477         -0.917340232157          0.000000000000
      0.7668876969D-01  0.1000000000D+01
 Atom Cl1      Shell    28 P   1     bf   28 -    30         -2.573761771477         -0.917340232157          0.000000000000
      0.2969784651D+07  0.1000000000D+01
 Atom Cl1      Shell    29 P   1     bf   31 -    33         -2.573761771477         -0.917340232157          0.000000000000
      0.1516627989D+07  0.1000000000D+01
 Atom Cl1      Shell    30 P   1     bf   34 -    36         -2.573761771477         -0.917340232157          0.000000000000
      0.7745209592D+06  0.1000000000D+01
 Atom Cl1      Shell    31 P   1     bf   37 -    39         -2.573761771477         -0.917340232157          0.000000000000
      0.3955371526D+06  0.1000000000D+01
 Atom Cl1      Shell    32 P   1     bf   40 -    42         -2.573761771477         -0.917340232157          0.000000000000
      0.2019953588D+06  0.1000000000D+01
 Atom Cl1      Shell    33 P   1     bf   43 -    45         -2.573761771477         -0.917340232157          0.000000000000
      0.1031562389D+06  0.1000000000D+01
 Atom Cl1      Shell    34 P   1     bf   46 -    48         -2.573761771477         -0.917340232157          0.000000000000
      0.5268046591D+05  0.1000000000D+01
 Atom Cl1      Shell    35 P   1     bf   49 -    51         -2.573761771477         -0.917340232157          0.000000000000
      0.2690318607D+05  0.1000000000D+01
 Atom Cl1      Shell    36 P   1     bf   52 -    54         -2.573761771477         -0.917340232157          0.000000000000
      0.1373908542D+05  0.1000000000D+01
 Atom Cl1      Shell    37 P   1     bf   55 -    57         -2.573761771477         -0.917340232157          0.000000000000
      0.7016361094D+04  0.1000000000D+01
 Atom Cl1      Shell    38 P   1     bf   58 -    60         -2.573761771477         -0.917340232157          0.000000000000
      0.3583158668D+04  0.1000000000D+01
 Atom Cl1      Shell    39 P   1     bf   61 -    63         -2.573761771477         -0.917340232157          0.000000000000
      0.1829869625D+04  0.1000000000D+01
 Atom Cl1      Shell    40 P   1     bf   64 -    66         -2.573761771477         -0.917340232157          0.000000000000
      0.9344891347D+03  0.1000000000D+01
 Atom Cl1      Shell    41 P   1     bf   67 -    69         -2.573761771477         -0.917340232157          0.000000000000
      0.4772306896D+03  0.1000000000D+01
 Atom Cl1      Shell    42 P   1     bf   70 -    72         -2.573761771477         -0.917340232157          0.000000000000
      0.2437151195D+03  0.1000000000D+01
 Atom Cl1      Shell    43 P   1     bf   73 -    75         -2.573761771477         -0.917340232157          0.000000000000
      0.1244619442D+03  0.1000000000D+01
 Atom Cl1      Shell    44 P   1     bf   76 -    78         -2.573761771477         -0.917340232157          0.000000000000
      0.6356099525D+02  0.1000000000D+01
 Atom Cl1      Shell    45 P   1     bf   79 -    81         -2.573761771477         -0.917340232157          0.000000000000
      0.3245972208D+02  0.1000000000D+01
 Atom Cl1      Shell    46 P   1     bf   82 -    84         -2.573761771477         -0.917340232157          0.000000000000
      0.1657673158D+02  0.1000000000D+01
 Atom Cl1      Shell    47 P   1     bf   85 -    87         -2.573761771477         -0.917340232157          0.000000000000
      0.8465507783D+01  0.1000000000D+01
 Atom Cl1      Shell    48 P   1     bf   88 -    90         -2.573761771477         -0.917340232157          0.000000000000
      0.4323217860D+01  0.1000000000D+01
 Atom Cl1      Shell    49 P   1     bf   91 -    93         -2.573761771477         -0.917340232157          0.000000000000
      0.2207807629D+01  0.1000000000D+01
 Atom Cl1      Shell    50 P   1     bf   94 -    96         -2.573761771477         -0.917340232157          0.000000000000
      0.1127496852D+01  0.1000000000D+01
 Atom Cl1      Shell    51 P   1     bf   97 -    99         -2.573761771477         -0.917340232157          0.000000000000
      0.5757970639D+00  0.1000000000D+01
 Atom Cl1      Shell    52 P   1     bf  100 -   102         -2.573761771477         -0.917340232157          0.000000000000
      0.2940516050D+00  0.1000000000D+01
 Atom Cl1      Shell    53 P   1     bf  103 -   105         -2.573761771477         -0.917340232157          0.000000000000
      0.1501680918D+00  0.1000000000D+01
 Atom Cl1      Shell    54 P   1     bf  106 -   108         -2.573761771477         -0.917340232157          0.000000000000
      0.7668876969D-01  0.1000000000D+01
 Atom Cl1      Shell    55 D   1     bf  109 -   113         -2.573761771477         -0.917340232157          0.000000000000
      0.1373908542D+05  0.1000000000D+01
 Atom Cl1      Shell    56 D   1     bf  114 -   118         -2.573761771477         -0.917340232157          0.000000000000
      0.7016361094D+04  0.1000000000D+01
 Atom Cl1      Shell    57 D   1     bf  119 -   123         -2.573761771477         -0.917340232157          0.000000000000
      0.3583158668D+04  0.1000000000D+01
 Atom Cl1      Shell    58 D   1     bf  124 -   128         -2.573761771477         -0.917340232157          0.000000000000
      0.1829869625D+04  0.1000000000D+01
 Atom Cl1      Shell    59 D   1     bf  129 -   133         -2.573761771477         -0.917340232157          0.000000000000
      0.9344891347D+03  0.1000000000D+01
 Atom Cl1      Shell    60 D   1     bf  134 -   138         -2.573761771477         -0.917340232157          0.000000000000
      0.4772306896D+03  0.1000000000D+01
 Atom Cl1      Shell    61 D   1     bf  139 -   143         -2.573761771477         -0.917340232157          0.000000000000
      0.2437151195D+03  0.1000000000D+01
 Atom Cl1      Shell    62 D   1     bf  144 -   148         -2.573761771477         -0.917340232157          0.000000000000
      0.1244619442D+03  0.1000000000D+01
 Atom Cl1      Shell    63 D   1     bf  149 -   153         -2.573761771477         -0.917340232157          0.000000000000
      0.6356099525D+02  0.1000000000D+01
 Atom Cl1      Shell    64 D   1     bf  154 -   158         -2.573761771477         -0.917340232157          0.000000000000
      0.3245972208D+02  0.1000000000D+01
 Atom Cl1      Shell    65 D   1     bf  159 -   163         -2.573761771477         -0.917340232157          0.000000000000
      0.1657673158D+02  0.1000000000D+01
 Atom Cl1      Shell    66 D   1     bf  164 -   168         -2.573761771477         -0.917340232157          0.000000000000
      0.8465507783D+01  0.1000000000D+01
 Atom Cl1      Shell    67 D   1     bf  169 -   173         -2.573761771477         -0.917340232157          0.000000000000
      0.4323217860D+01  0.1000000000D+01
 Atom Cl1      Shell    68 D   1     bf  174 -   178         -2.573761771477         -0.917340232157          0.000000000000
      0.2207807629D+01  0.1000000000D+01
 Atom Cl1      Shell    69 D   1     bf  179 -   183         -2.573761771477         -0.917340232157          0.000000000000
      0.1127496852D+01  0.1000000000D+01
 Atom Cl1      Shell    70 D   1     bf  184 -   188         -2.573761771477         -0.917340232157          0.000000000000
      0.5757970639D+00  0.1000000000D+01
 Atom Cl1      Shell    71 D   1     bf  189 -   193         -2.573761771477         -0.917340232157          0.000000000000
      0.2940516050D+00  0.1000000000D+01
 Atom Cl1      Shell    72 D   1     bf  194 -   198         -2.573761771477         -0.917340232157          0.000000000000
      0.1501680918D+00  0.1000000000D+01
 Atom Cl1      Shell    73 D   1     bf  199 -   203         -2.573761771477         -0.917340232157          0.000000000000
      0.7668876969D-01  0.1000000000D+01
 Atom C2       Shell    74 S   1     bf  204 -   204          0.000000000000          0.825973028330          0.000000000000
      0.2019953588D+06  0.1000000000D+01
 Atom C2       Shell    75 S   1     bf  205 -   205          0.000000000000          0.825973028330          0.000000000000
      0.1031562389D+06  0.1000000000D+01
 Atom C2       Shell    76 S   1     bf  206 -   206          0.000000000000          0.825973028330          0.000000000000
      0.5268046591D+05  0.1000000000D+01
 Atom C2       Shell    77 S   1     bf  207 -   207          0.000000000000          0.825973028330          0.000000000000
      0.2690318607D+05  0.1000000000D+01
 Atom C2       Shell    78 S   1     bf  208 -   208          0.000000000000          0.825973028330          0.000000000000
      0.1373908542D+05  0.1000000000D+01
 Atom C2       Shell    79 S   1     bf  209 -   209          0.000000000000          0.825973028330          0.000000000000
      0.7016361094D+04  0.1000000000D+01
 Atom C2       Shell    80 S   1     bf  210 -   210          0.000000000000          0.825973028330          0.000000000000
      0.3583158668D+04  0.1000000000D+01
 Atom C2       Shell    81 S   1     bf  211 -   211          0.000000000000          0.825973028330          0.000000000000
      0.1829869625D+04  0.1000000000D+01
 Atom C2       Shell    82 S   1     bf  212 -   212          0.000000000000          0.825973028330          0.000000000000
      0.9344891347D+03  0.1000000000D+01
 Atom C2       Shell    83 S   1     bf  213 -   213          0.000000000000          0.825973028330          0.000000000000
      0.4772306896D+03  0.1000000000D+01
 Atom C2       Shell    84 S   1     bf  214 -   214          0.000000000000          0.825973028330          0.000000000000
      0.2437151195D+03  0.1000000000D+01
 Atom C2       Shell    85 S   1     bf  215 -   215          0.000000000000          0.825973028330          0.000000000000
      0.1244619442D+03  0.1000000000D+01
 Atom C2       Shell    86 S   1     bf  216 -   216          0.000000000000          0.825973028330          0.000000000000
      0.6356099525D+02  0.1000000000D+01
 Atom C2       Shell    87 S   1     bf  217 -   217          0.000000000000          0.825973028330          0.000000000000
      0.3245972208D+02  0.1000000000D+01
 Atom C2       Shell    88 S   1     bf  218 -   218          0.000000000000          0.825973028330          0.000000000000
      0.1657673158D+02  0.1000000000D+01
 Atom C2       Shell    89 S   1     bf  219 -   219          0.000000000000          0.825973028330          0.000000000000
      0.8465507783D+01  0.1000000000D+01
 Atom C2       Shell    90 S   1     bf  220 -   220          0.000000000000          0.825973028330          0.000000000000
      0.4323217860D+01  0.1000000000D+01
 Atom C2       Shell    91 S   1     bf  221 -   221          0.000000000000          0.825973028330          0.000000000000
      0.2207807629D+01  0.1000000000D+01
 Atom C2       Shell    92 S   1     bf  222 -   222          0.000000000000          0.825973028330          0.000000000000
      0.1127496852D+01  0.1000000000D+01
 Atom C2       Shell    93 S   1     bf  223 -   223          0.000000000000          0.825973028330          0.000000000000
      0.5757970639D+00  0.1000000000D+01
 Atom C2       Shell    94 S   1     bf  224 -   224          0.000000000000          0.825973028330          0.000000000000
      0.2940516050D+00  0.1000000000D+01
 Atom C2       Shell    95 S   1     bf  225 -   225          0.000000000000          0.825973028330          0.000000000000
      0.1501680918D+00  0.1000000000D+01
 Atom C2       Shell    96 S   1     bf  226 -   226          0.000000000000          0.825973028330          0.000000000000
      0.7668876969D-01  0.1000000000D+01
 Atom C2       Shell    97 P   1     bf  227 -   229          0.000000000000          0.825973028330          0.000000000000
      0.2019953588D+06  0.1000000000D+01
 Atom C2       Shell    98 P   1     bf  230 -   232          0.000000000000          0.825973028330          0.000000000000
      0.1031562389D+06  0.1000000000D+01
 Atom C2       Shell    99 P   1     bf  233 -   235          0.000000000000          0.825973028330          0.000000000000
      0.5268046591D+05  0.1000000000D+01
 Atom C2       Shell   100 P   1     bf  236 -   238          0.000000000000          0.825973028330          0.000000000000
      0.2690318607D+05  0.1000000000D+01
 Atom C2       Shell   101 P   1     bf  239 -   241          0.000000000000          0.825973028330          0.000000000000
      0.1373908542D+05  0.1000000000D+01
 Atom C2       Shell   102 P   1     bf  242 -   244          0.000000000000          0.825973028330          0.000000000000
      0.7016361094D+04  0.1000000000D+01
 Atom C2       Shell   103 P   1     bf  245 -   247          0.000000000000          0.825973028330          0.000000000000
      0.3583158668D+04  0.1000000000D+01
 Atom C2       Shell   104 P   1     bf  248 -   250          0.000000000000          0.825973028330          0.000000000000
      0.1829869625D+04  0.1000000000D+01
 Atom C2       Shell   105 P   1     bf  251 -   253          0.000000000000          0.825973028330          0.000000000000
      0.9344891347D+03  0.1000000000D+01
 Atom C2       Shell   106 P   1     bf  254 -   256          0.000000000000          0.825973028330          0.000000000000
      0.4772306896D+03  0.1000000000D+01
 Atom C2       Shell   107 P   1     bf  257 -   259          0.000000000000          0.825973028330          0.000000000000
      0.2437151195D+03  0.1000000000D+01
 Atom C2       Shell   108 P   1     bf  260 -   262          0.000000000000          0.825973028330          0.000000000000
      0.1244619442D+03  0.1000000000D+01
 Atom C2       Shell   109 P   1     bf  263 -   265          0.000000000000          0.825973028330          0.000000000000
      0.6356099525D+02  0.1000000000D+01
 Atom C2       Shell   110 P   1     bf  266 -   268          0.000000000000          0.825973028330          0.000000000000
      0.3245972208D+02  0.1000000000D+01
 Atom C2       Shell   111 P   1     bf  269 -   271          0.000000000000          0.825973028330          0.000000000000
      0.1657673158D+02  0.1000000000D+01
 Atom C2       Shell   112 P   1     bf  272 -   274          0.000000000000          0.825973028330          0.000000000000
      0.8465507783D+01  0.1000000000D+01
 Atom C2       Shell   113 P   1     bf  275 -   277          0.000000000000          0.825973028330          0.000000000000
      0.4323217860D+01  0.1000000000D+01
 Atom C2       Shell   114 P   1     bf  278 -   280          0.000000000000          0.825973028330          0.000000000000
      0.2207807629D+01  0.1000000000D+01
 Atom C2       Shell   115 P   1     bf  281 -   283          0.000000000000          0.825973028330          0.000000000000
      0.1127496852D+01  0.1000000000D+01
 Atom C2       Shell   116 P   1     bf  284 -   286          0.000000000000          0.825973028330          0.000000000000
      0.5757970639D+00  0.1000000000D+01
 Atom C2       Shell   117 P   1     bf  287 -   289          0.000000000000          0.825973028330          0.000000000000
      0.2940516050D+00  0.1000000000D+01
 Atom C2       Shell   118 P   1     bf  290 -   292          0.000000000000          0.825973028330          0.000000000000
      0.1501680918D+00  0.1000000000D+01
 Atom C2       Shell   119 P   1     bf  293 -   295          0.000000000000          0.825973028330          0.000000000000
      0.7668876969D-01  0.1000000000D+01
 Atom C2       Shell   120 P   1     bf  296 -   298          0.000000000000          0.825973028330          0.000000000000
      0.3916389510D-01  0.1000000000D+01
 Atom C2       Shell   121 D   1     bf  299 -   303          0.000000000000          0.825973028330          0.000000000000
      0.4772306896D+03  0.1000000000D+01
 Atom C2       Shell   122 D   1     bf  304 -   308          0.000000000000          0.825973028330          0.000000000000
      0.2437151195D+03  0.1000000000D+01
 Atom C2       Shell   123 D   1     bf  309 -   313          0.000000000000          0.825973028330          0.000000000000
      0.1244619442D+03  0.1000000000D+01
 Atom C2       Shell   124 D   1     bf  314 -   318          0.000000000000          0.825973028330          0.000000000000
      0.6356099525D+02  0.1000000000D+01
 Atom C2       Shell   125 D   1     bf  319 -   323          0.000000000000          0.825973028330          0.000000000000
      0.3245972208D+02  0.1000000000D+01
 Atom C2       Shell   126 D   1     bf  324 -   328          0.000000000000          0.825973028330          0.000000000000
      0.1657673158D+02  0.1000000000D+01
 Atom C2       Shell   127 D   1     bf  329 -   333          0.000000000000          0.825973028330          0.000000000000
      0.8465507783D+01  0.1000000000D+01
 Atom C2       Shell   128 D   1     bf  334 -   338          0.000000000000          0.825973028330          0.000000000000
      0.4323217860D+01  0.1000000000D+01
 Atom C2       Shell   129 D   1     bf  339 -   343          0.000000000000          0.825973028330          0.000000000000
      0.2207807629D+01  0.1000000000D+01
 Atom C2       Shell   130 D   1     bf  344 -   348          0.000000000000          0.825973028330          0.000000000000
      0.1127496852D+01  0.1000000000D+01
 Atom C2       Shell   131 D   1     bf  349 -   353          0.000000000000          0.825973028330          0.000000000000
      0.5757970639D+00  0.1000000000D+01
 Atom C2       Shell   132 D   1     bf  354 -   358          0.000000000000          0.825973028330          0.000000000000
      0.2940516050D+00  0.1000000000D+01
 Atom C2       Shell   133 D   1     bf  359 -   363          0.000000000000          0.825973028330          0.000000000000
      0.1501680918D+00  0.1000000000D+01
 Atom C2       Shell   134 D   1     bf  364 -   368          0.000000000000          0.825973028330          0.000000000000
      0.7668876969D-01  0.1000000000D+01
 Atom C2       Shell   135 D   1     bf  369 -   373          0.000000000000          0.825973028330          0.000000000000
      0.3916389510D-01  0.1000000000D+01
 Atom C3       Shell   136 S   1     bf  374 -   374          2.422044550085          0.716470620559          0.000000000000
      0.2019953588D+06  0.1000000000D+01
 Atom C3       Shell   137 S   1     bf  375 -   375          2.422044550085          0.716470620559          0.000000000000
      0.1031562389D+06  0.1000000000D+01
 Atom C3       Shell   138 S   1     bf  376 -   376          2.422044550085          0.716470620559          0.000000000000
      0.5268046591D+05  0.1000000000D+01
 Atom C3       Shell   139 S   1     bf  377 -   377          2.422044550085          0.716470620559          0.000000000000
      0.2690318607D+05  0.1000000000D+01
 Atom C3       Shell   140 S   1     bf  378 -   378          2.422044550085          0.716470620559          0.000000000000
      0.1373908542D+05  0.1000000000D+01
 Atom C3       Shell   141 S   1     bf  379 -   379          2.422044550085          0.716470620559          0.000000000000
      0.7016361094D+04  0.1000000000D+01
 Atom C3       Shell   142 S   1     bf  380 -   380          2.422044550085          0.716470620559          0.000000000000
      0.3583158668D+04  0.1000000000D+01
 Atom C3       Shell   143 S   1     bf  381 -   381          2.422044550085          0.716470620559          0.000000000000
      0.1829869625D+04  0.1000000000D+01
 Atom C3       Shell   144 S   1     bf  382 -   382          2.422044550085          0.716470620559          0.000000000000
      0.9344891347D+03  0.1000000000D+01
 Atom C3       Shell   145 S   1     bf  383 -   383          2.422044550085          0.716470620559          0.000000000000
      0.4772306896D+03  0.1000000000D+01
 Atom C3       Shell   146 S   1     bf  384 -   384          2.422044550085          0.716470620559          0.000000000000
      0.2437151195D+03  0.1000000000D+01
 Atom C3       Shell   147 S   1     bf  385 -   385          2.422044550085          0.716470620559          0.000000000000
      0.1244619442D+03  0.1000000000D+01
 Atom C3       Shell   148 S   1     bf  386 -   386          2.422044550085          0.716470620559          0.000000000000
      0.6356099525D+02  0.1000000000D+01
 Atom C3       Shell   149 S   1     bf  387 -   387          2.422044550085          0.716470620559          0.000000000000
      0.3245972208D+02  0.1000000000D+01
 Atom C3       Shell   150 S   1     bf  388 -   388          2.422044550085          0.716470620559          0.000000000000
      0.1657673158D+02  0.1000000000D+01
 Atom C3       Shell   151 S   1     bf  389 -   389          2.422044550085          0.716470620559          0.000000000000
      0.8465507783D+01  0.1000000000D+01
 Atom C3       Shell   152 S   1     bf  390 -   390          2.422044550085          0.716470620559          0.000000000000
      0.4323217860D+01  0.1000000000D+01
 Atom C3       Shell   153 S   1     bf  391 -   391          2.422044550085          0.716470620559          0.000000000000
      0.2207807629D+01  0.1000000000D+01
 Atom C3       Shell   154 S   1     bf  392 -   392          2.422044550085          0.716470620559          0.000000000000
      0.1127496852D+01  0.1000000000D+01
 Atom C3       Shell   155 S   1     bf  393 -   393          2.422044550085          0.716470620559          0.000000000000
      0.5757970639D+00  0.1000000000D+01
 Atom C3       Shell   156 S   1     bf  394 -   394          2.422044550085          0.716470620559          0.000000000000
      0.2940516050D+00  0.1000000000D+01
 Atom C3       Shell   157 S   1     bf  395 -   395          2.422044550085          0.716470620559          0.000000000000
      0.1501680918D+00  0.1000000000D+01
 Atom C3       Shell   158 S   1     bf  396 -   396          2.422044550085          0.716470620559          0.000000000000
      0.7668876969D-01  0.1000000000D+01
 Atom C3       Shell   159 P   1     bf  397 -   399          2.422044550085          0.716470620559          0.000000000000
      0.2019953588D+06  0.1000000000D+01
 Atom C3       Shell   160 P   1     bf  400 -   402          2.422044550085          0.716470620559          0.000000000000
      0.1031562389D+06  0.1000000000D+01
 Atom C3       Shell   161 P   1     bf  403 -   405          2.422044550085          0.716470620559          0.000000000000
      0.5268046591D+05  0.1000000000D+01
 Atom C3       Shell   162 P   1     bf  406 -   408          2.422044550085          0.716470620559          0.000000000000
      0.2690318607D+05  0.1000000000D+01
 Atom C3       Shell   163 P   1     bf  409 -   411          2.422044550085          0.716470620559          0.000000000000
      0.1373908542D+05  0.1000000000D+01
 Atom C3       Shell   164 P   1     bf  412 -   414          2.422044550085          0.716470620559          0.000000000000
      0.7016361094D+04  0.1000000000D+01
 Atom C3       Shell   165 P   1     bf  415 -   417          2.422044550085          0.716470620559          0.000000000000
      0.3583158668D+04  0.1000000000D+01
 Atom C3       Shell   166 P   1     bf  418 -   420          2.422044550085          0.716470620559          0.000000000000
      0.1829869625D+04  0.1000000000D+01
 Atom C3       Shell   167 P   1     bf  421 -   423          2.422044550085          0.716470620559          0.000000000000
      0.9344891347D+03  0.1000000000D+01
 Atom C3       Shell   168 P   1     bf  424 -   426          2.422044550085          0.716470620559          0.000000000000
      0.4772306896D+03  0.1000000000D+01
 Atom C3       Shell   169 P   1     bf  427 -   429          2.422044550085          0.716470620559          0.000000000000
      0.2437151195D+03  0.1000000000D+01
 Atom C3       Shell   170 P   1     bf  430 -   432          2.422044550085          0.716470620559          0.000000000000
      0.1244619442D+03  0.1000000000D+01
 Atom C3       Shell   171 P   1     bf  433 -   435          2.422044550085          0.716470620559          0.000000000000
      0.6356099525D+02  0.1000000000D+01
 Atom C3       Shell   172 P   1     bf  436 -   438          2.422044550085          0.716470620559          0.000000000000
      0.3245972208D+02  0.1000000000D+01
 Atom C3       Shell   173 P   1     bf  439 -   441          2.422044550085          0.716470620559          0.000000000000
      0.1657673158D+02  0.1000000000D+01
 Atom C3       Shell   174 P   1     bf  442 -   444          2.422044550085          0.716470620559          0.000000000000
      0.8465507783D+01  0.1000000000D+01
 Atom C3       Shell   175 P   1     bf  445 -   447          2.422044550085          0.716470620559          0.000000000000
      0.4323217860D+01  0.1000000000D+01
 Atom C3       Shell   176 P   1     bf  448 -   450          2.422044550085          0.716470620559          0.000000000000
      0.2207807629D+01  0.1000000000D+01
 Atom C3       Shell   177 P   1     bf  451 -   453          2.422044550085          0.716470620559          0.000000000000
      0.1127496852D+01  0.1000000000D+01
 Atom C3       Shell   178 P   1     bf  454 -   456          2.422044550085          0.716470620559          0.000000000000
      0.5757970639D+00  0.1000000000D+01
 Atom C3       Shell   179 P   1     bf  457 -   459          2.422044550085          0.716470620559          0.000000000000
      0.2940516050D+00  0.1000000000D+01
 Atom C3       Shell   180 P   1     bf  460 -   462          2.422044550085          0.716470620559          0.000000000000
      0.1501680918D+00  0.1000000000D+01
 Atom C3       Shell   181 P   1     bf  463 -   465          2.422044550085          0.716470620559          0.000000000000
      0.7668876969D-01  0.1000000000D+01
 Atom C3       Shell   182 P   1     bf  466 -   468          2.422044550085          0.716470620559          0.000000000000
      0.3916389510D-01  0.1000000000D+01
 Atom C3       Shell   183 D   1     bf  469 -   473          2.422044550085          0.716470620559          0.000000000000
      0.4772306896D+03  0.1000000000D+01
 Atom C3       Shell   184 D   1     bf  474 -   478          2.422044550085          0.716470620559          0.000000000000
      0.2437151195D+03  0.1000000000D+01
 Atom C3       Shell   185 D   1     bf  479 -   483          2.422044550085          0.716470620559          0.000000000000
      0.1244619442D+03  0.1000000000D+01
 Atom C3       Shell   186 D   1     bf  484 -   488          2.422044550085          0.716470620559          0.000000000000
      0.6356099525D+02  0.1000000000D+01
 Atom C3       Shell   187 D   1     bf  489 -   493          2.422044550085          0.716470620559          0.000000000000
      0.3245972208D+02  0.1000000000D+01
 Atom C3       Shell   188 D   1     bf  494 -   498          2.422044550085          0.716470620559          0.000000000000
      0.1657673158D+02  0.1000000000D+01
 Atom C3       Shell   189 D   1     bf  499 -   503          2.422044550085          0.716470620559          0.000000000000
      0.8465507783D+01  0.1000000000D+01
 Atom C3       Shell   190 D   1     bf  504 -   508          2.422044550085          0.716470620559          0.000000000000
      0.4323217860D+01  0.1000000000D+01
 Atom C3       Shell   191 D   1     bf  509 -   513          2.422044550085          0.716470620559          0.000000000000
      0.2207807629D+01  0.1000000000D+01
 Atom C3       Shell   192 D   1     bf  514 -   518          2.422044550085          0.716470620559          0.000000000000
      0.1127496852D+01  0.1000000000D+01
 Atom C3       Shell   193 D   1     bf  519 -   523          2.422044550085          0.716470620559          0.000000000000
      0.5757970639D+00  0.1000000000D+01
 Atom C3       Shell   194 D   1     bf  524 -   528          2.422044550085          0.716470620559          0.000000000000
      0.2940516050D+00  0.1000000000D+01
 Atom C3       Shell   195 D   1     bf  529 -   533          2.422044550085          0.716470620559          0.000000000000
      0.1501680918D+00  0.1000000000D+01
 Atom C3       Shell   196 D   1     bf  534 -   538          2.422044550085          0.716470620559          0.000000000000
      0.7668876969D-01  0.1000000000D+01
 Atom C3       Shell   197 D   1     bf  539 -   543          2.422044550085          0.716470620559          0.000000000000
      0.3916389510D-01  0.1000000000D+01
 Atom C4       Shell   198 S   1     bf  544 -   544          4.870280469099          1.056687008889          0.000000000000
      0.2019953588D+06  0.1000000000D+01
 Atom C4       Shell   199 S   1     bf  545 -   545          4.870280469099          1.056687008889          0.000000000000
      0.1031562389D+06  0.1000000000D+01
 Atom C4       Shell   200 S   1     bf  546 -   546          4.870280469099          1.056687008889          0.000000000000
      0.5268046591D+05  0.1000000000D+01
 Atom C4       Shell   201 S   1     bf  547 -   547          4.870280469099          1.056687008889          0.000000000000
      0.2690318607D+05  0.1000000000D+01
 Atom C4       Shell   202 S   1     bf  548 -   548          4.870280469099          1.056687008889          0.000000000000
      0.1373908542D+05  0.1000000000D+01
 Atom C4       Shell   203 S   1     bf  549 -   549          4.870280469099          1.056687008889          0.000000000000
      0.7016361094D+04  0.1000000000D+01
 Atom C4       Shell   204 S   1     bf  550 -   550          4.870280469099          1.056687008889          0.000000000000
      0.3583158668D+04  0.1000000000D+01
 Atom C4       Shell   205 S   1     bf  551 -   551          4.870280469099          1.056687008889          0.000000000000
      0.1829869625D+04  0.1000000000D+01
 Atom C4       Shell   206 S   1     bf  552 -   552          4.870280469099          1.056687008889          0.000000000000
      0.9344891347D+03  0.1000000000D+01
 Atom C4       Shell   207 S   1     bf  553 -   553          4.870280469099          1.056687008889          0.000000000000
      0.4772306896D+03  0.1000000000D+01
 Atom C4       Shell   208 S   1     bf  554 -   554          4.870280469099          1.056687008889          0.000000000000
      0.2437151195D+03  0.1000000000D+01
 Atom C4       Shell   209 S   1     bf  555 -   555          4.870280469099          1.056687008889          0.000000000000
      0.1244619442D+03  0.1000000000D+01
 Atom C4       Shell   210 S   1     bf  556 -   556          4.870280469099          1.056687008889          0.000000000000
      0.6356099525D+02  0.1000000000D+01
 Atom C4       Shell   211 S   1     bf  557 -   557          4.870280469099          1.056687008889          0.000000000000
      0.3245972208D+02  0.1000000000D+01
 Atom C4       Shell   212 S   1     bf  558 -   558          4.870280469099          1.056687008889          0.000000000000
      0.1657673158D+02  0.1000000000D+01
 Atom C4       Shell   213 S   1     bf  559 -   559          4.870280469099          1.056687008889          0.000000000000
      0.8465507783D+01  0.1000000000D+01
 Atom C4       Shell   214 S   1     bf  560 -   560          4.870280469099          1.056687008889          0.000000000000
      0.4323217860D+01  0.1000000000D+01
 Atom C4       Shell   215 S   1     bf  561 -   561          4.870280469099          1.056687008889          0.000000000000
      0.2207807629D+01  0.1000000000D+01
 Atom C4       Shell   216 S   1     bf  562 -   562          4.870280469099          1.056687008889          0.000000000000
      0.1127496852D+01  0.1000000000D+01
 Atom C4       Shell   217 S   1     bf  563 -   563          4.870280469099          1.056687008889          0.000000000000
      0.5757970639D+00  0.1000000000D+01
 Atom C4       Shell   218 S   1     bf  564 -   564          4.870280469099          1.056687008889          0.000000000000
      0.2940516050D+00  0.1000000000D+01
 Atom C4       Shell   219 S   1     bf  565 -   565          4.870280469099          1.056687008889          0.000000000000
      0.1501680918D+00  0.1000000000D+01
 Atom C4       Shell   220 S   1     bf  566 -   566          4.870280469099          1.056687008889          0.000000000000
      0.7668876969D-01  0.1000000000D+01
 Atom C4       Shell   221 P   1     bf  567 -   569          4.870280469099          1.056687008889          0.000000000000
      0.2019953588D+06  0.1000000000D+01
 Atom C4       Shell   222 P   1     bf  570 -   572          4.870280469099          1.056687008889          0.000000000000
      0.1031562389D+06  0.1000000000D+01
 Atom C4       Shell   223 P   1     bf  573 -   575          4.870280469099          1.056687008889          0.000000000000
      0.5268046591D+05  0.1000000000D+01
 Atom C4       Shell   224 P   1     bf  576 -   578          4.870280469099          1.056687008889          0.000000000000
      0.2690318607D+05  0.1000000000D+01
 Atom C4       Shell   225 P   1     bf  579 -   581          4.870280469099          1.056687008889          0.000000000000
      0.1373908542D+05  0.1000000000D+01
 Atom C4       Shell   226 P   1     bf  582 -   584          4.870280469099          1.056687008889          0.000000000000
      0.7016361094D+04  0.1000000000D+01
 Atom C4       Shell   227 P   1     bf  585 -   587          4.870280469099          1.056687008889          0.000000000000
      0.3583158668D+04  0.1000000000D+01
 Atom C4       Shell   228 P   1     bf  588 -   590          4.870280469099          1.056687008889          0.000000000000
      0.1829869625D+04  0.1000000000D+01
 Atom C4       Shell   229 P   1     bf  591 -   593          4.870280469099          1.056687008889          0.000000000000
      0.9344891347D+03  0.1000000000D+01
 Atom C4       Shell   230 P   1     bf  594 -   596          4.870280469099          1.056687008889          0.000000000000
      0.4772306896D+03  0.1000000000D+01
 Atom C4       Shell   231 P   1     bf  597 -   599          4.870280469099          1.056687008889          0.000000000000
      0.2437151195D+03  0.1000000000D+01
 Atom C4       Shell   232 P   1     bf  600 -   602          4.870280469099          1.056687008889          0.000000000000
      0.1244619442D+03  0.1000000000D+01
 Atom C4       Shell   233 P   1     bf  603 -   605          4.870280469099          1.056687008889          0.000000000000
      0.6356099525D+02  0.1000000000D+01
 Atom C4       Shell   234 P   1     bf  606 -   608          4.870280469099          1.056687008889          0.000000000000
      0.3245972208D+02  0.1000000000D+01
 Atom C4       Shell   235 P   1     bf  609 -   611          4.870280469099          1.056687008889          0.000000000000
      0.1657673158D+02  0.1000000000D+01
 Atom C4       Shell   236 P   1     bf  612 -   614          4.870280469099          1.056687008889          0.000000000000
      0.8465507783D+01  0.1000000000D+01
 Atom C4       Shell   237 P   1     bf  615 -   617          4.870280469099          1.056687008889          0.000000000000
      0.4323217860D+01  0.1000000000D+01
 Atom C4       Shell   238 P   1     bf  618 -   620          4.870280469099          1.056687008889          0.000000000000
      0.2207807629D+01  0.1000000000D+01
 Atom C4       Shell   239 P   1     bf  621 -   623          4.870280469099          1.056687008889          0.000000000000
      0.1127496852D+01  0.1000000000D+01
 Atom C4       Shell   240 P   1     bf  624 -   626          4.870280469099          1.056687008889          0.000000000000
      0.5757970639D+00  0.1000000000D+01
 Atom C4       Shell   241 P   1     bf  627 -   629          4.870280469099          1.056687008889          0.000000000000
      0.2940516050D+00  0.1000000000D+01
 Atom C4       Shell   242 P   1     bf  630 -   632          4.870280469099          1.056687008889          0.000000000000
      0.1501680918D+00  0.1000000000D+01
 Atom C4       Shell   243 P   1     bf  633 -   635          4.870280469099          1.056687008889          0.000000000000
      0.7668876969D-01  0.1000000000D+01
 Atom C4       Shell   244 P   1     bf  636 -   638          4.870280469099          1.056687008889          0.000000000000
      0.3916389510D-01  0.1000000000D+01
 Atom C4       Shell   245 D   1     bf  639 -   643          4.870280469099          1.056687008889          0.000000000000
      0.4772306896D+03  0.1000000000D+01
 Atom C4       Shell   246 D   1     bf  644 -   648          4.870280469099          1.056687008889          0.000000000000
      0.2437151195D+03  0.1000000000D+01
 Atom C4       Shell   247 D   1     bf  649 -   653          4.870280469099          1.056687008889          0.000000000000
      0.1244619442D+03  0.1000000000D+01
 Atom C4       Shell   248 D   1     bf  654 -   658          4.870280469099          1.056687008889          0.000000000000
      0.6356099525D+02  0.1000000000D+01
 Atom C4       Shell   249 D   1     bf  659 -   663          4.870280469099          1.056687008889          0.000000000000
      0.3245972208D+02  0.1000000000D+01
 Atom C4       Shell   250 D   1     bf  664 -   668          4.870280469099          1.056687008889          0.000000000000
      0.1657673158D+02  0.1000000000D+01
 Atom C4       Shell   251 D   1     bf  669 -   673          4.870280469099          1.056687008889          0.000000000000
      0.8465507783D+01  0.1000000000D+01
 Atom C4       Shell   252 D   1     bf  674 -   678          4.870280469099          1.056687008889          0.000000000000
      0.4323217860D+01  0.1000000000D+01
 Atom C4       Shell   253 D   1     bf  679 -   683          4.870280469099          1.056687008889          0.000000000000
      0.2207807629D+01  0.1000000000D+01
 Atom C4       Shell   254 D   1     bf  684 -   688          4.870280469099          1.056687008889          0.000000000000
      0.1127496852D+01  0.1000000000D+01
 Atom C4       Shell   255 D   1     bf  689 -   693          4.870280469099          1.056687008889          0.000000000000
      0.5757970639D+00  0.1000000000D+01
 Atom C4       Shell   256 D   1     bf  694 -   698          4.870280469099          1.056687008889          0.000000000000
      0.2940516050D+00  0.1000000000D+01
 Atom C4       Shell   257 D   1     bf  699 -   703          4.870280469099          1.056687008889          0.000000000000
      0.1501680918D+00  0.1000000000D+01
 Atom C4       Shell   258 D   1     bf  704 -   708          4.870280469099          1.056687008889          0.000000000000
      0.7668876969D-01  0.1000000000D+01
 Atom C4       Shell   259 D   1     bf  709 -   713          4.870280469099          1.056687008889          0.000000000000
      0.3916389510D-01  0.1000000000D+01
 There are   550 symmetry adapted cartesian basis functions of A'  symmetry.
 There are   227 symmetry adapted cartesian basis functions of A"  symmetry.
 There are   486 symmetry adapted basis functions of A'  symmetry.
 There are   227 symmetry adapted basis functions of A"  symmetry.
   713 basis functions,   777 primitive gaussians,   777 cartesian basis functions
    18 alpha electrons       17 beta electrons
       nuclear repulsion energy       102.2587036706 Hartrees.
 IExCor= 3731 DFT=T Ex+Corr=APFD ExCW=0 ScaHFX=  0.229450
 ScaDFX=  1.000000  1.000000  1.000000  1.000000 ScalE2=  1.000000  1.000000
 IRadAn= 299974 IRanWt=     -1 IRanGd=            0 ICorTp=0 IEmpDi=211
 NAtoms=    4 NActive=    4 NUniq=    4 SFac= 1.00D+00 NAtFMM=   60 NAOKFM=F Big=F
 Integral buffers will be    131072 words long.
 Raffenetti 2 integral format.
 Two-electron integral symmetry is turned on.
 R6Disp:  Petersson-Frisch Dispersion energy=       -0.0004534488 Hartrees.
 Nuclear repulsion after empirical dispersion term =      102.2582502218 Hartrees.
 Leave Link  301 at Sat Jul 27 14:52:51 2013, MaxMem=  536870912 cpu:       0.2
 (Enter /share/apps/gaussian/gdvh12/gdv/l302.exe)
 NPDir=0 NMtPBC=     1 NCelOv=     1 NCel=       1 NClECP=     1 NCelD=      1
         NCelK=      1 NCelE2=     1 NClLst=     1 CellRange=     0.0.
 One-electron integrals computed using PRISM.
 NBasis=   713 RedAO= T EigKep=  1.37D-06  NBF=   486   227
 NBsUse=   711 1.00D-06 EigRej=  1.73D-07 NBFU=   484   227
 Precomputing XC quadrature grid using
 IXCGrd= 2 IRadAn=      299974 IRanWt=          -1 IRanGd=           0 AccXCQ= 0.00D+00.
 NRdTot=    1196 NPtTot=      974974 NUsed=      983411 NTot=      983443
 NSgBfM=   506   506   506   506   506 NAtAll=     4     4.
 Leave Link  302 at Sat Jul 27 14:52:53 2013, MaxMem=  536870912 cpu:       4.0
 (Enter /share/apps/gaussian/gdvh12/gdv/l303.exe)
 DipDrv:  MaxL=1.
 Leave Link  303 at Sat Jul 27 14:52:54 2013, MaxMem=  536870912 cpu:       0.5
 (Enter /share/apps/gaussian/gdvh12/gdv/l401.exe)
 ExpMin= 3.92D-02 ExpMax= 2.97D+06 ExpMxC= 2.97D+06 IAcc=4 IRadAn=    299974 AccDes= 0.00D+00
 Harris functional with IExCor= 3731 and IRadAn=  299974 diagonalized for initial guess.
 HarFok:  IExCor= 3731 AccDes= 0.00D+00 IRadAn=    299974 IDoV= 1 UseB2=F ITyADJ=14
 ICtDFT=  3500011 ScaDFX=  1.000000  1.000000  1.000000  1.000000
 FoFCou: FMM=F IPFlag=           0 FMFlag=      100000 FMFlg1=           0
         NFxFlg=           0 DoJE=T BraDBF=F KetDBF=T FulRan=T
         wScrn=  0.000000 ICntrl=     500 IOpCl=  0 I1Cent=   200000004 NGrid=           0
         NMat0=    1 NMatS0=      1 NMatT0=    0 NMatD0=    1 NMtDS0=    0 NMtDT0=    0
 Petite list used in FoFCou.
 Harris En= -564.453660140770    
 Initial guess orbital symmetries:
 Alpha Orbitals:
       Occupied  (A') (A') (A') (A') (A') (A') (A') (A") (A') (A')
                 (A') (A') (A") (A') (A') (A") (A') (A')
       Virtual   (A") (A') (A') (A') (A") (A') (A') (A") (A') (A")
                 (A') (A') (A") (A') (A") (A') (A") (A') (A') (A")
                 (A') (A") (A') (A') (A') (A') (A") (A') (A") (A')
                 (A") (A') (A') (A") (A") (A') (A') (A') (A") (A')
                 (A") (A') (A") (A') (A') (A') (A') (A") (A') (A")
                 (A') (A") (A') (A") (A') (A') (A') (A") (A') (A")
                 (A') (A') (A") (A') (A') (A") (A") (A') (A') (A')
                 (A') (A") (A') (A") (A') (A') (A") (A') (A") (A')
                 (A') (A") (A') (A") (A') (A') (A') (A") (A') (A')
                 (A") (A') (A") (A') (A') (A') (A") (A') (A") (A')
                 (A') (A") (A') (A') (A') (A") (A') (A') (A') (A")
                 (A") (A') (A') (A") (A') (A') (A') (A") (A") (A')
                 (A') (A') (A") (A') (A') (A") (A") (A') (A') (A")
                 (A') (A") (A') (A') (A') (A') (A') (A') (A") (A')
                 (A') (A") (A') (A') (A") (A") (A') (A") (A') (A')
                 (A') (A') (A') (A") (A') (A') (A") (A') (A") (A')
                 (A") (A') (A") (A') (A") (A') (A') (A') (A') (A')
                 (A") (A') (A') (A') (A") (A') (A') (A") (A') (A')
                 (A") (A") (A') (A') (A") (A') (A") (A') (A') (A')
                 (A') (A') (A') (A") (A') (A") (A') (A") (A') (A")
                 (A') (A") (A') (A') (A') (A') (A") (A') (A') (A")
                 (A') (A") (A') (A') (A") (A") (A') (A') (A') (A")
                 (A') (A") (A') (A') (A') (A') (A') (A') (A") (A')
                 (A') (A") (A') (A") (A') (A") (A') (A") (A') (A')
                 (A') (A') (A") (A') (A") (A') (A") (A') (A") (A')
                 (A') (A") (A') (A") (A') (A') (A') (A") (A') (A')
                 (A') (A') (A') (A') (A") (A') (A") (A') (A") (A')
                 (A') (A') (A") (A') (A") (A') (A') (A') (A") (A')
                 (A") (A') (A") (A') (A") (A') (A") (A') (A') (A")
                 (A') (A') (A') (A") (A') (A') (A') (A') (A') (A")
                 (A') (A") (A') (A") (A') (A') (A') (A') (A") (A')
                 (A") (A') (A') (A') (A") (A') (A") (A') (A") (A')
                 (A") (A') (A") (A') (A') (A") (A') (A') (A') (A')
                 (A') (A') (A") (A') (A') (A") (A') (A") (A') (A")
                 (A') (A') (A') (A') (A") (A') (A") (A') (A') (A')
                 (A") (A') (A") (A') (A") (A') (A") (A') (A") (A')
                 (A') (A") (A') (A') (A') (A') (A') (A') (A") (A')
                 (A') (A") (A') (A") (A') (A") (A') (A') (A') (A')
                 (A") (A') (A") (A') (A') (A") (A') (A") (A') (A")
                 (A') (A") (A') (A") (A') (A') (A") (A') (A') (A')
                 (A') (A') (A') (A') (A") (A') (A') (A") (A') (A")
                 (A') (A") (A') (A') (A') (A') (A") (A') (A") (A')
                 (A') (A") (A') (A") (A') (A") (A') (A") (A') (A")
                 (A') (A') (A") (A') (A') (A') (A') (A') (A') (A')
                 (A") (A') (A') (A") (A') (A") (A') (A") (A') (A')
                 (A') (A') (A") (A') (A") (A') (A') (A") (A') (A")
                 (A') (A") (A') (A") (A') (A") (A') (A') (A") (A')
                 (A') (A') (A') (A') (A') (A') (A") (A') (A') (A")
                 (A') (A") (A') (A") (A') (A') (A') (A') (A") (A')
                 (A") (A') (A') (A") (A') (A") (A') (A") (A') (A")
                 (A') (A") (A') (A') (A") (A') (A') (A') (A') (A')
                 (A') (A') (A") (A') (A') (A") (A') (A") (A') (A")
                 (A') (A') (A') (A') (A") (A') (A") (A') (A') (A')
                 (A') (A') (A') (A") (A') (A') (A") (A') (A") (A')
                 (A") (A') (A') (A') (A') (A") (A') (A") (A') (A')
                 (A') (A') (A') (A') (A") (A') (A') (A") (A') (A")
                 (A') (A") (A') (A') (A') (A') (A") (A') (A") (A')
                 (A') (A') (A') (A') (A') (A") (A') (A') (A") (A')
                 (A") (A') (A") (A') (A') (A') (A') (A") (A') (A")
                 (A') (A') (A') (A') (A') (A') (A") (A') (A') (A")
                 (A') (A") (A') (A") (A') (A') (A') (A') (A") (A')
                 (A") (A') (A') (A') (A') (A') (A') (A") (A') (A')
                 (A") (A') (A") (A') (A") (A') (A') (A') (A') (A')
                 (A') (A') (A') (A") (A') (A') (A") (A') (A") (A')
                 (A") (A') (A') (A') (A') (A') (A') (A') (A') (A")
                 (A') (A') (A") (A') (A") (A') (A") (A') (A') (A')
                 (A') (A') (A") (A') (A') (A') (A') (A') (A") (A')
                 (A") (A') (A") (A') (A') (A') (A') (A') (A") (A')
                 (A') (A') (A") (A') (A') (A') (A") (A') (A') (A')
                 (A") (A') (A')
 Beta  Orbitals:
       Occupied  (A') (A') (A') (A') (A') (A') (A') (A") (A') (A')
[...]
    PHI NK =    0.7475474042D-05      H NK =    0.4882830095D-05
    PHI KN =    0.8405706432D-03      H KN =    0.8492156247D-03
    phi N  =   -0.1394242533D-09      h 1  =   -0.1572928105D-09
    phi K  =    0.1043129289D-01      h 2  =    0.9450067499D-10
    phi NK =    0.3500523777D-05      h 3  =    0.1786855714D-10

 Atoms with significant hyperfine tensors:  Cl1-35

--------------------------------------------------------------------------------
 CCCCl bent, coordinates from Endo paper                 
   99  1000  50  0.1760E-11  0.1000E+07  0.1000E+01 1.0000000000
a 42  1  0  0  0  1  1   1  0  1  0
     10000   0.19374121E+06    0.0000E+00   /  A  /
     20000   0.28764141E+04    0.0000E+00   /  B  /
     30000   0.28343337E+04    0.0000E+00   /  C  /
       200  -0.51948796E-03    0.0000E+00   /  -DELTA N  /
      2000  -0.28878986E+03    0.0000E+00   /  -DELTA K  /
      1100  -0.44830463E+00    0.0000E+00   /  -DELTA NK  /
     40100  -0.22661517E-04    0.0000E+00   /  -delta N  /
     41000  -0.36591765E+00    0.0000E+00   /  -delta K  /
 120010000  -0.31860206E+02    0.0000E+00   /  (1 Cl-35) 3/2*T_aa              /
 120040000   0.15330136E+02    0.0000E+00   /  (1 Cl-35) 1/4*(T_bb - T_cc)     /
 120610000   0.21690604E+02    0.0000E+00   /  (1 Cl-35) T_ab                  /
 120000000   0.27577518E+02    0.0000E+00   /  (1 Cl-35) b_f                   /
 220010000  -0.84658075E+02    0.0000E+00   /  (1 Cl-35) 3/2*Chi_aa            /
 220040000   0.23077792E+01    0.0000E+00   /  (1 Cl-35) 1/4*(Chi_bb-Chi_cc)   /
 220610000  -0.35852894E+02    0.0000E+00   /  (1 Cl-35) Chi_ab                /
--------------------------------------------------------------------------------

 Operation on file out of range.
 FileIO: IOper= 2 IFilNo(1)=  -524 Len=      506943 IPos=           0 Q=   46912497311704


 dumping /fiocom/, unit = 1 NFiles =   105 SizExt =    524288 WInBlk =       512
                   defal = T LstWrd =    83690496 FType=2 FMxFil=10000

 Number              0             0             0             0             0             0
 Base          5788238      25712028       5792256       4961792      26218496      26221056
 End           5788672      25712128       5792768       4964352      26219520      26221568
 End1          5788672      25712128       5792768       4964352      26219520      26221568
 Wr Pntr       5788238      25712028       5792256       4961792      26218496      26221056
 Rd Pntr       5788238      25712028       5792256       4961792      26218496      26221056
 Length            434           100           512          2560          1024           512

 Number              0             0             0             0             0             0
 Base           199680        183808       4978176       4511744       4956672       2756608
 End            205824        184320       5022208       4513280       4957184       2759680
 End1           205824        184320       5022208       4513280       4957184       2759680
 Wr Pntr        199680        183808       4978176       4511744       4956672       2756608
 Rd Pntr        199680        183808       4978176       4511744       4956672       2756608
 Length           6144           512         44032          1536           512          3072

 Number              0             0             0             0             0             0
 Base          9343488        206848       6805504       4770816      44032512        213504
 End          22657536        209408       7054336       4956160      57020416        214528
 End1         22657536        209408       7054336       4956160      57020416        214528
 Wr Pntr       9343488        206848       6805504       4770816      44032512        213504
 Rd Pntr       9343488        206848       6805504       4770816      44032512        213504
 Length       13314048          2560        248832        185344      12987904          1024

 Number              0             0           501           502           503           508
 Base           182272      58038784         43520         72192        181248        214528
 End            182784      83690496         44520         77366        181269        214558
 End1           182784      83690496         44544         77824        181760        215040
 Wr Pntr        182272      58038784         43520         72192        181248        214528
 Rd Pntr        182272      58038784         44520         77366        181269        214558
 Length            512      25651712          1000          5174            21            30

 Number            511           514           515           516           517           518
 Base           184832       1997312        978944        215040       4507136       3743232
 End            184862       2251853       1997108        978663       4509988       4506855
 End1           185344       2252288       1997312        978944       4510208       4507136
 Wr Pntr        184832       1997312        978944        215040       4507136       3743232
 Rd Pntr        184862       1997312        978944        215040       4507136       3743232
 Length             30        254541       1018164        763623          2852        763623

 Number            520           521           522           523           524           526
 Base           212992        194560      26219520       4510208       5792768       6299136
 End            213002        194595      26220940       4511630       6298998       6805366
 End1           213504        195072      26221056       4511744       6299136       6805504
 Wr Pntr        212992        194560      26219520       4510208       5792768       6299136
 Rd Pntr        213002        194595      26220940       4510208       5792768       6805366
 Length             10            35          1420          1422        506230        506230

 Number            528           530           532           534           536           538
 Base          7054336       7309312       7566336       5532160       5022208       5277184
 End           7308877       7563853       7820877       5786701       5276749       5531725
 End1          7309312       7564288       7821312       5787136       5277184       5532160
 Wr Pntr       7054336       7309312       7566336       5532160       5022208       5277184
 Rd Pntr       7054336       7309312       7566336       5532160       5276749       5531725
 Length         254541        254541        254541        254541        254541        254541

 Number            540           545           547           548           549           551
 Base          2252288       5787648       4967424       7821312      35127808        183296
 End           2756388       5787676       4968844       8833772      35631908        183334
 End1          2756608       5788160       4968960       8834048      35632128        183808
 Wr Pntr       2252288       5787648       4967424       7821312      35127808        183296
 Rd Pntr       2252288       5787676       4967424       8833772      35127808        183334
 Length         504100            28          1420       1012460        504100            38

 Number            552           559           561           562           563           564
 Base           192000        205824        193024        185856       7564288       7565312
 End            192026        205826        193025        191952       7565001       7566025
 End1           192512        206336        193536        192000       7565312       7566336
 Wr Pntr        192000        205824        193024        185856       7564288       7565312
 Rd Pntr        192026        205824        193025        191952       7564288       7565312
 Length             26             2             1          6096           713           713

 Number            565           569           571           575           577           579
 Base           209920       5787136       4513280        184320        209408        192512
 End            210438       5787138       4767821        184546        209460        192520
 End1           210944       5787648       4768256        184832        209920        193024
 Wr Pntr        209920       5787136       4513280        184320        209408        192512
 Rd Pntr        209920       5787138       4513280        184546        209408        192512
 Length            518             2        254541           226            52             8

 Number            580           581           582           583           584           585
 Base          4958208       4959744       4768256        206336        210944       5788160
 End           4959698       4961306       4770395        206341        210968       5788238
 End1          4959744       4961792       4770816        206848        211456       5788238
 Wr Pntr       4958208       4959744       4768256        206336        210944       5788160
 Rd Pntr       4958208       4959744       4768256        206336        210956       5788238
 Length           1490          1562          2139             5            24            78

 Number            586           588           590           592           593           598
 Base         26221568      35632128      36396032      22657536      24184782         77824
 End          35127311      36395751      44032262      24184782      25712028         77826
 End1         35127808      36396032      44032512      24184782      25712028         78336
 Wr Pntr      26221568      35632128      36396032      22657536      24184782         77824
 Rd Pntr      26221568      35632128      36396032      22657536      24184782         77826
 Length        8905743        763623       7636230       1527246       1527246             2

 Number            603           605           606           607           618           619
 Base          8834048       5789184       4964352       4965888       5789696        211456
 End           9343131       5789189       4965772       4967308       5790632        212085
 End1          9343488       5789696       4965888       4967424       5790720        212480
 Wr Pntr       8834048       5789184       4964352       4965888       5789696        211456
 Rd Pntr       9343131       5789189       4964352       4967308       5790632        211460
 Length         509083             5          1420          1420           936           629

 Number            634           665           670           674           685           694
 Base         57020416        181760        195072        182784      25712128       4968960
 End          58038762        181818        199376        182852      26218358       4970380
 End1         58038784        182272        199680        183296      26218496       4970496
 Wr Pntr      57020416        181760        195072        182784      25712128       4968960
 Rd Pntr      57020416        181818        199376        182852      25712128       4970380
 Length        1018346            58          4304            68        506230          1420

 Number            695           698           701           703           719           742
 Base           212480        194048        185344       4957184       5790720       2759680
 End            212632        194072        185405       4957209       5792218       3743123
 End1           212992        194560        185856       4957696       5792256       3743232
 Wr Pntr        212480        194048        185344       4957184       5790720       2759680
 Rd Pntr        212632        194072        185405       4957209       5790720       2759680
 Length            152            24            61            25          1498        983443

 Number            761           765           773           776           777           989
 Base           193536       5788672       4957696       4956160       4970496         44544
 End            193537       5788835       4957907       4956239       4978034         64544
 End1           194048       5789184       4958208       4956672       4978176         65024
 Wr Pntr        193536       5788672       4957696       4956160       4970496         44544
 Rd Pntr        193536       5788835       4957696       4956239       4978034         64544
 Length              1           163           211            79          7538         20000

 Number            991           992           993           994           995           996
 Base            65536         65024         43008         40448         42496         41472
 End             72098         65033         43208         40478         42516         41672
 End1            72192         65536         43520         40960         43008         41984
 Wr Pntr         65536         65024         43208         40448         42496         41472
 Rd Pntr         72098         65033         43208         40478         42516         41672
 Length           6562             9           200            30            20           200

 Number            997           998           999
 Base            41984         40960         78336
 End             42130         41160        180840
 End1            42496         41472        181248
 Wr Pntr         42130         41160         78336
 Rd Pntr         42130         41160         80840
 Length            146           200        102504


 dumping /fiocom/, unit = 2 NFiles =    55 SizExt =         0 WInBlk =       512
                   defal = F LstWrd =    15363584 FType=2 FMxFil=10000

 Number              0             0             0             0             0             0
 Base          2908781       2624662       1608215       3133939       1053138       2622607
 End           3133750       2624664       1610112       4164981       1061874       2624033
 End1          3133750       2624664       1610112       4164981       1061874       2624033
 Wr Pntr       2908781       2624662       1608215       4152285       1053138       2622607
 Rd Pntr       2908781       2624662       1608215       4152285       1053138       2622607
 Length         224969             2          1897       1031042          8736          1426

 Number              0             0             0             0             0           501
 Base          2625150       2628073       2624694       2897092       5693838       1570956
 End           2627994       2892832       2624755       2900144      15363584       1571956
 End1          2627994       2892832       2624755       2900144      15363584       1571956
 Wr Pntr       2625150       2892794       2624694       2897092       5693838       1571956
 Rd Pntr       2625150       2892794       2624694       2897092       5693838       1570956
 Length           2844        264759            61          3052       9669746          1000

 Number            502           503           508           511           520           521
 Base          1571956       3133894         40448       1581434       1608141       1610112
 End           1577130       3133915         40478       1581464       1608151       1610147
 End1          1577130       3133915         40478       1581464       1608151       1610147
 Wr Pntr       1577130       3133915         40478       1581464       1608151       1610147
 Rd Pntr       1571956       3133894         40448       1581434       1608141       1610112
 Length           5174            21            30            30            10            35

 Number            522           524           526           536           538           545
 Base          2892832       1610147       2116377       1061874       1316415       2625061
 End           2894252       2116377       2622607       1316415       1570956       2625089
 End1          2894252       2116377       2622607       1316415       1570956       2625089
 Wr Pntr       2894252       2116377       2622607       1316415       1570956       2625089
 Rd Pntr       2892832       1610147       2116377       1061874       1316415       2625061
 Length           1420        506230        506230        254541        254541            28

 Number            548           551           552           561           562           569
 Base            40678       1608177       1608151       1602044       1602045       2624833
 End           1053138       1608215       1608177       1602045       1608141       2624835
 End1          1053138       1608215       1608177       1602045       1608141       2624835
 Wr Pntr       1053138       1608215       1608177       1602045       1608141       2624835
 Rd Pntr         40678       1608177       1608151       1602044       1602045       2624833
 Length        1012460            38            26             1          6096             2

 Number            575           584           585           603           605           607
 Base          2624835       1581522       2624755       5184755       2624664       2894252
 End           2625061       1581546       2624833       5693838       2624669       2895672
 End1          2625061       1581546       2624833       5693838       2624669       2895672
 Wr Pntr       2625061       1581546       2624833       5693838       2624669       2895672
 Rd Pntr       2624835       1581522       2624755       5184755       2624664       2894252
 Length            226            24            78        509083             5          1420

 Number            618           619           665           670           672           674
 Base          2900144       2624033       1581464       1577130       3133750       3133826
 End           2901080       2624662       1581522       1581434       3133826       3133894
 End1          2901080       2624662       1581522       1581434       3133826       3133894
 Wr Pntr       2901080       2624662       1581522       1581434       3133750       3133894
 Rd Pntr       2900144       2624033       1581464       1577130       3133750       3133826
 Length            936           629            58          4304            76            68

 Number            694           695           698           701           703           765
 Base          2895672       1581546       3133915       2625089       2624669       2901080
 End           2897092       1581698       3133939       2625150       2624694       2901243
 End1          2897092       1581698       3133939       2625150       2624694       2901243
 Wr Pntr       2897092       1581698       3133939       2625150       2624694       2901243
 Rd Pntr       2895672       1581546       3133915       2625089       2624669       2901080
 Length           1420           152            24            61            25           163

 Number            776           777           780           989           993           997
 Base          2627994       2901243       4164981       1581698       1601698       1601898
 End           2628073       2908781       5184755       1601698       1601898       1602044
 End1          2628073       2908781       5184755       1601698       1601898       1602044
 Wr Pntr       2628073       2908781       4164981       1601698       1601898       1602044
 Rd Pntr       2627994       2901243       4164981       1581698       1601698       1601898
 Length             79          7538       1019774         20000           200           146

 Number            998
 Base            40478
 End             40678
 End1            40678
 Wr Pntr         40678
 Rd Pntr         40478
 Length            200


 dumping /fiocom/, unit = 3 NFiles =     1 SizExt =    524288 WInBlk =       512
                   defal = T LstWrd =       65536 FType=2 FMxFil=10000

 Number              0
 Base            40448
 End             65536
 End1            65536
 Wr Pntr         40448
 Rd Pntr         40448
 Length          25088
 Error termination in NtrErr:
 NtrErr Called from FileIO.
