 Entering Gaussian System, Link 0=gdv
 Initial command:
 /share/apps/gaussian/gdvh12/gdv/l1.exe /localscratch/12779/Gau-18811.inp -scrdir=/localscratch/12779/
 Entering Link 1 = /share/apps/gaussian/gdvh12/gdv/l1.exe PID=     18812.
  
 Copyright (c) 1988,1990,1992,1993,1995,1998,2003,2009,2011,
            Gaussian, Inc.  All Rights Reserved.
  
 This is the private, development version of
 the Gaussian(R) DV system of programs. It is based on
 the Gaussian(R) 09 system (copyright 2009, Gaussian, Inc.),
 the Gaussian(R) 03 system (copyright 2003, Gaussian, Inc.),
 the Gaussian(R) 98 system (copyright 1998, Gaussian, Inc.),
 the Gaussian(R) 94 system (copyright 1995, Gaussian, Inc.),
 the Gaussian 92(TM) system (copyright 1992, Gaussian, Inc.),
 the Gaussian 90(TM) system (copyright 1990, Gaussian, Inc.),
 the Gaussian 88(TM) system (copyright 1988, Gaussian, Inc.),
 the Gaussian 86(TM) system (copyright 1986, Carnegie Mellon
 University), and the Gaussian 82(TM) system (copyright 1983,
 Carnegie Mellon University). Gaussian is a federally registered
 trademark of Gaussian, Inc.
  
 This software contains proprietary and confidential information,
 including trade secrets, belonging to Gaussian, Inc.
  
 This software is provided under written license and may be
 used, copied, transmitted, or stored only in accord with that
 written license.
  
 The following legend is applicable only to US Government
 contracts under FAR:
  
                    RESTRICTED RIGHTS LEGEND
  
 Use, reproduction and disclosure by the US Government is
 subject to restrictions as set forth in subparagraphs (a)
 and (c) of the Commercial Computer Software - Restricted
 Rights clause in FAR 52.227-19.
  
 Gaussian, Inc.
 340 Quinnipiac St., Bldg. 40, Wallingford CT 06492
  
  
 ---------------------------------------------------------------
 Warning -- This program may not be used in any manner that
 competes with the business of Gaussian, Inc. or will provide
 assistance to any competitor of Gaussian, Inc.  The licensee
 of this program is prohibited from giving any competitor of
 Gaussian, Inc. access to this program.  By using this program,
 the user acknowledges that Gaussian, Inc. is engaged in the
 business of creating and licensing software in the field of
 computational chemistry and represents and warrants to the
 licensee that it is not a competitor of Gaussian, Inc. and that
 it will not use this program in any manner prohibited above.
 ---------------------------------------------------------------
  

 Cite this work as:
 Gaussian Development Version, Revision H.12,
 M. J. Frisch, G. W. Trucks, H. B. Schlegel, G. E. Scuseria, 
 M. A. Robb, J. R. Cheeseman, G. Scalmani, V. Barone, B. Mennucci, 
 G. A. Petersson, H. Nakatsuji, M. Caricato, X. Li, H. P. Hratchian, 
 A. F. Izmaylov, J. Bloino, G. Zheng, J. L. Sonnenberg, M. Hada, 
 M. Ehara, K. Toyota, R. Fukuda, J. Hasegawa, M. Ishida, T. Nakajima, 
 Y. Honda, O. Kitao, H. Nakai, T. Vreven, J. A. Montgomery, Jr., 
 J. E. Peralta, F. Ogliaro, M. Bearpark, J. J. Heyd, E. Brothers, 
 K. N. Kudin, V. N. Staroverov, T. Keith, R. Kobayashi, J. Normand, 
 K. Raghavachari, A. Rendell, J. C. Burant, S. S. Iyengar, J. Tomasi, 
 M. Cossi, N. Rega, J. M. Millam, M. Klene, J. E. Knox, J. B. Cross, 
 V. Bakken, C. Adamo, J. Jaramillo, R. Gomperts, R. E. Stratmann, 
 O. Yazyev, A. J. Austin, R. Cammi, C. Pomelli, J. W. Ochterski, 
 R. L. Martin, K. Morokuma, V. G. Zakrzewski, G. A. Voth, 
 P. Salvador, J. J. Dannenberg, S. Dapprich, P. V. Parandekar, 
 N. J. Mayhall, A. D. Daniels, O. Farkas, J. B. Foresman, 
 J. V. Ortiz, J. Cioslowski, and D. J. Fox, 
 Gaussian, Inc., Wallingford CT, 2010.
 
 ******************************************
 Gaussian DV:  EM64L-GDVRevH.12  9-Jun-2011
                27-Jul-2013 
 ******************************************
 %chk=CCCCl.chk
 %mem=4gb
 %nproc=2
 Will use up to    2 processors via shared memory.
 ----------------------------------------------------------------------
 #p apfd/ugbs1p opt=tight freq=(vibrot,anharm) int=(acc2e=12,grid=29997
 4) test gfprint gfinput output=pickett
 ----------------------------------------------------------------------
 1/7=10,14=-1,18=20,19=15,26=1,38=1,80=1/1,3;
 2/9=110,12=2,17=6,18=5,40=1/2;
 3/5=23,7=7,11=2,16=1,24=110,25=1,30=1,71=1,74=-44,75=299974/1,2,3;
 4//1;
 5/5=2,38=5,87=12/2;
 6/7=2,8=2,9=2,10=2,28=1/1;
 7/87=12/1,2,3,16;
 1/7=10,14=-1,18=20,19=15,80=1/3(2);
 2/9=110/2;
 99/8=1100,10=1024/99;
 2/9=110/2;
 3/5=23,7=7,11=2,16=1,25=1,30=1,71=1,74=-44,75=299974/1,2,3;
 4/5=5,16=3,69=1/1;
 5/5=2,38=5,87=12/2;
 7/87=12/1,2,3,16;
 1/7=10,14=-1,18=20,19=15,80=1/3(-5);
 2/9=110/2;
 6/7=2,8=2,9=2,10=2,19=2,28=1/1;
 99/8=1100,9=1,10=1024/99;
 Leave Link    1 at Sat Jul 27 08:52:27 2013, MaxMem=  536870912 cpu:       0.2
 (Enter /share/apps/gaussian/gdvh12/gdv/l101.exe)
 ---------------------------------------
 CCCCl pre-optimized at apfd/aug-cc-pVTZ
 ---------------------------------------
 Charge =  0 Multiplicity = 2
 Symbolic Z-Matrix:
 C                    -0.39272   0.        0. 
 C                     0.93022   0.        0. 
 C                     2.17884   0.        0. 
 Cl                    3.78366   0.        0. 
 
 NAtoms=      4 NQM=        0 NQMF=       0 NMMI=      4 NMMIF=      0
                NMic=       0 NMicF=      0.
                    Isotopes and Nuclear Properties:
 (Nuclear quadrupole moments (NQMom) in fm**2, nuclear magnetic moments (NMagM)
  in nuclear magnetons)

  Atom         1           2           3           4
 IAtWgt=          12          12          12          35
 AtmWgt=  12.0000000  12.0000000  12.0000000  34.9688527
 NucSpn=           0           0           0           3
 AtZEff=   0.0000000   0.0000000   0.0000000   0.0000000
 NQMom=    0.0000000   0.0000000   0.0000000  -8.1650000
 NMagM=    0.0000000   0.0000000   0.0000000   0.8218740
 AtZNuc=   6.0000000   6.0000000   6.0000000  17.0000000
 Leave Link  101 at Sat Jul 27 08:52:27 2013, MaxMem=  536870912 cpu:       0.5
 (Enter /share/apps/gaussian/gdvh12/gdv/l103.exe)

 GradGradGradGradGradGradGradGradGradGradGradGradGradGradGradGradGradGrad
 Berny optimization.
 Initialization pass.
                           ----------------------------
                           !    Initial Parameters    !
                           ! (Angstroms and Degrees)  !
 --------------------------                            --------------------------
 ! Name  Definition              Value          Derivative Info.                !
 --------------------------------------------------------------------------------
 ! R1    R(1,2)                  1.3229         estimate D2E/DX2                !
 ! R2    R(2,3)                  1.2486         estimate D2E/DX2                !
 ! R3    R(3,4)                  1.6048         estimate D2E/DX2                !
 ! A1    L(1,2,3,-2,-1)        180.0            estimate D2E/DX2                !
 ! A2    L(2,3,4,-2,-1)        180.0            estimate D2E/DX2                !
 ! A3    L(1,2,3,-3,-2)        180.0            estimate D2E/DX2                !
 ! A4    L(2,3,4,-3,-2)        180.0            estimate D2E/DX2                !
 --------------------------------------------------------------------------------
 Trust Radius=3.00D-01 FncErr=1.00D-07 GrdErr=1.00D-07
 Number of steps in this run=     20 maximum allowed number of steps=    100.
 GradGradGradGradGradGradGradGradGradGradGradGradGradGradGradGradGradGrad

 Leave Link  103 at Sat Jul 27 08:52:27 2013, MaxMem=  536870912 cpu:       0.0
 (Enter /share/apps/gaussian/gdvh12/gdv/l202.exe)
                          Input orientation:                          
 ---------------------------------------------------------------------
 Center     Atomic      Atomic             Coordinates (Angstroms)
 Number     Number       Type             X           Y           Z
 ---------------------------------------------------------------------
      1          6           0       -0.392722    0.000000    0.000000
      2          6           0        0.930218    0.000000    0.000000
      3          6           0        2.178841    0.000000    0.000000
      4         17           0        3.783663    0.000000    0.000000
 ---------------------------------------------------------------------
                    Distance matrix (angstroms):
                    1          2          3          4
     1  C    0.000000
     2  C    1.322941   0.000000
     3  C    2.571564   1.248623   0.000000
     4  Cl   4.176385   2.853444   1.604821   0.000000
 Stoichiometry    C3Cl(2)
 Framework group  C*V[C*(CCCCl)]
 Deg. of freedom     3
 Full point group                 C*V     NOp   4
 Largest Abelian subgroup         C2V     NOp   4
 Largest concise Abelian subgroup C1      NOp   1
                         Standard orientation:                         
 ---------------------------------------------------------------------
 Center     Atomic      Atomic             Coordinates (Angstroms)
 Number     Number       Type             X           Y           Z
 ---------------------------------------------------------------------
      1          6           0        0.000000    0.000000   -2.696159
      2          6           0        0.000000    0.000000   -1.373219
      3          6           0        0.000000    0.000000   -0.124595
      4         17           0        0.000000    0.000000    1.480226
 ---------------------------------------------------------------------
 Rotational constants (GHZ):      0.0000000      2.7078248      2.7078248
 Leave Link  202 at Sat Jul 27 08:52:27 2013, MaxMem=  536870912 cpu:       0.0
 (Enter /share/apps/gaussian/gdvh12/gdv/l301.exe)
 Standard basis: UGBS1P (5D, 7F)
 Ernie: Thresh=  0.10000D-02 Tol=  0.10000D-05 Strict=F.
 AO basis set in the form of general basis input (Overlap normalization):
      1 0
 S   1 1.00       0.000000000000
      0.2019953588D+06  0.1000000000D+01
 S   1 1.00       0.000000000000
      0.1031562389D+06  0.1000000000D+01
 S   1 1.00       0.000000000000
      0.5268046591D+05  0.1000000000D+01
 S   1 1.00       0.000000000000
      0.2690318607D+05  0.1000000000D+01
 S   1 1.00       0.000000000000
      0.1373908542D+05  0.1000000000D+01
 S   1 1.00       0.000000000000
      0.7016361094D+04  0.1000000000D+01
 S   1 1.00       0.000000000000
      0.3583158668D+04  0.1000000000D+01
 S   1 1.00       0.000000000000
      0.1829869625D+04  0.1000000000D+01
 S   1 1.00       0.000000000000
      0.9344891347D+03  0.1000000000D+01
 S   1 1.00       0.000000000000
      0.4772306896D+03  0.1000000000D+01
 S   1 1.00       0.000000000000
      0.2437151195D+03  0.1000000000D+01
 S   1 1.00       0.000000000000
      0.1244619442D+03  0.1000000000D+01
 S   1 1.00       0.000000000000
      0.6356099525D+02  0.1000000000D+01
 S   1 1.00       0.000000000000
      0.3245972208D+02  0.1000000000D+01
 S   1 1.00       0.000000000000
      0.1657673158D+02  0.1000000000D+01
 S   1 1.00       0.000000000000
      0.8465507783D+01  0.1000000000D+01
 S   1 1.00       0.000000000000
      0.4323217860D+01  0.1000000000D+01
 S   1 1.00       0.000000000000
      0.2207807629D+01  0.1000000000D+01
 S   1 1.00       0.000000000000
      0.1127496852D+01  0.1000000000D+01
 S   1 1.00       0.000000000000
      0.5757970639D+00  0.1000000000D+01
 S   1 1.00       0.000000000000
      0.2940516050D+00  0.1000000000D+01
 S   1 1.00       0.000000000000
      0.1501680918D+00  0.1000000000D+01
 S   1 1.00       0.000000000000
      0.7668876969D-01  0.1000000000D+01
 P   1 1.00       0.000000000000
      0.2019953588D+06  0.1000000000D+01
 P   1 1.00       0.000000000000
      0.1031562389D+06  0.1000000000D+01
 P   1 1.00       0.000000000000
      0.5268046591D+05  0.1000000000D+01
 P   1 1.00       0.000000000000
      0.2690318607D+05  0.1000000000D+01
 P   1 1.00       0.000000000000
      0.1373908542D+05  0.1000000000D+01
 P   1 1.00       0.000000000000
      0.7016361094D+04  0.1000000000D+01
 P   1 1.00       0.000000000000
      0.3583158668D+04  0.1000000000D+01
 P   1 1.00       0.000000000000
      0.1829869625D+04  0.1000000000D+01
 P   1 1.00       0.000000000000
      0.9344891347D+03  0.1000000000D+01
 P   1 1.00       0.000000000000
      0.4772306896D+03  0.1000000000D+01
 P   1 1.00       0.000000000000
      0.2437151195D+03  0.1000000000D+01
 P   1 1.00       0.000000000000
      0.1244619442D+03  0.1000000000D+01
 P   1 1.00       0.000000000000
      0.6356099525D+02  0.1000000000D+01
 P   1 1.00       0.000000000000
      0.3245972208D+02  0.1000000000D+01
 P   1 1.00       0.000000000000
      0.1657673158D+02  0.1000000000D+01
 P   1 1.00       0.000000000000
      0.8465507783D+01  0.1000000000D+01
 P   1 1.00       0.000000000000
      0.4323217860D+01  0.1000000000D+01
 P   1 1.00       0.000000000000
      0.2207807629D+01  0.1000000000D+01
 P   1 1.00       0.000000000000
      0.1127496852D+01  0.1000000000D+01
 P   1 1.00       0.000000000000
      0.5757970639D+00  0.1000000000D+01
 P   1 1.00       0.000000000000
      0.2940516050D+00  0.1000000000D+01
 P   1 1.00       0.000000000000
      0.1501680918D+00  0.1000000000D+01
 P   1 1.00       0.000000000000
      0.7668876969D-01  0.1000000000D+01
 P   1 1.00       0.000000000000
      0.3916389510D-01  0.1000000000D+01
 D   1 1.00       0.000000000000
      0.4772306896D+03  0.1000000000D+01
 D   1 1.00       0.000000000000
      0.2437151195D+03  0.1000000000D+01
 D   1 1.00       0.000000000000
      0.1244619442D+03  0.1000000000D+01
 D   1 1.00       0.000000000000
      0.6356099525D+02  0.1000000000D+01
 D   1 1.00       0.000000000000
      0.3245972208D+02  0.1000000000D+01
 D   1 1.00       0.000000000000
      0.1657673158D+02  0.1000000000D+01
 D   1 1.00       0.000000000000
      0.8465507783D+01  0.1000000000D+01
 D   1 1.00       0.000000000000
      0.4323217860D+01  0.1000000000D+01
 D   1 1.00       0.000000000000
      0.2207807629D+01  0.1000000000D+01
 D   1 1.00       0.000000000000
      0.1127496852D+01  0.1000000000D+01
 D   1 1.00       0.000000000000
      0.5757970639D+00  0.1000000000D+01
 D   1 1.00       0.000000000000
      0.2940516050D+00  0.1000000000D+01
 D   1 1.00       0.000000000000
      0.1501680918D+00  0.1000000000D+01
 D   1 1.00       0.000000000000
      0.7668876969D-01  0.1000000000D+01
 D   1 1.00       0.000000000000
      0.3916389510D-01  0.1000000000D+01
 ****
      2 0
 S   1 1.00       0.000000000000
      0.2019953588D+06  0.1000000000D+01
 S   1 1.00       0.000000000000
      0.1031562389D+06  0.1000000000D+01
 S   1 1.00       0.000000000000
      0.5268046591D+05  0.1000000000D+01
 S   1 1.00       0.000000000000
      0.2690318607D+05  0.1000000000D+01
 S   1 1.00       0.000000000000
      0.1373908542D+05  0.1000000000D+01
 S   1 1.00       0.000000000000
      0.7016361094D+04  0.1000000000D+01
 S   1 1.00       0.000000000000
      0.3583158668D+04  0.1000000000D+01
 S   1 1.00       0.000000000000
      0.1829869625D+04  0.1000000000D+01
 S   1 1.00       0.000000000000
      0.9344891347D+03  0.1000000000D+01
 S   1 1.00       0.000000000000
      0.4772306896D+03  0.1000000000D+01
 S   1 1.00       0.000000000000
      0.2437151195D+03  0.1000000000D+01
 S   1 1.00       0.000000000000
      0.1244619442D+03  0.1000000000D+01
 S   1 1.00       0.000000000000
      0.6356099525D+02  0.1000000000D+01
 S   1 1.00       0.000000000000
      0.3245972208D+02  0.1000000000D+01
 S   1 1.00       0.000000000000
      0.1657673158D+02  0.1000000000D+01
 S   1 1.00       0.000000000000
      0.8465507783D+01  0.1000000000D+01
 S   1 1.00       0.000000000000
      0.4323217860D+01  0.1000000000D+01
 S   1 1.00       0.000000000000
      0.2207807629D+01  0.1000000000D+01
 S   1 1.00       0.000000000000
      0.1127496852D+01  0.1000000000D+01
 S   1 1.00       0.000000000000
      0.5757970639D+00  0.1000000000D+01
 S   1 1.00       0.000000000000
      0.2940516050D+00  0.1000000000D+01
 S   1 1.00       0.000000000000
      0.1501680918D+00  0.1000000000D+01
 S   1 1.00       0.000000000000
      0.7668876969D-01  0.1000000000D+01
 P   1 1.00       0.000000000000
      0.2019953588D+06  0.1000000000D+01
 P   1 1.00       0.000000000000
      0.1031562389D+06  0.1000000000D+01
 P   1 1.00       0.000000000000
      0.5268046591D+05  0.1000000000D+01
 P   1 1.00       0.000000000000
      0.2690318607D+05  0.1000000000D+01
 P   1 1.00       0.000000000000
      0.1373908542D+05  0.1000000000D+01
 P   1 1.00       0.000000000000
      0.7016361094D+04  0.1000000000D+01
 P   1 1.00       0.000000000000
      0.3583158668D+04  0.1000000000D+01
 P   1 1.00       0.000000000000
      0.1829869625D+04  0.1000000000D+01
 P   1 1.00       0.000000000000
      0.9344891347D+03  0.1000000000D+01
 P   1 1.00       0.000000000000
      0.4772306896D+03  0.1000000000D+01
 P   1 1.00       0.000000000000
      0.2437151195D+03  0.1000000000D+01
 P   1 1.00       0.000000000000
      0.1244619442D+03  0.1000000000D+01
 P   1 1.00       0.000000000000
      0.6356099525D+02  0.1000000000D+01
 P   1 1.00       0.000000000000
      0.3245972208D+02  0.1000000000D+01
 P   1 1.00       0.000000000000
      0.1657673158D+02  0.1000000000D+01
 P   1 1.00       0.000000000000
      0.8465507783D+01  0.1000000000D+01
 P   1 1.00       0.000000000000
      0.4323217860D+01  0.1000000000D+01
 P   1 1.00       0.000000000000
      0.2207807629D+01  0.1000000000D+01
 P   1 1.00       0.000000000000
      0.1127496852D+01  0.1000000000D+01
 P   1 1.00       0.000000000000
      0.5757970639D+00  0.1000000000D+01
 P   1 1.00       0.000000000000
      0.2940516050D+00  0.1000000000D+01
 P   1 1.00       0.000000000000
      0.1501680918D+00  0.1000000000D+01
 P   1 1.00       0.000000000000
      0.7668876969D-01  0.1000000000D+01
 P   1 1.00       0.000000000000
      0.3916389510D-01  0.1000000000D+01
 D   1 1.00       0.000000000000
      0.4772306896D+03  0.1000000000D+01
 D   1 1.00       0.000000000000
      0.2437151195D+03  0.1000000000D+01
 D   1 1.00       0.000000000000
      0.1244619442D+03  0.1000000000D+01
 D   1 1.00       0.000000000000
      0.6356099525D+02  0.1000000000D+01
 D   1 1.00       0.000000000000
      0.3245972208D+02  0.1000000000D+01
 D   1 1.00       0.000000000000
      0.1657673158D+02  0.1000000000D+01
 D   1 1.00       0.000000000000
      0.8465507783D+01  0.1000000000D+01
 D   1 1.00       0.000000000000
      0.4323217860D+01  0.1000000000D+01
 D   1 1.00       0.000000000000
      0.2207807629D+01  0.1000000000D+01
 D   1 1.00       0.000000000000
      0.1127496852D+01  0.1000000000D+01
 D   1 1.00       0.000000000000
      0.5757970639D+00  0.1000000000D+01
 D   1 1.00       0.000000000000
      0.2940516050D+00  0.1000000000D+01
 D   1 1.00       0.000000000000
      0.1501680918D+00  0.1000000000D+01
 D   1 1.00       0.000000000000
      0.7668876969D-01  0.1000000000D+01
 D   1 1.00       0.000000000000
      0.3916389510D-01  0.1000000000D+01
 ****
      3 0
 S   1 1.00       0.000000000000
      0.2019953588D+06  0.1000000000D+01
 S   1 1.00       0.000000000000
      0.1031562389D+06  0.1000000000D+01
 S   1 1.00       0.000000000000
      0.5268046591D+05  0.1000000000D+01
 S   1 1.00       0.000000000000
      0.2690318607D+05  0.1000000000D+01
 S   1 1.00       0.000000000000
      0.1373908542D+05  0.1000000000D+01
 S   1 1.00       0.000000000000
      0.7016361094D+04  0.1000000000D+01
 S   1 1.00       0.000000000000
      0.3583158668D+04  0.1000000000D+01
 S   1 1.00       0.000000000000
      0.1829869625D+04  0.1000000000D+01
 S   1 1.00       0.000000000000
      0.9344891347D+03  0.1000000000D+01
 S   1 1.00       0.000000000000
      0.4772306896D+03  0.1000000000D+01
 S   1 1.00       0.000000000000
      0.2437151195D+03  0.1000000000D+01
 S   1 1.00       0.000000000000
      0.1244619442D+03  0.1000000000D+01
 S   1 1.00       0.000000000000
      0.6356099525D+02  0.1000000000D+01
 S   1 1.00       0.000000000000
      0.3245972208D+02  0.1000000000D+01
 S   1 1.00       0.000000000000
      0.1657673158D+02  0.1000000000D+01
 S   1 1.00       0.000000000000
      0.8465507783D+01  0.1000000000D+01
 S   1 1.00       0.000000000000
      0.4323217860D+01  0.1000000000D+01
 S   1 1.00       0.000000000000
      0.2207807629D+01  0.1000000000D+01
 S   1 1.00       0.000000000000
      0.1127496852D+01  0.1000000000D+01
 S   1 1.00       0.000000000000
      0.5757970639D+00  0.1000000000D+01
 S   1 1.00       0.000000000000
      0.2940516050D+00  0.1000000000D+01
 S   1 1.00       0.000000000000
      0.1501680918D+00  0.1000000000D+01
 S   1 1.00       0.000000000000
      0.7668876969D-01  0.1000000000D+01
 P   1 1.00       0.000000000000
      0.2019953588D+06  0.1000000000D+01
 P   1 1.00       0.000000000000
      0.1031562389D+06  0.1000000000D+01
 P   1 1.00       0.000000000000
      0.5268046591D+05  0.1000000000D+01
 P   1 1.00       0.000000000000
      0.2690318607D+05  0.1000000000D+01
 P   1 1.00       0.000000000000
      0.1373908542D+05  0.1000000000D+01
 P   1 1.00       0.000000000000
      0.7016361094D+04  0.1000000000D+01
 P   1 1.00       0.000000000000
      0.3583158668D+04  0.1000000000D+01
 P   1 1.00       0.000000000000
      0.1829869625D+04  0.1000000000D+01
 P   1 1.00       0.000000000000
      0.9344891347D+03  0.1000000000D+01
 P   1 1.00       0.000000000000
      0.4772306896D+03  0.1000000000D+01
 P   1 1.00       0.000000000000
      0.2437151195D+03  0.1000000000D+01
 P   1 1.00       0.000000000000
      0.1244619442D+03  0.1000000000D+01
 P   1 1.00       0.000000000000
      0.6356099525D+02  0.1000000000D+01
 P   1 1.00       0.000000000000
      0.3245972208D+02  0.1000000000D+01
 P   1 1.00       0.000000000000
      0.1657673158D+02  0.1000000000D+01
 P   1 1.00       0.000000000000
      0.8465507783D+01  0.1000000000D+01
 P   1 1.00       0.000000000000
      0.4323217860D+01  0.1000000000D+01
 P   1 1.00       0.000000000000
      0.2207807629D+01  0.1000000000D+01
 P   1 1.00       0.000000000000
      0.1127496852D+01  0.1000000000D+01
 P   1 1.00       0.000000000000
      0.5757970639D+00  0.1000000000D+01
 P   1 1.00       0.000000000000
      0.2940516050D+00  0.1000000000D+01
 P   1 1.00       0.000000000000
      0.1501680918D+00  0.1000000000D+01
 P   1 1.00       0.000000000000
      0.7668876969D-01  0.1000000000D+01
 P   1 1.00       0.000000000000
      0.3916389510D-01  0.1000000000D+01
 D   1 1.00       0.000000000000
      0.4772306896D+03  0.1000000000D+01
 D   1 1.00       0.000000000000
      0.2437151195D+03  0.1000000000D+01
 D   1 1.00       0.000000000000
      0.1244619442D+03  0.1000000000D+01
 D   1 1.00       0.000000000000
      0.6356099525D+02  0.1000000000D+01
 D   1 1.00       0.000000000000
      0.3245972208D+02  0.1000000000D+01
 D   1 1.00       0.000000000000
      0.1657673158D+02  0.1000000000D+01
 D   1 1.00       0.000000000000
      0.8465507783D+01  0.1000000000D+01
 D   1 1.00       0.000000000000
      0.4323217860D+01  0.1000000000D+01
 D   1 1.00       0.000000000000
      0.2207807629D+01  0.1000000000D+01
 D   1 1.00       0.000000000000
      0.1127496852D+01  0.1000000000D+01
 D   1 1.00       0.000000000000
      0.5757970639D+00  0.1000000000D+01
 D   1 1.00       0.000000000000
      0.2940516050D+00  0.1000000000D+01
 D   1 1.00       0.000000000000
      0.1501680918D+00  0.1000000000D+01
 D   1 1.00       0.000000000000
      0.7668876969D-01  0.1000000000D+01
 D   1 1.00       0.000000000000
      0.3916389510D-01  0.1000000000D+01
 ****
      4 0
 S   1 1.00       0.000000000000
      0.2969784651D+07  0.1000000000D+01
 S   1 1.00       0.000000000000
      0.1516627989D+07  0.1000000000D+01
 S   1 1.00       0.000000000000
      0.7745209592D+06  0.1000000000D+01
 S   1 1.00       0.000000000000
      0.3955371526D+06  0.1000000000D+01
 S   1 1.00       0.000000000000
      0.2019953588D+06  0.1000000000D+01
 S   1 1.00       0.000000000000
      0.1031562389D+06  0.1000000000D+01
 S   1 1.00       0.000000000000
      0.5268046591D+05  0.1000000000D+01
 S   1 1.00       0.000000000000
      0.2690318607D+05  0.1000000000D+01
 S   1 1.00       0.000000000000
      0.1373908542D+05  0.1000000000D+01
 S   1 1.00       0.000000000000
      0.7016361094D+04  0.1000000000D+01
 S   1 1.00       0.000000000000
      0.3583158668D+04  0.1000000000D+01
 S   1 1.00       0.000000000000
      0.1829869625D+04  0.1000000000D+01
 S   1 1.00       0.000000000000
      0.9344891347D+03  0.1000000000D+01
 S   1 1.00       0.000000000000
      0.4772306896D+03  0.1000000000D+01
 S   1 1.00       0.000000000000
      0.2437151195D+03  0.1000000000D+01
 S   1 1.00       0.000000000000
      0.1244619442D+03  0.1000000000D+01
 S   1 1.00       0.000000000000
      0.6356099525D+02  0.1000000000D+01
 S   1 1.00       0.000000000000
      0.3245972208D+02  0.1000000000D+01
 S   1 1.00       0.000000000000
      0.1657673158D+02  0.1000000000D+01
 S   1 1.00       0.000000000000
      0.8465507783D+01  0.1000000000D+01
 S   1 1.00       0.000000000000
      0.4323217860D+01  0.1000000000D+01
 S   1 1.00       0.000000000000
      0.2207807629D+01  0.1000000000D+01
 S   1 1.00       0.000000000000
      0.1127496852D+01  0.1000000000D+01
 S   1 1.00       0.000000000000
      0.5757970639D+00  0.1000000000D+01
 S   1 1.00       0.000000000000
      0.2940516050D+00  0.1000000000D+01
 S   1 1.00       0.000000000000
      0.1501680918D+00  0.1000000000D+01
 S   1 1.00       0.000000000000
      0.7668876969D-01  0.1000000000D+01
 P   1 1.00       0.000000000000
      0.2969784651D+07  0.1000000000D+01
 P   1 1.00       0.000000000000
      0.1516627989D+07  0.1000000000D+01
 P   1 1.00       0.000000000000
      0.7745209592D+06  0.1000000000D+01
 P   1 1.00       0.000000000000
      0.3955371526D+06  0.1000000000D+01
 P   1 1.00       0.000000000000
      0.2019953588D+06  0.1000000000D+01
 P   1 1.00       0.000000000000
      0.1031562389D+06  0.1000000000D+01
 P   1 1.00       0.000000000000
      0.5268046591D+05  0.1000000000D+01
 P   1 1.00       0.000000000000
      0.2690318607D+05  0.1000000000D+01
 P   1 1.00       0.000000000000
      0.1373908542D+05  0.1000000000D+01
 P   1 1.00       0.000000000000
      0.7016361094D+04  0.1000000000D+01
 P   1 1.00       0.000000000000
      0.3583158668D+04  0.1000000000D+01
 P   1 1.00       0.000000000000
      0.1829869625D+04  0.1000000000D+01
 P   1 1.00       0.000000000000
      0.9344891347D+03  0.1000000000D+01
 P   1 1.00       0.000000000000
      0.4772306896D+03  0.1000000000D+01
 P   1 1.00       0.000000000000
      0.2437151195D+03  0.1000000000D+01
 P   1 1.00       0.000000000000
      0.1244619442D+03  0.1000000000D+01
 P   1 1.00       0.000000000000
      0.6356099525D+02  0.1000000000D+01
 P   1 1.00       0.000000000000
      0.3245972208D+02  0.1000000000D+01
 P   1 1.00       0.000000000000
      0.1657673158D+02  0.1000000000D+01
 P   1 1.00       0.000000000000
      0.8465507783D+01  0.1000000000D+01
 P   1 1.00       0.000000000000
      0.4323217860D+01  0.1000000000D+01
 P   1 1.00       0.000000000000
      0.2207807629D+01  0.1000000000D+01
 P   1 1.00       0.000000000000
      0.1127496852D+01  0.1000000000D+01
 P   1 1.00       0.000000000000
      0.5757970639D+00  0.1000000000D+01
 P   1 1.00       0.000000000000
      0.2940516050D+00  0.1000000000D+01
 P   1 1.00       0.000000000000
      0.1501680918D+00  0.1000000000D+01
 P   1 1.00       0.000000000000
      0.7668876969D-01  0.1000000000D+01
 D   1 1.00       0.000000000000
      0.1373908542D+05  0.1000000000D+01
 D   1 1.00       0.000000000000
      0.7016361094D+04  0.1000000000D+01
 D   1 1.00       0.000000000000
      0.3583158668D+04  0.1000000000D+01
 D   1 1.00       0.000000000000
      0.1829869625D+04  0.1000000000D+01
 D   1 1.00       0.000000000000
      0.9344891347D+03  0.1000000000D+01
 D   1 1.00       0.000000000000
      0.4772306896D+03  0.1000000000D+01
 D   1 1.00       0.000000000000
      0.2437151195D+03  0.1000000000D+01
 D   1 1.00       0.000000000000
      0.1244619442D+03  0.1000000000D+01
 D   1 1.00       0.000000000000
      0.6356099525D+02  0.1000000000D+01
 D   1 1.00       0.000000000000
      0.3245972208D+02  0.1000000000D+01
 D   1 1.00       0.000000000000
      0.1657673158D+02  0.1000000000D+01
 D   1 1.00       0.000000000000
      0.8465507783D+01  0.1000000000D+01
 D   1 1.00       0.000000000000
      0.4323217860D+01  0.1000000000D+01
 D   1 1.00       0.000000000000
      0.2207807629D+01  0.1000000000D+01
 D   1 1.00       0.000000000000
      0.1127496852D+01  0.1000000000D+01
 D   1 1.00       0.000000000000
      0.5757970639D+00  0.1000000000D+01
 D   1 1.00       0.000000000000
      0.2940516050D+00  0.1000000000D+01
 D   1 1.00       0.000000000000
      0.1501680918D+00  0.1000000000D+01
 D   1 1.00       0.000000000000
      0.7668876969D-01  0.1000000000D+01
 ****

 AO basis set (Overlap normalization):
 Atom C1       Shell     1 S   1     bf    1 -     1          0.000000000000          0.000000000000         -5.095002777055
      0.2019953588D+06  0.1000000000D+01
 Atom C1       Shell     2 S   1     bf    2 -     2          0.000000000000          0.000000000000         -5.095002777055
      0.1031562389D+06  0.1000000000D+01
 Atom C1       Shell     3 S   1     bf    3 -     3          0.000000000000          0.000000000000         -5.095002777055
      0.5268046591D+05  0.1000000000D+01
 Atom C1       Shell     4 S   1     bf    4 -     4          0.000000000000          0.000000000000         -5.095002777055
      0.2690318607D+05  0.1000000000D+01
 Atom C1       Shell     5 S   1     bf    5 -     5          0.000000000000          0.000000000000         -5.095002777055
      0.1373908542D+05  0.1000000000D+01
 Atom C1       Shell     6 S   1     bf    6 -     6          0.000000000000          0.000000000000         -5.095002777055
      0.7016361094D+04  0.1000000000D+01
 Atom C1       Shell     7 S   1     bf    7 -     7          0.000000000000          0.000000000000         -5.095002777055
      0.3583158668D+04  0.1000000000D+01
 Atom C1       Shell     8 S   1     bf    8 -     8          0.000000000000          0.000000000000         -5.095002777055
      0.1829869625D+04  0.1000000000D+01
 Atom C1       Shell     9 S   1     bf    9 -     9          0.000000000000          0.000000000000         -5.095002777055
      0.9344891347D+03  0.1000000000D+01
 Atom C1       Shell    10 S   1     bf   10 -    10          0.000000000000          0.000000000000         -5.095002777055
      0.4772306896D+03  0.1000000000D+01
 Atom C1       Shell    11 S   1     bf   11 -    11          0.000000000000          0.000000000000         -5.095002777055
      0.2437151195D+03  0.1000000000D+01
 Atom C1       Shell    12 S   1     bf   12 -    12          0.000000000000          0.000000000000         -5.095002777055
      0.1244619442D+03  0.1000000000D+01
 Atom C1       Shell    13 S   1     bf   13 -    13          0.000000000000          0.000000000000         -5.095002777055
      0.6356099525D+02  0.1000000000D+01
 Atom C1       Shell    14 S   1     bf   14 -    14          0.000000000000          0.000000000000         -5.095002777055
      0.3245972208D+02  0.1000000000D+01
 Atom C1       Shell    15 S   1     bf   15 -    15          0.000000000000          0.000000000000         -5.095002777055
      0.1657673158D+02  0.1000000000D+01
 Atom C1       Shell    16 S   1     bf   16 -    16          0.000000000000          0.000000000000         -5.095002777055
      0.8465507783D+01  0.1000000000D+01
 Atom C1       Shell    17 S   1     bf   17 -    17          0.000000000000          0.000000000000         -5.095002777055
      0.4323217860D+01  0.1000000000D+01
 Atom C1       Shell    18 S   1     bf   18 -    18          0.000000000000          0.000000000000         -5.095002777055
      0.2207807629D+01  0.1000000000D+01
 Atom C1       Shell    19 S   1     bf   19 -    19          0.000000000000          0.000000000000         -5.095002777055
      0.1127496852D+01  0.1000000000D+01
 Atom C1       Shell    20 S   1     bf   20 -    20          0.000000000000          0.000000000000         -5.095002777055
      0.5757970639D+00  0.1000000000D+01
 Atom C1       Shell    21 S   1     bf   21 -    21          0.000000000000          0.000000000000         -5.095002777055
      0.2940516050D+00  0.1000000000D+01
 Atom C1       Shell    22 S   1     bf   22 -    22          0.000000000000          0.000000000000         -5.095002777055
      0.1501680918D+00  0.1000000000D+01
 Atom C1       Shell    23 S   1     bf   23 -    23          0.000000000000          0.000000000000         -5.095002777055
      0.7668876969D-01  0.1000000000D+01
 Atom C1       Shell    24 P   1     bf   24 -    26          0.000000000000          0.000000000000         -5.095002777055
      0.2019953588D+06  0.1000000000D+01
 Atom C1       Shell    25 P   1     bf   27 -    29          0.000000000000          0.000000000000         -5.095002777055
      0.1031562389D+06  0.1000000000D+01
 Atom C1       Shell    26 P   1     bf   30 -    32          0.000000000000          0.000000000000         -5.095002777055
      0.5268046591D+05  0.1000000000D+01
 Atom C1       Shell    27 P   1     bf   33 -    35          0.000000000000          0.000000000000         -5.095002777055
      0.2690318607D+05  0.1000000000D+01
 Atom C1       Shell    28 P   1     bf   36 -    38          0.000000000000          0.000000000000         -5.095002777055
      0.1373908542D+05  0.1000000000D+01
 Atom C1       Shell    29 P   1     bf   39 -    41          0.000000000000          0.000000000000         -5.095002777055
      0.7016361094D+04  0.1000000000D+01
 Atom C1       Shell    30 P   1     bf   42 -    44          0.000000000000          0.000000000000         -5.095002777055
      0.3583158668D+04  0.1000000000D+01
 Atom C1       Shell    31 P   1     bf   45 -    47          0.000000000000          0.000000000000         -5.095002777055
      0.1829869625D+04  0.1000000000D+01
 Atom C1       Shell    32 P   1     bf   48 -    50          0.000000000000          0.000000000000         -5.095002777055
      0.9344891347D+03  0.1000000000D+01
 Atom C1       Shell    33 P   1     bf   51 -    53          0.000000000000          0.000000000000         -5.095002777055
      0.4772306896D+03  0.1000000000D+01
 Atom C1       Shell    34 P   1     bf   54 -    56          0.000000000000          0.000000000000         -5.095002777055
      0.2437151195D+03  0.1000000000D+01
 Atom C1       Shell    35 P   1     bf   57 -    59          0.000000000000          0.000000000000         -5.095002777055
      0.1244619442D+03  0.1000000000D+01
 Atom C1       Shell    36 P   1     bf   60 -    62          0.000000000000          0.000000000000         -5.095002777055
      0.6356099525D+02  0.1000000000D+01
 Atom C1       Shell    37 P   1     bf   63 -    65          0.000000000000          0.000000000000         -5.095002777055
      0.3245972208D+02  0.1000000000D+01
 Atom C1       Shell    38 P   1     bf   66 -    68          0.000000000000          0.000000000000         -5.095002777055
      0.1657673158D+02  0.1000000000D+01
 Atom C1       Shell    39 P   1     bf   69 -    71          0.000000000000          0.000000000000         -5.095002777055
      0.8465507783D+01  0.1000000000D+01
 Atom C1       Shell    40 P   1     bf   72 -    74          0.000000000000          0.000000000000         -5.095002777055
      0.4323217860D+01  0.1000000000D+01
 Atom C1       Shell    41 P   1     bf   75 -    77          0.000000000000          0.000000000000         -5.095002777055
      0.2207807629D+01  0.1000000000D+01
 Atom C1       Shell    42 P   1     bf   78 -    80          0.000000000000          0.000000000000         -5.095002777055
      0.1127496852D+01  0.1000000000D+01
 Atom C1       Shell    43 P   1     bf   81 -    83          0.000000000000          0.000000000000         -5.095002777055
      0.5757970639D+00  0.1000000000D+01
 Atom C1       Shell    44 P   1     bf   84 -    86          0.000000000000          0.000000000000         -5.095002777055
      0.2940516050D+00  0.1000000000D+01
 Atom C1       Shell    45 P   1     bf   87 -    89          0.000000000000          0.000000000000         -5.095002777055
      0.1501680918D+00  0.1000000000D+01
 Atom C1       Shell    46 P   1     bf   90 -    92          0.000000000000          0.000000000000         -5.095002777055
      0.7668876969D-01  0.1000000000D+01
 Atom C1       Shell    47 P   1     bf   93 -    95          0.000000000000          0.000000000000         -5.095002777055
      0.3916389510D-01  0.1000000000D+01
 Atom C1       Shell    48 D   1     bf   96 -   100          0.000000000000          0.000000000000         -5.095002777055
      0.4772306896D+03  0.1000000000D+01
 Atom C1       Shell    49 D   1     bf  101 -   105          0.000000000000          0.000000000000         -5.095002777055
      0.2437151195D+03  0.1000000000D+01
 Atom C1       Shell    50 D   1     bf  106 -   110          0.000000000000          0.000000000000         -5.095002777055
      0.1244619442D+03  0.1000000000D+01
 Atom C1       Shell    51 D   1     bf  111 -   115          0.000000000000          0.000000000000         -5.095002777055
      0.6356099525D+02  0.1000000000D+01
 Atom C1       Shell    52 D   1     bf  116 -   120          0.000000000000          0.000000000000         -5.095002777055
      0.3245972208D+02  0.1000000000D+01
 Atom C1       Shell    53 D   1     bf  121 -   125          0.000000000000          0.000000000000         -5.095002777055
      0.1657673158D+02  0.1000000000D+01
 Atom C1       Shell    54 D   1     bf  126 -   130          0.000000000000          0.000000000000         -5.095002777055
      0.8465507783D+01  0.1000000000D+01
 Atom C1       Shell    55 D   1     bf  131 -   135          0.000000000000          0.000000000000         -5.095002777055
      0.4323217860D+01  0.1000000000D+01
 Atom C1       Shell    56 D   1     bf  136 -   140          0.000000000000          0.000000000000         -5.095002777055
      0.2207807629D+01  0.1000000000D+01
 Atom C1       Shell    57 D   1     bf  141 -   145          0.000000000000          0.000000000000         -5.095002777055
      0.1127496852D+01  0.1000000000D+01
 Atom C1       Shell    58 D   1     bf  146 -   150          0.000000000000          0.000000000000         -5.095002777055
      0.5757970639D+00  0.1000000000D+01
 Atom C1       Shell    59 D   1     bf  151 -   155          0.000000000000          0.000000000000         -5.095002777055
      0.2940516050D+00  0.1000000000D+01
 Atom C1       Shell    60 D   1     bf  156 -   160          0.000000000000          0.000000000000         -5.095002777055
      0.1501680918D+00  0.1000000000D+01
 Atom C1       Shell    61 D   1     bf  161 -   165          0.000000000000          0.000000000000         -5.095002777055
      0.7668876969D-01  0.1000000000D+01
 Atom C1       Shell    62 D   1     bf  166 -   170          0.000000000000          0.000000000000         -5.095002777055
      0.3916389510D-01  0.1000000000D+01
 Atom C2       Shell    63 S   1     bf  171 -   171          0.000000000000          0.000000000000         -2.595007050245
      0.2019953588D+06  0.1000000000D+01
 Atom C2       Shell    64 S   1     bf  172 -   172          0.000000000000          0.000000000000         -2.595007050245
      0.1031562389D+06  0.1000000000D+01
 Atom C2       Shell    65 S   1     bf  173 -   173          0.000000000000          0.000000000000         -2.595007050245
      0.5268046591D+05  0.1000000000D+01
 Atom C2       Shell    66 S   1     bf  174 -   174          0.000000000000          0.000000000000         -2.595007050245
      0.2690318607D+05  0.1000000000D+01
 Atom C2       Shell    67 S   1     bf  175 -   175          0.000000000000          0.000000000000         -2.595007050245
      0.1373908542D+05  0.1000000000D+01
 Atom C2       Shell    68 S   1     bf  176 -   176          0.000000000000          0.000000000000         -2.595007050245
      0.7016361094D+04  0.1000000000D+01
 Atom C2       Shell    69 S   1     bf  177 -   177          0.000000000000          0.000000000000         -2.595007050245
      0.3583158668D+04  0.1000000000D+01
 Atom C2       Shell    70 S   1     bf  178 -   178          0.000000000000          0.000000000000         -2.595007050245
      0.1829869625D+04  0.1000000000D+01
 Atom C2       Shell    71 S   1     bf  179 -   179          0.000000000000          0.000000000000         -2.595007050245
      0.9344891347D+03  0.1000000000D+01
 Atom C2       Shell    72 S   1     bf  180 -   180          0.000000000000          0.000000000000         -2.595007050245
      0.4772306896D+03  0.1000000000D+01
 Atom C2       Shell    73 S   1     bf  181 -   181          0.000000000000          0.000000000000         -2.595007050245
      0.2437151195D+03  0.1000000000D+01
 Atom C2       Shell    74 S   1     bf  182 -   182          0.000000000000          0.000000000000         -2.595007050245
      0.1244619442D+03  0.1000000000D+01
 Atom C2       Shell    75 S   1     bf  183 -   183          0.000000000000          0.000000000000         -2.595007050245
      0.6356099525D+02  0.1000000000D+01
 Atom C2       Shell    76 S   1     bf  184 -   184          0.000000000000          0.000000000000         -2.595007050245
      0.3245972208D+02  0.1000000000D+01
 Atom C2       Shell    77 S   1     bf  185 -   185          0.000000000000          0.000000000000         -2.595007050245
      0.1657673158D+02  0.1000000000D+01
 Atom C2       Shell    78 S   1     bf  186 -   186          0.000000000000          0.000000000000         -2.595007050245
      0.8465507783D+01  0.1000000000D+01
 Atom C2       Shell    79 S   1     bf  187 -   187          0.000000000000          0.000000000000         -2.595007050245
      0.4323217860D+01  0.1000000000D+01
 Atom C2       Shell    80 S   1     bf  188 -   188          0.000000000000          0.000000000000         -2.595007050245
      0.2207807629D+01  0.1000000000D+01
 Atom C2       Shell    81 S   1     bf  189 -   189          0.000000000000          0.000000000000         -2.595007050245
      0.1127496852D+01  0.1000000000D+01
 Atom C2       Shell    82 S   1     bf  190 -   190          0.000000000000          0.000000000000         -2.595007050245
      0.5757970639D+00  0.1000000000D+01
 Atom C2       Shell    83 S   1     bf  191 -   191          0.000000000000          0.000000000000         -2.595007050245
      0.2940516050D+00  0.1000000000D+01
 Atom C2       Shell    84 S   1     bf  192 -   192          0.000000000000          0.000000000000         -2.595007050245
      0.1501680918D+00  0.1000000000D+01
 Atom C2       Shell    85 S   1     bf  193 -   193          0.000000000000          0.000000000000         -2.595007050245
      0.7668876969D-01  0.1000000000D+01
 Atom C2       Shell    86 P   1     bf  194 -   196          0.000000000000          0.000000000000         -2.595007050245
      0.2019953588D+06  0.1000000000D+01
 Atom C2       Shell    87 P   1     bf  197 -   199          0.000000000000          0.000000000000         -2.595007050245
      0.1031562389D+06  0.1000000000D+01
 Atom C2       Shell    88 P   1     bf  200 -   202          0.000000000000          0.000000000000         -2.595007050245
      0.5268046591D+05  0.1000000000D+01
 Atom C2       Shell    89 P   1     bf  203 -   205          0.000000000000          0.000000000000         -2.595007050245
      0.2690318607D+05  0.1000000000D+01
 Atom C2       Shell    90 P   1     bf  206 -   208          0.000000000000          0.000000000000         -2.595007050245
      0.1373908542D+05  0.1000000000D+01
 Atom C2       Shell    91 P   1     bf  209 -   211          0.000000000000          0.000000000000         -2.595007050245
      0.7016361094D+04  0.1000000000D+01
 Atom C2       Shell    92 P   1     bf  212 -   214          0.000000000000          0.000000000000         -2.595007050245
      0.3583158668D+04  0.1000000000D+01
 Atom C2       Shell    93 P   1     bf  215 -   217          0.000000000000          0.000000000000         -2.595007050245
      0.1829869625D+04  0.1000000000D+01
 Atom C2       Shell    94 P   1     bf  218 -   220          0.000000000000          0.000000000000         -2.595007050245
      0.9344891347D+03  0.1000000000D+01
 Atom C2       Shell    95 P   1     bf  221 -   223          0.000000000000          0.000000000000         -2.595007050245
      0.4772306896D+03  0.1000000000D+01
 Atom C2       Shell    96 P   1     bf  224 -   226          0.000000000000          0.000000000000         -2.595007050245
      0.2437151195D+03  0.1000000000D+01
 Atom C2       Shell    97 P   1     bf  227 -   229          0.000000000000          0.000000000000         -2.595007050245
      0.1244619442D+03  0.1000000000D+01
 Atom C2       Shell    98 P   1     bf  230 -   232          0.000000000000          0.000000000000         -2.595007050245
      0.6356099525D+02  0.1000000000D+01
 Atom C2       Shell    99 P   1     bf  233 -   235          0.000000000000          0.000000000000         -2.595007050245
      0.3245972208D+02  0.1000000000D+01
 Atom C2       Shell   100 P   1     bf  236 -   238          0.000000000000          0.000000000000         -2.595007050245
      0.1657673158D+02  0.1000000000D+01
 Atom C2       Shell   101 P   1     bf  239 -   241          0.000000000000          0.000000000000         -2.595007050245
      0.8465507783D+01  0.1000000000D+01
 Atom C2       Shell   102 P   1     bf  242 -   244          0.000000000000          0.000000000000         -2.595007050245
      0.4323217860D+01  0.1000000000D+01
 Atom C2       Shell   103 P   1     bf  245 -   247          0.000000000000          0.000000000000         -2.595007050245
      0.2207807629D+01  0.1000000000D+01
 Atom C2       Shell   104 P   1     bf  248 -   250          0.000000000000          0.000000000000         -2.595007050245
      0.1127496852D+01  0.1000000000D+01
 Atom C2       Shell   105 P   1     bf  251 -   253          0.000000000000          0.000000000000         -2.595007050245
      0.5757970639D+00  0.1000000000D+01
 Atom C2       Shell   106 P   1     bf  254 -   256          0.000000000000          0.000000000000         -2.595007050245
      0.2940516050D+00  0.1000000000D+01
 Atom C2       Shell   107 P   1     bf  257 -   259          0.000000000000          0.000000000000         -2.595007050245
      0.1501680918D+00  0.1000000000D+01
 Atom C2       Shell   108 P   1     bf  260 -   262          0.000000000000          0.000000000000         -2.595007050245
      0.7668876969D-01  0.1000000000D+01
 Atom C2       Shell   109 P   1     bf  263 -   265          0.000000000000          0.000000000000         -2.595007050245
      0.3916389510D-01  0.1000000000D+01
 Atom C2       Shell   110 D   1     bf  266 -   270          0.000000000000          0.000000000000         -2.595007050245
      0.4772306896D+03  0.1000000000D+01
 Atom C2       Shell   111 D   1     bf  271 -   275          0.000000000000          0.000000000000         -2.595007050245
      0.2437151195D+03  0.1000000000D+01
 Atom C2       Shell   112 D   1     bf  276 -   280          0.000000000000          0.000000000000         -2.595007050245
      0.1244619442D+03  0.1000000000D+01
 Atom C2       Shell   113 D   1     bf  281 -   285          0.000000000000          0.000000000000         -2.595007050245
      0.6356099525D+02  0.1000000000D+01
 Atom C2       Shell   114 D   1     bf  286 -   290          0.000000000000          0.000000000000         -2.595007050245
      0.3245972208D+02  0.1000000000D+01
 Atom C2       Shell   115 D   1     bf  291 -   295          0.000000000000          0.000000000000         -2.595007050245
      0.1657673158D+02  0.1000000000D+01
 Atom C2       Shell   116 D   1     bf  296 -   300          0.000000000000          0.000000000000         -2.595007050245
      0.8465507783D+01  0.1000000000D+01
 Atom C2       Shell   117 D   1     bf  301 -   305          0.000000000000          0.000000000000         -2.595007050245
      0.4323217860D+01  0.1000000000D+01
 Atom C2       Shell   118 D   1     bf  306 -   310          0.000000000000          0.000000000000         -2.595007050245
      0.2207807629D+01  0.1000000000D+01
 Atom C2       Shell   119 D   1     bf  311 -   315          0.000000000000          0.000000000000         -2.595007050245
      0.1127496852D+01  0.1000000000D+01
 Atom C2       Shell   120 D   1     bf  316 -   320          0.000000000000          0.000000000000         -2.595007050245
      0.5757970639D+00  0.1000000000D+01
 Atom C2       Shell   121 D   1     bf  321 -   325          0.000000000000          0.000000000000         -2.595007050245
      0.2940516050D+00  0.1000000000D+01
 Atom C2       Shell   122 D   1     bf  326 -   330          0.000000000000          0.000000000000         -2.595007050245
      0.1501680918D+00  0.1000000000D+01
 Atom C2       Shell   123 D   1     bf  331 -   335          0.000000000000          0.000000000000         -2.595007050245
      0.7668876969D-01  0.1000000000D+01
 Atom C2       Shell   124 D   1     bf  336 -   340          0.000000000000          0.000000000000         -2.595007050245
      0.3916389510D-01  0.1000000000D+01
 Atom C3       Shell   125 S   1     bf  341 -   341          0.000000000000          0.000000000000         -0.235451183077
      0.2019953588D+06  0.1000000000D+01
 Atom C3       Shell   126 S   1     bf  342 -   342          0.000000000000          0.000000000000         -0.235451183077
      0.1031562389D+06  0.1000000000D+01
 Atom C3       Shell   127 S   1     bf  343 -   343          0.000000000000          0.000000000000         -0.235451183077
      0.5268046591D+05  0.1000000000D+01
 Atom C3       Shell   128 S   1     bf  344 -   344          0.000000000000          0.000000000000         -0.235451183077
      0.2690318607D+05  0.1000000000D+01
 Atom C3       Shell   129 S   1     bf  345 -   345          0.000000000000          0.000000000000         -0.235451183077
      0.1373908542D+05  0.1000000000D+01
 Atom C3       Shell   130 S   1     bf  346 -   346          0.000000000000          0.000000000000         -0.235451183077
      0.7016361094D+04  0.1000000000D+01
 Atom C3       Shell   131 S   1     bf  347 -   347          0.000000000000          0.000000000000         -0.235451183077
      0.3583158668D+04  0.1000000000D+01
 Atom C3       Shell   132 S   1     bf  348 -   348          0.000000000000          0.000000000000         -0.235451183077
      0.1829869625D+04  0.1000000000D+01
 Atom C3       Shell   133 S   1     bf  349 -   349          0.000000000000          0.000000000000         -0.235451183077
      0.9344891347D+03  0.1000000000D+01
 Atom C3       Shell   134 S   1     bf  350 -   350          0.000000000000          0.000000000000         -0.235451183077
      0.4772306896D+03  0.1000000000D+01
 Atom C3       Shell   135 S   1     bf  351 -   351          0.000000000000          0.000000000000         -0.235451183077
      0.2437151195D+03  0.1000000000D+01
 Atom C3       Shell   136 S   1     bf  352 -   352          0.000000000000          0.000000000000         -0.235451183077
      0.1244619442D+03  0.1000000000D+01
 Atom C3       Shell   137 S   1     bf  353 -   353          0.000000000000          0.000000000000         -0.235451183077
      0.6356099525D+02  0.1000000000D+01
 Atom C3       Shell   138 S   1     bf  354 -   354          0.000000000000          0.000000000000         -0.235451183077
      0.3245972208D+02  0.1000000000D+01
 Atom C3       Shell   139 S   1     bf  355 -   355          0.000000000000          0.000000000000         -0.235451183077
      0.1657673158D+02  0.1000000000D+01
 Atom C3       Shell   140 S   1     bf  356 -   356          0.000000000000          0.000000000000         -0.235451183077
      0.8465507783D+01  0.1000000000D+01
 Atom C3       Shell   141 S   1     bf  357 -   357          0.000000000000          0.000000000000         -0.235451183077
      0.4323217860D+01  0.1000000000D+01
 Atom C3       Shell   142 S   1     bf  358 -   358          0.000000000000          0.000000000000         -0.235451183077
      0.2207807629D+01  0.1000000000D+01
 Atom C3       Shell   143 S   1     bf  359 -   359          0.000000000000          0.000000000000         -0.235451183077
      0.1127496852D+01  0.1000000000D+01
 Atom C3       Shell   144 S   1     bf  360 -   360          0.000000000000          0.000000000000         -0.235451183077
      0.5757970639D+00  0.1000000000D+01
 Atom C3       Shell   145 S   1     bf  361 -   361          0.000000000000          0.000000000000         -0.235451183077
      0.2940516050D+00  0.1000000000D+01
 Atom C3       Shell   146 S   1     bf  362 -   362          0.000000000000          0.000000000000         -0.235451183077
      0.1501680918D+00  0.1000000000D+01
 Atom C3       Shell   147 S   1     bf  363 -   363          0.000000000000          0.000000000000         -0.235451183077
      0.7668876969D-01  0.1000000000D+01
 Atom C3       Shell   148 P   1     bf  364 -   366          0.000000000000          0.000000000000         -0.235451183077
      0.2019953588D+06  0.1000000000D+01
 Atom C3       Shell   149 P   1     bf  367 -   369          0.000000000000          0.000000000000         -0.235451183077
      0.1031562389D+06  0.1000000000D+01
 Atom C3       Shell   150 P   1     bf  370 -   372          0.000000000000          0.000000000000         -0.235451183077
      0.5268046591D+05  0.1000000000D+01
 Atom C3       Shell   151 P   1     bf  373 -   375          0.000000000000          0.000000000000         -0.235451183077
      0.2690318607D+05  0.1000000000D+01
 Atom C3       Shell   152 P   1     bf  376 -   378          0.000000000000          0.000000000000         -0.235451183077
      0.1373908542D+05  0.1000000000D+01
 Atom C3       Shell   153 P   1     bf  379 -   381          0.000000000000          0.000000000000         -0.235451183077
      0.7016361094D+04  0.1000000000D+01
 Atom C3       Shell   154 P   1     bf  382 -   384          0.000000000000          0.000000000000         -0.235451183077
      0.3583158668D+04  0.1000000000D+01
 Atom C3       Shell   155 P   1     bf  385 -   387          0.000000000000          0.000000000000         -0.235451183077
      0.1829869625D+04  0.1000000000D+01
 Atom C3       Shell   156 P   1     bf  388 -   390          0.000000000000          0.000000000000         -0.235451183077
      0.9344891347D+03  0.1000000000D+01
 Atom C3       Shell   157 P   1     bf  391 -   393          0.000000000000          0.000000000000         -0.235451183077
      0.4772306896D+03  0.1000000000D+01
 Atom C3       Shell   158 P   1     bf  394 -   396          0.000000000000          0.000000000000         -0.235451183077
      0.2437151195D+03  0.1000000000D+01
 Atom C3       Shell   159 P   1     bf  397 -   399          0.000000000000          0.000000000000         -0.235451183077
      0.1244619442D+03  0.1000000000D+01
 Atom C3       Shell   160 P   1     bf  400 -   402          0.000000000000          0.000000000000         -0.235451183077
      0.6356099525D+02  0.1000000000D+01
 Atom C3       Shell   161 P   1     bf  403 -   405          0.000000000000          0.000000000000         -0.235451183077
      0.3245972208D+02  0.1000000000D+01
 Atom C3       Shell   162 P   1     bf  406 -   408          0.000000000000          0.000000000000         -0.235451183077
      0.1657673158D+02  0.1000000000D+01
 Atom C3       Shell   163 P   1     bf  409 -   411          0.000000000000          0.000000000000         -0.235451183077
      0.8465507783D+01  0.1000000000D+01
 Atom C3       Shell   164 P   1     bf  412 -   414          0.000000000000          0.000000000000         -0.235451183077
      0.4323217860D+01  0.1000000000D+01
 Atom C3       Shell   165 P   1     bf  415 -   417          0.000000000000          0.000000000000         -0.235451183077
      0.2207807629D+01  0.1000000000D+01
 Atom C3       Shell   166 P   1     bf  418 -   420          0.000000000000          0.000000000000         -0.235451183077
      0.1127496852D+01  0.1000000000D+01
 Atom C3       Shell   167 P   1     bf  421 -   423          0.000000000000          0.000000000000         -0.235451183077
      0.5757970639D+00  0.1000000000D+01
 Atom C3       Shell   168 P   1     bf  424 -   426          0.000000000000          0.000000000000         -0.235451183077
      0.2940516050D+00  0.1000000000D+01
 Atom C3       Shell   169 P   1     bf  427 -   429          0.000000000000          0.000000000000         -0.235451183077
      0.1501680918D+00  0.1000000000D+01
 Atom C3       Shell   170 P   1     bf  430 -   432          0.000000000000          0.000000000000         -0.235451183077
      0.7668876969D-01  0.1000000000D+01
 Atom C3       Shell   171 P   1     bf  433 -   435          0.000000000000          0.000000000000         -0.235451183077
      0.3916389510D-01  0.1000000000D+01
 Atom C3       Shell   172 D   1     bf  436 -   440          0.000000000000          0.000000000000         -0.235451183077
      0.4772306896D+03  0.1000000000D+01
 Atom C3       Shell   173 D   1     bf  441 -   445          0.000000000000          0.000000000000         -0.235451183077
      0.2437151195D+03  0.1000000000D+01
 Atom C3       Shell   174 D   1     bf  446 -   450          0.000000000000          0.000000000000         -0.235451183077
      0.1244619442D+03  0.1000000000D+01
 Atom C3       Shell   175 D   1     bf  451 -   455          0.000000000000          0.000000000000         -0.235451183077
      0.6356099525D+02  0.1000000000D+01
 Atom C3       Shell   176 D   1     bf  456 -   460          0.000000000000          0.000000000000         -0.235451183077
      0.3245972208D+02  0.1000000000D+01
 Atom C3       Shell   177 D   1     bf  461 -   465          0.000000000000          0.000000000000         -0.235451183077
      0.1657673158D+02  0.1000000000D+01
 Atom C3       Shell   178 D   1     bf  466 -   470          0.000000000000          0.000000000000         -0.235451183077
      0.8465507783D+01  0.1000000000D+01
 Atom C3       Shell   179 D   1     bf  471 -   475          0.000000000000          0.000000000000         -0.235451183077
      0.4323217860D+01  0.1000000000D+01
 Atom C3       Shell   180 D   1     bf  476 -   480          0.000000000000          0.000000000000         -0.235451183077
      0.2207807629D+01  0.1000000000D+01
 Atom C3       Shell   181 D   1     bf  481 -   485          0.000000000000          0.000000000000         -0.235451183077
      0.1127496852D+01  0.1000000000D+01
 Atom C3       Shell   182 D   1     bf  486 -   490          0.000000000000          0.000000000000         -0.235451183077
      0.5757970639D+00  0.1000000000D+01
 Atom C3       Shell   183 D   1     bf  491 -   495          0.000000000000          0.000000000000         -0.235451183077
      0.2940516050D+00  0.1000000000D+01
 Atom C3       Shell   184 D   1     bf  496 -   500          0.000000000000          0.000000000000         -0.235451183077
      0.1501680918D+00  0.1000000000D+01
 Atom C3       Shell   185 D   1     bf  501 -   505          0.000000000000          0.000000000000         -0.235451183077
      0.7668876969D-01  0.1000000000D+01
 Atom C3       Shell   186 D   1     bf  506 -   510          0.000000000000          0.000000000000         -0.235451183077
      0.3916389510D-01  0.1000000000D+01
 Atom Cl4      Shell   187 S   1     bf  511 -   511          0.000000000000          0.000000000000          2.797221533074
      0.2969784651D+07  0.1000000000D+01
 Atom Cl4      Shell   188 S   1     bf  512 -   512          0.000000000000          0.000000000000          2.797221533074
      0.1516627989D+07  0.1000000000D+01
 Atom Cl4      Shell   189 S   1     bf  513 -   513          0.000000000000          0.000000000000          2.797221533074
      0.7745209592D+06  0.1000000000D+01
 Atom Cl4      Shell   190 S   1     bf  514 -   514          0.000000000000          0.000000000000          2.797221533074
      0.3955371526D+06  0.1000000000D+01
 Atom Cl4      Shell   191 S   1     bf  515 -   515          0.000000000000          0.000000000000          2.797221533074
      0.2019953588D+06  0.1000000000D+01
 Atom Cl4      Shell   192 S   1     bf  516 -   516          0.000000000000          0.000000000000          2.797221533074
      0.1031562389D+06  0.1000000000D+01
 Atom Cl4      Shell   193 S   1     bf  517 -   517          0.000000000000          0.000000000000          2.797221533074
      0.5268046591D+05  0.1000000000D+01
 Atom Cl4      Shell   194 S   1     bf  518 -   518          0.000000000000          0.000000000000          2.797221533074
      0.2690318607D+05  0.1000000000D+01
 Atom Cl4      Shell   195 S   1     bf  519 -   519          0.000000000000          0.000000000000          2.797221533074
      0.1373908542D+05  0.1000000000D+01
 Atom Cl4      Shell   196 S   1     bf  520 -   520          0.000000000000          0.000000000000          2.797221533074
      0.7016361094D+04  0.1000000000D+01
 Atom Cl4      Shell   197 S   1     bf  521 -   521          0.000000000000          0.000000000000          2.797221533074
      0.3583158668D+04  0.1000000000D+01
 Atom Cl4      Shell   198 S   1     bf  522 -   522          0.000000000000          0.000000000000          2.797221533074
      0.1829869625D+04  0.1000000000D+01
 Atom Cl4      Shell   199 S   1     bf  523 -   523          0.000000000000          0.000000000000          2.797221533074
      0.9344891347D+03  0.1000000000D+01
 Atom Cl4      Shell   200 S   1     bf  524 -   524          0.000000000000          0.000000000000          2.797221533074
      0.4772306896D+03  0.1000000000D+01
 Atom Cl4      Shell   201 S   1     bf  525 -   525          0.000000000000          0.000000000000          2.797221533074
      0.2437151195D+03  0.1000000000D+01
 Atom Cl4      Shell   202 S   1     bf  526 -   526          0.000000000000          0.000000000000          2.797221533074
      0.1244619442D+03  0.1000000000D+01
 Atom Cl4      Shell   203 S   1     bf  527 -   527          0.000000000000          0.000000000000          2.797221533074
      0.6356099525D+02  0.1000000000D+01
 Atom Cl4      Shell   204 S   1     bf  528 -   528          0.000000000000          0.000000000000          2.797221533074
      0.3245972208D+02  0.1000000000D+01
 Atom Cl4      Shell   205 S   1     bf  529 -   529          0.000000000000          0.000000000000          2.797221533074
      0.1657673158D+02  0.1000000000D+01
 Atom Cl4      Shell   206 S   1     bf  530 -   530          0.000000000000          0.000000000000          2.797221533074
      0.8465507783D+01  0.1000000000D+01
 Atom Cl4      Shell   207 S   1     bf  531 -   531          0.000000000000          0.000000000000          2.797221533074
      0.4323217860D+01  0.1000000000D+01
 Atom Cl4      Shell   208 S   1     bf  532 -   532          0.000000000000          0.000000000000          2.797221533074
      0.2207807629D+01  0.1000000000D+01
 Atom Cl4      Shell   209 S   1     bf  533 -   533          0.000000000000          0.000000000000          2.797221533074
      0.1127496852D+01  0.1000000000D+01
 Atom Cl4      Shell   210 S   1     bf  534 -   534          0.000000000000          0.000000000000          2.797221533074
      0.5757970639D+00  0.1000000000D+01
 Atom Cl4      Shell   211 S   1     bf  535 -   535          0.000000000000          0.000000000000          2.797221533074
      0.2940516050D+00  0.1000000000D+01
 Atom Cl4      Shell   212 S   1     bf  536 -   536          0.000000000000          0.000000000000          2.797221533074
      0.1501680918D+00  0.1000000000D+01
 Atom Cl4      Shell   213 S   1     bf  537 -   537          0.000000000000          0.000000000000          2.797221533074
      0.7668876969D-01  0.1000000000D+01
 Atom Cl4      Shell   214 P   1     bf  538 -   540          0.000000000000          0.000000000000          2.797221533074
      0.2969784651D+07  0.1000000000D+01
 Atom Cl4      Shell   215 P   1     bf  541 -   543          0.000000000000          0.000000000000          2.797221533074
      0.1516627989D+07  0.1000000000D+01
 Atom Cl4      Shell   216 P   1     bf  544 -   546          0.000000000000          0.000000000000          2.797221533074
      0.7745209592D+06  0.1000000000D+01
 Atom Cl4      Shell   217 P   1     bf  547 -   549          0.000000000000          0.000000000000          2.797221533074
      0.3955371526D+06  0.1000000000D+01
 Atom Cl4      Shell   218 P   1     bf  550 -   552          0.000000000000          0.000000000000          2.797221533074
      0.2019953588D+06  0.1000000000D+01
 Atom Cl4      Shell   219 P   1     bf  553 -   555          0.000000000000          0.000000000000          2.797221533074
      0.1031562389D+06  0.1000000000D+01
 Atom Cl4      Shell   220 P   1     bf  556 -   558          0.000000000000          0.000000000000          2.797221533074
      0.5268046591D+05  0.1000000000D+01
 Atom Cl4      Shell   221 P   1     bf  559 -   561          0.000000000000          0.000000000000          2.797221533074
      0.2690318607D+05  0.1000000000D+01
 Atom Cl4      Shell   222 P   1     bf  562 -   564          0.000000000000          0.000000000000          2.797221533074
      0.1373908542D+05  0.1000000000D+01
 Atom Cl4      Shell   223 P   1     bf  565 -   567          0.000000000000          0.000000000000          2.797221533074
      0.7016361094D+04  0.1000000000D+01
 Atom Cl4      Shell   224 P   1     bf  568 -   570          0.000000000000          0.000000000000          2.797221533074
      0.3583158668D+04  0.1000000000D+01
 Atom Cl4      Shell   225 P   1     bf  571 -   573          0.000000000000          0.000000000000          2.797221533074
      0.1829869625D+04  0.1000000000D+01
 Atom Cl4      Shell   226 P   1     bf  574 -   576          0.000000000000          0.000000000000          2.797221533074
      0.9344891347D+03  0.1000000000D+01
 Atom Cl4      Shell   227 P   1     bf  577 -   579          0.000000000000          0.000000000000          2.797221533074
      0.4772306896D+03  0.1000000000D+01
 Atom Cl4      Shell   228 P   1     bf  580 -   582          0.000000000000          0.000000000000          2.797221533074
      0.2437151195D+03  0.1000000000D+01
 Atom Cl4      Shell   229 P   1     bf  583 -   585          0.000000000000          0.000000000000          2.797221533074
      0.1244619442D+03  0.1000000000D+01
 Atom Cl4      Shell   230 P   1     bf  586 -   588          0.000000000000          0.000000000000          2.797221533074
      0.6356099525D+02  0.1000000000D+01
 Atom Cl4      Shell   231 P   1     bf  589 -   591          0.000000000000          0.000000000000          2.797221533074
      0.3245972208D+02  0.1000000000D+01
 Atom Cl4      Shell   232 P   1     bf  592 -   594          0.000000000000          0.000000000000          2.797221533074
      0.1657673158D+02  0.1000000000D+01
 Atom Cl4      Shell   233 P   1     bf  595 -   597          0.000000000000          0.000000000000          2.797221533074
      0.8465507783D+01  0.1000000000D+01
 Atom Cl4      Shell   234 P   1     bf  598 -   600          0.000000000000          0.000000000000          2.797221533074
      0.4323217860D+01  0.1000000000D+01
 Atom Cl4      Shell   235 P   1     bf  601 -   603          0.000000000000          0.000000000000          2.797221533074
      0.2207807629D+01  0.1000000000D+01
 Atom Cl4      Shell   236 P   1     bf  604 -   606          0.000000000000          0.000000000000          2.797221533074
      0.1127496852D+01  0.1000000000D+01
 Atom Cl4      Shell   237 P   1     bf  607 -   609          0.000000000000          0.000000000000          2.797221533074
      0.5757970639D+00  0.1000000000D+01
 Atom Cl4      Shell   238 P   1     bf  610 -   612          0.000000000000          0.000000000000          2.797221533074
      0.2940516050D+00  0.1000000000D+01
 Atom Cl4      Shell   239 P   1     bf  613 -   615          0.000000000000          0.000000000000          2.797221533074
      0.1501680918D+00  0.1000000000D+01
 Atom Cl4      Shell   240 P   1     bf  616 -   618          0.000000000000          0.000000000000          2.797221533074
      0.7668876969D-01  0.1000000000D+01
 Atom Cl4      Shell   241 D   1     bf  619 -   623          0.000000000000          0.000000000000          2.797221533074
      0.1373908542D+05  0.1000000000D+01
 Atom Cl4      Shell   242 D   1     bf  624 -   628          0.000000000000          0.000000000000          2.797221533074
      0.7016361094D+04  0.1000000000D+01
 Atom Cl4      Shell   243 D   1     bf  629 -   633          0.000000000000          0.000000000000          2.797221533074
      0.3583158668D+04  0.1000000000D+01
 Atom Cl4      Shell   244 D   1     bf  634 -   638          0.000000000000          0.000000000000          2.797221533074
      0.1829869625D+04  0.1000000000D+01
 Atom Cl4      Shell   245 D   1     bf  639 -   643          0.000000000000          0.000000000000          2.797221533074
      0.9344891347D+03  0.1000000000D+01
 Atom Cl4      Shell   246 D   1     bf  644 -   648          0.000000000000          0.000000000000          2.797221533074
      0.4772306896D+03  0.1000000000D+01
 Atom Cl4      Shell   247 D   1     bf  649 -   653          0.000000000000          0.000000000000          2.797221533074
      0.2437151195D+03  0.1000000000D+01
 Atom Cl4      Shell   248 D   1     bf  654 -   658          0.000000000000          0.000000000000          2.797221533074
      0.1244619442D+03  0.1000000000D+01
 Atom Cl4      Shell   249 D   1     bf  659 -   663          0.000000000000          0.000000000000          2.797221533074
      0.6356099525D+02  0.1000000000D+01
 Atom Cl4      Shell   250 D   1     bf  664 -   668          0.000000000000          0.000000000000          2.797221533074
      0.3245972208D+02  0.1000000000D+01
 Atom Cl4      Shell   251 D   1     bf  669 -   673          0.000000000000          0.000000000000          2.797221533074
      0.1657673158D+02  0.1000000000D+01
 Atom Cl4      Shell   252 D   1     bf  674 -   678          0.000000000000          0.000000000000          2.797221533074
      0.8465507783D+01  0.1000000000D+01
 Atom Cl4      Shell   253 D   1     bf  679 -   683          0.000000000000          0.000000000000          2.797221533074
      0.4323217860D+01  0.1000000000D+01
 Atom Cl4      Shell   254 D   1     bf  684 -   688          0.000000000000          0.000000000000          2.797221533074
      0.2207807629D+01  0.1000000000D+01
 Atom Cl4      Shell   255 D   1     bf  689 -   693          0.000000000000          0.000000000000          2.797221533074
      0.1127496852D+01  0.1000000000D+01
 Atom Cl4      Shell   256 D   1     bf  694 -   698          0.000000000000          0.000000000000          2.797221533074
      0.5757970639D+00  0.1000000000D+01
 Atom Cl4      Shell   257 D   1     bf  699 -   703          0.000000000000          0.000000000000          2.797221533074
      0.2940516050D+00  0.1000000000D+01
 Atom Cl4      Shell   258 D   1     bf  704 -   708          0.000000000000          0.000000000000          2.797221533074
      0.1501680918D+00  0.1000000000D+01
 Atom Cl4      Shell   259 D   1     bf  709 -   713          0.000000000000          0.000000000000          2.797221533074
      0.7668876969D-01  0.1000000000D+01
 There are   387 symmetry adapted cartesian basis functions of A1  symmetry.
 There are    64 symmetry adapted cartesian basis functions of A2  symmetry.
 There are   163 symmetry adapted cartesian basis functions of B1  symmetry.
 There are   163 symmetry adapted cartesian basis functions of B2  symmetry.
 There are   323 symmetry adapted basis functions of A1  symmetry.
 There are    64 symmetry adapted basis functions of A2  symmetry.
 There are   163 symmetry adapted basis functions of B1  symmetry.
 There are   163 symmetry adapted basis functions of B2  symmetry.
   713 basis functions,   777 primitive gaussians,   777 cartesian basis functions
    18 alpha electrons       17 beta electrons
       nuclear repulsion energy       102.5391478352 Hartrees.
 IExCor= 3731 DFT=T Ex+Corr=APFD ExCW=0 ScaHFX=  0.229450
 ScaDFX=  1.000000  1.000000  1.000000  1.000000 ScalE2=  1.000000  1.000000
 IRadAn= 299974 IRanWt=     -1 IRanGd=            0 ICorTp=0 IEmpDi=211
 NAtoms=    4 NActive=    4 NUniq=    4 SFac= 1.00D+00 NAtFMM=   60 NAOKFM=F Big=F
 Integral buffers will be    131072 words long.
 Raffenetti 2 integral format.
 Two-electron integral symmetry is turned on.
 R6Disp:  Petersson-Frisch Dispersion energy=       -0.0005635718 Hartrees.
 Nuclear repulsion after empirical dispersion term =      102.5385842634 Hartrees.
 Leave Link  301 at Sat Jul 27 08:52:28 2013, MaxMem=  536870912 cpu:       0.2
 (Enter /share/apps/gaussian/gdvh12/gdv/l302.exe)
 NPDir=0 NMtPBC=     1 NCelOv=     1 NCel=       1 NClECP=     1 NCelD=      1
         NCelK=      1 NCelE2=     1 NClLst=     1 CellRange=     0.0.
 One-electron integrals computed using PRISM.
 NBasis=   713 RedAO= T EigKep=  1.06D-06  NBF=   323    64   163   163
 NBsUse=   710 1.00D-06 EigRej=  5.43D-07 NBFU=   320    64   163   163
 Precomputing XC quadrature grid using
 IXCGrd= 2 IRadAn=      299974 IRanWt=          -1 IRanGd=           0 AccXCQ= 0.00D+00.
 NRdTot=    1196 NPtTot=      974974 NUsed=      983411 NTot=      983443
 NSgBfM=   497   497   497   497   497 NAtAll=     4     4.
 Leave Link  302 at Sat Jul 27 08:52:29 2013, MaxMem=  536870912 cpu:       2.7
 (Enter /share/apps/gaussian/gdvh12/gdv/l303.exe)
 DipDrv:  MaxL=1.
 Leave Link  303 at Sat Jul 27 08:52:29 2013, MaxMem=  536870912 cpu:       0.4
 (Enter /share/apps/gaussian/gdvh12/gdv/l401.exe)
 ExpMin= 3.92D-02 ExpMax= 2.97D+06 ExpMxC= 2.97D+06 IAcc=4 IRadAn=    299974 AccDes= 0.00D+00
 Harris functional with IExCor= 3731 and IRadAn=  299974 diagonalized for initial guess.
 HarFok:  IExCor= 3731 AccDes= 0.00D+00 IRadAn=    299974 IDoV= 1 UseB2=F ITyADJ=14
 ICtDFT=  3500011 ScaDFX=  1.000000  1.000000  1.000000  1.000000
 FoFCou: FMM=F IPFlag=           0 FMFlag=      100000 FMFlg1=           0
         NFxFlg=           0 DoJE=T BraDBF=F KetDBF=T FulRan=T
         wScrn=  0.000000 ICntrl=     500 IOpCl=  0 I1Cent=   200000004 NGrid=           0
         NMat0=    1 NMatS0=      1 NMatT0=    0 NMatD0=    1 NMtDS0=    0 NMtDT0=    0
 Petite list used in FoFCou.
 DSYEVD returned Info=       51921 IAlg= 4 N=   320 NDim=   710 NE2=      753063 trying DSYEV.
 Harris En= -564.452163854756    
 Initial guess orbital symmetries:
 Alpha Orbitals:
       Occupied  (SG) (SG) (SG) (SG) (SG) (SG) (PI) (PI) (SG) (SG)
                 (SG) (SG) (PI) (PI) (SG) (PI) (PI) (PI)
       Virtual   (PI) (SG) (SG) (PI) (PI) (SG) (PI) (PI) (DLTA)
                 (DLTA) (SG) (PI) (PI) (PI) (PI) (SG) (DLTA) (DLTA)
                 (SG) (PI) (PI) (SG) (DLTA) (DLTA) (SG) (DLTA)
                 (DLTA) (PI) (PI) (PI) (PI) (SG) (SG) (SG) (DLTA)
                 (DLTA) (PI) (PI) (PI) (PI) (PI) (PI) (SG) (DLTA)
                 (DLTA) (SG) (PI) (PI) (SG) (DLTA) (DLTA) (SG)
                 (PI) (PI) (PI) (PI) (SG) (DLTA) (DLTA) (PI) (PI)
                 (SG) (DLTA) (DLTA) (SG) (PI) (PI) (SG) (DLTA)
                 (DLTA) (PI) (PI) (SG) (PI) (PI) (PI) (PI) (SG)
                 (DLTA) (DLTA) (PI) (PI) (SG) (PI) (PI) (SG) (SG)
                 (DLTA) (DLTA) (SG) (PI) (PI) (PI) (PI) (PI) (PI)
                 (SG) (SG) (DLTA) (DLTA) (SG) (DLTA) (DLTA) (PI)
                 (PI) (SG) (SG) (DLTA) (DLTA) (PI) (PI) (SG) (PI)
                 (PI) (SG) (PI) (PI) (PI) (PI) (SG) (SG) (SG) (PI)
                 (PI) (DLTA) (DLTA) (PI) (PI) (PI) (PI) (SG) (PI)
                 (PI) (SG) (SG) (SG) (DLTA) (DLTA) (SG) (DLTA)
                 (DLTA) (PI) (PI) (PI) (PI) (SG) (DLTA) (DLTA)
                 (SG) (SG) (PI) (PI) (SG) (SG) (PI) (PI) (SG) (PI)
                 (PI) (DLTA) (DLTA) (PI) (PI) (SG) (PI) (PI) (SG)
                 (SG) (PI) (PI) (SG) (SG) (DLTA) (DLTA) (SG) (DLTA)
                 (DLTA) (DLTA) (DLTA) (PI) (PI) (SG) (PI) (PI)
                 (SG) (PI) (PI) (SG) (SG) (SG) (SG) (SG) (PI) (PI)
                 (PI) (PI) (PI) (PI) (DLTA) (DLTA) (PI) (PI) (SG)
                 (SG) (SG) (PI) (PI) (DLTA) (DLTA) (SG) (PI) (PI)
                 (DLTA) (DLTA) (DLTA) (DLTA) (PI) (PI) (SG) (SG)
                 (PI) (PI) (SG) (SG) (SG) (SG) (SG) (PI) (PI) (PI)
                 (PI) (SG) (PI) (PI) (DLTA) (DLTA) (PI) (PI) (SG)
                 (SG) (SG) (DLTA) (DLTA) (DLTA) (DLTA) (SG) (PI)
                 (PI) (DLTA) (DLTA) (PI) (PI) (PI) (PI) (SG) (SG)
                 (PI) (PI) (SG) (SG) (SG) (SG) (SG) (PI) (PI) (PI)
                 (PI) (PI) (PI) (SG) (SG) (DLTA) (DLTA) (PI) (PI)
                 (SG) (SG) (DLTA) (DLTA) (DLTA) (DLTA) (DLTA) (DLTA)
                 (PI) (PI) (PI) (PI) (SG) (PI) (PI) (SG) (SG) (PI)
                 (PI) (SG) (SG) (SG) (SG) (PI) (PI) (PI) (PI) (PI)
                 (PI) (SG) (SG) (SG) (DLTA) (DLTA) (PI) (PI) (SG)
                 (SG) (DLTA) (DLTA) (DLTA) (DLTA) (DLTA) (DLTA)
                 (PI) (PI) (PI) (PI) (SG) (PI) (PI) (SG) (SG) (SG)
                 (SG) (SG) (PI) (PI) (SG) (PI) (PI) (PI) (PI) (PI)
                 (PI) (SG) (SG) (SG) (DLTA) (DLTA) (PI) (PI) (SG)
                 (SG) (DLTA) (DLTA) (DLTA) (DLTA) (DLTA) (DLTA)
                 (PI) (PI) (PI) (PI) (SG) (PI) (PI) (SG) (SG) (SG)
                 (SG) (SG) (PI) (PI) (SG) (PI) (PI) (PI) (PI) (PI)
                 (PI) (SG) (SG) (SG) (DLTA) (DLTA) (PI) (PI) (SG)
                 (DLTA) (DLTA) (DLTA) (DLTA) (DLTA) (DLTA) (PI)
                 (PI) (PI) (PI) (SG) (PI) (PI) (SG) (SG) (SG) (SG)
                 (SG) (SG) (PI) (PI) (SG) (PI) (PI) (PI) (PI) (PI)
                 (PI) (SG) (SG) (SG) (DLTA) (DLTA) (PI) (PI) (SG)
                 (DLTA) (DLTA) (DLTA) (DLTA) (DLTA) (DLTA) (PI)
                 (PI) (PI) (PI) (SG) (PI) (PI) (SG) (SG) (SG) (SG)
                 (SG) (SG) (PI) (PI) (SG) (PI) (PI) (PI) (PI) (PI)
                 (PI) (SG) (SG) (SG) (DLTA) (DLTA) (PI) (PI) (SG)
                 (DLTA) (DLTA) (DLTA) (DLTA) (DLTA) (DLTA) (PI)
                 (PI) (PI) (PI) (SG) (PI) (PI) (SG) (SG) (SG) (SG)
                 (SG) (SG) (PI) (PI) (SG) (PI) (PI) (PI) (PI) (PI)
                 (PI) (SG) (SG) (SG) (DLTA) (DLTA) (PI) (PI) (SG)
                 (DLTA) (DLTA) (DLTA) (DLTA) (DLTA) (DLTA) (PI)
                 (PI) (PI) (PI) (SG) (PI) (PI) (SG) (SG) (SG) (SG)
                 (SG) (SG) (PI) (PI) (SG) (PI) (PI) (PI) (PI) (PI)
                 (PI) (SG) (SG) (SG) (DLTA) (DLTA) (PI) (PI) (SG)
                 (SG) (SG) (SG) (SG) (PI) (PI) (SG) (PI) (PI) (PI)
                 (PI) (PI) (PI) (SG) (SG) (SG) (DLTA) (DLTA) (PI)
                 (PI) (SG) (SG) (SG) (SG) (SG) (PI) (PI) (SG) (PI)
                 (PI) (PI) (PI) (PI) (PI) (SG) (SG) (SG) (DLTA)
                 (DLTA) (PI) (PI) (SG) (SG) (SG) (SG) (SG) (PI)
                 (PI) (SG) (PI) (PI) (PI) (PI) (PI) (PI) (SG) (SG)
                 (SG) (DLTA) (DLTA) (PI) (PI) (SG) (SG) (SG) (SG)
                 (SG) (PI) (PI) (SG) (PI) (PI) (PI) (PI) (PI) (PI)
                 (SG) (SG) (SG) (DLTA) (DLTA) (PI) (PI) (SG) (SG)
[...]
    DELTA NK =    0.000000000         D NK =    0.000000000
    delta N  =    0.000000000         d 1  =    0.000000000
    delta K  =    0.000000000         d 2  =    0.000000000

 Atoms with significant hyperfine tensors:  Cl4-35

--------------------------------------------------------------------------------
 CCCCl pre-optimized at apfd/aug-cc-pVTZ                 
   99  1000  50  0.1760E-11  0.1000E+07  0.1000E+01 1.0000000000
a 42  1  0  0  0  1  1   1  0  1  0
     10000   0.00000000E+00    0.0000E+00   /  A  /
     20000   0.27139593E+04    0.0000E+00   /  B  /
     30000   0.27139593E+04    0.0000E+00   /  C  /
       200   0.00000000E+00    0.0000E+00   /  -DELTA N  /
      2000   0.00000000E+00    0.0000E+00   /  -DELTA K  /
      1100   0.00000000E+00    0.0000E+00   /  -DELTA NK  /
     40100   0.00000000E+00    0.0000E+00   /  -delta N  /
     41000   0.00000000E+00    0.0000E+00   /  -delta K  /
 120010000  -0.27172140E+02    0.0000E+00   /  (4 Cl-35) 3/2*T_aa              /
 120040000  -0.29919766E+00    0.0000E+00   /  (4 Cl-35) 1/4*(T_bb - T_cc)     /
 120210000   0.21584024E+02    0.0000E+00   /  (4 Cl-35) T_bc                  /
 120000000  -0.62190972E+00    0.0000E+00   /  (4 Cl-35) b_f                   /
 220010000  -0.10938310E+03    0.0000E+00   /  (4 Cl-35) 3/2*Chi_aa            /
 220040000  -0.13361852E+00    0.0000E+00   /  (4 Cl-35) 1/4*(Chi_bb-Chi_cc)   /
 220210000   0.96391992E+01    0.0000E+00   /  (4 Cl-35) Chi_bc                /
--------------------------------------------------------------------------------

 Operation on file out of range.
 FileIO: IOper= 2 IFilNo(1)=  -524 Len=      506230 IPos=           0 Q=   46912497323032


 dumping /fiocom/, unit = 1 NFiles =   106 SizExt =    524288 WInBlk =       512
                   defal = T LstWrd =    83687424 FType=2 FMxFil=10000

 Number              0             0             0             0             0             0
 Base          2763854      25696668        220160       5796864        212992       4517376
 End           2764288      25696768        221184       5797376        215552       4518912
 End1          2764288      25696768        221184       5797376        215552       4518912
 Wr Pntr       2763854      25696668        220160       5796864        212992       4517376
 Rd Pntr       2763854      25696668        220160       5796864        212992       4517376
 Length            434           100          1024           512          2560          1536

 Number              0             0             0             0             0             0
 Base          4783104      26201088       4966912       4974080        199680      26205184
 End           4961280      26202112       4969472       5026816        211968      26206208
 End1          4961280      26202112       4969472       5026816        211968      26206208
 Wr Pntr       4783104      26201088       4966912       4974080        199680      26205184
 Rd Pntr       4783104      26201088       4966912       4974080        199680      26205184
 Length         178176          1024          2560         52736         12288          1024

 Number              0             0             0             0             0             0
 Base          4961792       2759168       9340928       6806016      44014080       2762240
 End           4962304       2759680      22642176       7055872      57006080       2763776
 End1          4962304       2759680      22642176       7055872      57006080       2763776
 Wr Pntr       4961792       2759168       9340928       6806016      44014080       2762240
 Rd Pntr       4961792       2759168       9340928       6806016      44014080       2762240
 Length            512           512      13301248        249856      12992000          1536

 Number              0             0             0           501           502           503
 Base           183808        182272      58020352         43520         72192        181248
 End            184320        182784      83687424         44520         77366        181269
 End1           184320        182784      83687424         44544         77824        181760
 Wr Pntr        183808        182272      58020352         43520         72192        181248
 Rd Pntr        183808        182272      58020352         44520         77366        181269
 Length            512           512      25667072          1000          5174            21

 Number            508           511           514           515           516           517
 Base           221184        184832       2003968        985600        221696       4512768
 End            221214        184870       2258509       2003764        985319       4515620
 End1           221696        185344       2258944       2003968        985600       4515840
 Wr Pntr        221184        184832       2003968        985600        221696       4512768
 Rd Pntr        221214        184870       2003968        985600        221696       4512768
 Length             30            38        254541       1018164        763623          2852

 Number            518           520           521           522           523           524
 Base          3748864        219648        194560      26202112       4515840       5797376
 End           4512487        219658        194595      26203526       4517260       6301467
 End1          4512768        220160        195072      26203648       4517376       6301696
 Wr Pntr       3748864        219648        194560      26202112       4515840       5797376
 Rd Pntr       3748864        219658        194595      26203526       4515840       5797376
 Length         763623            10            35          1414          1420        504091

 Number            526           528           530           532           534           536
 Base          6301696       7055872       7310848       7567872       5536768       5026816
 End           6805787       7310413       7565389       7822413       5791309       5281357
 End1          6806016       7310848       7565824       7822848       5791744       5281792
 Wr Pntr       6301696       7055872       7310848       7567872       5536768       5026816
 Rd Pntr       6805787       7055872       7310848       7567872       5536768       5281357
 Length         504091        254541        254541        254541        254541        254541

 Number            538           540           545           547           548           549
 Base          5281792       2258944       5792256       4971008       7822848      35113472
 End           5536333       2758793       5792284       4972422       8831030      35613321
 End1          5536768       2759168       5792768       4972544       8831488      35613696
 Wr Pntr       5281792       2258944       5792256       4971008       7822848      35113472
 Rd Pntr       5536333       2258944       5792284       4971008       8831030      35113472
 Length         254541        499849            28          1414       1008182        499849

 Number            551           552           559           561           562           563
 Base           183296        192000        211968        193024        185856       7565824
 End            183334        192030        211970        193025        191960       7566537
 End1           183808        192512        212480        193536        192000       7566848
 Wr Pntr        183296        192000        211968        193024        185856       7565824
 Rd Pntr        183334        192030        211968        193025        191960       7565824
 Length             38            30             2             1          6104           713

 Number            564           565           569           571           575           577
 Base          7566848        216064       5791744       4518912        184320        215552
 End           7567561        217100       5791746       4773453        184571        215604
 End1          7567872        217600       5792256       4773888        184832        216064
 Wr Pntr       7566848        216064       5791744       4518912        184320        215552
 Rd Pntr       7566848        216064       5791746       4518912        184571        215552
 Length            713          1036             2        254541           251            52

 Number            579           580           581           582           583           584
 Base           192512       4963328       4964864       2759680        212480        217600
 End            192528       4964818       4966426       2761819        212485        217624
 End1           193024       4964864       4966912       2762240        212992        218112
 Wr Pntr        192512       4963328       4964864       2759680        212480        217600
 Rd Pntr        192512       4963328       4964864       2759680        212480        217612
 Length             16          1490          1562          2139             5            24

 Number            585           586           588           590           592           593
 Base          2763776      26206208      35613696      36377600      22642176      24169422
 End           2763854      35113395      36377319      44013830      24169422      25696668
 End1          2763854      35113472      36377600      44014080      24169422      25696668
 Wr Pntr       2763776      26206208      35613696      36377600      22642176      24169422
 Rd Pntr       2763854      26206208      35613696      36377600      22642176      24169422
 Length             78       8907187        763623       7636230       1527246       1527246

 Number            598           603           605           606           607           618
 Base            77824       8831488       2764800      26203648       4969472       5792768
 End             77826       9340571       2764805      26205062       4970886       5793860
 End1            78336       9340928       2765312      26205184       4971008       5794304
 Wr Pntr         77824       8831488       2764800      26203648       4969472       5792768
 Rd Pntr         77826       9340571       2764805      26203648       4970886       5793860
 Length              2        509083             5          1414          1414          1092

 Number            619           634           665           670           674           685
 Base           218112      57006080        181760        195072        182784      25696768
 End            218741      58020142        181827        199376        182852      26200859
 End1           219136      58020352        182272        199680        183296      26201088
 Wr Pntr        218112      57006080        181760        195072        182784      25696768
 Rd Pntr        218116      57006080        181827        199376        182852      25696768
 Length            629       1014062            67          4304            68        504091

 Number            694           695           698           701           703           719
 Base          4972544        219136        194048        185344       4962304       5794304
 End           4973958        219288        194072        185405       4962329       5796376
 End1          4974080        219648        194560        185856       4962816       5796864
 Wr Pntr       4972544        219136        194048        185344       4962304       5794304
 Rd Pntr       4973958        219288        194072        185405       4962329       5794304
 Length           1414           152            24            61            25          2072

 Number            742           761           765           773           776           777
 Base          2765312        193536       2764288       4962816       4961280       4773888
 End           3748755        193537       2764477       4963077       4961372       4782682
 End1          3748864        194048       2764800       4963328       4961792       4783104
 Wr Pntr       2765312        193536       2764288       4962816       4961280       4773888
 Rd Pntr       2765312        193536       2764477       4962816       4961372       4782682
 Length         983443             1           189           261            92          8794

 Number            989           991           992           993           994           995
 Base            44544         65536         65024         43008         40448         42496
 End             64544         72098         65033         43208         40478         42516
 End1            65024         72192         65536         43520         40960         43008
 Wr Pntr         44544         65536         65024         43208         40448         42496
 Rd Pntr         64544         72098         65033         43208         40478         42516
 Length          20000          6562             9           200            30            20

 Number            996           997           998           999
 Base            41472         41984         40960         78336
 End             41672         42130         41160        180840
 End1            41984         42496         41472        181248
 Wr Pntr         41472         42130         41160         78336
 Rd Pntr         41672         42130         41160         80840
 Length            200           146           200        102504


 dumping /fiocom/, unit = 2 NFiles =    55 SizExt =         0 WInBlk =       512
                   defal = F LstWrd =    15367168 FType=2 FMxFil=10000

 Number              0             0             0             0             0             0
 Base          2914110       2622051       1606814       3131329       1048860       2617144
 End           3131139       2622053       1608927       4168768       1060444       2621422
 End1          3131139       2622053       1608927       4168768       1060444       2621422
 Wr Pntr       2914110       2622051       1606814       4145391       1048860       2617144
 Rd Pntr       2914110       2622051       1606814       4145391       1048860       2617144
 Length         217029             2          2113       1037439         11584          4278

 Number              0             0             0             0             0           501
 Base          2622564       2625496       2622083       2900983       5696197       1569526
 End           2625404       2896741       2622144       2904035      15367168       1570526
 End1          2625404       2896741       2622144       2904035      15367168       1570526
 Wr Pntr       2622564       2896703       2622083       2900983       5696197       1570526
 Rd Pntr       2622564       2896703       2622083       2900983       5696197       1569526
 Length           2840        271245            61          3052       9670971          1000

 Number            502           503           508           511           520           521
 Base          1570526       3131284         40448       1580004       1606736       1608927
 End           1575700       3131305         40478       1580042       1606746       1608962
 End1          1575700       3131305         40478       1580042       1606746       1608962
 Wr Pntr       1575700       3131305         40478       1580042       1606746       1608962
 Rd Pntr       1570526       3131284         40448       1580004       1606736       1608927
 Length           5174            21            30            38            10            35

 Number            522           524           526           536           538           545
 Base          2896741       1608962       2113053       1060444       1314985       2622475
 End           2898155       2113053       2617144       1314985       1569526       2622503
 End1          2898155       2113053       2617144       1314985       1569526       2622503
 Wr Pntr       2898155       2113053       2617144       1314985       1569526       2622503
 Rd Pntr       2896741       1608962       2113053       1060444       1314985       2622475
 Length           1414        504091        504091        254541        254541            28

 Number            548           551           552           561           562           569
 Base            40678       1606776       1606746       1600631       1600632       2622222
 End           1048860       1606814       1606776       1600632       1606736       2622224
 End1          1048860       1606814       1606776       1600632       1606736       2622224
 Wr Pntr       1048860       1606814       1606776       1600632       1606736       2622224
 Rd Pntr         40678       1606776       1606746       1600631       1600632       2622222
 Length        1008182            38            30             1          6104             2

 Number            575           584           585           603           605           607
 Base          2622224       1580109       2622144       5187114       2622053       2898155
 End           2622475       1580133       2622222       5696197       2622058       2899569
 End1          2622475       1580133       2622222       5696197       2622058       2899569
 Wr Pntr       2622475       1580133       2622222       5696197       2622058       2899569
 Rd Pntr       2622224       1580109       2622144       5187114       2622053       2898155
 Length            251            24            78        509083             5          1414

 Number            618           619           665           670           672           674
 Base          2904035       2621422       1580042       1575700       3131139       3131216
 End           2905127       2622051       1580109       1580004       3131216       3131284
 End1          2905127       2622051       1580109       1580004       3131216       3131284
 Wr Pntr       2905127       2622051       1580109       1580004       3131139       3131284
 Rd Pntr       2904035       2621422       1580042       1575700       3131139       3131216
 Length           1092           629            67          4304            77            68

 Number            694           695           698           701           703           765
 Base          2899569       1580133       3131305       2622503       2622058       2905127
 End           2900983       1580285       3131329       2622564       2622083       2905316
 End1          2900983       1580285       3131329       2622564       2622083       2905316
 Wr Pntr       2900983       1580285       3131329       2622564       2622083       2905316
 Rd Pntr       2899569       1580133       3131305       2622503       2622058       2905127
 Length           1414           152            24            61            25           189

 Number            776           777           780           989           993           997
 Base          2625404       2905316       4168768       1580285       1600285       1600485
 End           2625496       2914110       5187114       1600285       1600485       1600631
 End1          2625496       2914110       5187114       1600285       1600485       1600631
 Wr Pntr       2625496       2914110       4168768       1600285       1600485       1600631
 Rd Pntr       2625404       2905316       4168768       1580285       1600285       1600485
 Length             92          8794       1018346         20000           200           146

 Number            998
 Base            40478
 End             40678
 End1            40678
 Wr Pntr         40678
 Rd Pntr         40478
 Length            200


 dumping /fiocom/, unit = 3 NFiles =     1 SizExt =    524288 WInBlk =       512
                   defal = T LstWrd =       65536 FType=2 FMxFil=10000

 Number              0
 Base            40448
 End             65536
 End1            65536
 Wr Pntr         40448
 Rd Pntr         40448
 Length          25088
 Error termination in NtrErr:
 NtrErr Called from FileIO.
