 Entering Gaussian System, Link 0=gdv
 Initial command:
 /share/apps/gaussian/gdvh12/gdv/l1.exe /localscratch/12837/Gau-29447.inp -scrdir=/localscratch/12837/
 Entering Link 1 = /share/apps/gaussian/gdvh12/gdv/l1.exe PID=     29448.
  
 Copyright (c) 1988,1990,1992,1993,1995,1998,2003,2009,2011,
            Gaussian, Inc.  All Rights Reserved.
  
 This is the private, development version of
 the Gaussian(R) DV system of programs. It is based on
 the Gaussian(R) 09 system (copyright 2009, Gaussian, Inc.),
 the Gaussian(R) 03 system (copyright 2003, Gaussian, Inc.),
 the Gaussian(R) 98 system (copyright 1998, Gaussian, Inc.),
 the Gaussian(R) 94 system (copyright 1995, Gaussian, Inc.),
 the Gaussian 92(TM) system (copyright 1992, Gaussian, Inc.),
 the Gaussian 90(TM) system (copyright 1990, Gaussian, Inc.),
 the Gaussian 88(TM) system (copyright 1988, Gaussian, Inc.),
 the Gaussian 86(TM) system (copyright 1986, Carnegie Mellon
 University), and the Gaussian 82(TM) system (copyright 1983,
 Carnegie Mellon University). Gaussian is a federally registered
 trademark of Gaussian, Inc.
  
 This software contains proprietary and confidential information,
 including trade secrets, belonging to Gaussian, Inc.
  
 This software is provided under written license and may be
 used, copied, transmitted, or stored only in accord with that
 written license.
  
 The following legend is applicable only to US Government
 contracts under FAR:
  
                    RESTRICTED RIGHTS LEGEND
  
 Use, reproduction and disclosure by the US Government is
 subject to restrictions as set forth in subparagraphs (a)
 and (c) of the Commercial Computer Software - Restricted
 Rights clause in FAR 52.227-19.
  
 Gaussian, Inc.
 340 Quinnipiac St., Bldg. 40, Wallingford CT 06492
  
  
 ---------------------------------------------------------------
 Warning -- This program may not be used in any manner that
 competes with the business of Gaussian, Inc. or will provide
 assistance to any competitor of Gaussian, Inc.  The licensee
 of this program is prohibited from giving any competitor of
 Gaussian, Inc. access to this program.  By using this program,
 the user acknowledges that Gaussian, Inc. is engaged in the
 business of creating and licensing software in the field of
 computational chemistry and represents and warrants to the
 licensee that it is not a competitor of Gaussian, Inc. and that
 it will not use this program in any manner prohibited above.
 ---------------------------------------------------------------
  

 Cite this work as:
 Gaussian Development Version, Revision H.12,
 M. J. Frisch, G. W. Trucks, H. B. Schlegel, G. E. Scuseria, 
 M. A. Robb, J. R. Cheeseman, G. Scalmani, V. Barone, B. Mennucci, 
 G. A. Petersson, H. Nakatsuji, M. Caricato, X. Li, H. P. Hratchian, 
 A. F. Izmaylov, J. Bloino, G. Zheng, J. L. Sonnenberg, M. Hada, 
 M. Ehara, K. Toyota, R. Fukuda, J. Hasegawa, M. Ishida, T. Nakajima, 
 Y. Honda, O. Kitao, H. Nakai, T. Vreven, J. A. Montgomery, Jr., 
 J. E. Peralta, F. Ogliaro, M. Bearpark, J. J. Heyd, E. Brothers, 
 K. N. Kudin, V. N. Staroverov, T. Keith, R. Kobayashi, J. Normand, 
 K. Raghavachari, A. Rendell, J. C. Burant, S. S. Iyengar, J. Tomasi, 
 M. Cossi, N. Rega, J. M. Millam, M. Klene, J. E. Knox, J. B. Cross, 
 V. Bakken, C. Adamo, J. Jaramillo, R. Gomperts, R. E. Stratmann, 
 O. Yazyev, A. J. Austin, R. Cammi, C. Pomelli, J. W. Ochterski, 
 R. L. Martin, K. Morokuma, V. G. Zakrzewski, G. A. Voth, 
 P. Salvador, J. J. Dannenberg, S. Dapprich, P. V. Parandekar, 
 N. J. Mayhall, A. D. Daniels, O. Farkas, J. B. Foresman, 
 J. V. Ortiz, J. Cioslowski, and D. J. Fox, 
 Gaussian, Inc., Wallingford CT, 2010.
 
 ******************************************
 Gaussian DV:  EM64L-GDVRevH.12  9-Jun-2011
                27-Jul-2013 
 ******************************************
 %chk=CCCCl_bent_opt.chk
 %mem=4gb
 %nproc=2
 Will use up to    2 processors via shared memory.
 ----------------------------------------------------------------------
 #p apfd/ugbs1p opt=tight int=(acc2e=12,grid=299974) test gfprint gfinp
 ut output=pickett
 ----------------------------------------------------------------------
 1/7=10,14=-1,18=20,19=15,26=1,38=1/1,3;
 2/9=110,12=2,17=6,18=5,40=1/2;
 3/5=23,7=7,11=2,16=1,24=110,25=1,30=1,71=1,74=-44,75=299974/1,2,3;
 4//1;
 5/5=2,38=5,87=12/2;
 6/7=2,8=2,9=2,10=2,28=1/1;
 7/87=12/1,2,3,16;
 1/7=10,14=-1,18=20,19=15/3(2);
 2/9=110/2;
 99/10=1024/99;
 2/9=110/2;
 3/5=23,7=7,11=2,16=1,25=1,30=1,71=1,74=-44,75=299974/1,2,3;
 4/5=5,16=3,69=1/1;
 5/5=2,38=5,87=12/2;
 7/87=12/1,2,3,16;
 1/7=10,14=-1,18=20,19=15/3(-5);
 2/9=110/2;
 6/7=2,8=2,9=2,10=2,19=2,28=1/1;
 99/9=1,10=1024/99;
 Leave Link    1 at Sat Jul 27 15:13:07 2013, MaxMem=  536870912 cpu:       0.2
 (Enter /share/apps/gaussian/gdvh12/gdv/l101.exe)
 ---------------------------------------
 CCCCl bent, coordinates from Endo paper
 ---------------------------------------
 Charge =  0 Multiplicity = 2
 Symbolic Z-Matrix:
 Cl
 C                    1    Rccl
 C                    2    Rcc1     1    Acccl
 C                    3    Rcc2     2    Accc1    1    Dccccl   0
 C                    4    Rcc3     3    Accc2    2    Dcccc    0
       Variables:
  Rccl                  1.645                    
  Rcc1                  1.283                    
  Rcc2                  1.308                    
  Rcc3                  1.298                    
  Acccl               179.                       
  Accc1               169.5                      
  Accc2               170.                       
  Dccccl              180.                       
  Dcccc               180.                       
 
 NAtoms=      5 NQM=        0 NQMF=       0 NMMI=      5 NMMIF=      0
                NMic=       0 NMicF=      0.
                    Isotopes and Nuclear Properties:
 (Nuclear quadrupole moments (NQMom) in fm**2, nuclear magnetic moments (NMagM)
  in nuclear magnetons)

  Atom         1           2           3           4           5
 IAtWgt=          35          12          12          12          12
 AtmWgt=  34.9688527  12.0000000  12.0000000  12.0000000  12.0000000
 NucSpn=           3           0           0           0           0
 AtZEff=   0.0000000   0.0000000   0.0000000   0.0000000   0.0000000
 NQMom=   -8.1650000   0.0000000   0.0000000   0.0000000   0.0000000
 NMagM=    0.8218740   0.0000000   0.0000000   0.0000000   0.0000000
 AtZNuc=  17.0000000   6.0000000   6.0000000   6.0000000   6.0000000
 Leave Link  101 at Sat Jul 27 15:13:08 2013, MaxMem=  536870912 cpu:       1.2
 (Enter /share/apps/gaussian/gdvh12/gdv/l103.exe)

 GradGradGradGradGradGradGradGradGradGradGradGradGradGradGradGradGradGrad
 Berny optimization.
 Initialization pass.
                           ----------------------------
                           !    Initial Parameters    !
                           ! (Angstroms and Degrees)  !
 --------------------------                            --------------------------
 ! Name  Definition              Value          Derivative Info.                !
 --------------------------------------------------------------------------------
 ! R1    R(1,2)                  1.645          estimate D2E/DX2                !
 ! R2    R(2,3)                  1.283          estimate D2E/DX2                !
 ! R3    R(3,4)                  1.308          estimate D2E/DX2                !
 ! R4    R(4,5)                  1.298          estimate D2E/DX2                !
 ! A1    A(2,3,4)              169.5            estimate D2E/DX2                !
 ! A2    A(3,4,5)              170.0            estimate D2E/DX2                !
 ! A3    L(1,2,3,4,-1)         181.0            estimate D2E/DX2                !
 ! A4    L(1,2,3,4,-2)         180.0            estimate D2E/DX2                !
 ! D1    D(2,3,4,5)            180.0            estimate D2E/DX2                !
 --------------------------------------------------------------------------------
 Trust Radius=3.00D-01 FncErr=1.00D-07 GrdErr=1.00D-07
 Number of steps in this run=     20 maximum allowed number of steps=    100.
 GradGradGradGradGradGradGradGradGradGradGradGradGradGradGradGradGradGrad

 Leave Link  103 at Sat Jul 27 15:13:08 2013, MaxMem=  536870912 cpu:       0.0
 (Enter /share/apps/gaussian/gdvh12/gdv/l202.exe)
                          Input orientation:                          
 ---------------------------------------------------------------------
 Center     Atomic      Atomic             Coordinates (Angstroms)
 Number     Number       Type             X           Y           Z
 ---------------------------------------------------------------------
      1         17           0        0.000000    0.000000    0.000000
      2          6           0        0.000000    0.000000    1.645000
      3          6           0        0.022391    0.000000    2.927805
      4          6           0       -0.193491    0.000000    4.217866
      5          6           0       -0.182164    0.000000    5.515817
 ---------------------------------------------------------------------
                    Distance matrix (angstroms):
                    1          2          3          4          5
     1  Cl   0.000000
     2  C    1.645000   0.000000
     3  C    2.927890   1.283000   0.000000
     4  C    4.222302   2.580132   1.308000   0.000000
     5  C    5.518824   3.875101   2.596084   1.298000   0.000000
 Stoichiometry    C4Cl(2)
 Framework group  CS[SG(C4Cl)]
 Deg. of freedom     7
 Full point group                 CS      NOp   2
 Largest Abelian subgroup         CS      NOp   2
 Largest concise Abelian subgroup C1      NOp   1
                         Standard orientation:                         
 ---------------------------------------------------------------------
 Center     Atomic      Atomic             Coordinates (Angstroms)
 Number     Number       Type             X           Y           Z
 ---------------------------------------------------------------------
      1         17           0       -0.188311    2.085787    0.000000
      2          6           0        0.000000    0.451601    0.000000
      3          6           0        0.169093   -0.820207    0.000000
      4          6           0        0.102310   -2.126501    0.000000
      5          6           0        0.262146   -3.414623    0.000000
 ---------------------------------------------------------------------
 Rotational constants (GHZ):   2346.7303856      1.4073460      1.4065025
 Leave Link  202 at Sat Jul 27 15:13:08 2013, MaxMem=  536870912 cpu:       0.0
 (Enter /share/apps/gaussian/gdvh12/gdv/l301.exe)
 Standard basis: UGBS1P (5D, 7F)
 Ernie: Thresh=  0.10000D-02 Tol=  0.10000D-05 Strict=F.
 AO basis set in the form of general basis input (Overlap normalization):
      1 0
 S   1 1.00       0.000000000000
      0.2969784651D+07  0.1000000000D+01
 S   1 1.00       0.000000000000
      0.1516627989D+07  0.1000000000D+01
 S   1 1.00       0.000000000000
      0.7745209592D+06  0.1000000000D+01
 S   1 1.00       0.000000000000
      0.3955371526D+06  0.1000000000D+01
 S   1 1.00       0.000000000000
      0.2019953588D+06  0.1000000000D+01
 S   1 1.00       0.000000000000
      0.1031562389D+06  0.1000000000D+01
 S   1 1.00       0.000000000000
      0.5268046591D+05  0.1000000000D+01
 S   1 1.00       0.000000000000
      0.2690318607D+05  0.1000000000D+01
 S   1 1.00       0.000000000000
      0.1373908542D+05  0.1000000000D+01
 S   1 1.00       0.000000000000
      0.7016361094D+04  0.1000000000D+01
 S   1 1.00       0.000000000000
      0.3583158668D+04  0.1000000000D+01
 S   1 1.00       0.000000000000
      0.1829869625D+04  0.1000000000D+01
 S   1 1.00       0.000000000000
      0.9344891347D+03  0.1000000000D+01
 S   1 1.00       0.000000000000
      0.4772306896D+03  0.1000000000D+01
 S   1 1.00       0.000000000000
      0.2437151195D+03  0.1000000000D+01
 S   1 1.00       0.000000000000
      0.1244619442D+03  0.1000000000D+01
 S   1 1.00       0.000000000000
      0.6356099525D+02  0.1000000000D+01
 S   1 1.00       0.000000000000
      0.3245972208D+02  0.1000000000D+01
 S   1 1.00       0.000000000000
      0.1657673158D+02  0.1000000000D+01
 S   1 1.00       0.000000000000
      0.8465507783D+01  0.1000000000D+01
 S   1 1.00       0.000000000000
      0.4323217860D+01  0.1000000000D+01
 S   1 1.00       0.000000000000
      0.2207807629D+01  0.1000000000D+01
 S   1 1.00       0.000000000000
      0.1127496852D+01  0.1000000000D+01
 S   1 1.00       0.000000000000
      0.5757970639D+00  0.1000000000D+01
 S   1 1.00       0.000000000000
      0.2940516050D+00  0.1000000000D+01
 S   1 1.00       0.000000000000
      0.1501680918D+00  0.1000000000D+01
 S   1 1.00       0.000000000000
      0.7668876969D-01  0.1000000000D+01
 P   1 1.00       0.000000000000
      0.2969784651D+07  0.1000000000D+01
 P   1 1.00       0.000000000000
      0.1516627989D+07  0.1000000000D+01
 P   1 1.00       0.000000000000
      0.7745209592D+06  0.1000000000D+01
 P   1 1.00       0.000000000000
      0.3955371526D+06  0.1000000000D+01
 P   1 1.00       0.000000000000
      0.2019953588D+06  0.1000000000D+01
 P   1 1.00       0.000000000000
      0.1031562389D+06  0.1000000000D+01
 P   1 1.00       0.000000000000
      0.5268046591D+05  0.1000000000D+01
 P   1 1.00       0.000000000000
      0.2690318607D+05  0.1000000000D+01
 P   1 1.00       0.000000000000
      0.1373908542D+05  0.1000000000D+01
 P   1 1.00       0.000000000000
      0.7016361094D+04  0.1000000000D+01
 P   1 1.00       0.000000000000
      0.3583158668D+04  0.1000000000D+01
 P   1 1.00       0.000000000000
      0.1829869625D+04  0.1000000000D+01
 P   1 1.00       0.000000000000
      0.9344891347D+03  0.1000000000D+01
 P   1 1.00       0.000000000000
      0.4772306896D+03  0.1000000000D+01
 P   1 1.00       0.000000000000
      0.2437151195D+03  0.1000000000D+01
 P   1 1.00       0.000000000000
      0.1244619442D+03  0.1000000000D+01
 P   1 1.00       0.000000000000
      0.6356099525D+02  0.1000000000D+01
 P   1 1.00       0.000000000000
      0.3245972208D+02  0.1000000000D+01
 P   1 1.00       0.000000000000
      0.1657673158D+02  0.1000000000D+01
 P   1 1.00       0.000000000000
      0.8465507783D+01  0.1000000000D+01
 P   1 1.00       0.000000000000
      0.4323217860D+01  0.1000000000D+01
 P   1 1.00       0.000000000000
      0.2207807629D+01  0.1000000000D+01
 P   1 1.00       0.000000000000
      0.1127496852D+01  0.1000000000D+01
 P   1 1.00       0.000000000000
      0.5757970639D+00  0.1000000000D+01
 P   1 1.00       0.000000000000
      0.2940516050D+00  0.1000000000D+01
 P   1 1.00       0.000000000000
      0.1501680918D+00  0.1000000000D+01
 P   1 1.00       0.000000000000
      0.7668876969D-01  0.1000000000D+01
 D   1 1.00       0.000000000000
      0.1373908542D+05  0.1000000000D+01
 D   1 1.00       0.000000000000
      0.7016361094D+04  0.1000000000D+01
 D   1 1.00       0.000000000000
      0.3583158668D+04  0.1000000000D+01
 D   1 1.00       0.000000000000
      0.1829869625D+04  0.1000000000D+01
 D   1 1.00       0.000000000000
      0.9344891347D+03  0.1000000000D+01
 D   1 1.00       0.000000000000
      0.4772306896D+03  0.1000000000D+01
 D   1 1.00       0.000000000000
      0.2437151195D+03  0.1000000000D+01
 D   1 1.00       0.000000000000
      0.1244619442D+03  0.1000000000D+01
 D   1 1.00       0.000000000000
      0.6356099525D+02  0.1000000000D+01
 D   1 1.00       0.000000000000
      0.3245972208D+02  0.1000000000D+01
 D   1 1.00       0.000000000000
      0.1657673158D+02  0.1000000000D+01
 D   1 1.00       0.000000000000
      0.8465507783D+01  0.1000000000D+01
 D   1 1.00       0.000000000000
      0.4323217860D+01  0.1000000000D+01
 D   1 1.00       0.000000000000
      0.2207807629D+01  0.1000000000D+01
 D   1 1.00       0.000000000000
      0.1127496852D+01  0.1000000000D+01
 D   1 1.00       0.000000000000
      0.5757970639D+00  0.1000000000D+01
 D   1 1.00       0.000000000000
      0.2940516050D+00  0.1000000000D+01
 D   1 1.00       0.000000000000
      0.1501680918D+00  0.1000000000D+01
 D   1 1.00       0.000000000000
      0.7668876969D-01  0.1000000000D+01
 ****
      2 0
 S   1 1.00       0.000000000000
      0.2019953588D+06  0.1000000000D+01
 S   1 1.00       0.000000000000
      0.1031562389D+06  0.1000000000D+01
 S   1 1.00       0.000000000000
      0.5268046591D+05  0.1000000000D+01
 S   1 1.00       0.000000000000
      0.2690318607D+05  0.1000000000D+01
 S   1 1.00       0.000000000000
      0.1373908542D+05  0.1000000000D+01
 S   1 1.00       0.000000000000
      0.7016361094D+04  0.1000000000D+01
 S   1 1.00       0.000000000000
      0.3583158668D+04  0.1000000000D+01
 S   1 1.00       0.000000000000
      0.1829869625D+04  0.1000000000D+01
 S   1 1.00       0.000000000000
      0.9344891347D+03  0.1000000000D+01
 S   1 1.00       0.000000000000
      0.4772306896D+03  0.1000000000D+01
 S   1 1.00       0.000000000000
      0.2437151195D+03  0.1000000000D+01
 S   1 1.00       0.000000000000
      0.1244619442D+03  0.1000000000D+01
 S   1 1.00       0.000000000000
      0.6356099525D+02  0.1000000000D+01
 S   1 1.00       0.000000000000
      0.3245972208D+02  0.1000000000D+01
 S   1 1.00       0.000000000000
      0.1657673158D+02  0.1000000000D+01
 S   1 1.00       0.000000000000
      0.8465507783D+01  0.1000000000D+01
 S   1 1.00       0.000000000000
      0.4323217860D+01  0.1000000000D+01
 S   1 1.00       0.000000000000
      0.2207807629D+01  0.1000000000D+01
 S   1 1.00       0.000000000000
      0.1127496852D+01  0.1000000000D+01
 S   1 1.00       0.000000000000
      0.5757970639D+00  0.1000000000D+01
 S   1 1.00       0.000000000000
      0.2940516050D+00  0.1000000000D+01
 S   1 1.00       0.000000000000
      0.1501680918D+00  0.1000000000D+01
 S   1 1.00       0.000000000000
      0.7668876969D-01  0.1000000000D+01
 P   1 1.00       0.000000000000
      0.2019953588D+06  0.1000000000D+01
 P   1 1.00       0.000000000000
      0.1031562389D+06  0.1000000000D+01
 P   1 1.00       0.000000000000
      0.5268046591D+05  0.1000000000D+01
 P   1 1.00       0.000000000000
      0.2690318607D+05  0.1000000000D+01
 P   1 1.00       0.000000000000
      0.1373908542D+05  0.1000000000D+01
 P   1 1.00       0.000000000000
      0.7016361094D+04  0.1000000000D+01
 P   1 1.00       0.000000000000
      0.3583158668D+04  0.1000000000D+01
 P   1 1.00       0.000000000000
      0.1829869625D+04  0.1000000000D+01
 P   1 1.00       0.000000000000
      0.9344891347D+03  0.1000000000D+01
 P   1 1.00       0.000000000000
      0.4772306896D+03  0.1000000000D+01
 P   1 1.00       0.000000000000
      0.2437151195D+03  0.1000000000D+01
 P   1 1.00       0.000000000000
      0.1244619442D+03  0.1000000000D+01
 P   1 1.00       0.000000000000
      0.6356099525D+02  0.1000000000D+01
 P   1 1.00       0.000000000000
      0.3245972208D+02  0.1000000000D+01
 P   1 1.00       0.000000000000
      0.1657673158D+02  0.1000000000D+01
 P   1 1.00       0.000000000000
      0.8465507783D+01  0.1000000000D+01
 P   1 1.00       0.000000000000
      0.4323217860D+01  0.1000000000D+01
 P   1 1.00       0.000000000000
      0.2207807629D+01  0.1000000000D+01
 P   1 1.00       0.000000000000
      0.1127496852D+01  0.1000000000D+01
 P   1 1.00       0.000000000000
      0.5757970639D+00  0.1000000000D+01
 P   1 1.00       0.000000000000
      0.2940516050D+00  0.1000000000D+01
 P   1 1.00       0.000000000000
      0.1501680918D+00  0.1000000000D+01
 P   1 1.00       0.000000000000
      0.7668876969D-01  0.1000000000D+01
 P   1 1.00       0.000000000000
      0.3916389510D-01  0.1000000000D+01
 D   1 1.00       0.000000000000
      0.4772306896D+03  0.1000000000D+01
 D   1 1.00       0.000000000000
      0.2437151195D+03  0.1000000000D+01
 D   1 1.00       0.000000000000
      0.1244619442D+03  0.1000000000D+01
 D   1 1.00       0.000000000000
      0.6356099525D+02  0.1000000000D+01
 D   1 1.00       0.000000000000
      0.3245972208D+02  0.1000000000D+01
 D   1 1.00       0.000000000000
      0.1657673158D+02  0.1000000000D+01
 D   1 1.00       0.000000000000
      0.8465507783D+01  0.1000000000D+01
 D   1 1.00       0.000000000000
      0.4323217860D+01  0.1000000000D+01
 D   1 1.00       0.000000000000
      0.2207807629D+01  0.1000000000D+01
 D   1 1.00       0.000000000000
      0.1127496852D+01  0.1000000000D+01
 D   1 1.00       0.000000000000
      0.5757970639D+00  0.1000000000D+01
 D   1 1.00       0.000000000000
      0.2940516050D+00  0.1000000000D+01
 D   1 1.00       0.000000000000
      0.1501680918D+00  0.1000000000D+01
 D   1 1.00       0.000000000000
      0.7668876969D-01  0.1000000000D+01
 D   1 1.00       0.000000000000
      0.3916389510D-01  0.1000000000D+01
 ****
      3 0
 S   1 1.00       0.000000000000
      0.2019953588D+06  0.1000000000D+01
 S   1 1.00       0.000000000000
      0.1031562389D+06  0.1000000000D+01
 S   1 1.00       0.000000000000
      0.5268046591D+05  0.1000000000D+01
 S   1 1.00       0.000000000000
      0.2690318607D+05  0.1000000000D+01
 S   1 1.00       0.000000000000
      0.1373908542D+05  0.1000000000D+01
 S   1 1.00       0.000000000000
      0.7016361094D+04  0.1000000000D+01
 S   1 1.00       0.000000000000
      0.3583158668D+04  0.1000000000D+01
 S   1 1.00       0.000000000000
      0.1829869625D+04  0.1000000000D+01
 S   1 1.00       0.000000000000
      0.9344891347D+03  0.1000000000D+01
 S   1 1.00       0.000000000000
      0.4772306896D+03  0.1000000000D+01
 S   1 1.00       0.000000000000
      0.2437151195D+03  0.1000000000D+01
 S   1 1.00       0.000000000000
      0.1244619442D+03  0.1000000000D+01
 S   1 1.00       0.000000000000
      0.6356099525D+02  0.1000000000D+01
 S   1 1.00       0.000000000000
      0.3245972208D+02  0.1000000000D+01
 S   1 1.00       0.000000000000
      0.1657673158D+02  0.1000000000D+01
 S   1 1.00       0.000000000000
      0.8465507783D+01  0.1000000000D+01
 S   1 1.00       0.000000000000
      0.4323217860D+01  0.1000000000D+01
 S   1 1.00       0.000000000000
      0.2207807629D+01  0.1000000000D+01
 S   1 1.00       0.000000000000
      0.1127496852D+01  0.1000000000D+01
 S   1 1.00       0.000000000000
      0.5757970639D+00  0.1000000000D+01
 S   1 1.00       0.000000000000
      0.2940516050D+00  0.1000000000D+01
 S   1 1.00       0.000000000000
      0.1501680918D+00  0.1000000000D+01
 S   1 1.00       0.000000000000
      0.7668876969D-01  0.1000000000D+01
 P   1 1.00       0.000000000000
      0.2019953588D+06  0.1000000000D+01
 P   1 1.00       0.000000000000
      0.1031562389D+06  0.1000000000D+01
 P   1 1.00       0.000000000000
      0.5268046591D+05  0.1000000000D+01
 P   1 1.00       0.000000000000
      0.2690318607D+05  0.1000000000D+01
 P   1 1.00       0.000000000000
      0.1373908542D+05  0.1000000000D+01
 P   1 1.00       0.000000000000
      0.7016361094D+04  0.1000000000D+01
 P   1 1.00       0.000000000000
      0.3583158668D+04  0.1000000000D+01
 P   1 1.00       0.000000000000
      0.1829869625D+04  0.1000000000D+01
 P   1 1.00       0.000000000000
      0.9344891347D+03  0.1000000000D+01
 P   1 1.00       0.000000000000
      0.4772306896D+03  0.1000000000D+01
 P   1 1.00       0.000000000000
      0.2437151195D+03  0.1000000000D+01
 P   1 1.00       0.000000000000
      0.1244619442D+03  0.1000000000D+01
 P   1 1.00       0.000000000000
      0.6356099525D+02  0.1000000000D+01
 P   1 1.00       0.000000000000
      0.3245972208D+02  0.1000000000D+01
 P   1 1.00       0.000000000000
      0.1657673158D+02  0.1000000000D+01
 P   1 1.00       0.000000000000
      0.8465507783D+01  0.1000000000D+01
 P   1 1.00       0.000000000000
      0.4323217860D+01  0.1000000000D+01
 P   1 1.00       0.000000000000
      0.2207807629D+01  0.1000000000D+01
 P   1 1.00       0.000000000000
      0.1127496852D+01  0.1000000000D+01
 P   1 1.00       0.000000000000
      0.5757970639D+00  0.1000000000D+01
 P   1 1.00       0.000000000000
      0.2940516050D+00  0.1000000000D+01
 P   1 1.00       0.000000000000
      0.1501680918D+00  0.1000000000D+01
 P   1 1.00       0.000000000000
      0.7668876969D-01  0.1000000000D+01
 P   1 1.00       0.000000000000
      0.3916389510D-01  0.1000000000D+01
 D   1 1.00       0.000000000000
      0.4772306896D+03  0.1000000000D+01
 D   1 1.00       0.000000000000
      0.2437151195D+03  0.1000000000D+01
 D   1 1.00       0.000000000000
      0.1244619442D+03  0.1000000000D+01
 D   1 1.00       0.000000000000
      0.6356099525D+02  0.1000000000D+01
 D   1 1.00       0.000000000000
      0.3245972208D+02  0.1000000000D+01
 D   1 1.00       0.000000000000
      0.1657673158D+02  0.1000000000D+01
 D   1 1.00       0.000000000000
      0.8465507783D+01  0.1000000000D+01
 D   1 1.00       0.000000000000
      0.4323217860D+01  0.1000000000D+01
 D   1 1.00       0.000000000000
      0.2207807629D+01  0.1000000000D+01
 D   1 1.00       0.000000000000
      0.1127496852D+01  0.1000000000D+01
 D   1 1.00       0.000000000000
      0.5757970639D+00  0.1000000000D+01
 D   1 1.00       0.000000000000
      0.2940516050D+00  0.1000000000D+01
 D   1 1.00       0.000000000000
      0.1501680918D+00  0.1000000000D+01
 D   1 1.00       0.000000000000
      0.7668876969D-01  0.1000000000D+01
 D   1 1.00       0.000000000000
      0.3916389510D-01  0.1000000000D+01
 ****
      4 0
 S   1 1.00       0.000000000000
      0.2019953588D+06  0.1000000000D+01
 S   1 1.00       0.000000000000
      0.1031562389D+06  0.1000000000D+01
 S   1 1.00       0.000000000000
      0.5268046591D+05  0.1000000000D+01
 S   1 1.00       0.000000000000
      0.2690318607D+05  0.1000000000D+01
 S   1 1.00       0.000000000000
      0.1373908542D+05  0.1000000000D+01
 S   1 1.00       0.000000000000
      0.7016361094D+04  0.1000000000D+01
 S   1 1.00       0.000000000000
      0.3583158668D+04  0.1000000000D+01
 S   1 1.00       0.000000000000
      0.1829869625D+04  0.1000000000D+01
 S   1 1.00       0.000000000000
      0.9344891347D+03  0.1000000000D+01
 S   1 1.00       0.000000000000
      0.4772306896D+03  0.1000000000D+01
 S   1 1.00       0.000000000000
      0.2437151195D+03  0.1000000000D+01
 S   1 1.00       0.000000000000
      0.1244619442D+03  0.1000000000D+01
 S   1 1.00       0.000000000000
      0.6356099525D+02  0.1000000000D+01
 S   1 1.00       0.000000000000
      0.3245972208D+02  0.1000000000D+01
 S   1 1.00       0.000000000000
      0.1657673158D+02  0.1000000000D+01
 S   1 1.00       0.000000000000
      0.8465507783D+01  0.1000000000D+01
 S   1 1.00       0.000000000000
      0.4323217860D+01  0.1000000000D+01
 S   1 1.00       0.000000000000
      0.2207807629D+01  0.1000000000D+01
 S   1 1.00       0.000000000000
      0.1127496852D+01  0.1000000000D+01
 S   1 1.00       0.000000000000
      0.5757970639D+00  0.1000000000D+01
 S   1 1.00       0.000000000000
      0.2940516050D+00  0.1000000000D+01
 S   1 1.00       0.000000000000
      0.1501680918D+00  0.1000000000D+01
 S   1 1.00       0.000000000000
      0.7668876969D-01  0.1000000000D+01
 P   1 1.00       0.000000000000
      0.2019953588D+06  0.1000000000D+01
 P   1 1.00       0.000000000000
      0.1031562389D+06  0.1000000000D+01
 P   1 1.00       0.000000000000
      0.5268046591D+05  0.1000000000D+01
 P   1 1.00       0.000000000000
      0.2690318607D+05  0.1000000000D+01
 P   1 1.00       0.000000000000
      0.1373908542D+05  0.1000000000D+01
 P   1 1.00       0.000000000000
      0.7016361094D+04  0.1000000000D+01
 P   1 1.00       0.000000000000
      0.3583158668D+04  0.1000000000D+01
 P   1 1.00       0.000000000000
      0.1829869625D+04  0.1000000000D+01
 P   1 1.00       0.000000000000
      0.9344891347D+03  0.1000000000D+01
 P   1 1.00       0.000000000000
      0.4772306896D+03  0.1000000000D+01
 P   1 1.00       0.000000000000
      0.2437151195D+03  0.1000000000D+01
 P   1 1.00       0.000000000000
      0.1244619442D+03  0.1000000000D+01
 P   1 1.00       0.000000000000
      0.6356099525D+02  0.1000000000D+01
 P   1 1.00       0.000000000000
      0.3245972208D+02  0.1000000000D+01
 P   1 1.00       0.000000000000
      0.1657673158D+02  0.1000000000D+01
 P   1 1.00       0.000000000000
      0.8465507783D+01  0.1000000000D+01
 P   1 1.00       0.000000000000
      0.4323217860D+01  0.1000000000D+01
 P   1 1.00       0.000000000000
      0.2207807629D+01  0.1000000000D+01
 P   1 1.00       0.000000000000
      0.1127496852D+01  0.1000000000D+01
 P   1 1.00       0.000000000000
      0.5757970639D+00  0.1000000000D+01
 P   1 1.00       0.000000000000
      0.2940516050D+00  0.1000000000D+01
 P   1 1.00       0.000000000000
      0.1501680918D+00  0.1000000000D+01
 P   1 1.00       0.000000000000
      0.7668876969D-01  0.1000000000D+01
 P   1 1.00       0.000000000000
      0.3916389510D-01  0.1000000000D+01
 D   1 1.00       0.000000000000
      0.4772306896D+03  0.1000000000D+01
 D   1 1.00       0.000000000000
      0.2437151195D+03  0.1000000000D+01
 D   1 1.00       0.000000000000
      0.1244619442D+03  0.1000000000D+01
 D   1 1.00       0.000000000000
      0.6356099525D+02  0.1000000000D+01
 D   1 1.00       0.000000000000
      0.3245972208D+02  0.1000000000D+01
 D   1 1.00       0.000000000000
      0.1657673158D+02  0.1000000000D+01
 D   1 1.00       0.000000000000
      0.8465507783D+01  0.1000000000D+01
 D   1 1.00       0.000000000000
      0.4323217860D+01  0.1000000000D+01
 D   1 1.00       0.000000000000
      0.2207807629D+01  0.1000000000D+01
 D   1 1.00       0.000000000000
      0.1127496852D+01  0.1000000000D+01
 D   1 1.00       0.000000000000
      0.5757970639D+00  0.1000000000D+01
 D   1 1.00       0.000000000000
      0.2940516050D+00  0.1000000000D+01
 D   1 1.00       0.000000000000
      0.1501680918D+00  0.1000000000D+01
 D   1 1.00       0.000000000000
      0.7668876969D-01  0.1000000000D+01
 D   1 1.00       0.000000000000
      0.3916389510D-01  0.1000000000D+01
 ****
      5 0
 S   1 1.00       0.000000000000
      0.2019953588D+06  0.1000000000D+01
 S   1 1.00       0.000000000000
      0.1031562389D+06  0.1000000000D+01
 S   1 1.00       0.000000000000
      0.5268046591D+05  0.1000000000D+01
 S   1 1.00       0.000000000000
      0.2690318607D+05  0.1000000000D+01
 S   1 1.00       0.000000000000
      0.1373908542D+05  0.1000000000D+01
 S   1 1.00       0.000000000000
      0.7016361094D+04  0.1000000000D+01
 S   1 1.00       0.000000000000
      0.3583158668D+04  0.1000000000D+01
 S   1 1.00       0.000000000000
      0.1829869625D+04  0.1000000000D+01
 S   1 1.00       0.000000000000
      0.9344891347D+03  0.1000000000D+01
 S   1 1.00       0.000000000000
      0.4772306896D+03  0.1000000000D+01
 S   1 1.00       0.000000000000
      0.2437151195D+03  0.1000000000D+01
 S   1 1.00       0.000000000000
      0.1244619442D+03  0.1000000000D+01
 S   1 1.00       0.000000000000
      0.6356099525D+02  0.1000000000D+01
 S   1 1.00       0.000000000000
      0.3245972208D+02  0.1000000000D+01
 S   1 1.00       0.000000000000
      0.1657673158D+02  0.1000000000D+01
 S   1 1.00       0.000000000000
      0.8465507783D+01  0.1000000000D+01
 S   1 1.00       0.000000000000
      0.4323217860D+01  0.1000000000D+01
 S   1 1.00       0.000000000000
      0.2207807629D+01  0.1000000000D+01
 S   1 1.00       0.000000000000
      0.1127496852D+01  0.1000000000D+01
 S   1 1.00       0.000000000000
      0.5757970639D+00  0.1000000000D+01
 S   1 1.00       0.000000000000
      0.2940516050D+00  0.1000000000D+01
 S   1 1.00       0.000000000000
      0.1501680918D+00  0.1000000000D+01
 S   1 1.00       0.000000000000
      0.7668876969D-01  0.1000000000D+01
 P   1 1.00       0.000000000000
      0.2019953588D+06  0.1000000000D+01
 P   1 1.00       0.000000000000
      0.1031562389D+06  0.1000000000D+01
 P   1 1.00       0.000000000000
      0.5268046591D+05  0.1000000000D+01
 P   1 1.00       0.000000000000
      0.2690318607D+05  0.1000000000D+01
 P   1 1.00       0.000000000000
      0.1373908542D+05  0.1000000000D+01
 P   1 1.00       0.000000000000
      0.7016361094D+04  0.1000000000D+01
 P   1 1.00       0.000000000000
      0.3583158668D+04  0.1000000000D+01
 P   1 1.00       0.000000000000
      0.1829869625D+04  0.1000000000D+01
 P   1 1.00       0.000000000000
      0.9344891347D+03  0.1000000000D+01
 P   1 1.00       0.000000000000
      0.4772306896D+03  0.1000000000D+01
 P   1 1.00       0.000000000000
      0.2437151195D+03  0.1000000000D+01
 P   1 1.00       0.000000000000
      0.1244619442D+03  0.1000000000D+01
 P   1 1.00       0.000000000000
      0.6356099525D+02  0.1000000000D+01
 P   1 1.00       0.000000000000
      0.3245972208D+02  0.1000000000D+01
 P   1 1.00       0.000000000000
      0.1657673158D+02  0.1000000000D+01
 P   1 1.00       0.000000000000
      0.8465507783D+01  0.1000000000D+01
 P   1 1.00       0.000000000000
      0.4323217860D+01  0.1000000000D+01
 P   1 1.00       0.000000000000
      0.2207807629D+01  0.1000000000D+01
 P   1 1.00       0.000000000000
      0.1127496852D+01  0.1000000000D+01
 P   1 1.00       0.000000000000
      0.5757970639D+00  0.1000000000D+01
 P   1 1.00       0.000000000000
      0.2940516050D+00  0.1000000000D+01
 P   1 1.00       0.000000000000
      0.1501680918D+00  0.1000000000D+01
 P   1 1.00       0.000000000000
      0.7668876969D-01  0.1000000000D+01
 P   1 1.00       0.000000000000
      0.3916389510D-01  0.1000000000D+01
 D   1 1.00       0.000000000000
      0.4772306896D+03  0.1000000000D+01
 D   1 1.00       0.000000000000
      0.2437151195D+03  0.1000000000D+01
 D   1 1.00       0.000000000000
      0.1244619442D+03  0.1000000000D+01
 D   1 1.00       0.000000000000
      0.6356099525D+02  0.1000000000D+01
 D   1 1.00       0.000000000000
      0.3245972208D+02  0.1000000000D+01
 D   1 1.00       0.000000000000
      0.1657673158D+02  0.1000000000D+01
 D   1 1.00       0.000000000000
      0.8465507783D+01  0.1000000000D+01
 D   1 1.00       0.000000000000
      0.4323217860D+01  0.1000000000D+01
 D   1 1.00       0.000000000000
      0.2207807629D+01  0.1000000000D+01
 D   1 1.00       0.000000000000
      0.1127496852D+01  0.1000000000D+01
 D   1 1.00       0.000000000000
      0.5757970639D+00  0.1000000000D+01
 D   1 1.00       0.000000000000
      0.2940516050D+00  0.1000000000D+01
 D   1 1.00       0.000000000000
      0.1501680918D+00  0.1000000000D+01
 D   1 1.00       0.000000000000
      0.7668876969D-01  0.1000000000D+01
 D   1 1.00       0.000000000000
      0.3916389510D-01  0.1000000000D+01
 ****

 AO basis set (Overlap normalization):
 Atom Cl1      Shell     1 S   1     bf    1 -     1         -0.355857042137          3.941566315097          0.000000000000
      0.2969784651D+07  0.1000000000D+01
 Atom Cl1      Shell     2 S   1     bf    2 -     2         -0.355857042137          3.941566315097          0.000000000000
      0.1516627989D+07  0.1000000000D+01
 Atom Cl1      Shell     3 S   1     bf    3 -     3         -0.355857042137          3.941566315097          0.000000000000
      0.7745209592D+06  0.1000000000D+01
 Atom Cl1      Shell     4 S   1     bf    4 -     4         -0.355857042137          3.941566315097          0.000000000000
      0.3955371526D+06  0.1000000000D+01
 Atom Cl1      Shell     5 S   1     bf    5 -     5         -0.355857042137          3.941566315097          0.000000000000
      0.2019953588D+06  0.1000000000D+01
 Atom Cl1      Shell     6 S   1     bf    6 -     6         -0.355857042137          3.941566315097          0.000000000000
      0.1031562389D+06  0.1000000000D+01
 Atom Cl1      Shell     7 S   1     bf    7 -     7         -0.355857042137          3.941566315097          0.000000000000
      0.5268046591D+05  0.1000000000D+01
 Atom Cl1      Shell     8 S   1     bf    8 -     8         -0.355857042137          3.941566315097          0.000000000000
      0.2690318607D+05  0.1000000000D+01
 Atom Cl1      Shell     9 S   1     bf    9 -     9         -0.355857042137          3.941566315097          0.000000000000
      0.1373908542D+05  0.1000000000D+01
 Atom Cl1      Shell    10 S   1     bf   10 -    10         -0.355857042137          3.941566315097          0.000000000000
      0.7016361094D+04  0.1000000000D+01
 Atom Cl1      Shell    11 S   1     bf   11 -    11         -0.355857042137          3.941566315097          0.000000000000
      0.3583158668D+04  0.1000000000D+01
 Atom Cl1      Shell    12 S   1     bf   12 -    12         -0.355857042137          3.941566315097          0.000000000000
      0.1829869625D+04  0.1000000000D+01
 Atom Cl1      Shell    13 S   1     bf   13 -    13         -0.355857042137          3.941566315097          0.000000000000
      0.9344891347D+03  0.1000000000D+01
 Atom Cl1      Shell    14 S   1     bf   14 -    14         -0.355857042137          3.941566315097          0.000000000000
      0.4772306896D+03  0.1000000000D+01
 Atom Cl1      Shell    15 S   1     bf   15 -    15         -0.355857042137          3.941566315097          0.000000000000
      0.2437151195D+03  0.1000000000D+01
 Atom Cl1      Shell    16 S   1     bf   16 -    16         -0.355857042137          3.941566315097          0.000000000000
      0.1244619442D+03  0.1000000000D+01
 Atom Cl1      Shell    17 S   1     bf   17 -    17         -0.355857042137          3.941566315097          0.000000000000
      0.6356099525D+02  0.1000000000D+01
 Atom Cl1      Shell    18 S   1     bf   18 -    18         -0.355857042137          3.941566315097          0.000000000000
      0.3245972208D+02  0.1000000000D+01
 Atom Cl1      Shell    19 S   1     bf   19 -    19         -0.355857042137          3.941566315097          0.000000000000
      0.1657673158D+02  0.1000000000D+01
 Atom Cl1      Shell    20 S   1     bf   20 -    20         -0.355857042137          3.941566315097          0.000000000000
      0.8465507783D+01  0.1000000000D+01
 Atom Cl1      Shell    21 S   1     bf   21 -    21         -0.355857042137          3.941566315097          0.000000000000
      0.4323217860D+01  0.1000000000D+01
 Atom Cl1      Shell    22 S   1     bf   22 -    22         -0.355857042137          3.941566315097          0.000000000000
      0.2207807629D+01  0.1000000000D+01
 Atom Cl1      Shell    23 S   1     bf   23 -    23         -0.355857042137          3.941566315097          0.000000000000
      0.1127496852D+01  0.1000000000D+01
 Atom Cl1      Shell    24 S   1     bf   24 -    24         -0.355857042137          3.941566315097          0.000000000000
      0.5757970639D+00  0.1000000000D+01
 Atom Cl1      Shell    25 S   1     bf   25 -    25         -0.355857042137          3.941566315097          0.000000000000
      0.2940516050D+00  0.1000000000D+01
 Atom Cl1      Shell    26 S   1     bf   26 -    26         -0.355857042137          3.941566315097          0.000000000000
      0.1501680918D+00  0.1000000000D+01
 Atom Cl1      Shell    27 S   1     bf   27 -    27         -0.355857042137          3.941566315097          0.000000000000
      0.7668876969D-01  0.1000000000D+01
 Atom Cl1      Shell    28 P   1     bf   28 -    30         -0.355857042137          3.941566315097          0.000000000000
      0.2969784651D+07  0.1000000000D+01
 Atom Cl1      Shell    29 P   1     bf   31 -    33         -0.355857042137          3.941566315097          0.000000000000
      0.1516627989D+07  0.1000000000D+01
 Atom Cl1      Shell    30 P   1     bf   34 -    36         -0.355857042137          3.941566315097          0.000000000000
      0.7745209592D+06  0.1000000000D+01
 Atom Cl1      Shell    31 P   1     bf   37 -    39         -0.355857042137          3.941566315097          0.000000000000
      0.3955371526D+06  0.1000000000D+01
 Atom Cl1      Shell    32 P   1     bf   40 -    42         -0.355857042137          3.941566315097          0.000000000000
      0.2019953588D+06  0.1000000000D+01
 Atom Cl1      Shell    33 P   1     bf   43 -    45         -0.355857042137          3.941566315097          0.000000000000
      0.1031562389D+06  0.1000000000D+01
 Atom Cl1      Shell    34 P   1     bf   46 -    48         -0.355857042137          3.941566315097          0.000000000000
      0.5268046591D+05  0.1000000000D+01
 Atom Cl1      Shell    35 P   1     bf   49 -    51         -0.355857042137          3.941566315097          0.000000000000
      0.2690318607D+05  0.1000000000D+01
 Atom Cl1      Shell    36 P   1     bf   52 -    54         -0.355857042137          3.941566315097          0.000000000000
      0.1373908542D+05  0.1000000000D+01
 Atom Cl1      Shell    37 P   1     bf   55 -    57         -0.355857042137          3.941566315097          0.000000000000
      0.7016361094D+04  0.1000000000D+01
 Atom Cl1      Shell    38 P   1     bf   58 -    60         -0.355857042137          3.941566315097          0.000000000000
      0.3583158668D+04  0.1000000000D+01
 Atom Cl1      Shell    39 P   1     bf   61 -    63         -0.355857042137          3.941566315097          0.000000000000
      0.1829869625D+04  0.1000000000D+01
 Atom Cl1      Shell    40 P   1     bf   64 -    66         -0.355857042137          3.941566315097          0.000000000000
      0.9344891347D+03  0.1000000000D+01
 Atom Cl1      Shell    41 P   1     bf   67 -    69         -0.355857042137          3.941566315097          0.000000000000
      0.4772306896D+03  0.1000000000D+01
 Atom Cl1      Shell    42 P   1     bf   70 -    72         -0.355857042137          3.941566315097          0.000000000000
      0.2437151195D+03  0.1000000000D+01
 Atom Cl1      Shell    43 P   1     bf   73 -    75         -0.355857042137          3.941566315097          0.000000000000
      0.1244619442D+03  0.1000000000D+01
 Atom Cl1      Shell    44 P   1     bf   76 -    78         -0.355857042137          3.941566315097          0.000000000000
      0.6356099525D+02  0.1000000000D+01
 Atom Cl1      Shell    45 P   1     bf   79 -    81         -0.355857042137          3.941566315097          0.000000000000
      0.3245972208D+02  0.1000000000D+01
 Atom Cl1      Shell    46 P   1     bf   82 -    84         -0.355857042137          3.941566315097          0.000000000000
      0.1657673158D+02  0.1000000000D+01
 Atom Cl1      Shell    47 P   1     bf   85 -    87         -0.355857042137          3.941566315097          0.000000000000
      0.8465507783D+01  0.1000000000D+01
 Atom Cl1      Shell    48 P   1     bf   88 -    90         -0.355857042137          3.941566315097          0.000000000000
      0.4323217860D+01  0.1000000000D+01
 Atom Cl1      Shell    49 P   1     bf   91 -    93         -0.355857042137          3.941566315097          0.000000000000
      0.2207807629D+01  0.1000000000D+01
 Atom Cl1      Shell    50 P   1     bf   94 -    96         -0.355857042137          3.941566315097          0.000000000000
      0.1127496852D+01  0.1000000000D+01
 Atom Cl1      Shell    51 P   1     bf   97 -    99         -0.355857042137          3.941566315097          0.000000000000
      0.5757970639D+00  0.1000000000D+01
 Atom Cl1      Shell    52 P   1     bf  100 -   102         -0.355857042137          3.941566315097          0.000000000000
      0.2940516050D+00  0.1000000000D+01
 Atom Cl1      Shell    53 P   1     bf  103 -   105         -0.355857042137          3.941566315097          0.000000000000
      0.1501680918D+00  0.1000000000D+01
 Atom Cl1      Shell    54 P   1     bf  106 -   108         -0.355857042137          3.941566315097          0.000000000000
      0.7668876969D-01  0.1000000000D+01
 Atom Cl1      Shell    55 D   1     bf  109 -   113         -0.355857042137          3.941566315097          0.000000000000
      0.1373908542D+05  0.1000000000D+01
 Atom Cl1      Shell    56 D   1     bf  114 -   118         -0.355857042137          3.941566315097          0.000000000000
      0.7016361094D+04  0.1000000000D+01
 Atom Cl1      Shell    57 D   1     bf  119 -   123         -0.355857042137          3.941566315097          0.000000000000
      0.3583158668D+04  0.1000000000D+01
 Atom Cl1      Shell    58 D   1     bf  124 -   128         -0.355857042137          3.941566315097          0.000000000000
      0.1829869625D+04  0.1000000000D+01
 Atom Cl1      Shell    59 D   1     bf  129 -   133         -0.355857042137          3.941566315097          0.000000000000
      0.9344891347D+03  0.1000000000D+01
 Atom Cl1      Shell    60 D   1     bf  134 -   138         -0.355857042137          3.941566315097          0.000000000000
      0.4772306896D+03  0.1000000000D+01
 Atom Cl1      Shell    61 D   1     bf  139 -   143         -0.355857042137          3.941566315097          0.000000000000
      0.2437151195D+03  0.1000000000D+01
 Atom Cl1      Shell    62 D   1     bf  144 -   148         -0.355857042137          3.941566315097          0.000000000000
      0.1244619442D+03  0.1000000000D+01
 Atom Cl1      Shell    63 D   1     bf  149 -   153         -0.355857042137          3.941566315097          0.000000000000
      0.6356099525D+02  0.1000000000D+01
 Atom Cl1      Shell    64 D   1     bf  154 -   158         -0.355857042137          3.941566315097          0.000000000000
      0.3245972208D+02  0.1000000000D+01
 Atom Cl1      Shell    65 D   1     bf  159 -   163         -0.355857042137          3.941566315097          0.000000000000
      0.1657673158D+02  0.1000000000D+01
 Atom Cl1      Shell    66 D   1     bf  164 -   168         -0.355857042137          3.941566315097          0.000000000000
      0.8465507783D+01  0.1000000000D+01
 Atom Cl1      Shell    67 D   1     bf  169 -   173         -0.355857042137          3.941566315097          0.000000000000
      0.4323217860D+01  0.1000000000D+01
 Atom Cl1      Shell    68 D   1     bf  174 -   178         -0.355857042137          3.941566315097          0.000000000000
      0.2207807629D+01  0.1000000000D+01
 Atom Cl1      Shell    69 D   1     bf  179 -   183         -0.355857042137          3.941566315097          0.000000000000
      0.1127496852D+01  0.1000000000D+01
 Atom Cl1      Shell    70 D   1     bf  184 -   188         -0.355857042137          3.941566315097          0.000000000000
      0.5757970639D+00  0.1000000000D+01
 Atom Cl1      Shell    71 D   1     bf  189 -   193         -0.355857042137          3.941566315097          0.000000000000
      0.2940516050D+00  0.1000000000D+01
 Atom Cl1      Shell    72 D   1     bf  194 -   198         -0.355857042137          3.941566315097          0.000000000000
      0.1501680918D+00  0.1000000000D+01
 Atom Cl1      Shell    73 D   1     bf  199 -   203         -0.355857042137          3.941566315097          0.000000000000
      0.7668876969D-01  0.1000000000D+01
 Atom C2       Shell    74 S   1     bf  204 -   204          0.000000000000          0.853402370928          0.000000000000
      0.2019953588D+06  0.1000000000D+01
 Atom C2       Shell    75 S   1     bf  205 -   205          0.000000000000          0.853402370928          0.000000000000
      0.1031562389D+06  0.1000000000D+01
 Atom C2       Shell    76 S   1     bf  206 -   206          0.000000000000          0.853402370928          0.000000000000
      0.5268046591D+05  0.1000000000D+01
 Atom C2       Shell    77 S   1     bf  207 -   207          0.000000000000          0.853402370928          0.000000000000
      0.2690318607D+05  0.1000000000D+01
 Atom C2       Shell    78 S   1     bf  208 -   208          0.000000000000          0.853402370928          0.000000000000
      0.1373908542D+05  0.1000000000D+01
 Atom C2       Shell    79 S   1     bf  209 -   209          0.000000000000          0.853402370928          0.000000000000
      0.7016361094D+04  0.1000000000D+01
 Atom C2       Shell    80 S   1     bf  210 -   210          0.000000000000          0.853402370928          0.000000000000
      0.3583158668D+04  0.1000000000D+01
 Atom C2       Shell    81 S   1     bf  211 -   211          0.000000000000          0.853402370928          0.000000000000
      0.1829869625D+04  0.1000000000D+01
 Atom C2       Shell    82 S   1     bf  212 -   212          0.000000000000          0.853402370928          0.000000000000
      0.9344891347D+03  0.1000000000D+01
 Atom C2       Shell    83 S   1     bf  213 -   213          0.000000000000          0.853402370928          0.000000000000
      0.4772306896D+03  0.1000000000D+01
 Atom C2       Shell    84 S   1     bf  214 -   214          0.000000000000          0.853402370928          0.000000000000
      0.2437151195D+03  0.1000000000D+01
 Atom C2       Shell    85 S   1     bf  215 -   215          0.000000000000          0.853402370928          0.000000000000
      0.1244619442D+03  0.1000000000D+01
 Atom C2       Shell    86 S   1     bf  216 -   216          0.000000000000          0.853402370928          0.000000000000
      0.6356099525D+02  0.1000000000D+01
 Atom C2       Shell    87 S   1     bf  217 -   217          0.000000000000          0.853402370928          0.000000000000
      0.3245972208D+02  0.1000000000D+01
 Atom C2       Shell    88 S   1     bf  218 -   218          0.000000000000          0.853402370928          0.000000000000
      0.1657673158D+02  0.1000000000D+01
 Atom C2       Shell    89 S   1     bf  219 -   219          0.000000000000          0.853402370928          0.000000000000
      0.8465507783D+01  0.1000000000D+01
 Atom C2       Shell    90 S   1     bf  220 -   220          0.000000000000          0.853402370928          0.000000000000
      0.4323217860D+01  0.1000000000D+01
 Atom C2       Shell    91 S   1     bf  221 -   221          0.000000000000          0.853402370928          0.000000000000
      0.2207807629D+01  0.1000000000D+01
 Atom C2       Shell    92 S   1     bf  222 -   222          0.000000000000          0.853402370928          0.000000000000
      0.1127496852D+01  0.1000000000D+01
 Atom C2       Shell    93 S   1     bf  223 -   223          0.000000000000          0.853402370928          0.000000000000
      0.5757970639D+00  0.1000000000D+01
 Atom C2       Shell    94 S   1     bf  224 -   224          0.000000000000          0.853402370928          0.000000000000
      0.2940516050D+00  0.1000000000D+01
 Atom C2       Shell    95 S   1     bf  225 -   225          0.000000000000          0.853402370928          0.000000000000
      0.1501680918D+00  0.1000000000D+01
 Atom C2       Shell    96 S   1     bf  226 -   226          0.000000000000          0.853402370928          0.000000000000
      0.7668876969D-01  0.1000000000D+01
 Atom C2       Shell    97 P   1     bf  227 -   229          0.000000000000          0.853402370928          0.000000000000
      0.2019953588D+06  0.1000000000D+01
 Atom C2       Shell    98 P   1     bf  230 -   232          0.000000000000          0.853402370928          0.000000000000
      0.1031562389D+06  0.1000000000D+01
 Atom C2       Shell    99 P   1     bf  233 -   235          0.000000000000          0.853402370928          0.000000000000
      0.5268046591D+05  0.1000000000D+01
 Atom C2       Shell   100 P   1     bf  236 -   238          0.000000000000          0.853402370928          0.000000000000
      0.2690318607D+05  0.1000000000D+01
 Atom C2       Shell   101 P   1     bf  239 -   241          0.000000000000          0.853402370928          0.000000000000
      0.1373908542D+05  0.1000000000D+01
 Atom C2       Shell   102 P   1     bf  242 -   244          0.000000000000          0.853402370928          0.000000000000
      0.7016361094D+04  0.1000000000D+01
 Atom C2       Shell   103 P   1     bf  245 -   247          0.000000000000          0.853402370928          0.000000000000
      0.3583158668D+04  0.1000000000D+01
 Atom C2       Shell   104 P   1     bf  248 -   250          0.000000000000          0.853402370928          0.000000000000
      0.1829869625D+04  0.1000000000D+01
 Atom C2       Shell   105 P   1     bf  251 -   253          0.000000000000          0.853402370928          0.000000000000
      0.9344891347D+03  0.1000000000D+01
 Atom C2       Shell   106 P   1     bf  254 -   256          0.000000000000          0.853402370928          0.000000000000
      0.4772306896D+03  0.1000000000D+01
 Atom C2       Shell   107 P   1     bf  257 -   259          0.000000000000          0.853402370928          0.000000000000
      0.2437151195D+03  0.1000000000D+01
 Atom C2       Shell   108 P   1     bf  260 -   262          0.000000000000          0.853402370928          0.000000000000
      0.1244619442D+03  0.1000000000D+01
 Atom C2       Shell   109 P   1     bf  263 -   265          0.000000000000          0.853402370928          0.000000000000
      0.6356099525D+02  0.1000000000D+01
 Atom C2       Shell   110 P   1     bf  266 -   268          0.000000000000          0.853402370928          0.000000000000
      0.3245972208D+02  0.1000000000D+01
 Atom C2       Shell   111 P   1     bf  269 -   271          0.000000000000          0.853402370928          0.000000000000
      0.1657673158D+02  0.1000000000D+01
 Atom C2       Shell   112 P   1     bf  272 -   274          0.000000000000          0.853402370928          0.000000000000
      0.8465507783D+01  0.1000000000D+01
 Atom C2       Shell   113 P   1     bf  275 -   277          0.000000000000          0.853402370928          0.000000000000
      0.4323217860D+01  0.1000000000D+01
 Atom C2       Shell   114 P   1     bf  278 -   280          0.000000000000          0.853402370928          0.000000000000
      0.2207807629D+01  0.1000000000D+01
 Atom C2       Shell   115 P   1     bf  281 -   283          0.000000000000          0.853402370928          0.000000000000
      0.1127496852D+01  0.1000000000D+01
 Atom C2       Shell   116 P   1     bf  284 -   286          0.000000000000          0.853402370928          0.000000000000
      0.5757970639D+00  0.1000000000D+01
 Atom C2       Shell   117 P   1     bf  287 -   289          0.000000000000          0.853402370928          0.000000000000
      0.2940516050D+00  0.1000000000D+01
 Atom C2       Shell   118 P   1     bf  290 -   292          0.000000000000          0.853402370928          0.000000000000
      0.1501680918D+00  0.1000000000D+01
 Atom C2       Shell   119 P   1     bf  293 -   295          0.000000000000          0.853402370928          0.000000000000
      0.7668876969D-01  0.1000000000D+01
 Atom C2       Shell   120 P   1     bf  296 -   298          0.000000000000          0.853402370928          0.000000000000
      0.3916389510D-01  0.1000000000D+01
 Atom C2       Shell   121 D   1     bf  299 -   303          0.000000000000          0.853402370928          0.000000000000
      0.4772306896D+03  0.1000000000D+01
 Atom C2       Shell   122 D   1     bf  304 -   308          0.000000000000          0.853402370928          0.000000000000
      0.2437151195D+03  0.1000000000D+01
 Atom C2       Shell   123 D   1     bf  309 -   313          0.000000000000          0.853402370928          0.000000000000
      0.1244619442D+03  0.1000000000D+01
 Atom C2       Shell   124 D   1     bf  314 -   318          0.000000000000          0.853402370928          0.000000000000
      0.6356099525D+02  0.1000000000D+01
 Atom C2       Shell   125 D   1     bf  319 -   323          0.000000000000          0.853402370928          0.000000000000
      0.3245972208D+02  0.1000000000D+01
 Atom C2       Shell   126 D   1     bf  324 -   328          0.000000000000          0.853402370928          0.000000000000
      0.1657673158D+02  0.1000000000D+01
 Atom C2       Shell   127 D   1     bf  329 -   333          0.000000000000          0.853402370928          0.000000000000
      0.8465507783D+01  0.1000000000D+01
 Atom C2       Shell   128 D   1     bf  334 -   338          0.000000000000          0.853402370928          0.000000000000
      0.4323217860D+01  0.1000000000D+01
 Atom C2       Shell   129 D   1     bf  339 -   343          0.000000000000          0.853402370928          0.000000000000
      0.2207807629D+01  0.1000000000D+01
 Atom C2       Shell   130 D   1     bf  344 -   348          0.000000000000          0.853402370928          0.000000000000
      0.1127496852D+01  0.1000000000D+01
 Atom C2       Shell   131 D   1     bf  349 -   353          0.000000000000          0.853402370928          0.000000000000
      0.5757970639D+00  0.1000000000D+01
 Atom C2       Shell   132 D   1     bf  354 -   358          0.000000000000          0.853402370928          0.000000000000
      0.2940516050D+00  0.1000000000D+01
 Atom C2       Shell   133 D   1     bf  359 -   363          0.000000000000          0.853402370928          0.000000000000
      0.1501680918D+00  0.1000000000D+01
 Atom C2       Shell   134 D   1     bf  364 -   368          0.000000000000          0.853402370928          0.000000000000
      0.7668876969D-01  0.1000000000D+01
 Atom C2       Shell   135 D   1     bf  369 -   373          0.000000000000          0.853402370928          0.000000000000
      0.3916389510D-01  0.1000000000D+01
 Atom C3       Shell   136 S   1     bf  374 -   374          0.319540108135         -1.549967076161          0.000000000000
      0.2019953588D+06  0.1000000000D+01
 Atom C3       Shell   137 S   1     bf  375 -   375          0.319540108135         -1.549967076161          0.000000000000
      0.1031562389D+06  0.1000000000D+01
 Atom C3       Shell   138 S   1     bf  376 -   376          0.319540108135         -1.549967076161          0.000000000000
      0.5268046591D+05  0.1000000000D+01
 Atom C3       Shell   139 S   1     bf  377 -   377          0.319540108135         -1.549967076161          0.000000000000
      0.2690318607D+05  0.1000000000D+01
 Atom C3       Shell   140 S   1     bf  378 -   378          0.319540108135         -1.549967076161          0.000000000000
      0.1373908542D+05  0.1000000000D+01
 Atom C3       Shell   141 S   1     bf  379 -   379          0.319540108135         -1.549967076161          0.000000000000
      0.7016361094D+04  0.1000000000D+01
 Atom C3       Shell   142 S   1     bf  380 -   380          0.319540108135         -1.549967076161          0.000000000000
      0.3583158668D+04  0.1000000000D+01
 Atom C3       Shell   143 S   1     bf  381 -   381          0.319540108135         -1.549967076161          0.000000000000
      0.1829869625D+04  0.1000000000D+01
 Atom C3       Shell   144 S   1     bf  382 -   382          0.319540108135         -1.549967076161          0.000000000000
      0.9344891347D+03  0.1000000000D+01
 Atom C3       Shell   145 S   1     bf  383 -   383          0.319540108135         -1.549967076161          0.000000000000
      0.4772306896D+03  0.1000000000D+01
 Atom C3       Shell   146 S   1     bf  384 -   384          0.319540108135         -1.549967076161          0.000000000000
      0.2437151195D+03  0.1000000000D+01
 Atom C3       Shell   147 S   1     bf  385 -   385          0.319540108135         -1.549967076161          0.000000000000
      0.1244619442D+03  0.1000000000D+01
 Atom C3       Shell   148 S   1     bf  386 -   386          0.319540108135         -1.549967076161          0.000000000000
      0.6356099525D+02  0.1000000000D+01
 Atom C3       Shell   149 S   1     bf  387 -   387          0.319540108135         -1.549967076161          0.000000000000
      0.3245972208D+02  0.1000000000D+01
 Atom C3       Shell   150 S   1     bf  388 -   388          0.319540108135         -1.549967076161          0.000000000000
      0.1657673158D+02  0.1000000000D+01
 Atom C3       Shell   151 S   1     bf  389 -   389          0.319540108135         -1.549967076161          0.000000000000
      0.8465507783D+01  0.1000000000D+01
 Atom C3       Shell   152 S   1     bf  390 -   390          0.319540108135         -1.549967076161          0.000000000000
      0.4323217860D+01  0.1000000000D+01
 Atom C3       Shell   153 S   1     bf  391 -   391          0.319540108135         -1.549967076161          0.000000000000
      0.2207807629D+01  0.1000000000D+01
 Atom C3       Shell   154 S   1     bf  392 -   392          0.319540108135         -1.549967076161          0.000000000000
      0.1127496852D+01  0.1000000000D+01
 Atom C3       Shell   155 S   1     bf  393 -   393          0.319540108135         -1.549967076161          0.000000000000
      0.5757970639D+00  0.1000000000D+01
 Atom C3       Shell   156 S   1     bf  394 -   394          0.319540108135         -1.549967076161          0.000000000000
      0.2940516050D+00  0.1000000000D+01
 Atom C3       Shell   157 S   1     bf  395 -   395          0.319540108135         -1.549967076161          0.000000000000
      0.1501680918D+00  0.1000000000D+01
 Atom C3       Shell   158 S   1     bf  396 -   396          0.319540108135         -1.549967076161          0.000000000000
      0.7668876969D-01  0.1000000000D+01
 Atom C3       Shell   159 P   1     bf  397 -   399          0.319540108135         -1.549967076161          0.000000000000
      0.2019953588D+06  0.1000000000D+01
 Atom C3       Shell   160 P   1     bf  400 -   402          0.319540108135         -1.549967076161          0.000000000000
      0.1031562389D+06  0.1000000000D+01
 Atom C3       Shell   161 P   1     bf  403 -   405          0.319540108135         -1.549967076161          0.000000000000
      0.5268046591D+05  0.1000000000D+01
 Atom C3       Shell   162 P   1     bf  406 -   408          0.319540108135         -1.549967076161          0.000000000000
      0.2690318607D+05  0.1000000000D+01
 Atom C3       Shell   163 P   1     bf  409 -   411          0.319540108135         -1.549967076161          0.000000000000
      0.1373908542D+05  0.1000000000D+01
 Atom C3       Shell   164 P   1     bf  412 -   414          0.319540108135         -1.549967076161          0.000000000000
      0.7016361094D+04  0.1000000000D+01
 Atom C3       Shell   165 P   1     bf  415 -   417          0.319540108135         -1.549967076161          0.000000000000
      0.3583158668D+04  0.1000000000D+01
 Atom C3       Shell   166 P   1     bf  418 -   420          0.319540108135         -1.549967076161          0.000000000000
      0.1829869625D+04  0.1000000000D+01
 Atom C3       Shell   167 P   1     bf  421 -   423          0.319540108135         -1.549967076161          0.000000000000
      0.9344891347D+03  0.1000000000D+01
 Atom C3       Shell   168 P   1     bf  424 -   426          0.319540108135         -1.549967076161          0.000000000000
      0.4772306896D+03  0.1000000000D+01
 Atom C3       Shell   169 P   1     bf  427 -   429          0.319540108135         -1.549967076161          0.000000000000
      0.2437151195D+03  0.1000000000D+01
 Atom C3       Shell   170 P   1     bf  430 -   432          0.319540108135         -1.549967076161          0.000000000000
      0.1244619442D+03  0.1000000000D+01
 Atom C3       Shell   171 P   1     bf  433 -   435          0.319540108135         -1.549967076161          0.000000000000
      0.6356099525D+02  0.1000000000D+01
 Atom C3       Shell   172 P   1     bf  436 -   438          0.319540108135         -1.549967076161          0.000000000000
      0.3245972208D+02  0.1000000000D+01
 Atom C3       Shell   173 P   1     bf  439 -   441          0.319540108135         -1.549967076161          0.000000000000
      0.1657673158D+02  0.1000000000D+01
 Atom C3       Shell   174 P   1     bf  442 -   444          0.319540108135         -1.549967076161          0.000000000000
      0.8465507783D+01  0.1000000000D+01
 Atom C3       Shell   175 P   1     bf  445 -   447          0.319540108135         -1.549967076161          0.000000000000
      0.4323217860D+01  0.1000000000D+01
 Atom C3       Shell   176 P   1     bf  448 -   450          0.319540108135         -1.549967076161          0.000000000000
      0.2207807629D+01  0.1000000000D+01
 Atom C3       Shell   177 P   1     bf  451 -   453          0.319540108135         -1.549967076161          0.000000000000
      0.1127496852D+01  0.1000000000D+01
 Atom C3       Shell   178 P   1     bf  454 -   456          0.319540108135         -1.549967076161          0.000000000000
      0.5757970639D+00  0.1000000000D+01
 Atom C3       Shell   179 P   1     bf  457 -   459          0.319540108135         -1.549967076161          0.000000000000
      0.2940516050D+00  0.1000000000D+01
 Atom C3       Shell   180 P   1     bf  460 -   462          0.319540108135         -1.549967076161          0.000000000000
      0.1501680918D+00  0.1000000000D+01
 Atom C3       Shell   181 P   1     bf  463 -   465          0.319540108135         -1.549967076161          0.000000000000
      0.7668876969D-01  0.1000000000D+01
 Atom C3       Shell   182 P   1     bf  466 -   468          0.319540108135         -1.549967076161          0.000000000000
      0.3916389510D-01  0.1000000000D+01
 Atom C3       Shell   183 D   1     bf  469 -   473          0.319540108135         -1.549967076161          0.000000000000
      0.4772306896D+03  0.1000000000D+01
 Atom C3       Shell   184 D   1     bf  474 -   478          0.319540108135         -1.549967076161          0.000000000000
      0.2437151195D+03  0.1000000000D+01
 Atom C3       Shell   185 D   1     bf  479 -   483          0.319540108135         -1.549967076161          0.000000000000
      0.1244619442D+03  0.1000000000D+01
 Atom C3       Shell   186 D   1     bf  484 -   488          0.319540108135         -1.549967076161          0.000000000000
      0.6356099525D+02  0.1000000000D+01
 Atom C3       Shell   187 D   1     bf  489 -   493          0.319540108135         -1.549967076161          0.000000000000
      0.3245972208D+02  0.1000000000D+01
 Atom C3       Shell   188 D   1     bf  494 -   498          0.319540108135         -1.549967076161          0.000000000000
      0.1657673158D+02  0.1000000000D+01
 Atom C3       Shell   189 D   1     bf  499 -   503          0.319540108135         -1.549967076161          0.000000000000
      0.8465507783D+01  0.1000000000D+01
 Atom C3       Shell   190 D   1     bf  504 -   508          0.319540108135         -1.549967076161          0.000000000000
      0.4323217860D+01  0.1000000000D+01
 Atom C3       Shell   191 D   1     bf  509 -   513          0.319540108135         -1.549967076161          0.000000000000
      0.2207807629D+01  0.1000000000D+01
 Atom C3       Shell   192 D   1     bf  514 -   518          0.319540108135         -1.549967076161          0.000000000000
      0.1127496852D+01  0.1000000000D+01
 Atom C3       Shell   193 D   1     bf  519 -   523          0.319540108135         -1.549967076161          0.000000000000
      0.5757970639D+00  0.1000000000D+01
 Atom C3       Shell   194 D   1     bf  524 -   528          0.319540108135         -1.549967076161          0.000000000000
      0.2940516050D+00  0.1000000000D+01
 Atom C3       Shell   195 D   1     bf  529 -   533          0.319540108135         -1.549967076161          0.000000000000
      0.1501680918D+00  0.1000000000D+01
 Atom C3       Shell   196 D   1     bf  534 -   538          0.319540108135         -1.549967076161          0.000000000000
      0.7668876969D-01  0.1000000000D+01
 Atom C3       Shell   197 D   1     bf  539 -   543          0.319540108135         -1.549967076161          0.000000000000
      0.3916389510D-01  0.1000000000D+01
 Atom C4       Shell   198 S   1     bf  544 -   544          0.193338075113         -4.018504973965          0.000000000000
      0.2019953588D+06  0.1000000000D+01
 Atom C4       Shell   199 S   1     bf  545 -   545          0.193338075113         -4.018504973965          0.000000000000
      0.1031562389D+06  0.1000000000D+01
 Atom C4       Shell   200 S   1     bf  546 -   546          0.193338075113         -4.018504973965          0.000000000000
      0.5268046591D+05  0.1000000000D+01
 Atom C4       Shell   201 S   1     bf  547 -   547          0.193338075113         -4.018504973965          0.000000000000
      0.2690318607D+05  0.1000000000D+01
 Atom C4       Shell   202 S   1     bf  548 -   548          0.193338075113         -4.018504973965          0.000000000000
      0.1373908542D+05  0.1000000000D+01
 Atom C4       Shell   203 S   1     bf  549 -   549          0.193338075113         -4.018504973965          0.000000000000
      0.7016361094D+04  0.1000000000D+01
 Atom C4       Shell   204 S   1     bf  550 -   550          0.193338075113         -4.018504973965          0.000000000000
      0.3583158668D+04  0.1000000000D+01
 Atom C4       Shell   205 S   1     bf  551 -   551          0.193338075113         -4.018504973965          0.000000000000
      0.1829869625D+04  0.1000000000D+01
 Atom C4       Shell   206 S   1     bf  552 -   552          0.193338075113         -4.018504973965          0.000000000000
      0.9344891347D+03  0.1000000000D+01
 Atom C4       Shell   207 S   1     bf  553 -   553          0.193338075113         -4.018504973965          0.000000000000
      0.4772306896D+03  0.1000000000D+01
 Atom C4       Shell   208 S   1     bf  554 -   554          0.193338075113         -4.018504973965          0.000000000000
      0.2437151195D+03  0.1000000000D+01
 Atom C4       Shell   209 S   1     bf  555 -   555          0.193338075113         -4.018504973965          0.000000000000
      0.1244619442D+03  0.1000000000D+01
 Atom C4       Shell   210 S   1     bf  556 -   556          0.193338075113         -4.018504973965          0.000000000000
      0.6356099525D+02  0.1000000000D+01
 Atom C4       Shell   211 S   1     bf  557 -   557          0.193338075113         -4.018504973965          0.000000000000
      0.3245972208D+02  0.1000000000D+01
 Atom C4       Shell   212 S   1     bf  558 -   558          0.193338075113         -4.018504973965          0.000000000000
      0.1657673158D+02  0.1000000000D+01
 Atom C4       Shell   213 S   1     bf  559 -   559          0.193338075113         -4.018504973965          0.000000000000
      0.8465507783D+01  0.1000000000D+01
 Atom C4       Shell   214 S   1     bf  560 -   560          0.193338075113         -4.018504973965          0.000000000000
      0.4323217860D+01  0.1000000000D+01
 Atom C4       Shell   215 S   1     bf  561 -   561          0.193338075113         -4.018504973965          0.000000000000
      0.2207807629D+01  0.1000000000D+01
 Atom C4       Shell   216 S   1     bf  562 -   562          0.193338075113         -4.018504973965          0.000000000000
      0.1127496852D+01  0.1000000000D+01
 Atom C4       Shell   217 S   1     bf  563 -   563          0.193338075113         -4.018504973965          0.000000000000
      0.5757970639D+00  0.1000000000D+01
 Atom C4       Shell   218 S   1     bf  564 -   564          0.193338075113         -4.018504973965          0.000000000000
      0.2940516050D+00  0.1000000000D+01
 Atom C4       Shell   219 S   1     bf  565 -   565          0.193338075113         -4.018504973965          0.000000000000
      0.1501680918D+00  0.1000000000D+01
 Atom C4       Shell   220 S   1     bf  566 -   566          0.193338075113         -4.018504973965          0.000000000000
      0.7668876969D-01  0.1000000000D+01
 Atom C4       Shell   221 P   1     bf  567 -   569          0.193338075113         -4.018504973965          0.000000000000
      0.2019953588D+06  0.1000000000D+01
 Atom C4       Shell   222 P   1     bf  570 -   572          0.193338075113         -4.018504973965          0.000000000000
      0.1031562389D+06  0.1000000000D+01
 Atom C4       Shell   223 P   1     bf  573 -   575          0.193338075113         -4.018504973965          0.000000000000
      0.5268046591D+05  0.1000000000D+01
 Atom C4       Shell   224 P   1     bf  576 -   578          0.193338075113         -4.018504973965          0.000000000000
      0.2690318607D+05  0.1000000000D+01
 Atom C4       Shell   225 P   1     bf  579 -   581          0.193338075113         -4.018504973965          0.000000000000
      0.1373908542D+05  0.1000000000D+01
 Atom C4       Shell   226 P   1     bf  582 -   584          0.193338075113         -4.018504973965          0.000000000000
      0.7016361094D+04  0.1000000000D+01
 Atom C4       Shell   227 P   1     bf  585 -   587          0.193338075113         -4.018504973965          0.000000000000
      0.3583158668D+04  0.1000000000D+01
 Atom C4       Shell   228 P   1     bf  588 -   590          0.193338075113         -4.018504973965          0.000000000000
      0.1829869625D+04  0.1000000000D+01
 Atom C4       Shell   229 P   1     bf  591 -   593          0.193338075113         -4.018504973965          0.000000000000
      0.9344891347D+03  0.1000000000D+01
 Atom C4       Shell   230 P   1     bf  594 -   596          0.193338075113         -4.018504973965          0.000000000000
      0.4772306896D+03  0.1000000000D+01
 Atom C4       Shell   231 P   1     bf  597 -   599          0.193338075113         -4.018504973965          0.000000000000
      0.2437151195D+03  0.1000000000D+01
 Atom C4       Shell   232 P   1     bf  600 -   602          0.193338075113         -4.018504973965          0.000000000000
      0.1244619442D+03  0.1000000000D+01
 Atom C4       Shell   233 P   1     bf  603 -   605          0.193338075113         -4.018504973965          0.000000000000
      0.6356099525D+02  0.1000000000D+01
 Atom C4       Shell   234 P   1     bf  606 -   608          0.193338075113         -4.018504973965          0.000000000000
      0.3245972208D+02  0.1000000000D+01
 Atom C4       Shell   235 P   1     bf  609 -   611          0.193338075113         -4.018504973965          0.000000000000
      0.1657673158D+02  0.1000000000D+01
 Atom C4       Shell   236 P   1     bf  612 -   614          0.193338075113         -4.018504973965          0.000000000000
      0.8465507783D+01  0.1000000000D+01
 Atom C4       Shell   237 P   1     bf  615 -   617          0.193338075113         -4.018504973965          0.000000000000
      0.4323217860D+01  0.1000000000D+01
 Atom C4       Shell   238 P   1     bf  618 -   620          0.193338075113         -4.018504973965          0.000000000000
      0.2207807629D+01  0.1000000000D+01
 Atom C4       Shell   239 P   1     bf  621 -   623          0.193338075113         -4.018504973965          0.000000000000
      0.1127496852D+01  0.1000000000D+01
 Atom C4       Shell   240 P   1     bf  624 -   626          0.193338075113         -4.018504973965          0.000000000000
      0.5757970639D+00  0.1000000000D+01
 Atom C4       Shell   241 P   1     bf  627 -   629          0.193338075113         -4.018504973965          0.000000000000
      0.2940516050D+00  0.1000000000D+01
 Atom C4       Shell   242 P   1     bf  630 -   632          0.193338075113         -4.018504973965          0.000000000000
      0.1501680918D+00  0.1000000000D+01
 Atom C4       Shell   243 P   1     bf  633 -   635          0.193338075113         -4.018504973965          0.000000000000
      0.7668876969D-01  0.1000000000D+01
 Atom C4       Shell   244 P   1     bf  636 -   638          0.193338075113         -4.018504973965          0.000000000000
      0.3916389510D-01  0.1000000000D+01
 Atom C4       Shell   245 D   1     bf  639 -   643          0.193338075113         -4.018504973965          0.000000000000
      0.4772306896D+03  0.1000000000D+01
 Atom C4       Shell   246 D   1     bf  644 -   648          0.193338075113         -4.018504973965          0.000000000000
      0.2437151195D+03  0.1000000000D+01
 Atom C4       Shell   247 D   1     bf  649 -   653          0.193338075113         -4.018504973965          0.000000000000
      0.1244619442D+03  0.1000000000D+01
 Atom C4       Shell   248 D   1     bf  654 -   658          0.193338075113         -4.018504973965          0.000000000000
      0.6356099525D+02  0.1000000000D+01
 Atom C4       Shell   249 D   1     bf  659 -   663          0.193338075113         -4.018504973965          0.000000000000
      0.3245972208D+02  0.1000000000D+01
 Atom C4       Shell   250 D   1     bf  664 -   668          0.193338075113         -4.018504973965          0.000000000000
      0.1657673158D+02  0.1000000000D+01
 Atom C4       Shell   251 D   1     bf  669 -   673          0.193338075113         -4.018504973965          0.000000000000
      0.8465507783D+01  0.1000000000D+01
 Atom C4       Shell   252 D   1     bf  674 -   678          0.193338075113         -4.018504973965          0.000000000000
      0.4323217860D+01  0.1000000000D+01
 Atom C4       Shell   253 D   1     bf  679 -   683          0.193338075113         -4.018504973965          0.000000000000
      0.2207807629D+01  0.1000000000D+01
 Atom C4       Shell   254 D   1     bf  684 -   688          0.193338075113         -4.018504973965          0.000000000000
      0.1127496852D+01  0.1000000000D+01
 Atom C4       Shell   255 D   1     bf  689 -   693          0.193338075113         -4.018504973965          0.000000000000
      0.5757970639D+00  0.1000000000D+01
 Atom C4       Shell   256 D   1     bf  694 -   698          0.193338075113         -4.018504973965          0.000000000000
      0.2940516050D+00  0.1000000000D+01
 Atom C4       Shell   257 D   1     bf  699 -   703          0.193338075113         -4.018504973965          0.000000000000
      0.1501680918D+00  0.1000000000D+01
 Atom C4       Shell   258 D   1     bf  704 -   708          0.193338075113         -4.018504973965          0.000000000000
      0.7668876969D-01  0.1000000000D+01
 Atom C4       Shell   259 D   1     bf  709 -   713          0.193338075113         -4.018504973965          0.000000000000
      0.3916389510D-01  0.1000000000D+01
 Atom C5       Shell   260 S   1     bf  714 -   714          0.495383436139         -6.452701546911          0.000000000000
      0.2019953588D+06  0.1000000000D+01
 Atom C5       Shell   261 S   1     bf  715 -   715          0.495383436139         -6.452701546911          0.000000000000
      0.1031562389D+06  0.1000000000D+01
 Atom C5       Shell   262 S   1     bf  716 -   716          0.495383436139         -6.452701546911          0.000000000000
      0.5268046591D+05  0.1000000000D+01
 Atom C5       Shell   263 S   1     bf  717 -   717          0.495383436139         -6.452701546911          0.000000000000
      0.2690318607D+05  0.1000000000D+01
 Atom C5       Shell   264 S   1     bf  718 -   718          0.495383436139         -6.452701546911          0.000000000000
      0.1373908542D+05  0.1000000000D+01
 Atom C5       Shell   265 S   1     bf  719 -   719          0.495383436139         -6.452701546911          0.000000000000
      0.7016361094D+04  0.1000000000D+01
 Atom C5       Shell   266 S   1     bf  720 -   720          0.495383436139         -6.452701546911          0.000000000000
      0.3583158668D+04  0.1000000000D+01
 Atom C5       Shell   267 S   1     bf  721 -   721          0.495383436139         -6.452701546911          0.000000000000
      0.1829869625D+04  0.1000000000D+01
 Atom C5       Shell   268 S   1     bf  722 -   722          0.495383436139         -6.452701546911          0.000000000000
      0.9344891347D+03  0.1000000000D+01
 Atom C5       Shell   269 S   1     bf  723 -   723          0.495383436139         -6.452701546911          0.000000000000
      0.4772306896D+03  0.1000000000D+01
 Atom C5       Shell   270 S   1     bf  724 -   724          0.495383436139         -6.452701546911          0.000000000000
      0.2437151195D+03  0.1000000000D+01
 Atom C5       Shell   271 S   1     bf  725 -   725          0.495383436139         -6.452701546911          0.000000000000
      0.1244619442D+03  0.1000000000D+01
 Atom C5       Shell   272 S   1     bf  726 -   726          0.495383436139         -6.452701546911          0.000000000000
      0.6356099525D+02  0.1000000000D+01
 Atom C5       Shell   273 S   1     bf  727 -   727          0.495383436139         -6.452701546911          0.000000000000
      0.3245972208D+02  0.1000000000D+01
[...]
 IDIUse=1 WtCom= 1.00D+00 WtEn= 0.00D+00
 Coeff-Com: -0.851D-02 0.269D+00 0.393D+00 0.346D+00
 Coeff:     -0.851D-02 0.269D+00 0.393D+00 0.346D+00
 Gap=     0.207 Goal=   None    Shift=    0.000
 Gap=     0.077 Goal=   None    Shift=    0.000
 RMSDP=2.25D-07 MaxDP=4.48D-05 DE=-1.08D-07 OVMax= 4.75D-05

 Cycle   5  Pass 1  IDiag  1:
 Density matrix breaks symmetry, PCut= 1.00D-04
 Density matrix has no symmetry -- integrals replicated.
 RMSU=  1.01D-07    CP:  9.96D-01  1.02D+00  7.17D-01  9.39D-01
 E= -612.208008350917     Delta-E=       -0.000000012365 Rises=F Damp=F
 DIIS: error= 3.15D-05 at cycle   5 NSaved=   5.
 NSaved= 5 IEnMin= 5 EnMin= -612.208008350917     IErMin= 5 ErrMin= 3.15D-05
 ErrMax= 3.15D-05  0.00D+00 EMaxC= 1.00D-01 BMatC= 9.44D-08 BMatP= 1.36D-07
 IDIUse=1 WtCom= 1.00D+00 WtEn= 0.00D+00
 Coeff-Com: -0.845D-02 0.268D+00 0.391D+00 0.334D+00 0.161D-01
 Coeff:     -0.845D-02 0.268D+00 0.391D+00 0.334D+00 0.161D-01
 Gap=     0.207 Goal=   None    Shift=    0.000
 DSYEVD returned Info=      713295 IAlg= 4 N=   871 NDim=   871 NE2=      611758 trying DSYEV.
 Gap=     0.077 Goal=   None    Shift=    0.000
 RMSDP=4.57D-09 MaxDP=8.88D-07 DE=-1.24D-08 OVMax= 1.39D-06

 Density matrix is not changing but DIIS error= 3.15D-05 CofLast= 1.61D-02.
 Cycle   6  Pass 1  IDiag  1:
 Density matrix breaks symmetry, PCut= 1.00D-04
 Density matrix has no symmetry -- integrals replicated.
 E= -612.208008351047     Delta-E=       -0.000000000130 Rises=F Damp=F
 DIIS: error= 3.15D-05 at cycle   1 NSaved=   1.
 NSaved= 1 IEnMin= 1 EnMin= -612.208008351047     IErMin= 1 ErrMin= 3.15D-05
 ErrMax= 3.15D-05  0.00D+00 EMaxC= 1.00D+00 BMatC= 9.41D-08 BMatP= 9.41D-08
 IDIUse=1 WtCom= 1.00D+00 WtEn= 0.00D+00
 Coeff-Com:  0.100D+01
 Coeff:      0.100D+01
 Gap=     0.207 Goal=   None    Shift=    0.000
 Gap=     0.077 Goal=   None    Shift=    0.000
 RMSDP=6.04D-08 MaxDP=4.62D-06 DE=-1.30D-10 OVMax= 8.50D-05

 Cycle   7  Pass 1  IDiag  1:
 Density matrix breaks symmetry, PCut= 1.00D-04
 Density matrix has no symmetry -- integrals replicated.
 RMSU=  5.23D-08    CP:  1.00D+00
 E= -612.208008354025     Delta-E=       -0.000000002978 Rises=F Damp=F
 DIIS: error= 3.06D-05 at cycle   7 NSaved=   2.
 NSaved= 2 IEnMin= 2 EnMin= -612.208008354025     IErMin= 2 ErrMin= 3.06D-05
 ErrMax= 3.06D-05  0.00D+00 EMaxC= 1.00D+00 BMatC= 8.96D-08 BMatP= 9.41D-08
 IDIUse=1 WtCom= 1.00D+00 WtEn= 0.00D+00
 Coeff-Com:  0.220D+00 0.780D+00
 Coeff:      0.220D+00 0.780D+00
 Gap=     0.207 Goal=   None    Shift=    0.000
 Gap=     0.077 Goal=   None    Shift=    0.000
 DSYEVD returned Info=      666207 IAlg= 4 N=   871 NDim=   871 NE2=      611758 trying DSYEV.
 RMSDP=7.07D-08 MaxDP=1.10D-05 DE=-2.98D-09 OVMax= 7.72D-05

 Cycle   8  Pass 1  IDiag  1:
 Density matrix breaks symmetry, PCut= 1.00D-04
 Density matrix has no symmetry -- integrals replicated.
 RMSU=  5.23D-08    CP:  1.00D+00  1.02D+00
 E= -612.208008354618     Delta-E=       -0.000000000593 Rises=F Damp=F
 DIIS: error= 3.00D-05 at cycle   8 NSaved=   3.
 NSaved= 3 IEnMin= 3 EnMin= -612.208008354618     IErMin= 3 ErrMin= 3.00D-05
 ErrMax= 3.00D-05  0.00D+00 EMaxC= 1.00D+00 BMatC= 9.07D-08 BMatP= 8.96D-08
 IDIUse=1 WtCom= 1.00D+00 WtEn= 0.00D+00
 Coeff-Com: -0.157D+01 0.122D+01 0.135D+01
 Coeff:     -0.157D+01 0.122D+01 0.135D+01
 Gap=     0.207 Goal=   None    Shift=    0.000
 Gap=     0.077 Goal=   None    Shift=    0.000
 RMSDP=2.03D-07 MaxDP=3.39D-05 DE=-5.93D-10 OVMax= 2.36D-04

 Cycle   9  Pass 1  IDiag  1:
 Density matrix breaks symmetry, PCut= 1.00D-04
 Density matrix has no symmetry -- integrals replicated.
 RMSU=  1.02D-07    CP:  1.00D+00  2.47D+00  1.13D+00
 E= -612.208008361750     Delta-E=       -0.000000007133 Rises=F Damp=F
 DIIS: error= 2.78D-05 at cycle   9 NSaved=   4.
 NSaved= 4 IEnMin= 4 EnMin= -612.208008361750     IErMin= 4 ErrMin= 2.78D-05
 ErrMax= 2.78D-05  0.00D+00 EMaxC= 1.00D+00 BMatC= 7.91D-08 BMatP= 8.96D-08
 IDIUse=1 WtCom= 1.00D+00 WtEn= 0.00D+00
 Coeff-Com: -0.341D+01 0.137D+00 0.226D+01 0.201D+01
 Coeff:     -0.341D+01 0.137D+00 0.226D+01 0.201D+01
 Gap=     0.207 Goal=   None    Shift=    0.000
 DSYEVD returned Info=      571159 IAlg= 4 N=   871 NDim=   871 NE2=      611758 trying DSYEV.
 Gap=     0.077 Goal=   None    Shift=    0.000
 RMSDP=4.60D-07 MaxDP=6.90D-05 DE=-7.13D-09 OVMax= 7.99D-04

 Cycle  10  Pass 1  IDiag  1:
 Density matrix breaks symmetry, PCut= 1.00D-04
 Density matrix has no symmetry -- integrals replicated.
 RMSU=  2.86D-07    CP:  1.00D+00  3.00D+00  3.00D+00  1.14D+00
 E= -612.208008377004     Delta-E=       -0.000000015253 Rises=F Damp=F
 DIIS: error= 2.06D-05 at cycle  10 NSaved=   5.
 NSaved= 5 IEnMin= 5 EnMin= -612.208008377004     IErMin= 5 ErrMin= 2.06D-05
 ErrMax= 2.06D-05  0.00D+00 EMaxC= 1.00D+00 BMatC= 5.95D-08 BMatP= 7.91D-08
 IDIUse=1 WtCom= 1.00D+00 WtEn= 0.00D+00
 Coeff-Com: -0.234D+01-0.235D+01 0.991D+00 0.317D+01 0.153D+01
 Coeff:     -0.234D+01-0.235D+01 0.991D+00 0.317D+01 0.153D+01
 Gap=     0.207 Goal=   None    Shift=    0.000
 DSYEVD returned Info=      713295 IAlg= 4 N=   871 NDim=   871 NE2=      611758 trying DSYEV.
 Gap=     0.077 Goal=   None    Shift=    0.000
 DSYEVD returned Info=      666207 IAlg= 4 N=   871 NDim=   871 NE2=      611758 trying DSYEV.
 RMSDP=7.51D-07 MaxDP=9.29D-05 DE=-1.53D-08 OVMax= 1.82D-03

 Cycle  11  Pass 1  IDiag  1:
 RMSU=  4.43D-07    CP:  1.00D+00  3.00D+00  3.00D+00  3.00D+00  3.00D+00
 E= -612.207764523471     Delta-E=        0.000243853533 Rises=F Damp=F
 DIIS: error= 1.09D-05 at cycle  11 NSaved=   6.
 NSaved= 6 IEnMin= 5 EnMin= -612.208008377004     IErMin= 6 ErrMin= 1.09D-05
 ErrMax= 1.09D-05  0.00D+00 EMaxC= 1.00D+00 BMatC= 2.47D-08 BMatP= 5.95D-08
 IDIUse=1 WtCom= 1.00D+00 WtEn= 0.00D+00
 Coeff-Com: -0.209D+01-0.150D+01 0.894D+00 0.223D+01 0.107D+01 0.397D+00
 Coeff:     -0.209D+01-0.150D+01 0.894D+00 0.223D+01 0.107D+01 0.397D+00
 Gap=     0.207 Goal=   None    Shift=    0.000
 DSYEVD returned Info=      713295 IAlg= 4 N=   871 NDim=   871 NE2=      611758 trying DSYEV.
 Gap=     0.077 Goal=   None    Shift=    0.000
 RMSDP=1.39D-07 MaxDP=1.53D-05 DE= 2.44D-04 OVMax= 2.86D-04

 Cycle  12  Pass 1  IDiag  1:
 RMSU=  7.07D-08    CP:  1.00D+00  3.00D+00  3.00D+00  3.00D+00  3.00D+00
                    CP:  9.93D-01
 E= -612.207891139898     Delta-E=       -0.000126616427 Rises=F Damp=F
 DIIS: error= 1.09D-05 at cycle  12 NSaved=   7.
 NSaved= 7 IEnMin= 5 EnMin= -612.208008377004     IErMin= 6 ErrMin= 1.09D-05
 ErrMax= 1.09D-05  0.00D+00 EMaxC= 1.00D+00 BMatC= 1.65D-08 BMatP= 2.47D-08
 IDIUse=1 WtCom= 1.00D+00 WtEn= 0.00D+00
 Coeff-Com: -0.208D+01-0.132D+01 0.906D+00 0.207D+01 0.965D+00 0.312D+00
 Coeff-Com:  0.151D+00
 Coeff:     -0.208D+01-0.132D+01 0.906D+00 0.207D+01 0.965D+00 0.312D+00
 Coeff:      0.151D+00
 Gap=     0.207 Goal=   None    Shift=    0.000
 DSYEVD returned Info=      713295 IAlg= 4 N=   871 NDim=   871 NE2=      611758 trying DSYEV.
 Gap=     0.077 Goal=   None    Shift=    0.000
 RMSDP=1.36D-08 MaxDP=2.07D-06 DE=-1.27D-04 OVMax= 2.10D-05

 Cycle  13  Pass 1  IDiag  1:
 RMSU=  3.99D-09    CP:  1.00D+00  3.00D+00  3.00D+00  3.00D+00  3.00D+00
                    CP:  9.90D-01  9.32D-01
 E= -612.207899820537     Delta-E=       -0.000008680640 Rises=F Damp=F
 DIIS: error= 1.09D-05 at cycle  13 NSaved=   8.
 NSaved= 8 IEnMin= 5 EnMin= -612.208008377004     IErMin= 6 ErrMin= 1.09D-05
 ErrMax= 1.09D-05  0.00D+00 EMaxC= 1.00D+00 BMatC= 1.63D-08 BMatP= 1.65D-08
 IDIUse=1 WtCom= 1.00D+00 WtEn= 0.00D+00
 Coeff-Com: -0.208D+01-0.134D+01 0.914D+00 0.208D+01 0.965D+00 0.137D+00
 Coeff-Com: -0.111D+01 0.143D+01
 Coeff:     -0.208D+01-0.134D+01 0.914D+00 0.208D+01 0.965D+00 0.137D+00
 Coeff:     -0.111D+01 0.143D+01
 Gap=     0.207 Goal=   None    Shift=    0.000
 DSYEVD returned Info=      713267 IAlg= 4 N=   871 NDim=   871 NE2=      611758 trying DSYEV.
 Gap=     0.077 Goal=   None    Shift=    0.000
 DSYEVD returned Info=      713267 IAlg= 4 N=   871 NDim=   871 NE2=      611758 trying DSYEV.
 RMSDP=2.98D-08 MaxDP=6.50D-06 DE=-8.68D-06 OVMax= 3.59D-06

 Cycle  14  Pass 1  IDiag  1:
 RMSU=  1.15D-08    CP:  1.00D+00  3.00D+00  3.00D+00  3.00D+00  3.00D+00
                    CP:  9.95D-01  6.03D-01 -6.39D-01
 E= -612.207900250672     Delta-E=       -0.000000430135 Rises=F Damp=F
 DIIS: error= 1.09D-05 at cycle  14 NSaved=   9.
 NSaved= 9 IEnMin= 5 EnMin= -612.208008377004     IErMin= 6 ErrMin= 1.09D-05
 ErrMax= 1.09D-05  0.00D+00 EMaxC= 1.00D+00 BMatC= 1.63D-08 BMatP= 1.63D-08
 IDIUse=1 WtCom= 1.00D+00 WtEn= 0.00D+00
 Coeff-Com: -0.208D+01-0.136D+01 0.930D+00 0.208D+01 0.964D+00-0.464D-01
 Coeff-Com: -0.266D+01 0.191D+01 0.125D+01
 Coeff:     -0.208D+01-0.136D+01 0.930D+00 0.208D+01 0.964D+00-0.464D-01
 Coeff:     -0.266D+01 0.191D+01 0.125D+01
 Gap=     0.207 Goal=   None    Shift=    0.000
 DSYEVD returned Info=      666207 IAlg= 4 N=   871 NDim=   871 NE2=      611758 trying DSYEV.
 Gap=     0.077 Goal=   None    Shift=    0.000
 DSYEVD returned Info=      713267 IAlg= 4 N=   871 NDim=   871 NE2=      611758 trying DSYEV.
 RMSDP=4.16D-08 MaxDP=9.24D-06 DE=-4.30D-07 OVMax= 2.05D-06

 Cycle  15  Pass 1  IDiag  1:
 RMSU=  4.29D-09    CP:  1.00D+00  3.00D+00  3.00D+00  3.00D+00  3.00D+00
                    CP:  1.00D+00  1.67D-01 -3.00D+00  2.19D+00
 E= -612.207900788895     Delta-E=       -0.000000538223 Rises=F Damp=F
 DIIS: error= 1.09D-05 at cycle  15 NSaved=  10.
 NSaved=10 IEnMin= 5 EnMin= -612.208008377004     IErMin= 6 ErrMin= 1.09D-05
 ErrMax= 1.09D-05  0.00D+00 EMaxC= 1.00D+00 BMatC= 1.64D-08 BMatP= 1.63D-08
 IDIUse=1 WtCom= 1.00D+00 WtEn= 0.00D+00
 Coeff-Com: -0.208D+01-0.136D+01 0.922D+00 0.208D+01 0.970D+00 0.147D+00
 Coeff-Com: -0.117D+01 0.107D+01 0.114D+01-0.729D+00
 Coeff:     -0.208D+01-0.136D+01 0.922D+00 0.208D+01 0.970D+00 0.147D+00
 Coeff:     -0.117D+01 0.107D+01 0.114D+01-0.729D+00
 Gap=     0.207 Goal=   None    Shift=    0.000
 Gap=     0.077 Goal=   None    Shift=    0.000
 RMSDP=4.31D-08 MaxDP=9.02D-06 DE=-5.38D-07 OVMax= 4.31D-06

 Cycle  16  Pass 1  IDiag  1:
 RMSU=  2.47D-09    CP:  1.00D+00  3.00D+00  3.00D+00  3.00D+00  3.00D+00
                    CP:  9.97D-01  6.59D-01 -9.31D-01  7.94D-01  3.03D-01
 E= -612.207900735693     Delta-E=        0.000000053202 Rises=F Damp=F
 DIIS: error= 1.09D-05 at cycle  16 NSaved=  11.
 NSaved=11 IEnMin= 5 EnMin= -612.208008377004     IErMin= 6 ErrMin= 1.09D-05
 ErrMax= 1.09D-05  0.00D+00 EMaxC= 1.00D+00 BMatC= 1.63D-08 BMatP= 1.63D-08
 IDIUse=1 WtCom= 1.00D+00 WtEn= 0.00D+00
 Large coefficients: NSaved= 11 BigCof=   11.41 CofMax=   10.00 Det=-3.51D-13
 Inversion failed.  Reducing to 10 matrices.
 Coeff-Com: -0.208D+01-0.136D+01 0.910D+00 0.209D+01 0.973D+00-0.175D+01
 Coeff-Com:  0.372D+01-0.122D+00 0.170D+01-0.309D+01
 Coeff:     -0.208D+01-0.136D+01 0.910D+00 0.209D+01 0.973D+00-0.175D+01
 Coeff:      0.372D+01-0.122D+00 0.170D+01-0.309D+01
 Gap=     0.207 Goal=   None    Shift=    0.000
 Gap=     0.077 Goal=   None    Shift=    0.000
 DSYEVD returned Info=      713267 IAlg= 4 N=   871 NDim=   871 NE2=      611758 trying DSYEV.
 RMSDP=3.39D-08 MaxDP=7.14D-06 DE= 5.32D-08 OVMax= 3.74D-06

 Cycle  17  Pass 1  IDiag  1:
 RMSU=  3.44D-09    CP:  1.00D+00  3.00D+00  3.00D+00  3.00D+00  3.00D+00
                    CP:  1.00D+00  2.94D-01 -2.67D+00  1.80D+00  1.25D+00
                    CP: -1.91D-01
 E= -612.207900858071     Delta-E=       -0.000000122378 Rises=F Damp=F
 DIIS: error= 1.09D-05 at cycle  17 NSaved=  11.
 NSaved=11 IEnMin= 5 EnMin= -612.208008377004     IErMin= 9 ErrMin= 1.09D-05
 ErrMax= 1.09D-05  0.00D+00 EMaxC= 1.00D+00 BMatC= 1.64D-08 BMatP= 1.63D-08
 IDIUse=1 WtCom= 1.00D+00 WtEn= 0.00D+00
 Coeff-Com: -0.208D+01-0.136D+01 0.909D+00 0.209D+01 0.974D+00-0.181D+01
 Coeff-Com:  0.353D+01-0.571D-01 0.184D+01-0.261D+01-0.435D+00
 Coeff:     -0.208D+01-0.136D+01 0.909D+00 0.209D+01 0.974D+00-0.181D+01
 Coeff:      0.353D+01-0.571D-01 0.184D+01-0.261D+01-0.435D+00
 Gap=     0.207 Goal=   None    Shift=    0.000
 DSYEVD returned Info=      571159 IAlg= 4 N=   871 NDim=   871 NE2=      611758 trying DSYEV.
 Gap=     0.077 Goal=   None    Shift=    0.000
 RMSDP=1.60D-09 MaxDP=3.41D-07 DE=-1.22D-07 OVMax= 3.02D-07

 Density matrix is not changing but DIIS error= 1.09D-05 CofLast=-4.35D-01.
 Cycle  18  Pass 1  IDiag  1:
 E= -612.207900845050     Delta-E=        0.000000013021 Rises=F Damp=F
 DIIS: error= 5.52D-07 at cycle   1 NSaved=   1.
 NSaved= 1 IEnMin= 1 EnMin= -612.207900845050     IErMin= 1 ErrMin= 5.52D-07
 ErrMax= 5.52D-07  0.00D+00 EMaxC= 1.00D+00 BMatC= 1.53D-10 BMatP= 1.53D-10
 IDIUse=1 WtCom= 1.00D+00 WtEn= 0.00D+00
 Coeff-Com:  0.100D+01
 Coeff:      0.100D+01
 Gap=     0.207 Goal=   None    Shift=    0.000
 DSYEVD returned Info=      713295 IAlg= 4 N=   871 NDim=   871 NE2=      611758 trying DSYEV.
 Gap=     0.077 Goal=   None    Shift=    0.000
 DSYEVD returned Info=      571159 IAlg= 4 N=   871 NDim=   871 NE2=      611758 trying DSYEV.
 RMSDP=1.35D-07 MaxDP=1.80D-05 DE= 1.30D-08 OVMax= 2.02D-04

 Cycle  19  Pass 1  IDiag  1:
 RMSU=  3.88D-08    CP:  1.00D+00
 E= -612.208008402650     Delta-E=       -0.000107557600 Rises=F Damp=F
 DIIS: error= 8.74D-07 at cycle  19 NSaved=   2.
 NSaved= 2 IEnMin= 2 EnMin= -612.208008402650     IErMin= 1 ErrMin= 5.52D-07
 ErrMax= 8.74D-07  0.00D+00 EMaxC= 1.00D+00 BMatC= 1.88D-10 BMatP= 1.53D-10
 IDIUse=1 WtCom= 1.00D+00 WtEn= 0.00D+00
 Coeff-Com:  0.536D+00 0.464D+00
 Coeff:      0.536D+00 0.464D+00
 Gap=     0.207 Goal=   None    Shift=    0.000
 Gap=     0.077 Goal=   None    Shift=    0.000
 DSYEVD returned Info=      713295 IAlg= 4 N=   871 NDim=   871 NE2=      611758 trying DSYEV.
 RMSDP=5.56D-08 MaxDP=1.38D-05 DE=-1.08D-04 OVMax= 6.07D-06

 Cycle  20  Pass 1  IDiag  1:
 RMSU=  3.10D-08    CP:  1.00D+00  4.77D-01
 E= -612.208008401945     Delta-E=        0.000000000705 Rises=F Damp=F
 DIIS: error= 3.81D-07 at cycle  20 NSaved=   3.
 NSaved= 3 IEnMin= 2 EnMin= -612.208008402650     IErMin= 3 ErrMin= 3.81D-07
 ErrMax= 3.81D-07  0.00D+00 EMaxC= 1.00D+00 BMatC= 6.39D-11 BMatP= 1.53D-10
 IDIUse=1 WtCom= 1.00D+00 WtEn= 0.00D+00
 Coeff-Com:  0.320D+00 0.250D+00 0.431D+00
 Coeff:      0.320D+00 0.250D+00 0.431D+00
 Gap=     0.207 Goal=   None    Shift=    0.000
 Gap=     0.077 Goal=   None    Shift=    0.000
 DSYEVD returned Info=      666207 IAlg= 4 N=   871 NDim=   871 NE2=      611758 trying DSYEV.
 RMSDP=2.99D-08 MaxDP=7.35D-06 DE= 7.05D-10 OVMax= 2.99D-06

 Cycle  21  Pass 1  IDiag  1:
 RMSU=  4.57D-09    CP:  1.00D+00  2.30D-01  1.58D+00
 E= -612.208008402732     Delta-E=       -0.000000000787 Rises=F Damp=F
 DIIS: error= 4.33D-07 at cycle  21 NSaved=   4.
 NSaved= 4 IEnMin= 4 EnMin= -612.208008402732     IErMin= 3 ErrMin= 3.81D-07
 ErrMax= 4.33D-07  0.00D+00 EMaxC= 1.00D+00 BMatC= 2.56D-11 BMatP= 6.39D-11
 IDIUse=1 WtCom= 1.00D+00 WtEn= 0.00D+00
 Coeff-Com:  0.188D-01-0.331D+00 0.828D-01 0.123D+01
 Coeff:      0.188D-01-0.331D+00 0.828D-01 0.123D+01
 Gap=     0.207 Goal=   None    Shift=    0.000
 DSYEVD returned Info=      571050 IAlg= 4 N=   871 NDim=   871 NE2=      611758 trying DSYEV.
 Gap=     0.077 Goal=   None    Shift=    0.000
 RMSDP=3.84D-08 MaxDP=7.73D-06 DE=-7.87D-10 OVMax= 4.91D-06

 Cycle  22  Pass 1  IDiag  1:
 RMSU=  7.25D-09    CP:  1.00D+00  1.07D-02  2.70D+00  1.69D+00
 E= -612.208008402778     Delta-E=       -0.000000000046 Rises=F Damp=F
 DIIS: error= 1.74D-07 at cycle  22 NSaved=   5.
 NSaved= 5 IEnMin= 5 EnMin= -612.208008402778     IErMin= 5 ErrMin= 1.74D-07
 ErrMax= 1.74D-07  0.00D+00 EMaxC= 1.00D+00 BMatC= 1.53D-11 BMatP= 2.56D-11
 IDIUse=1 WtCom= 1.00D+00 WtEn= 0.00D+00
 Coeff-Com: -0.100D+00-0.387D+00-0.154D+00 0.984D+00 0.657D+00
 Coeff:     -0.100D+00-0.387D+00-0.154D+00 0.984D+00 0.657D+00
 Gap=     0.207 Goal=   None    Shift=    0.000
 DSYEVD returned Info=      571159 IAlg= 4 N=   871 NDim=   871 NE2=      611758 trying DSYEV.
 Gap=     0.077 Goal=   None    Shift=    0.000
 RMSDP=2.52D-08 MaxDP=5.77D-06 DE=-4.62D-11 OVMax= 2.47D-06

 Cycle  23  Pass 1  IDiag  1:
 RMSU=  1.13D-08    CP:  1.00D+00 -1.45D-01  3.00D+00  2.24D+00  1.13D+00
 E= -612.208008405453     Delta-E=       -0.000000002675 Rises=F Damp=F
 DIIS: error= 8.42D-08 at cycle  23 NSaved=   6.
 NSaved= 6 IEnMin= 6 EnMin= -612.208008405453     IErMin= 6 ErrMin= 8.42D-08
 ErrMax= 8.42D-08  0.00D+00 EMaxC= 1.00D+00 BMatC= 2.19D-12 BMatP= 1.53D-11
 IDIUse=1 WtCom= 1.00D+00 WtEn= 0.00D+00
 Coeff-Com: -0.539D-01-0.867D-01-0.376D-01 0.233D+00 0.262D+00 0.683D+00
 Coeff:     -0.539D-01-0.867D-01-0.376D-01 0.233D+00 0.262D+00 0.683D+00
 Gap=     0.207 Goal=   None    Shift=    0.000
 DSYEVD returned Info=      666207 IAlg= 4 N=   871 NDim=   871 NE2=      611758 trying DSYEV.
 Gap=     0.077 Goal=   None    Shift=    0.000
 RMSDP=3.37D-09 MaxDP=6.45D-07 DE=-2.68D-09 OVMax= 9.17D-07

 SCF Done:  E(UAPFD) =  -612.208008405     A.U. after   23 cycles
            NFock= 23  Conv=0.34D-08     -V/T= 2.0021
 <Sx>= 0.0000 <Sy>= 0.0000 <Sz>= 0.5000 <S**2>= 0.7647 S= 0.5073
 <L.S>= 0.000000000000E+00
 KE= 6.109466139474D+02 PE=-1.726631823542D+03 EE= 3.634061910412D+02
 Annihilation of the first spin contaminant:
 S**2 before annihilation     0.7647,   after     0.7501
 Leave Link  502 at Tue Jul 30 19:54:54 2013, MaxMem=  536870912 cpu:   56681.2
 (Enter /share/apps/gaussian/gdvh12/gdv/l701.exe)
 Compute integral first derivatives.
 ... and contract with generalized density number  0.
 R6Disp: Adding Petersson-Frisch dispersion energy 1st derivatives to the gradient.
 Leave Link  701 at Tue Jul 30 19:54:56 2013, MaxMem=  536870912 cpu:       2.9
 (Enter /share/apps/gaussian/gdvh12/gdv/l702.exe)
 L702 exits ... SP integral derivatives will be done elsewhere.
 Leave Link  702 at Tue Jul 30 19:54:57 2013, MaxMem=  536870912 cpu:       0.1
 (Enter /share/apps/gaussian/gdvh12/gdv/l703.exe)
 Compute integral first derivatives, UseDBF=F ICtDFT=           0.
 Integral derivatives from FoFJK, PRISM(SPDF).
 Calling FoFJK, ICntrl=      2127 FMM=F ISym2X=1 I1Cent= 0 IOpClX= 1 NMat=1 NMatS=1 NMatT=0.
 FoFJK:  IHMeth= 1 ICntrl=    2127 DoSepK=F KAlg= 0 I1Cent=   0 FoldK=F
 IRaf=       0 NMat=   1 IRICut=       1 DoRegI=T DoRafI=F ISym2E= 1.
 FoFCou: FMM=F IPFlag=           0 FMFlag=      100000 FMFlg1=         800
         NFxFlg=           0 DoJE=F BraDBF=F KetDBF=F FulRan=T
         wScrn=  0.000000 ICntrl=    2127 IOpCl=  1 I1Cent=           0 NGrid=           0
         NMat0=    1 NMatS0=      1 NMatT0=    0 NMatD0=    1 NMtDS0=    0 NMtDT0=    0
 Petite list used in FoFCou.
 Leave Link  703 at Tue Jul 30 20:31:38 2013, MaxMem=  536870912 cpu:    3983.5
 (Enter /share/apps/gaussian/gdvh12/gdv/l716.exe)
 Dipole        =-1.27918690D-17-1.95610570D-24-2.11120538D+00
 ***** Axes restored to original set *****
 -------------------------------------------------------------------
 Center     Atomic                   Forces (Hartrees/Bohr)
 Number     Number              X              Y              Z
 -------------------------------------------------------------------
      1       17           0.000000047    0.000000000   -0.000001173
      2        6           0.000000110    0.000000000   -0.000002712
      3        6           0.000000003    0.000000000   -0.000000086
      4        6          -0.000000148    0.000000000    0.000003669
      5        6          -0.000000012    0.000000000    0.000000302
 -------------------------------------------------------------------
 Cartesian Forces:  Max     0.000003669 RMS     0.000001220
 Leave Link  716 at Tue Jul 30 20:31:38 2013, MaxMem=  536870912 cpu:       0.1
 (Enter /share/apps/gaussian/gdvh12/gdv/l103.exe)

 GradGradGradGradGradGradGradGradGradGradGradGradGradGradGradGradGradGrad
 Berny optimization.
 Using GEDIIS/GDIIS optimizer.
 Linear angle in Bend.
 Error termination via Lnk1e in /share/apps/gaussian/gdvh12/gdv/l103.exe at Tue Jul 30 20:31:38 2013.
 Job cpu time:  6 days  8 hours 54 minutes 16.7 seconds.
 File lengths (MBytes):  RWF=    849 Int=      0 D2E=      0 Chk=     61 Scr=      1
