 Entering Gaussian System, Link 0=gdv
 Initial command:
 /share/apps/gaussian/gdvh12/gdv/l1.exe /localscratch/13049/Gau-32104.inp -scrdir=/localscratch/13049/
 Entering Link 1 = /share/apps/gaussian/gdvh12/gdv/l1.exe PID=     32105.
  
 Copyright (c) 1988,1990,1992,1993,1995,1998,2003,2009,2011,
            Gaussian, Inc.  All Rights Reserved.
  
 This is the private, development version of
 the Gaussian(R) DV system of programs. It is based on
 the Gaussian(R) 09 system (copyright 2009, Gaussian, Inc.),
 the Gaussian(R) 03 system (copyright 2003, Gaussian, Inc.),
 the Gaussian(R) 98 system (copyright 1998, Gaussian, Inc.),
 the Gaussian(R) 94 system (copyright 1995, Gaussian, Inc.),
 the Gaussian 92(TM) system (copyright 1992, Gaussian, Inc.),
 the Gaussian 90(TM) system (copyright 1990, Gaussian, Inc.),
 the Gaussian 88(TM) system (copyright 1988, Gaussian, Inc.),
 the Gaussian 86(TM) system (copyright 1986, Carnegie Mellon
 University), and the Gaussian 82(TM) system (copyright 1983,
 Carnegie Mellon University). Gaussian is a federally registered
 trademark of Gaussian, Inc.
  
 This software contains proprietary and confidential information,
 including trade secrets, belonging to Gaussian, Inc.
  
 This software is provided under written license and may be
 used, copied, transmitted, or stored only in accord with that
 written license.
  
 The following legend is applicable only to US Government
 contracts under FAR:
  
                    RESTRICTED RIGHTS LEGEND
  
 Use, reproduction and disclosure by the US Government is
 subject to restrictions as set forth in subparagraphs (a)
 and (c) of the Commercial Computer Software - Restricted
 Rights clause in FAR 52.227-19.
  
 Gaussian, Inc.
 340 Quinnipiac St., Bldg. 40, Wallingford CT 06492
  
  
 ---------------------------------------------------------------
 Warning -- This program may not be used in any manner that
 competes with the business of Gaussian, Inc. or will provide
 assistance to any competitor of Gaussian, Inc.  The licensee
 of this program is prohibited from giving any competitor of
 Gaussian, Inc. access to this program.  By using this program,
 the user acknowledges that Gaussian, Inc. is engaged in the
 business of creating and licensing software in the field of
 computational chemistry and represents and warrants to the
 licensee that it is not a competitor of Gaussian, Inc. and that
 it will not use this program in any manner prohibited above.
 ---------------------------------------------------------------
  

 Cite this work as:
 Gaussian Development Version, Revision H.12,
 M. J. Frisch, G. W. Trucks, H. B. Schlegel, G. E. Scuseria, 
 M. A. Robb, J. R. Cheeseman, G. Scalmani, V. Barone, B. Mennucci, 
 G. A. Petersson, H. Nakatsuji, M. Caricato, X. Li, H. P. Hratchian, 
 A. F. Izmaylov, J. Bloino, G. Zheng, J. L. Sonnenberg, M. Hada, 
 M. Ehara, K. Toyota, R. Fukuda, J. Hasegawa, M. Ishida, T. Nakajima, 
 Y. Honda, O. Kitao, H. Nakai, T. Vreven, J. A. Montgomery, Jr., 
 J. E. Peralta, F. Ogliaro, M. Bearpark, J. J. Heyd, E. Brothers, 
 K. N. Kudin, V. N. Staroverov, T. Keith, R. Kobayashi, J. Normand, 
 K. Raghavachari, A. Rendell, J. C. Burant, S. S. Iyengar, J. Tomasi, 
 M. Cossi, N. Rega, J. M. Millam, M. Klene, J. E. Knox, J. B. Cross, 
 V. Bakken, C. Adamo, J. Jaramillo, R. Gomperts, R. E. Stratmann, 
 O. Yazyev, A. J. Austin, R. Cammi, C. Pomelli, J. W. Ochterski, 
 R. L. Martin, K. Morokuma, V. G. Zakrzewski, G. A. Voth, 
 P. Salvador, J. J. Dannenberg, S. Dapprich, P. V. Parandekar, 
 N. J. Mayhall, A. D. Daniels, O. Farkas, J. B. Foresman, 
 J. V. Ortiz, J. Cioslowski, and D. J. Fox, 
 Gaussian, Inc., Wallingford CT, 2010.
 
 ******************************************
 Gaussian DV:  EM64L-GDVRevH.12  9-Jun-2011
                31-Jul-2013 
 ******************************************
 %chk=CCCCH.chk
 %mem=4gb
 %nproc=2
 Will use up to    2 processors via shared memory.
 ----------------------------------------------------------------------
 #p apfd/ugbs1p freq=(vibrot,anharm) int=(acc2e=12,grid=299974) test gf
 print gfinput output=pickett
 ----------------------------------------------------------------------
 1/10=4,30=1,38=21,80=1/1,6,3;
 2/12=2,17=6,18=5,40=1/2;
 3/5=23,7=7,11=2,16=1,24=110,25=1,30=1,71=2,74=-44,75=299974,140=1/1,2,3;
 4/69=2/1;
 5/5=2,38=5,87=12,96=-2,98=1/2;
 8/6=4,10=90,11=11,87=12/1;
 11/6=1,8=1,9=11,15=111,16=1,87=12/1,2,10;
 10/6=1,60=-2,87=12/2;
 6/7=2,8=2,9=2,10=2,28=1/1;
 7/10=1,25=1,70=1,71=2,87=12/1,2,3,16;
 1/38=20,80=1/6(3);
 7/8=1,25=2,44=-1,70=1,71=2,87=12/16,17;
 1/10=4,30=1,38=20,80=1/3;
 99/8=1100,10=1024/99;
 3/5=23,7=7,11=2,16=1,25=1,30=1,71=2,74=-44,75=299974,140=1/1,2,3;
 4/5=5,16=3,69=2/1;
 5/5=2,38=5,87=12,96=-2,98=1/2;
 8/6=4,10=90,11=11,87=12/1;
 11/6=1,8=1,9=11,15=111,16=1,87=12/1,2,10;
 10/6=1,60=-2,87=12/2;
 6/7=2,8=2,9=2,10=2,28=1/1;
 7/7=1,10=1,25=1,70=1,71=1,87=12/1,2,3,16;
 1/38=20,80=1/6(-8);
 7/8=1,25=2,44=-1,70=1,71=1,87=12/16,17;
 1/10=4,30=1,38=20,80=1/3;
 99/8=1100,10=1024/99;
 Leave Link    1 at Wed Jul 31 09:56:14 2013, MaxMem=  536870912 cpu:       0.2
 (Enter /share/apps/gaussian/gdvh12/gdv/l101.exe)
 -----------------------------------------
 CCCCH previously optimized at apfd/ugbs1p
 -----------------------------------------
 Charge =  0 Multiplicity = 2
 Symbolic Z-Matrix:
 C                    -0.58533   0.        0. 
 C                     0.69758   0.        0. 
 C                     2.02618   0.        0. 
 C                     3.24839   0.        0. 
 H                     4.31318   0.        0. 
 
 NAtoms=      5 NQM=        0 NQMF=       0 NMMI=      5 NMMIF=      0
                NMic=       0 NMicF=      0.
                    Isotopes and Nuclear Properties:
 (Nuclear quadrupole moments (NQMom) in fm**2, nuclear magnetic moments (NMagM)
  in nuclear magnetons)

  Atom         1           2           3           4           5
 IAtWgt=          12          12          12          12           1
 AtmWgt=  12.0000000  12.0000000  12.0000000  12.0000000   1.0078250
 NucSpn=           0           0           0           0           1
 AtZEff=   0.0000000   0.0000000   0.0000000   0.0000000   0.0000000
 NQMom=    0.0000000   0.0000000   0.0000000   0.0000000   0.0000000
 NMagM=    0.0000000   0.0000000   0.0000000   0.0000000   2.7928460
 AtZNuc=   6.0000000   6.0000000   6.0000000   6.0000000   1.0000000
 Leave Link  101 at Wed Jul 31 09:56:15 2013, MaxMem=  536870912 cpu:       0.6
 (Enter /share/apps/gaussian/gdvh12/gdv/l106.exe)
 NDeriv=   9 NFrqRd=  0 LFDDif=       1
 Numerical evaluation of third derivatives.
 Nuclear step= 0.010000 Angstroms, electric field step= 0.000333 atomic units, NStep=1.
 Leave Link  106 at Wed Jul 31 09:56:15 2013, MaxMem=  536870912 cpu:       0.0
 (Enter /share/apps/gaussian/gdvh12/gdv/l103.exe)

 GradGradGradGradGradGradGradGradGradGradGradGradGradGradGradGradGradGrad
 Berny optimization.
 Initialization pass.
 Trust Radius=3.00D-01 FncErr=1.00D-07 GrdErr=1.00D-07
 Number of steps in this run=      2 maximum allowed number of steps=      2.
 GradGradGradGradGradGradGradGradGradGradGradGradGradGradGradGradGradGrad

 Leave Link  103 at Wed Jul 31 09:56:15 2013, MaxMem=  536870912 cpu:       0.1
 (Enter /share/apps/gaussian/gdvh12/gdv/l202.exe)
                          Input orientation:                          
 ---------------------------------------------------------------------
 Center     Atomic      Atomic             Coordinates (Angstroms)
 Number     Number       Type             X           Y           Z
 ---------------------------------------------------------------------
      1          6           0       -0.585332    0.000000    0.000000
      2          6           0        0.697582    0.000000    0.000000
      3          6           0        2.026182    0.000000    0.000000
      4          6           0        3.248386    0.000000    0.000000
      5          1           0        4.313182    0.000000    0.000000
 ---------------------------------------------------------------------
                    Distance matrix (angstroms):
                    1          2          3          4          5
     1  C    0.000000
     2  C    1.282913   0.000000
     3  C    2.611513   1.328600   0.000000
     4  C    3.833718   2.550805   1.222205   0.000000
     5  H    4.898513   3.615600   2.287000   1.064795   0.000000
 Stoichiometry    C4H(2)
 Framework group  C*V[C*(HCCCC)]
 Deg. of freedom     4
 Full point group                 C*V     NOp   4
 Largest Abelian subgroup         C2V     NOp   4
 Largest concise Abelian subgroup C1      NOp   1
                         Standard orientation:                         
 ---------------------------------------------------------------------
 Center     Atomic      Atomic             Coordinates (Angstroms)
 Number     Number       Type             X           Y           Z
 ---------------------------------------------------------------------
      1          6           0        0.000000    0.000000    2.050695
      2          6           0        0.000000    0.000000    0.767782
      3          6           0        0.000000    0.000000   -0.560818
      4          6           0        0.000000    0.000000   -1.783023
      5          1           0        0.000000    0.000000   -2.847818
 ---------------------------------------------------------------------
 Rotational constants (GHZ):      0.0000000      4.7023836      4.7023836
 Leave Link  202 at Wed Jul 31 09:56:15 2013, MaxMem=  536870912 cpu:       0.0
 (Enter /share/apps/gaussian/gdvh12/gdv/l301.exe)
 Standard basis: UGBS1P (5D, 7F)
 Ernie: Thresh=  0.10000D-02 Tol=  0.10000D-05 Strict=F.
 AO basis set in the form of general basis input (Overlap normalization):
      1 0
 S   1 1.00       0.000000000000
      0.2019953588D+06  0.1000000000D+01
 S   1 1.00       0.000000000000
      0.1031562389D+06  0.1000000000D+01
 S   1 1.00       0.000000000000
      0.5268046591D+05  0.1000000000D+01
 S   1 1.00       0.000000000000
      0.2690318607D+05  0.1000000000D+01
 S   1 1.00       0.000000000000
      0.1373908542D+05  0.1000000000D+01
 S   1 1.00       0.000000000000
      0.7016361094D+04  0.1000000000D+01
 S   1 1.00       0.000000000000
      0.3583158668D+04  0.1000000000D+01
 S   1 1.00       0.000000000000
      0.1829869625D+04  0.1000000000D+01
 S   1 1.00       0.000000000000
      0.9344891347D+03  0.1000000000D+01
 S   1 1.00       0.000000000000
      0.4772306896D+03  0.1000000000D+01
 S   1 1.00       0.000000000000
      0.2437151195D+03  0.1000000000D+01
 S   1 1.00       0.000000000000
      0.1244619442D+03  0.1000000000D+01
 S   1 1.00       0.000000000000
      0.6356099525D+02  0.1000000000D+01
 S   1 1.00       0.000000000000
      0.3245972208D+02  0.1000000000D+01
 S   1 1.00       0.000000000000
      0.1657673158D+02  0.1000000000D+01
 S   1 1.00       0.000000000000
      0.8465507783D+01  0.1000000000D+01
 S   1 1.00       0.000000000000
      0.4323217860D+01  0.1000000000D+01
 S   1 1.00       0.000000000000
      0.2207807629D+01  0.1000000000D+01
 S   1 1.00       0.000000000000
      0.1127496852D+01  0.1000000000D+01
 S   1 1.00       0.000000000000
      0.5757970639D+00  0.1000000000D+01
 S   1 1.00       0.000000000000
      0.2940516050D+00  0.1000000000D+01
 S   1 1.00       0.000000000000
      0.1501680918D+00  0.1000000000D+01
 S   1 1.00       0.000000000000
      0.7668876969D-01  0.1000000000D+01
 P   1 1.00       0.000000000000
      0.2019953588D+06  0.1000000000D+01
 P   1 1.00       0.000000000000
      0.1031562389D+06  0.1000000000D+01
 P   1 1.00       0.000000000000
      0.5268046591D+05  0.1000000000D+01
 P   1 1.00       0.000000000000
      0.2690318607D+05  0.1000000000D+01
 P   1 1.00       0.000000000000
      0.1373908542D+05  0.1000000000D+01
 P   1 1.00       0.000000000000
      0.7016361094D+04  0.1000000000D+01
 P   1 1.00       0.000000000000
      0.3583158668D+04  0.1000000000D+01
 P   1 1.00       0.000000000000
      0.1829869625D+04  0.1000000000D+01
 P   1 1.00       0.000000000000
      0.9344891347D+03  0.1000000000D+01
 P   1 1.00       0.000000000000
      0.4772306896D+03  0.1000000000D+01
 P   1 1.00       0.000000000000
      0.2437151195D+03  0.1000000000D+01
 P   1 1.00       0.000000000000
      0.1244619442D+03  0.1000000000D+01
 P   1 1.00       0.000000000000
      0.6356099525D+02  0.1000000000D+01
 P   1 1.00       0.000000000000
      0.3245972208D+02  0.1000000000D+01
 P   1 1.00       0.000000000000
      0.1657673158D+02  0.1000000000D+01
 P   1 1.00       0.000000000000
      0.8465507783D+01  0.1000000000D+01
 P   1 1.00       0.000000000000
      0.4323217860D+01  0.1000000000D+01
 P   1 1.00       0.000000000000
      0.2207807629D+01  0.1000000000D+01
 P   1 1.00       0.000000000000
      0.1127496852D+01  0.1000000000D+01
 P   1 1.00       0.000000000000
      0.5757970639D+00  0.1000000000D+01
 P   1 1.00       0.000000000000
      0.2940516050D+00  0.1000000000D+01
 P   1 1.00       0.000000000000
      0.1501680918D+00  0.1000000000D+01
 P   1 1.00       0.000000000000
      0.7668876969D-01  0.1000000000D+01
 P   1 1.00       0.000000000000
      0.3916389510D-01  0.1000000000D+01
 D   1 1.00       0.000000000000
      0.4772306896D+03  0.1000000000D+01
 D   1 1.00       0.000000000000
      0.2437151195D+03  0.1000000000D+01
 D   1 1.00       0.000000000000
      0.1244619442D+03  0.1000000000D+01
 D   1 1.00       0.000000000000
      0.6356099525D+02  0.1000000000D+01
 D   1 1.00       0.000000000000
      0.3245972208D+02  0.1000000000D+01
 D   1 1.00       0.000000000000
      0.1657673158D+02  0.1000000000D+01
 D   1 1.00       0.000000000000
      0.8465507783D+01  0.1000000000D+01
 D   1 1.00       0.000000000000
      0.4323217860D+01  0.1000000000D+01
 D   1 1.00       0.000000000000
      0.2207807629D+01  0.1000000000D+01
 D   1 1.00       0.000000000000
      0.1127496852D+01  0.1000000000D+01
 D   1 1.00       0.000000000000
      0.5757970639D+00  0.1000000000D+01
 D   1 1.00       0.000000000000
      0.2940516050D+00  0.1000000000D+01
 D   1 1.00       0.000000000000
      0.1501680918D+00  0.1000000000D+01
 D   1 1.00       0.000000000000
      0.7668876969D-01  0.1000000000D+01
 D   1 1.00       0.000000000000
      0.3916389510D-01  0.1000000000D+01
 ****
      2 0
 S   1 1.00       0.000000000000
      0.2019953588D+06  0.1000000000D+01
 S   1 1.00       0.000000000000
      0.1031562389D+06  0.1000000000D+01
 S   1 1.00       0.000000000000
      0.5268046591D+05  0.1000000000D+01
 S   1 1.00       0.000000000000
      0.2690318607D+05  0.1000000000D+01
 S   1 1.00       0.000000000000
      0.1373908542D+05  0.1000000000D+01
 S   1 1.00       0.000000000000
      0.7016361094D+04  0.1000000000D+01
 S   1 1.00       0.000000000000
      0.3583158668D+04  0.1000000000D+01
 S   1 1.00       0.000000000000
      0.1829869625D+04  0.1000000000D+01
 S   1 1.00       0.000000000000
      0.9344891347D+03  0.1000000000D+01
 S   1 1.00       0.000000000000
      0.4772306896D+03  0.1000000000D+01
 S   1 1.00       0.000000000000
      0.2437151195D+03  0.1000000000D+01
 S   1 1.00       0.000000000000
      0.1244619442D+03  0.1000000000D+01
 S   1 1.00       0.000000000000
      0.6356099525D+02  0.1000000000D+01
 S   1 1.00       0.000000000000
      0.3245972208D+02  0.1000000000D+01
 S   1 1.00       0.000000000000
      0.1657673158D+02  0.1000000000D+01
 S   1 1.00       0.000000000000
      0.8465507783D+01  0.1000000000D+01
 S   1 1.00       0.000000000000
      0.4323217860D+01  0.1000000000D+01
 S   1 1.00       0.000000000000
      0.2207807629D+01  0.1000000000D+01
 S   1 1.00       0.000000000000
      0.1127496852D+01  0.1000000000D+01
 S   1 1.00       0.000000000000
      0.5757970639D+00  0.1000000000D+01
 S   1 1.00       0.000000000000
      0.2940516050D+00  0.1000000000D+01
 S   1 1.00       0.000000000000
      0.1501680918D+00  0.1000000000D+01
 S   1 1.00       0.000000000000
      0.7668876969D-01  0.1000000000D+01
 P   1 1.00       0.000000000000
      0.2019953588D+06  0.1000000000D+01
 P   1 1.00       0.000000000000
      0.1031562389D+06  0.1000000000D+01
 P   1 1.00       0.000000000000
      0.5268046591D+05  0.1000000000D+01
 P   1 1.00       0.000000000000
      0.2690318607D+05  0.1000000000D+01
 P   1 1.00       0.000000000000
      0.1373908542D+05  0.1000000000D+01
 P   1 1.00       0.000000000000
      0.7016361094D+04  0.1000000000D+01
 P   1 1.00       0.000000000000
      0.3583158668D+04  0.1000000000D+01
 P   1 1.00       0.000000000000
      0.1829869625D+04  0.1000000000D+01
 P   1 1.00       0.000000000000
      0.9344891347D+03  0.1000000000D+01
 P   1 1.00       0.000000000000
      0.4772306896D+03  0.1000000000D+01
 P   1 1.00       0.000000000000
      0.2437151195D+03  0.1000000000D+01
 P   1 1.00       0.000000000000
      0.1244619442D+03  0.1000000000D+01
 P   1 1.00       0.000000000000
      0.6356099525D+02  0.1000000000D+01
 P   1 1.00       0.000000000000
      0.3245972208D+02  0.1000000000D+01
 P   1 1.00       0.000000000000
      0.1657673158D+02  0.1000000000D+01
 P   1 1.00       0.000000000000
      0.8465507783D+01  0.1000000000D+01
 P   1 1.00       0.000000000000
      0.4323217860D+01  0.1000000000D+01
 P   1 1.00       0.000000000000
      0.2207807629D+01  0.1000000000D+01
 P   1 1.00       0.000000000000
      0.1127496852D+01  0.1000000000D+01
 P   1 1.00       0.000000000000
      0.5757970639D+00  0.1000000000D+01
 P   1 1.00       0.000000000000
      0.2940516050D+00  0.1000000000D+01
 P   1 1.00       0.000000000000
      0.1501680918D+00  0.1000000000D+01
 P   1 1.00       0.000000000000
      0.7668876969D-01  0.1000000000D+01
 P   1 1.00       0.000000000000
      0.3916389510D-01  0.1000000000D+01
 D   1 1.00       0.000000000000
      0.4772306896D+03  0.1000000000D+01
 D   1 1.00       0.000000000000
      0.2437151195D+03  0.1000000000D+01
 D   1 1.00       0.000000000000
      0.1244619442D+03  0.1000000000D+01
 D   1 1.00       0.000000000000
      0.6356099525D+02  0.1000000000D+01
 D   1 1.00       0.000000000000
      0.3245972208D+02  0.1000000000D+01
 D   1 1.00       0.000000000000
      0.1657673158D+02  0.1000000000D+01
 D   1 1.00       0.000000000000
      0.8465507783D+01  0.1000000000D+01
 D   1 1.00       0.000000000000
      0.4323217860D+01  0.1000000000D+01
 D   1 1.00       0.000000000000
      0.2207807629D+01  0.1000000000D+01
 D   1 1.00       0.000000000000
      0.1127496852D+01  0.1000000000D+01
 D   1 1.00       0.000000000000
      0.5757970639D+00  0.1000000000D+01
 D   1 1.00       0.000000000000
      0.2940516050D+00  0.1000000000D+01
 D   1 1.00       0.000000000000
      0.1501680918D+00  0.1000000000D+01
 D   1 1.00       0.000000000000
      0.7668876969D-01  0.1000000000D+01
 D   1 1.00       0.000000000000
      0.3916389510D-01  0.1000000000D+01
 ****
      3 0
 S   1 1.00       0.000000000000
      0.2019953588D+06  0.1000000000D+01
 S   1 1.00       0.000000000000
      0.1031562389D+06  0.1000000000D+01
 S   1 1.00       0.000000000000
      0.5268046591D+05  0.1000000000D+01
 S   1 1.00       0.000000000000
      0.2690318607D+05  0.1000000000D+01
 S   1 1.00       0.000000000000
      0.1373908542D+05  0.1000000000D+01
 S   1 1.00       0.000000000000
      0.7016361094D+04  0.1000000000D+01
 S   1 1.00       0.000000000000
      0.3583158668D+04  0.1000000000D+01
 S   1 1.00       0.000000000000
      0.1829869625D+04  0.1000000000D+01
 S   1 1.00       0.000000000000
      0.9344891347D+03  0.1000000000D+01
 S   1 1.00       0.000000000000
      0.4772306896D+03  0.1000000000D+01
 S   1 1.00       0.000000000000
      0.2437151195D+03  0.1000000000D+01
 S   1 1.00       0.000000000000
      0.1244619442D+03  0.1000000000D+01
 S   1 1.00       0.000000000000
      0.6356099525D+02  0.1000000000D+01
 S   1 1.00       0.000000000000
      0.3245972208D+02  0.1000000000D+01
 S   1 1.00       0.000000000000
      0.1657673158D+02  0.1000000000D+01
 S   1 1.00       0.000000000000
      0.8465507783D+01  0.1000000000D+01
 S   1 1.00       0.000000000000
      0.4323217860D+01  0.1000000000D+01
 S   1 1.00       0.000000000000
      0.2207807629D+01  0.1000000000D+01
 S   1 1.00       0.000000000000
      0.1127496852D+01  0.1000000000D+01
 S   1 1.00       0.000000000000
      0.5757970639D+00  0.1000000000D+01
 S   1 1.00       0.000000000000
      0.2940516050D+00  0.1000000000D+01
 S   1 1.00       0.000000000000
      0.1501680918D+00  0.1000000000D+01
 S   1 1.00       0.000000000000
      0.7668876969D-01  0.1000000000D+01
 P   1 1.00       0.000000000000
      0.2019953588D+06  0.1000000000D+01
 P   1 1.00       0.000000000000
      0.1031562389D+06  0.1000000000D+01
 P   1 1.00       0.000000000000
      0.5268046591D+05  0.1000000000D+01
 P   1 1.00       0.000000000000
      0.2690318607D+05  0.1000000000D+01
 P   1 1.00       0.000000000000
      0.1373908542D+05  0.1000000000D+01
 P   1 1.00       0.000000000000
      0.7016361094D+04  0.1000000000D+01
 P   1 1.00       0.000000000000
      0.3583158668D+04  0.1000000000D+01
 P   1 1.00       0.000000000000
      0.1829869625D+04  0.1000000000D+01
 P   1 1.00       0.000000000000
      0.9344891347D+03  0.1000000000D+01
 P   1 1.00       0.000000000000
      0.4772306896D+03  0.1000000000D+01
 P   1 1.00       0.000000000000
      0.2437151195D+03  0.1000000000D+01
 P   1 1.00       0.000000000000
      0.1244619442D+03  0.1000000000D+01
 P   1 1.00       0.000000000000
      0.6356099525D+02  0.1000000000D+01
 P   1 1.00       0.000000000000
      0.3245972208D+02  0.1000000000D+01
 P   1 1.00       0.000000000000
      0.1657673158D+02  0.1000000000D+01
 P   1 1.00       0.000000000000
      0.8465507783D+01  0.1000000000D+01
 P   1 1.00       0.000000000000
      0.4323217860D+01  0.1000000000D+01
 P   1 1.00       0.000000000000
      0.2207807629D+01  0.1000000000D+01
 P   1 1.00       0.000000000000
      0.1127496852D+01  0.1000000000D+01
 P   1 1.00       0.000000000000
      0.5757970639D+00  0.1000000000D+01
 P   1 1.00       0.000000000000
      0.2940516050D+00  0.1000000000D+01
 P   1 1.00       0.000000000000
      0.1501680918D+00  0.1000000000D+01
 P   1 1.00       0.000000000000
      0.7668876969D-01  0.1000000000D+01
 P   1 1.00       0.000000000000
      0.3916389510D-01  0.1000000000D+01
 D   1 1.00       0.000000000000
      0.4772306896D+03  0.1000000000D+01
 D   1 1.00       0.000000000000
      0.2437151195D+03  0.1000000000D+01
 D   1 1.00       0.000000000000
      0.1244619442D+03  0.1000000000D+01
 D   1 1.00       0.000000000000
      0.6356099525D+02  0.1000000000D+01
 D   1 1.00       0.000000000000
      0.3245972208D+02  0.1000000000D+01
 D   1 1.00       0.000000000000
      0.1657673158D+02  0.1000000000D+01
 D   1 1.00       0.000000000000
      0.8465507783D+01  0.1000000000D+01
 D   1 1.00       0.000000000000
      0.4323217860D+01  0.1000000000D+01
 D   1 1.00       0.000000000000
      0.2207807629D+01  0.1000000000D+01
 D   1 1.00       0.000000000000
      0.1127496852D+01  0.1000000000D+01
 D   1 1.00       0.000000000000
      0.5757970639D+00  0.1000000000D+01
 D   1 1.00       0.000000000000
      0.2940516050D+00  0.1000000000D+01
 D   1 1.00       0.000000000000
      0.1501680918D+00  0.1000000000D+01
 D   1 1.00       0.000000000000
      0.7668876969D-01  0.1000000000D+01
 D   1 1.00       0.000000000000
      0.3916389510D-01  0.1000000000D+01
 ****
      4 0
 S   1 1.00       0.000000000000
      0.2019953588D+06  0.1000000000D+01
 S   1 1.00       0.000000000000
      0.1031562389D+06  0.1000000000D+01
 S   1 1.00       0.000000000000
      0.5268046591D+05  0.1000000000D+01
 S   1 1.00       0.000000000000
      0.2690318607D+05  0.1000000000D+01
 S   1 1.00       0.000000000000
      0.1373908542D+05  0.1000000000D+01
 S   1 1.00       0.000000000000
      0.7016361094D+04  0.1000000000D+01
 S   1 1.00       0.000000000000
      0.3583158668D+04  0.1000000000D+01
 S   1 1.00       0.000000000000
      0.1829869625D+04  0.1000000000D+01
 S   1 1.00       0.000000000000
      0.9344891347D+03  0.1000000000D+01
 S   1 1.00       0.000000000000
      0.4772306896D+03  0.1000000000D+01
 S   1 1.00       0.000000000000
      0.2437151195D+03  0.1000000000D+01
 S   1 1.00       0.000000000000
      0.1244619442D+03  0.1000000000D+01
 S   1 1.00       0.000000000000
      0.6356099525D+02  0.1000000000D+01
 S   1 1.00       0.000000000000
      0.3245972208D+02  0.1000000000D+01
 S   1 1.00       0.000000000000
      0.1657673158D+02  0.1000000000D+01
 S   1 1.00       0.000000000000
      0.8465507783D+01  0.1000000000D+01
 S   1 1.00       0.000000000000
      0.4323217860D+01  0.1000000000D+01
 S   1 1.00       0.000000000000
      0.2207807629D+01  0.1000000000D+01
 S   1 1.00       0.000000000000
      0.1127496852D+01  0.1000000000D+01
 S   1 1.00       0.000000000000
      0.5757970639D+00  0.1000000000D+01
 S   1 1.00       0.000000000000
      0.2940516050D+00  0.1000000000D+01
 S   1 1.00       0.000000000000
      0.1501680918D+00  0.1000000000D+01
 S   1 1.00       0.000000000000
      0.7668876969D-01  0.1000000000D+01
 P   1 1.00       0.000000000000
      0.2019953588D+06  0.1000000000D+01
 P   1 1.00       0.000000000000
      0.1031562389D+06  0.1000000000D+01
 P   1 1.00       0.000000000000
      0.5268046591D+05  0.1000000000D+01
 P   1 1.00       0.000000000000
      0.2690318607D+05  0.1000000000D+01
 P   1 1.00       0.000000000000
      0.1373908542D+05  0.1000000000D+01
 P   1 1.00       0.000000000000
      0.7016361094D+04  0.1000000000D+01
 P   1 1.00       0.000000000000
      0.3583158668D+04  0.1000000000D+01
 P   1 1.00       0.000000000000
      0.1829869625D+04  0.1000000000D+01
 P   1 1.00       0.000000000000
      0.9344891347D+03  0.1000000000D+01
 P   1 1.00       0.000000000000
      0.4772306896D+03  0.1000000000D+01
 P   1 1.00       0.000000000000
      0.2437151195D+03  0.1000000000D+01
 P   1 1.00       0.000000000000
      0.1244619442D+03  0.1000000000D+01
 P   1 1.00       0.000000000000
      0.6356099525D+02  0.1000000000D+01
 P   1 1.00       0.000000000000
      0.3245972208D+02  0.1000000000D+01
 P   1 1.00       0.000000000000
      0.1657673158D+02  0.1000000000D+01
 P   1 1.00       0.000000000000
      0.8465507783D+01  0.1000000000D+01
 P   1 1.00       0.000000000000
      0.4323217860D+01  0.1000000000D+01
 P   1 1.00       0.000000000000
      0.2207807629D+01  0.1000000000D+01
 P   1 1.00       0.000000000000
      0.1127496852D+01  0.1000000000D+01
 P   1 1.00       0.000000000000
      0.5757970639D+00  0.1000000000D+01
 P   1 1.00       0.000000000000
      0.2940516050D+00  0.1000000000D+01
 P   1 1.00       0.000000000000
      0.1501680918D+00  0.1000000000D+01
 P   1 1.00       0.000000000000
      0.7668876969D-01  0.1000000000D+01
 P   1 1.00       0.000000000000
      0.3916389510D-01  0.1000000000D+01
 D   1 1.00       0.000000000000
      0.4772306896D+03  0.1000000000D+01
 D   1 1.00       0.000000000000
      0.2437151195D+03  0.1000000000D+01
 D   1 1.00       0.000000000000
      0.1244619442D+03  0.1000000000D+01
 D   1 1.00       0.000000000000
      0.6356099525D+02  0.1000000000D+01
 D   1 1.00       0.000000000000
      0.3245972208D+02  0.1000000000D+01
 D   1 1.00       0.000000000000
      0.1657673158D+02  0.1000000000D+01
 D   1 1.00       0.000000000000
      0.8465507783D+01  0.1000000000D+01
 D   1 1.00       0.000000000000
      0.4323217860D+01  0.1000000000D+01
 D   1 1.00       0.000000000000
      0.2207807629D+01  0.1000000000D+01
 D   1 1.00       0.000000000000
      0.1127496852D+01  0.1000000000D+01
 D   1 1.00       0.000000000000
      0.5757970639D+00  0.1000000000D+01
 D   1 1.00       0.000000000000
      0.2940516050D+00  0.1000000000D+01
 D   1 1.00       0.000000000000
      0.1501680918D+00  0.1000000000D+01
 D   1 1.00       0.000000000000
      0.7668876969D-01  0.1000000000D+01
 D   1 1.00       0.000000000000
      0.3916389510D-01  0.1000000000D+01
 ****
      5 0
 S   1 1.00       0.000000000000
      0.1373908542D+05  0.1000000000D+01
 S   1 1.00       0.000000000000
      0.7016361094D+04  0.1000000000D+01
 S   1 1.00       0.000000000000
      0.3583158668D+04  0.1000000000D+01
 S   1 1.00       0.000000000000
      0.1829869625D+04  0.1000000000D+01
 S   1 1.00       0.000000000000
      0.9344891347D+03  0.1000000000D+01
 S   1 1.00       0.000000000000
      0.4772306896D+03  0.1000000000D+01
 S   1 1.00       0.000000000000
      0.2437151195D+03  0.1000000000D+01
 S   1 1.00       0.000000000000
      0.1244619442D+03  0.1000000000D+01
 S   1 1.00       0.000000000000
      0.6356099525D+02  0.1000000000D+01
 S   1 1.00       0.000000000000
      0.3245972208D+02  0.1000000000D+01
 S   1 1.00       0.000000000000
      0.1657673158D+02  0.1000000000D+01
 S   1 1.00       0.000000000000
      0.8465507783D+01  0.1000000000D+01
 S   1 1.00       0.000000000000
      0.4323217860D+01  0.1000000000D+01
 S   1 1.00       0.000000000000
      0.2207807629D+01  0.1000000000D+01
 S   1 1.00       0.000000000000
      0.1127496852D+01  0.1000000000D+01
 S   1 1.00       0.000000000000
      0.5757970639D+00  0.1000000000D+01
 S   1 1.00       0.000000000000
      0.2940516050D+00  0.1000000000D+01
 S   1 1.00       0.000000000000
      0.1501680918D+00  0.1000000000D+01
 S   1 1.00       0.000000000000
      0.7668876969D-01  0.1000000000D+01
 S   1 1.00       0.000000000000
      0.3916389510D-01  0.1000000000D+01
 P   1 1.00       0.000000000000
      0.1373908542D+05  0.1000000000D+01
 P   1 1.00       0.000000000000
      0.7016361094D+04  0.1000000000D+01
 P   1 1.00       0.000000000000
      0.3583158668D+04  0.1000000000D+01
 P   1 1.00       0.000000000000
      0.1829869625D+04  0.1000000000D+01
 P   1 1.00       0.000000000000
      0.9344891347D+03  0.1000000000D+01
 P   1 1.00       0.000000000000
      0.4772306896D+03  0.1000000000D+01
 P   1 1.00       0.000000000000
      0.2437151195D+03  0.1000000000D+01
 P   1 1.00       0.000000000000
      0.1244619442D+03  0.1000000000D+01
 P   1 1.00       0.000000000000
      0.6356099525D+02  0.1000000000D+01
 P   1 1.00       0.000000000000
      0.3245972208D+02  0.1000000000D+01
 P   1 1.00       0.000000000000
      0.1657673158D+02  0.1000000000D+01
 P   1 1.00       0.000000000000
      0.8465507783D+01  0.1000000000D+01
 P   1 1.00       0.000000000000
      0.4323217860D+01  0.1000000000D+01
 P   1 1.00       0.000000000000
      0.2207807629D+01  0.1000000000D+01
 P   1 1.00       0.000000000000
      0.1127496852D+01  0.1000000000D+01
 P   1 1.00       0.000000000000
      0.5757970639D+00  0.1000000000D+01
 P   1 1.00       0.000000000000
      0.2940516050D+00  0.1000000000D+01
 P   1 1.00       0.000000000000
      0.1501680918D+00  0.1000000000D+01
 P   1 1.00       0.000000000000
      0.7668876969D-01  0.1000000000D+01
 P   1 1.00       0.000000000000
      0.3916389510D-01  0.1000000000D+01
 ****

 AO basis set (Overlap normalization):
 Atom C1       Shell     1 S   1     bf    1 -     1          0.000000000000          0.000000000000          3.875252217646
      0.2019953588D+06  0.1000000000D+01
 Atom C1       Shell     2 S   1     bf    2 -     2          0.000000000000          0.000000000000          3.875252217646
      0.1031562389D+06  0.1000000000D+01
 Atom C1       Shell     3 S   1     bf    3 -     3          0.000000000000          0.000000000000          3.875252217646
      0.5268046591D+05  0.1000000000D+01
 Atom C1       Shell     4 S   1     bf    4 -     4          0.000000000000          0.000000000000          3.875252217646
      0.2690318607D+05  0.1000000000D+01
 Atom C1       Shell     5 S   1     bf    5 -     5          0.000000000000          0.000000000000          3.875252217646
      0.1373908542D+05  0.1000000000D+01
 Atom C1       Shell     6 S   1     bf    6 -     6          0.000000000000          0.000000000000          3.875252217646
      0.7016361094D+04  0.1000000000D+01
 Atom C1       Shell     7 S   1     bf    7 -     7          0.000000000000          0.000000000000          3.875252217646
      0.3583158668D+04  0.1000000000D+01
 Atom C1       Shell     8 S   1     bf    8 -     8          0.000000000000          0.000000000000          3.875252217646
      0.1829869625D+04  0.1000000000D+01
 Atom C1       Shell     9 S   1     bf    9 -     9          0.000000000000          0.000000000000          3.875252217646
      0.9344891347D+03  0.1000000000D+01
 Atom C1       Shell    10 S   1     bf   10 -    10          0.000000000000          0.000000000000          3.875252217646
      0.4772306896D+03  0.1000000000D+01
 Atom C1       Shell    11 S   1     bf   11 -    11          0.000000000000          0.000000000000          3.875252217646
      0.2437151195D+03  0.1000000000D+01
 Atom C1       Shell    12 S   1     bf   12 -    12          0.000000000000          0.000000000000          3.875252217646
      0.1244619442D+03  0.1000000000D+01
 Atom C1       Shell    13 S   1     bf   13 -    13          0.000000000000          0.000000000000          3.875252217646
      0.6356099525D+02  0.1000000000D+01
 Atom C1       Shell    14 S   1     bf   14 -    14          0.000000000000          0.000000000000          3.875252217646
      0.3245972208D+02  0.1000000000D+01
 Atom C1       Shell    15 S   1     bf   15 -    15          0.000000000000          0.000000000000          3.875252217646
      0.1657673158D+02  0.1000000000D+01
 Atom C1       Shell    16 S   1     bf   16 -    16          0.000000000000          0.000000000000          3.875252217646
      0.8465507783D+01  0.1000000000D+01
 Atom C1       Shell    17 S   1     bf   17 -    17          0.000000000000          0.000000000000          3.875252217646
      0.4323217860D+01  0.1000000000D+01
 Atom C1       Shell    18 S   1     bf   18 -    18          0.000000000000          0.000000000000          3.875252217646
      0.2207807629D+01  0.1000000000D+01
 Atom C1       Shell    19 S   1     bf   19 -    19          0.000000000000          0.000000000000          3.875252217646
      0.1127496852D+01  0.1000000000D+01
 Atom C1       Shell    20 S   1     bf   20 -    20          0.000000000000          0.000000000000          3.875252217646
      0.5757970639D+00  0.1000000000D+01
 Atom C1       Shell    21 S   1     bf   21 -    21          0.000000000000          0.000000000000          3.875252217646
      0.2940516050D+00  0.1000000000D+01
 Atom C1       Shell    22 S   1     bf   22 -    22          0.000000000000          0.000000000000          3.875252217646
      0.1501680918D+00  0.1000000000D+01
 Atom C1       Shell    23 S   1     bf   23 -    23          0.000000000000          0.000000000000          3.875252217646
      0.7668876969D-01  0.1000000000D+01
 Atom C1       Shell    24 P   1     bf   24 -    26          0.000000000000          0.000000000000          3.875252217646
      0.2019953588D+06  0.1000000000D+01
 Atom C1       Shell    25 P   1     bf   27 -    29          0.000000000000          0.000000000000          3.875252217646
      0.1031562389D+06  0.1000000000D+01
 Atom C1       Shell    26 P   1     bf   30 -    32          0.000000000000          0.000000000000          3.875252217646
      0.5268046591D+05  0.1000000000D+01
 Atom C1       Shell    27 P   1     bf   33 -    35          0.000000000000          0.000000000000          3.875252217646
      0.2690318607D+05  0.1000000000D+01
 Atom C1       Shell    28 P   1     bf   36 -    38          0.000000000000          0.000000000000          3.875252217646
      0.1373908542D+05  0.1000000000D+01
 Atom C1       Shell    29 P   1     bf   39 -    41          0.000000000000          0.000000000000          3.875252217646
      0.7016361094D+04  0.1000000000D+01
 Atom C1       Shell    30 P   1     bf   42 -    44          0.000000000000          0.000000000000          3.875252217646
      0.3583158668D+04  0.1000000000D+01
 Atom C1       Shell    31 P   1     bf   45 -    47          0.000000000000          0.000000000000          3.875252217646
      0.1829869625D+04  0.1000000000D+01
 Atom C1       Shell    32 P   1     bf   48 -    50          0.000000000000          0.000000000000          3.875252217646
      0.9344891347D+03  0.1000000000D+01
 Atom C1       Shell    33 P   1     bf   51 -    53          0.000000000000          0.000000000000          3.875252217646
      0.4772306896D+03  0.1000000000D+01
 Atom C1       Shell    34 P   1     bf   54 -    56          0.000000000000          0.000000000000          3.875252217646
      0.2437151195D+03  0.1000000000D+01
 Atom C1       Shell    35 P   1     bf   57 -    59          0.000000000000          0.000000000000          3.875252217646
      0.1244619442D+03  0.1000000000D+01
 Atom C1       Shell    36 P   1     bf   60 -    62          0.000000000000          0.000000000000          3.875252217646
      0.6356099525D+02  0.1000000000D+01
 Atom C1       Shell    37 P   1     bf   63 -    65          0.000000000000          0.000000000000          3.875252217646
      0.3245972208D+02  0.1000000000D+01
 Atom C1       Shell    38 P   1     bf   66 -    68          0.000000000000          0.000000000000          3.875252217646
      0.1657673158D+02  0.1000000000D+01
 Atom C1       Shell    39 P   1     bf   69 -    71          0.000000000000          0.000000000000          3.875252217646
      0.8465507783D+01  0.1000000000D+01
 Atom C1       Shell    40 P   1     bf   72 -    74          0.000000000000          0.000000000000          3.875252217646
      0.4323217860D+01  0.1000000000D+01
 Atom C1       Shell    41 P   1     bf   75 -    77          0.000000000000          0.000000000000          3.875252217646
      0.2207807629D+01  0.1000000000D+01
 Atom C1       Shell    42 P   1     bf   78 -    80          0.000000000000          0.000000000000          3.875252217646
      0.1127496852D+01  0.1000000000D+01
 Atom C1       Shell    43 P   1     bf   81 -    83          0.000000000000          0.000000000000          3.875252217646
      0.5757970639D+00  0.1000000000D+01
 Atom C1       Shell    44 P   1     bf   84 -    86          0.000000000000          0.000000000000          3.875252217646
      0.2940516050D+00  0.1000000000D+01
 Atom C1       Shell    45 P   1     bf   87 -    89          0.000000000000          0.000000000000          3.875252217646
      0.1501680918D+00  0.1000000000D+01
 Atom C1       Shell    46 P   1     bf   90 -    92          0.000000000000          0.000000000000          3.875252217646
      0.7668876969D-01  0.1000000000D+01
 Atom C1       Shell    47 P   1     bf   93 -    95          0.000000000000          0.000000000000          3.875252217646
      0.3916389510D-01  0.1000000000D+01
 Atom C1       Shell    48 D   1     bf   96 -   100          0.000000000000          0.000000000000          3.875252217646
      0.4772306896D+03  0.1000000000D+01
 Atom C1       Shell    49 D   1     bf  101 -   105          0.000000000000          0.000000000000          3.875252217646
      0.2437151195D+03  0.1000000000D+01
 Atom C1       Shell    50 D   1     bf  106 -   110          0.000000000000          0.000000000000          3.875252217646
      0.1244619442D+03  0.1000000000D+01
 Atom C1       Shell    51 D   1     bf  111 -   115          0.000000000000          0.000000000000          3.875252217646
      0.6356099525D+02  0.1000000000D+01
 Atom C1       Shell    52 D   1     bf  116 -   120          0.000000000000          0.000000000000          3.875252217646
      0.3245972208D+02  0.1000000000D+01
 Atom C1       Shell    53 D   1     bf  121 -   125          0.000000000000          0.000000000000          3.875252217646
      0.1657673158D+02  0.1000000000D+01
 Atom C1       Shell    54 D   1     bf  126 -   130          0.000000000000          0.000000000000          3.875252217646
      0.8465507783D+01  0.1000000000D+01
 Atom C1       Shell    55 D   1     bf  131 -   135          0.000000000000          0.000000000000          3.875252217646
      0.4323217860D+01  0.1000000000D+01
 Atom C1       Shell    56 D   1     bf  136 -   140          0.000000000000          0.000000000000          3.875252217646
      0.2207807629D+01  0.1000000000D+01
 Atom C1       Shell    57 D   1     bf  141 -   145          0.000000000000          0.000000000000          3.875252217646
      0.1127496852D+01  0.1000000000D+01
 Atom C1       Shell    58 D   1     bf  146 -   150          0.000000000000          0.000000000000          3.875252217646
      0.5757970639D+00  0.1000000000D+01
 Atom C1       Shell    59 D   1     bf  151 -   155          0.000000000000          0.000000000000          3.875252217646
      0.2940516050D+00  0.1000000000D+01
 Atom C1       Shell    60 D   1     bf  156 -   160          0.000000000000          0.000000000000          3.875252217646
      0.1501680918D+00  0.1000000000D+01
 Atom C1       Shell    61 D   1     bf  161 -   165          0.000000000000          0.000000000000          3.875252217646
      0.7668876969D-01  0.1000000000D+01
 Atom C1       Shell    62 D   1     bf  166 -   170          0.000000000000          0.000000000000          3.875252217646
      0.3916389510D-01  0.1000000000D+01
 Atom C2       Shell    63 S   1     bf  171 -   171          0.000000000000          0.000000000000          1.450897664058
      0.2019953588D+06  0.1000000000D+01
 Atom C2       Shell    64 S   1     bf  172 -   172          0.000000000000          0.000000000000          1.450897664058
      0.1031562389D+06  0.1000000000D+01
 Atom C2       Shell    65 S   1     bf  173 -   173          0.000000000000          0.000000000000          1.450897664058
      0.5268046591D+05  0.1000000000D+01
 Atom C2       Shell    66 S   1     bf  174 -   174          0.000000000000          0.000000000000          1.450897664058
      0.2690318607D+05  0.1000000000D+01
 Atom C2       Shell    67 S   1     bf  175 -   175          0.000000000000          0.000000000000          1.450897664058
      0.1373908542D+05  0.1000000000D+01
 Atom C2       Shell    68 S   1     bf  176 -   176          0.000000000000          0.000000000000          1.450897664058
      0.7016361094D+04  0.1000000000D+01
 Atom C2       Shell    69 S   1     bf  177 -   177          0.000000000000          0.000000000000          1.450897664058
      0.3583158668D+04  0.1000000000D+01
 Atom C2       Shell    70 S   1     bf  178 -   178          0.000000000000          0.000000000000          1.450897664058
      0.1829869625D+04  0.1000000000D+01
 Atom C2       Shell    71 S   1     bf  179 -   179          0.000000000000          0.000000000000          1.450897664058
      0.9344891347D+03  0.1000000000D+01
 Atom C2       Shell    72 S   1     bf  180 -   180          0.000000000000          0.000000000000          1.450897664058
      0.4772306896D+03  0.1000000000D+01
 Atom C2       Shell    73 S   1     bf  181 -   181          0.000000000000          0.000000000000          1.450897664058
      0.2437151195D+03  0.1000000000D+01
 Atom C2       Shell    74 S   1     bf  182 -   182          0.000000000000          0.000000000000          1.450897664058
      0.1244619442D+03  0.1000000000D+01
 Atom C2       Shell    75 S   1     bf  183 -   183          0.000000000000          0.000000000000          1.450897664058
      0.6356099525D+02  0.1000000000D+01
 Atom C2       Shell    76 S   1     bf  184 -   184          0.000000000000          0.000000000000          1.450897664058
      0.3245972208D+02  0.1000000000D+01
 Atom C2       Shell    77 S   1     bf  185 -   185          0.000000000000          0.000000000000          1.450897664058
      0.1657673158D+02  0.1000000000D+01
 Atom C2       Shell    78 S   1     bf  186 -   186          0.000000000000          0.000000000000          1.450897664058
      0.8465507783D+01  0.1000000000D+01
 Atom C2       Shell    79 S   1     bf  187 -   187          0.000000000000          0.000000000000          1.450897664058
      0.4323217860D+01  0.1000000000D+01
 Atom C2       Shell    80 S   1     bf  188 -   188          0.000000000000          0.000000000000          1.450897664058
      0.2207807629D+01  0.1000000000D+01
 Atom C2       Shell    81 S   1     bf  189 -   189          0.000000000000          0.000000000000          1.450897664058
      0.1127496852D+01  0.1000000000D+01
 Atom C2       Shell    82 S   1     bf  190 -   190          0.000000000000          0.000000000000          1.450897664058
      0.5757970639D+00  0.1000000000D+01
 Atom C2       Shell    83 S   1     bf  191 -   191          0.000000000000          0.000000000000          1.450897664058
      0.2940516050D+00  0.1000000000D+01
 Atom C2       Shell    84 S   1     bf  192 -   192          0.000000000000          0.000000000000          1.450897664058
      0.1501680918D+00  0.1000000000D+01
 Atom C2       Shell    85 S   1     bf  193 -   193          0.000000000000          0.000000000000          1.450897664058
      0.7668876969D-01  0.1000000000D+01
 Atom C2       Shell    86 P   1     bf  194 -   196          0.000000000000          0.000000000000          1.450897664058
      0.2019953588D+06  0.1000000000D+01
 Atom C2       Shell    87 P   1     bf  197 -   199          0.000000000000          0.000000000000          1.450897664058
      0.1031562389D+06  0.1000000000D+01
 Atom C2       Shell    88 P   1     bf  200 -   202          0.000000000000          0.000000000000          1.450897664058
      0.5268046591D+05  0.1000000000D+01
 Atom C2       Shell    89 P   1     bf  203 -   205          0.000000000000          0.000000000000          1.450897664058
      0.2690318607D+05  0.1000000000D+01
 Atom C2       Shell    90 P   1     bf  206 -   208          0.000000000000          0.000000000000          1.450897664058
      0.1373908542D+05  0.1000000000D+01
 Atom C2       Shell    91 P   1     bf  209 -   211          0.000000000000          0.000000000000          1.450897664058
      0.7016361094D+04  0.1000000000D+01
 Atom C2       Shell    92 P   1     bf  212 -   214          0.000000000000          0.000000000000          1.450897664058
      0.3583158668D+04  0.1000000000D+01
 Atom C2       Shell    93 P   1     bf  215 -   217          0.000000000000          0.000000000000          1.450897664058
      0.1829869625D+04  0.1000000000D+01
 Atom C2       Shell    94 P   1     bf  218 -   220          0.000000000000          0.000000000000          1.450897664058
      0.9344891347D+03  0.1000000000D+01
 Atom C2       Shell    95 P   1     bf  221 -   223          0.000000000000          0.000000000000          1.450897664058
      0.4772306896D+03  0.1000000000D+01
 Atom C2       Shell    96 P   1     bf  224 -   226          0.000000000000          0.000000000000          1.450897664058
      0.2437151195D+03  0.1000000000D+01
 Atom C2       Shell    97 P   1     bf  227 -   229          0.000000000000          0.000000000000          1.450897664058
      0.1244619442D+03  0.1000000000D+01
 Atom C2       Shell    98 P   1     bf  230 -   232          0.000000000000          0.000000000000          1.450897664058
      0.6356099525D+02  0.1000000000D+01
 Atom C2       Shell    99 P   1     bf  233 -   235          0.000000000000          0.000000000000          1.450897664058
      0.3245972208D+02  0.1000000000D+01
 Atom C2       Shell   100 P   1     bf  236 -   238          0.000000000000          0.000000000000          1.450897664058
      0.1657673158D+02  0.1000000000D+01
 Atom C2       Shell   101 P   1     bf  239 -   241          0.000000000000          0.000000000000          1.450897664058
      0.8465507783D+01  0.1000000000D+01
 Atom C2       Shell   102 P   1     bf  242 -   244          0.000000000000          0.000000000000          1.450897664058
      0.4323217860D+01  0.1000000000D+01
 Atom C2       Shell   103 P   1     bf  245 -   247          0.000000000000          0.000000000000          1.450897664058
      0.2207807629D+01  0.1000000000D+01
 Atom C2       Shell   104 P   1     bf  248 -   250          0.000000000000          0.000000000000          1.450897664058
      0.1127496852D+01  0.1000000000D+01
 Atom C2       Shell   105 P   1     bf  251 -   253          0.000000000000          0.000000000000          1.450897664058
      0.5757970639D+00  0.1000000000D+01
 Atom C2       Shell   106 P   1     bf  254 -   256          0.000000000000          0.000000000000          1.450897664058
      0.2940516050D+00  0.1000000000D+01
 Atom C2       Shell   107 P   1     bf  257 -   259          0.000000000000          0.000000000000          1.450897664058
      0.1501680918D+00  0.1000000000D+01
 Atom C2       Shell   108 P   1     bf  260 -   262          0.000000000000          0.000000000000          1.450897664058
      0.7668876969D-01  0.1000000000D+01
 Atom C2       Shell   109 P   1     bf  263 -   265          0.000000000000          0.000000000000          1.450897664058
      0.3916389510D-01  0.1000000000D+01
 Atom C2       Shell   110 D   1     bf  266 -   270          0.000000000000          0.000000000000          1.450897664058
      0.4772306896D+03  0.1000000000D+01
 Atom C2       Shell   111 D   1     bf  271 -   275          0.000000000000          0.000000000000          1.450897664058
      0.2437151195D+03  0.1000000000D+01
 Atom C2       Shell   112 D   1     bf  276 -   280          0.000000000000          0.000000000000          1.450897664058
      0.1244619442D+03  0.1000000000D+01
 Atom C2       Shell   113 D   1     bf  281 -   285          0.000000000000          0.000000000000          1.450897664058
      0.6356099525D+02  0.1000000000D+01
 Atom C2       Shell   114 D   1     bf  286 -   290          0.000000000000          0.000000000000          1.450897664058
      0.3245972208D+02  0.1000000000D+01
 Atom C2       Shell   115 D   1     bf  291 -   295          0.000000000000          0.000000000000          1.450897664058
      0.1657673158D+02  0.1000000000D+01
 Atom C2       Shell   116 D   1     bf  296 -   300          0.000000000000          0.000000000000          1.450897664058
      0.8465507783D+01  0.1000000000D+01
 Atom C2       Shell   117 D   1     bf  301 -   305          0.000000000000          0.000000000000          1.450897664058
      0.4323217860D+01  0.1000000000D+01
 Atom C2       Shell   118 D   1     bf  306 -   310          0.000000000000          0.000000000000          1.450897664058
      0.2207807629D+01  0.1000000000D+01
 Atom C2       Shell   119 D   1     bf  311 -   315          0.000000000000          0.000000000000          1.450897664058
      0.1127496852D+01  0.1000000000D+01
 Atom C2       Shell   120 D   1     bf  316 -   320          0.000000000000          0.000000000000          1.450897664058
      0.5757970639D+00  0.1000000000D+01
 Atom C2       Shell   121 D   1     bf  321 -   325          0.000000000000          0.000000000000          1.450897664058
      0.2940516050D+00  0.1000000000D+01
 Atom C2       Shell   122 D   1     bf  326 -   330          0.000000000000          0.000000000000          1.450897664058
      0.1501680918D+00  0.1000000000D+01
 Atom C2       Shell   123 D   1     bf  331 -   335          0.000000000000          0.000000000000          1.450897664058
      0.7668876969D-01  0.1000000000D+01
 Atom C2       Shell   124 D   1     bf  336 -   340          0.000000000000          0.000000000000          1.450897664058
      0.3916389510D-01  0.1000000000D+01
 Atom C3       Shell   125 S   1     bf  341 -   341          0.000000000000          0.000000000000         -1.059792645035
      0.2019953588D+06  0.1000000000D+01
 Atom C3       Shell   126 S   1     bf  342 -   342          0.000000000000          0.000000000000         -1.059792645035
      0.1031562389D+06  0.1000000000D+01
 Atom C3       Shell   127 S   1     bf  343 -   343          0.000000000000          0.000000000000         -1.059792645035
      0.5268046591D+05  0.1000000000D+01
 Atom C3       Shell   128 S   1     bf  344 -   344          0.000000000000          0.000000000000         -1.059792645035
      0.2690318607D+05  0.1000000000D+01
 Atom C3       Shell   129 S   1     bf  345 -   345          0.000000000000          0.000000000000         -1.059792645035
      0.1373908542D+05  0.1000000000D+01
 Atom C3       Shell   130 S   1     bf  346 -   346          0.000000000000          0.000000000000         -1.059792645035
      0.7016361094D+04  0.1000000000D+01
 Atom C3       Shell   131 S   1     bf  347 -   347          0.000000000000          0.000000000000         -1.059792645035
      0.3583158668D+04  0.1000000000D+01
 Atom C3       Shell   132 S   1     bf  348 -   348          0.000000000000          0.000000000000         -1.059792645035
      0.1829869625D+04  0.1000000000D+01
 Atom C3       Shell   133 S   1     bf  349 -   349          0.000000000000          0.000000000000         -1.059792645035
      0.9344891347D+03  0.1000000000D+01
 Atom C3       Shell   134 S   1     bf  350 -   350          0.000000000000          0.000000000000         -1.059792645035
      0.4772306896D+03  0.1000000000D+01
 Atom C3       Shell   135 S   1     bf  351 -   351          0.000000000000          0.000000000000         -1.059792645035
      0.2437151195D+03  0.1000000000D+01
 Atom C3       Shell   136 S   1     bf  352 -   352          0.000000000000          0.000000000000         -1.059792645035
      0.1244619442D+03  0.1000000000D+01
 Atom C3       Shell   137 S   1     bf  353 -   353          0.000000000000          0.000000000000         -1.059792645035
      0.6356099525D+02  0.1000000000D+01
 Atom C3       Shell   138 S   1     bf  354 -   354          0.000000000000          0.000000000000         -1.059792645035
      0.3245972208D+02  0.1000000000D+01
 Atom C3       Shell   139 S   1     bf  355 -   355          0.000000000000          0.000000000000         -1.059792645035
      0.1657673158D+02  0.1000000000D+01
 Atom C3       Shell   140 S   1     bf  356 -   356          0.000000000000          0.000000000000         -1.059792645035
      0.8465507783D+01  0.1000000000D+01
 Atom C3       Shell   141 S   1     bf  357 -   357          0.000000000000          0.000000000000         -1.059792645035
      0.4323217860D+01  0.1000000000D+01
 Atom C3       Shell   142 S   1     bf  358 -   358          0.000000000000          0.000000000000         -1.059792645035
      0.2207807629D+01  0.1000000000D+01
 Atom C3       Shell   143 S   1     bf  359 -   359          0.000000000000          0.000000000000         -1.059792645035
      0.1127496852D+01  0.1000000000D+01
 Atom C3       Shell   144 S   1     bf  360 -   360          0.000000000000          0.000000000000         -1.059792645035
      0.5757970639D+00  0.1000000000D+01
 Atom C3       Shell   145 S   1     bf  361 -   361          0.000000000000          0.000000000000         -1.059792645035
      0.2940516050D+00  0.1000000000D+01
 Atom C3       Shell   146 S   1     bf  362 -   362          0.000000000000          0.000000000000         -1.059792645035
      0.1501680918D+00  0.1000000000D+01
 Atom C3       Shell   147 S   1     bf  363 -   363          0.000000000000          0.000000000000         -1.059792645035
      0.7668876969D-01  0.1000000000D+01
 Atom C3       Shell   148 P   1     bf  364 -   366          0.000000000000          0.000000000000         -1.059792645035
      0.2019953588D+06  0.1000000000D+01
 Atom C3       Shell   149 P   1     bf  367 -   369          0.000000000000          0.000000000000         -1.059792645035
      0.1031562389D+06  0.1000000000D+01
 Atom C3       Shell   150 P   1     bf  370 -   372          0.000000000000          0.000000000000         -1.059792645035
      0.5268046591D+05  0.1000000000D+01
 Atom C3       Shell   151 P   1     bf  373 -   375          0.000000000000          0.000000000000         -1.059792645035
      0.2690318607D+05  0.1000000000D+01
 Atom C3       Shell   152 P   1     bf  376 -   378          0.000000000000          0.000000000000         -1.059792645035
      0.1373908542D+05  0.1000000000D+01
 Atom C3       Shell   153 P   1     bf  379 -   381          0.000000000000          0.000000000000         -1.059792645035
      0.7016361094D+04  0.1000000000D+01
 Atom C3       Shell   154 P   1     bf  382 -   384          0.000000000000          0.000000000000         -1.059792645035
      0.3583158668D+04  0.1000000000D+01
 Atom C3       Shell   155 P   1     bf  385 -   387          0.000000000000          0.000000000000         -1.059792645035
      0.1829869625D+04  0.1000000000D+01
 Atom C3       Shell   156 P   1     bf  388 -   390          0.000000000000          0.000000000000         -1.059792645035
      0.9344891347D+03  0.1000000000D+01
 Atom C3       Shell   157 P   1     bf  391 -   393          0.000000000000          0.000000000000         -1.059792645035
      0.4772306896D+03  0.1000000000D+01
 Atom C3       Shell   158 P   1     bf  394 -   396          0.000000000000          0.000000000000         -1.059792645035
      0.2437151195D+03  0.1000000000D+01
 Atom C3       Shell   159 P   1     bf  397 -   399          0.000000000000          0.000000000000         -1.059792645035
      0.1244619442D+03  0.1000000000D+01
 Atom C3       Shell   160 P   1     bf  400 -   402          0.000000000000          0.000000000000         -1.059792645035
      0.6356099525D+02  0.1000000000D+01
 Atom C3       Shell   161 P   1     bf  403 -   405          0.000000000000          0.000000000000         -1.059792645035
      0.3245972208D+02  0.1000000000D+01
 Atom C3       Shell   162 P   1     bf  406 -   408          0.000000000000          0.000000000000         -1.059792645035
      0.1657673158D+02  0.1000000000D+01
 Atom C3       Shell   163 P   1     bf  409 -   411          0.000000000000          0.000000000000         -1.059792645035
      0.8465507783D+01  0.1000000000D+01
 Atom C3       Shell   164 P   1     bf  412 -   414          0.000000000000          0.000000000000         -1.059792645035
      0.4323217860D+01  0.1000000000D+01
 Atom C3       Shell   165 P   1     bf  415 -   417          0.000000000000          0.000000000000         -1.059792645035
      0.2207807629D+01  0.1000000000D+01
 Atom C3       Shell   166 P   1     bf  418 -   420          0.000000000000          0.000000000000         -1.059792645035
      0.1127496852D+01  0.1000000000D+01
 Atom C3       Shell   167 P   1     bf  421 -   423          0.000000000000          0.000000000000         -1.059792645035
      0.5757970639D+00  0.1000000000D+01
 Atom C3       Shell   168 P   1     bf  424 -   426          0.000000000000          0.000000000000         -1.059792645035
      0.2940516050D+00  0.1000000000D+01
 Atom C3       Shell   169 P   1     bf  427 -   429          0.000000000000          0.000000000000         -1.059792645035
      0.1501680918D+00  0.1000000000D+01
 Atom C3       Shell   170 P   1     bf  430 -   432          0.000000000000          0.000000000000         -1.059792645035
      0.7668876969D-01  0.1000000000D+01
 Atom C3       Shell   171 P   1     bf  433 -   435          0.000000000000          0.000000000000         -1.059792645035
      0.3916389510D-01  0.1000000000D+01
 Atom C3       Shell   172 D   1     bf  436 -   440          0.000000000000          0.000000000000         -1.059792645035
      0.4772306896D+03  0.1000000000D+01
 Atom C3       Shell   173 D   1     bf  441 -   445          0.000000000000          0.000000000000         -1.059792645035
      0.2437151195D+03  0.1000000000D+01
 Atom C3       Shell   174 D   1     bf  446 -   450          0.000000000000          0.000000000000         -1.059792645035
      0.1244619442D+03  0.1000000000D+01
 Atom C3       Shell   175 D   1     bf  451 -   455          0.000000000000          0.000000000000         -1.059792645035
      0.6356099525D+02  0.1000000000D+01
 Atom C3       Shell   176 D   1     bf  456 -   460          0.000000000000          0.000000000000         -1.059792645035
      0.3245972208D+02  0.1000000000D+01
 Atom C3       Shell   177 D   1     bf  461 -   465          0.000000000000          0.000000000000         -1.059792645035
      0.1657673158D+02  0.1000000000D+01
 Atom C3       Shell   178 D   1     bf  466 -   470          0.000000000000          0.000000000000         -1.059792645035
      0.8465507783D+01  0.1000000000D+01
 Atom C3       Shell   179 D   1     bf  471 -   475          0.000000000000          0.000000000000         -1.059792645035
      0.4323217860D+01  0.1000000000D+01
 Atom C3       Shell   180 D   1     bf  476 -   480          0.000000000000          0.000000000000         -1.059792645035
      0.2207807629D+01  0.1000000000D+01
 Atom C3       Shell   181 D   1     bf  481 -   485          0.000000000000          0.000000000000         -1.059792645035
      0.1127496852D+01  0.1000000000D+01
 Atom C3       Shell   182 D   1     bf  486 -   490          0.000000000000          0.000000000000         -1.059792645035
      0.5757970639D+00  0.1000000000D+01
 Atom C3       Shell   183 D   1     bf  491 -   495          0.000000000000          0.000000000000         -1.059792645035
      0.2940516050D+00  0.1000000000D+01
 Atom C3       Shell   184 D   1     bf  496 -   500          0.000000000000          0.000000000000         -1.059792645035
      0.1501680918D+00  0.1000000000D+01
 Atom C3       Shell   185 D   1     bf  501 -   505          0.000000000000          0.000000000000         -1.059792645035
      0.7668876969D-01  0.1000000000D+01
 Atom C3       Shell   186 D   1     bf  506 -   510          0.000000000000          0.000000000000         -1.059792645035
      0.3916389510D-01  0.1000000000D+01
 Atom C4       Shell   187 S   1     bf  511 -   511          0.000000000000          0.000000000000         -3.369424519878
      0.2019953588D+06  0.1000000000D+01
 Atom C4       Shell   188 S   1     bf  512 -   512          0.000000000000          0.000000000000         -3.369424519878
      0.1031562389D+06  0.1000000000D+01
 Atom C4       Shell   189 S   1     bf  513 -   513          0.000000000000          0.000000000000         -3.369424519878
      0.5268046591D+05  0.1000000000D+01
 Atom C4       Shell   190 S   1     bf  514 -   514          0.000000000000          0.000000000000         -3.369424519878
      0.2690318607D+05  0.1000000000D+01
 Atom C4       Shell   191 S   1     bf  515 -   515          0.000000000000          0.000000000000         -3.369424519878
      0.1373908542D+05  0.1000000000D+01
 Atom C4       Shell   192 S   1     bf  516 -   516          0.000000000000          0.000000000000         -3.369424519878
      0.7016361094D+04  0.1000000000D+01
 Atom C4       Shell   193 S   1     bf  517 -   517          0.000000000000          0.000000000000         -3.369424519878
      0.3583158668D+04  0.1000000000D+01
 Atom C4       Shell   194 S   1     bf  518 -   518          0.000000000000          0.000000000000         -3.369424519878
      0.1829869625D+04  0.1000000000D+01
 Atom C4       Shell   195 S   1     bf  519 -   519          0.000000000000          0.000000000000         -3.369424519878
      0.9344891347D+03  0.1000000000D+01
 Atom C4       Shell   196 S   1     bf  520 -   520          0.000000000000          0.000000000000         -3.369424519878
      0.4772306896D+03  0.1000000000D+01
 Atom C4       Shell   197 S   1     bf  521 -   521          0.000000000000          0.000000000000         -3.369424519878
      0.2437151195D+03  0.1000000000D+01
 Atom C4       Shell   198 S   1     bf  522 -   522          0.000000000000          0.000000000000         -3.369424519878
      0.1244619442D+03  0.1000000000D+01
 Atom C4       Shell   199 S   1     bf  523 -   523          0.000000000000          0.000000000000         -3.369424519878
      0.6356099525D+02  0.1000000000D+01
 Atom C4       Shell   200 S   1     bf  524 -   524          0.000000000000          0.000000000000         -3.369424519878
      0.3245972208D+02  0.1000000000D+01
 Atom C4       Shell   201 S   1     bf  525 -   525          0.000000000000          0.000000000000         -3.369424519878
      0.1657673158D+02  0.1000000000D+01
 Atom C4       Shell   202 S   1     bf  526 -   526          0.000000000000          0.000000000000         -3.369424519878
      0.8465507783D+01  0.1000000000D+01
 Atom C4       Shell   203 S   1     bf  527 -   527          0.000000000000          0.000000000000         -3.369424519878
      0.4323217860D+01  0.1000000000D+01
 Atom C4       Shell   204 S   1     bf  528 -   528          0.000000000000          0.000000000000         -3.369424519878
      0.2207807629D+01  0.1000000000D+01
 Atom C4       Shell   205 S   1     bf  529 -   529          0.000000000000          0.000000000000         -3.369424519878
      0.1127496852D+01  0.1000000000D+01
 Atom C4       Shell   206 S   1     bf  530 -   530          0.000000000000          0.000000000000         -3.369424519878
      0.5757970639D+00  0.1000000000D+01
 Atom C4       Shell   207 S   1     bf  531 -   531          0.000000000000          0.000000000000         -3.369424519878
      0.2940516050D+00  0.1000000000D+01
 Atom C4       Shell   208 S   1     bf  532 -   532          0.000000000000          0.000000000000         -3.369424519878
      0.1501680918D+00  0.1000000000D+01
 Atom C4       Shell   209 S   1     bf  533 -   533          0.000000000000          0.000000000000         -3.369424519878
      0.7668876969D-01  0.1000000000D+01
 Atom C4       Shell   210 P   1     bf  534 -   536          0.000000000000          0.000000000000         -3.369424519878
      0.2019953588D+06  0.1000000000D+01
 Atom C4       Shell   211 P   1     bf  537 -   539          0.000000000000          0.000000000000         -3.369424519878
      0.1031562389D+06  0.1000000000D+01
 Atom C4       Shell   212 P   1     bf  540 -   542          0.000000000000          0.000000000000         -3.369424519878
      0.5268046591D+05  0.1000000000D+01
 Atom C4       Shell   213 P   1     bf  543 -   545          0.000000000000          0.000000000000         -3.369424519878
      0.2690318607D+05  0.1000000000D+01
 Atom C4       Shell   214 P   1     bf  546 -   548          0.000000000000          0.000000000000         -3.369424519878
      0.1373908542D+05  0.1000000000D+01
 Atom C4       Shell   215 P   1     bf  549 -   551          0.000000000000          0.000000000000         -3.369424519878
      0.7016361094D+04  0.1000000000D+01
 Atom C4       Shell   216 P   1     bf  552 -   554          0.000000000000          0.000000000000         -3.369424519878
      0.3583158668D+04  0.1000000000D+01
 Atom C4       Shell   217 P   1     bf  555 -   557          0.000000000000          0.000000000000         -3.369424519878
      0.1829869625D+04  0.1000000000D+01
 Atom C4       Shell   218 P   1     bf  558 -   560          0.000000000000          0.000000000000         -3.369424519878
      0.9344891347D+03  0.1000000000D+01
 Atom C4       Shell   219 P   1     bf  561 -   563          0.000000000000          0.000000000000         -3.369424519878
      0.4772306896D+03  0.1000000000D+01
 Atom C4       Shell   220 P   1     bf  564 -   566          0.000000000000          0.000000000000         -3.369424519878
      0.2437151195D+03  0.1000000000D+01
 Atom C4       Shell   221 P   1     bf  567 -   569          0.000000000000          0.000000000000         -3.369424519878
      0.1244619442D+03  0.1000000000D+01
 Atom C4       Shell   222 P   1     bf  570 -   572          0.000000000000          0.000000000000         -3.369424519878
      0.6356099525D+02  0.1000000000D+01
 Atom C4       Shell   223 P   1     bf  573 -   575          0.000000000000          0.000000000000         -3.369424519878
      0.3245972208D+02  0.1000000000D+01
 Atom C4       Shell   224 P   1     bf  576 -   578          0.000000000000          0.000000000000         -3.369424519878
      0.1657673158D+02  0.1000000000D+01
 Atom C4       Shell   225 P   1     bf  579 -   581          0.000000000000          0.000000000000         -3.369424519878
      0.8465507783D+01  0.1000000000D+01
 Atom C4       Shell   226 P   1     bf  582 -   584          0.000000000000          0.000000000000         -3.369424519878
      0.4323217860D+01  0.1000000000D+01
 Atom C4       Shell   227 P   1     bf  585 -   587          0.000000000000          0.000000000000         -3.369424519878
      0.2207807629D+01  0.1000000000D+01
 Atom C4       Shell   228 P   1     bf  588 -   590          0.000000000000          0.000000000000         -3.369424519878
      0.1127496852D+01  0.1000000000D+01
 Atom C4       Shell   229 P   1     bf  591 -   593          0.000000000000          0.000000000000         -3.369424519878
      0.5757970639D+00  0.1000000000D+01
 Atom C4       Shell   230 P   1     bf  594 -   596          0.000000000000          0.000000000000         -3.369424519878
      0.2940516050D+00  0.1000000000D+01
 Atom C4       Shell   231 P   1     bf  597 -   599          0.000000000000          0.000000000000         -3.369424519878
      0.1501680918D+00  0.1000000000D+01
 Atom C4       Shell   232 P   1     bf  600 -   602          0.000000000000          0.000000000000         -3.369424519878
      0.7668876969D-01  0.1000000000D+01
 Atom C4       Shell   233 P   1     bf  603 -   605          0.000000000000          0.000000000000         -3.369424519878
      0.3916389510D-01  0.1000000000D+01
 Atom C4       Shell   234 D   1     bf  606 -   610          0.000000000000          0.000000000000         -3.369424519878
      0.4772306896D+03  0.1000000000D+01
 Atom C4       Shell   235 D   1     bf  611 -   615          0.000000000000          0.000000000000         -3.369424519878
      0.2437151195D+03  0.1000000000D+01
 Atom C4       Shell   236 D   1     bf  616 -   620          0.000000000000          0.000000000000         -3.369424519878
      0.1244619442D+03  0.1000000000D+01
 Atom C4       Shell   237 D   1     bf  621 -   625          0.000000000000          0.000000000000         -3.369424519878
      0.6356099525D+02  0.1000000000D+01
 Atom C4       Shell   238 D   1     bf  626 -   630          0.000000000000          0.000000000000         -3.369424519878
      0.3245972208D+02  0.1000000000D+01
 Atom C4       Shell   239 D   1     bf  631 -   635          0.000000000000          0.000000000000         -3.369424519878
      0.1657673158D+02  0.1000000000D+01
 Atom C4       Shell   240 D   1     bf  636 -   640          0.000000000000          0.000000000000         -3.369424519878
      0.8465507783D+01  0.1000000000D+01
 Atom C4       Shell   241 D   1     bf  641 -   645          0.000000000000          0.000000000000         -3.369424519878
      0.4323217860D+01  0.1000000000D+01
 Atom C4       Shell   242 D   1     bf  646 -   650          0.000000000000          0.000000000000         -3.369424519878
      0.2207807629D+01  0.1000000000D+01
 Atom C4       Shell   243 D   1     bf  651 -   655          0.000000000000          0.000000000000         -3.369424519878
      0.1127496852D+01  0.1000000000D+01
 Atom C4       Shell   244 D   1     bf  656 -   660          0.000000000000          0.000000000000         -3.369424519878
      0.5757970639D+00  0.1000000000D+01
 Atom C4       Shell   245 D   1     bf  661 -   665          0.000000000000          0.000000000000         -3.369424519878
      0.2940516050D+00  0.1000000000D+01
 Atom C4       Shell   246 D   1     bf  666 -   670          0.000000000000          0.000000000000         -3.369424519878
      0.1501680918D+00  0.1000000000D+01
 Atom C4       Shell   247 D   1     bf  671 -   675          0.000000000000          0.000000000000         -3.369424519878
      0.7668876969D-01  0.1000000000D+01
 Atom C4       Shell   248 D   1     bf  676 -   680          0.000000000000          0.000000000000         -3.369424519878
      0.3916389510D-01  0.1000000000D+01
 Atom H5       Shell   249 S   1     bf  681 -   681          0.000000000000          0.000000000000         -5.381596300740
      0.1373908542D+05  0.1000000000D+01
 Atom H5       Shell   250 S   1     bf  682 -   682          0.000000000000          0.000000000000         -5.381596300740
      0.7016361094D+04  0.1000000000D+01
 Atom H5       Shell   251 S   1     bf  683 -   683          0.000000000000          0.000000000000         -5.381596300740
      0.3583158668D+04  0.1000000000D+01
 Atom H5       Shell   252 S   1     bf  684 -   684          0.000000000000          0.000000000000         -5.381596300740
      0.1829869625D+04  0.1000000000D+01
 Atom H5       Shell   253 S   1     bf  685 -   685          0.000000000000          0.000000000000         -5.381596300740
      0.9344891347D+03  0.1000000000D+01
 Atom H5       Shell   254 S   1     bf  686 -   686          0.000000000000          0.000000000000         -5.381596300740
      0.4772306896D+03  0.1000000000D+01
 Atom H5       Shell   255 S   1     bf  687 -   687          0.000000000000          0.000000000000         -5.381596300740
      0.2437151195D+03  0.1000000000D+01
 Atom H5       Shell   256 S   1     bf  688 -   688          0.000000000000          0.000000000000         -5.381596300740
      0.1244619442D+03  0.1000000000D+01
 Atom H5       Shell   257 S   1     bf  689 -   689          0.000000000000          0.000000000000         -5.381596300740
      0.6356099525D+02  0.1000000000D+01
 Atom H5       Shell   258 S   1     bf  690 -   690          0.000000000000          0.000000000000         -5.381596300740
      0.3245972208D+02  0.1000000000D+01
 Atom H5       Shell   259 S   1     bf  691 -   691          0.000000000000          0.000000000000         -5.381596300740
      0.1657673158D+02  0.1000000000D+01
 Atom H5       Shell   260 S   1     bf  692 -   692          0.000000000000          0.000000000000         -5.381596300740
      0.8465507783D+01  0.1000000000D+01
 Atom H5       Shell   261 S   1     bf  693 -   693          0.000000000000          0.000000000000         -5.381596300740
      0.4323217860D+01  0.1000000000D+01
 Atom H5       Shell   262 S   1     bf  694 -   694          0.000000000000          0.000000000000         -5.381596300740
      0.2207807629D+01  0.1000000000D+01
 Atom H5       Shell   263 S   1     bf  695 -   695          0.000000000000          0.000000000000         -5.381596300740
      0.1127496852D+01  0.1000000000D+01
 Atom H5       Shell   264 S   1     bf  696 -   696          0.000000000000          0.000000000000         -5.381596300740
      0.5757970639D+00  0.1000000000D+01
 Atom H5       Shell   265 S   1     bf  697 -   697          0.000000000000          0.000000000000         -5.381596300740
      0.2940516050D+00  0.1000000000D+01
 Atom H5       Shell   266 S   1     bf  698 -   698          0.000000000000          0.000000000000         -5.381596300740
      0.1501680918D+00  0.1000000000D+01
 Atom H5       Shell   267 S   1     bf  699 -   699          0.000000000000          0.000000000000         -5.381596300740
      0.7668876969D-01  0.1000000000D+01
 Atom H5       Shell   268 S   1     bf  700 -   700          0.000000000000          0.000000000000         -5.381596300740
      0.3916389510D-01  0.1000000000D+01
 Atom H5       Shell   269 P   1     bf  701 -   703          0.000000000000          0.000000000000         -5.381596300740
      0.1373908542D+05  0.1000000000D+01
 Atom H5       Shell   270 P   1     bf  704 -   706          0.000000000000          0.000000000000         -5.381596300740
      0.7016361094D+04  0.1000000000D+01
 Atom H5       Shell   271 P   1     bf  707 -   709          0.000000000000          0.000000000000         -5.381596300740
      0.3583158668D+04  0.1000000000D+01
 Atom H5       Shell   272 P   1     bf  710 -   712          0.000000000000          0.000000000000         -5.381596300740
      0.1829869625D+04  0.1000000000D+01
 Atom H5       Shell   273 P   1     bf  713 -   715          0.000000000000          0.000000000000         -5.381596300740
      0.9344891347D+03  0.1000000000D+01
 Atom H5       Shell   274 P   1     bf  716 -   718          0.000000000000          0.000000000000         -5.381596300740
      0.4772306896D+03  0.1000000000D+01
 Atom H5       Shell   275 P   1     bf  719 -   721          0.000000000000          0.000000000000         -5.381596300740
      0.2437151195D+03  0.1000000000D+01
 Atom H5       Shell   276 P   1     bf  722 -   724          0.000000000000          0.000000000000         -5.381596300740
      0.1244619442D+03  0.1000000000D+01
 Atom H5       Shell   277 P   1     bf  725 -   727          0.000000000000          0.000000000000         -5.381596300740
      0.6356099525D+02  0.1000000000D+01
 Atom H5       Shell   278 P   1     bf  728 -   730          0.000000000000          0.000000000000         -5.381596300740
      0.3245972208D+02  0.1000000000D+01
 Atom H5       Shell   279 P   1     bf  731 -   733          0.000000000000          0.000000000000         -5.381596300740
      0.1657673158D+02  0.1000000000D+01
 Atom H5       Shell   280 P   1     bf  734 -   736          0.000000000000          0.000000000000         -5.381596300740
      0.8465507783D+01  0.1000000000D+01
 Atom H5       Shell   281 P   1     bf  737 -   739          0.000000000000          0.000000000000         -5.381596300740
      0.4323217860D+01  0.1000000000D+01
 Atom H5       Shell   282 P   1     bf  740 -   742          0.000000000000          0.000000000000         -5.381596300740
      0.2207807629D+01  0.1000000000D+01
 Atom H5       Shell   283 P   1     bf  743 -   745          0.000000000000          0.000000000000         -5.381596300740
      0.1127496852D+01  0.1000000000D+01
 Atom H5       Shell   284 P   1     bf  746 -   748          0.000000000000          0.000000000000         -5.381596300740
      0.5757970639D+00  0.1000000000D+01
 Atom H5       Shell   285 P   1     bf  749 -   751          0.000000000000          0.000000000000         -5.381596300740
      0.2940516050D+00  0.1000000000D+01
 Atom H5       Shell   286 P   1     bf  752 -   754          0.000000000000          0.000000000000         -5.381596300740
      0.1501680918D+00  0.1000000000D+01
 Atom H5       Shell   287 P   1     bf  755 -   757          0.000000000000          0.000000000000         -5.381596300740
      0.7668876969D-01  0.1000000000D+01
 Atom H5       Shell   288 P   1     bf  758 -   760          0.000000000000          0.000000000000         -5.381596300740
      0.3916389510D-01  0.1000000000D+01
 There are   408 symmetry adapted cartesian basis functions of A1  symmetry.
 There are    60 symmetry adapted cartesian basis functions of A2  symmetry.
 There are   176 symmetry adapted cartesian basis functions of B1  symmetry.
 There are   176 symmetry adapted cartesian basis functions of B2  symmetry.
 There are   348 symmetry adapted basis functions of A1  symmetry.
 There are    60 symmetry adapted basis functions of A2  symmetry.
 There are   176 symmetry adapted basis functions of B1  symmetry.
 There are   176 symmetry adapted basis functions of B2  symmetry.
   760 basis functions,   820 primitive gaussians,   820 cartesian basis functions
    13 alpha electrons       12 beta electrons
       nuclear repulsion energy        70.4036989275 Hartrees.
 IExCor= 3731 DFT=T Ex+Corr=APFD ExCW=0 ScaHFX=  0.229450
 ScaDFX=  1.000000  1.000000  1.000000  1.000000 ScalE2=  1.000000  1.000000
 IRadAn= 299974 IRanWt=     -1 IRanGd=            0 ICorTp=0 IEmpDi=211
[...]
 Guess basis will be translated and rotated to current coordinates.
 Initial guess <Sx>= 0.0000 <Sy>= 0.0000 <Sz>= 0.5000 <S**2>= 1.7685 S= 0.9207
 Leave Link  401 at Wed Aug 14 02:58:15 2013, MaxMem=  536870912 cpu:      14.0
 (Enter /share/apps/gaussian/gdvh12/gdv/l502.exe)
 UHF open shell SCF:
 Using DIIS extrapolation, IDIIS=  1040.
 Two-electron integral symmetry not used.
      1244543 words used for storage of precomputed grid.
 IVT=     3289739 IEndB=     3289739 NGot=   536870912 MDV=   534271034
 LenX=   534271034 LenY=   533597814
 Requested convergence on RMS density matrix=1.00D-08 within 128 cycles.
 Requested convergence on MAX density matrix=1.00D-06.
 Requested convergence on             energy=1.00D-06.
 No special actions if energy rises.
 Fock matrices will be formed incrementally for  20 cycles.

 Cycle   1  Pass 1  IDiag  1:
 FoFJK:  IHMeth= 1 ICntrl=       0 DoSepK=F KAlg= 0 I1Cent=   0 FoldK=F
 IRaf=       0 NMat=   1 IRICut=       1 DoRegI=T DoRafI=F ISym2E= 0.
 FoFCou: FMM=F IPFlag=           0 FMFlag=      100000 FMFlg1=           0
         NFxFlg=           0 DoJE=F BraDBF=F KetDBF=F FulRan=T
         wScrn=  0.000000 ICntrl=       0 IOpCl=  1 I1Cent=           0 NGrid=           0
         NMat0=    1 NMatS0=      1 NMatT0=    0 NMatD0=    1 NMtDS0=    0 NMtDT0=    0
 Symmetry not used in FoFCou.
 E=  1094186.60262986    
 DIIS: error= 2.31D+00 at cycle   1 NSaved=   1.
 NSaved= 1 IEnMin= 1 EnMin=  1094186.60262986     IErMin= 1 ErrMin= 2.31D+00
 ErrMax= 2.31D+00  0.00D+00 EMaxC= 1.00D-01 BMatC= 1.36D+04 BMatP= 1.36D+04
 IDIUse=3 WtCom= 0.00D+00 WtEn= 1.00D+00
 Coeff-Com:  0.100D+01
 Coeff-En:   0.100D+01
 Coeff:      0.100D+01
 Gap=     8.324 Goal=   None    Shift=    0.000
 Gap=     8.325 Goal=   None    Shift=    0.000
 RMSDP=1.56D-01 MaxDP=2.62D+01              OVMax= 9.91D-01

 Cycle   2  Pass 1  IDiag  1:
 RMSU=  1.28D-03    CP:  6.46D-05
 E= -151.678563129041     Delta-E= -1094338.281192986000 Rises=F Damp=F
 DIIS: error= 4.60D-01 at cycle   2 NSaved=   2.
 NSaved= 2 IEnMin= 2 EnMin= -151.678563129041     IErMin= 2 ErrMin= 4.60D-01
 ErrMax= 4.60D-01  0.00D+00 EMaxC= 1.00D-01 BMatC= 4.41D+01 BMatP= 1.36D+04
 IDIUse=3 WtCom= 0.00D+00 WtEn= 1.00D+00
 Coeff-Com:  0.646D-02 0.994D+00
 Coeff-En:   0.000D+00 0.100D+01
 Coeff:      0.000D+00 0.100D+01
 Gap=     0.211 Goal=   None    Shift=    0.000
 Gap=     0.071 Goal=   None    Shift=    0.000
 RMSDP=9.16D-04 MaxDP=1.42D-01 DE=-1.09D+06 OVMax= 6.09D-01

 Cycle   3  Pass 1  IDiag  1:
 RMSU=  9.15D-04    CP:  7.87D-05  1.02D+00
 E= -151.292576811450     Delta-E=        0.385986317591 Rises=F Damp=F
 DIIS: error= 7.74D-02 at cycle   3 NSaved=   3.
 NSaved= 3 IEnMin= 2 EnMin= -151.678563129041     IErMin= 3 ErrMin= 7.74D-02
 ErrMax= 7.74D-02  0.00D+00 EMaxC= 1.00D-01 BMatC= 6.89D+00 BMatP= 4.41D+01
 IDIUse=3 WtCom= 2.26D-01 WtEn= 7.74D-01
 Coeff-Com:  0.705D-03 0.205D+00 0.795D+00
 Coeff-En:   0.000D+00 0.584D+00 0.416D+00
 Coeff:      0.159D-03 0.498D+00 0.502D+00
 Gap=     0.228 Goal=   None    Shift=    0.000
 Gap=     0.176 Goal=   None    Shift=    0.000
 RMSDP=7.22D-04 MaxDP=1.11D-01 DE= 3.86D-01 OVMax= 5.62D-01

 Cycle   4  Pass 1  IDiag  1:
 RMSU=  2.59D-04    CP:  7.10D-05  1.02D+00  2.64D-01
 E= -152.349977586320     Delta-E=       -1.057400774870 Rises=F Damp=F
 DIIS: error= 5.39D-02 at cycle   4 NSaved=   4.
 NSaved= 4 IEnMin= 4 EnMin= -152.349977586320     IErMin= 4 ErrMin= 5.39D-02
 ErrMax= 5.39D-02  0.00D+00 EMaxC= 1.00D-01 BMatC= 1.33D+00 BMatP= 6.89D+00
 IDIUse=3 WtCom= 4.61D-01 WtEn= 5.39D-01
 Coeff-Com:  0.442D-04 0.362D-01 0.285D+00 0.679D+00
 Coeff-En:   0.000D+00 0.000D+00 0.227D+00 0.773D+00
 Coeff:      0.204D-04 0.167D-01 0.254D+00 0.729D+00
 Gap=     0.212 Goal=   None    Shift=    0.000
 Gap=     0.090 Goal=   None    Shift=    0.000
 DSYEVD returned Info=      420281 IAlg= 4 N=   747 NDim=   747 NE2=      714320 trying DSYEV.
 RMSDP=3.76D-04 MaxDP=3.85D-02 DE=-1.06D+00 OVMax= 4.12D-01

 Cycle   5  Pass 1  IDiag  1:
 RMSU=  2.17D-04    CP:  7.19D-05  1.00D+00  4.65D-01  5.14D-02
 E= -152.484335504130     Delta-E=       -0.134357917810 Rises=F Damp=F
 DIIS: error= 4.74D-02 at cycle   5 NSaved=   5.
 NSaved= 5 IEnMin= 5 EnMin= -152.484335504130     IErMin= 5 ErrMin= 4.74D-02
 ErrMax= 4.74D-02  0.00D+00 EMaxC= 1.00D-01 BMatC= 7.60D-01 BMatP= 1.33D+00
 IDIUse=3 WtCom= 5.26D-01 WtEn= 4.74D-01
 Coeff-Com:  0.383D-05 0.981D-02 0.926D-01 0.454D+00 0.443D+00
 Coeff-En:   0.000D+00 0.000D+00 0.000D+00 0.402D+00 0.598D+00
 Coeff:      0.202D-05 0.516D-02 0.487D-01 0.430D+00 0.517D+00
 Gap=     0.232 Goal=   None    Shift=    0.000
 Gap=     0.098 Goal=   None    Shift=    0.000
 DSYEVD returned Info=      280499 IAlg= 4 N=   747 NDim=   747 NE2=      714320 trying DSYEV.
 RMSDP=2.41D-04 MaxDP=3.52D-02 DE=-1.34D-01 OVMax= 2.98D-01

 Cycle   6  Pass 1  IDiag  1:
 RMSU=  1.11D-04    CP:  7.20D-05  1.00D+00  4.38D-01  6.01D-01  2.69D-01
 E= -152.662086104961     Delta-E=       -0.177750600831 Rises=F Damp=F
 DIIS: error= 1.53D-02 at cycle   6 NSaved=   6.
 NSaved= 6 IEnMin= 6 EnMin= -152.662086104961     IErMin= 6 ErrMin= 1.53D-02
 ErrMax= 1.53D-02  0.00D+00 EMaxC= 1.00D-01 BMatC= 8.96D-02 BMatP= 7.60D-01
 IDIUse=3 WtCom= 8.47D-01 WtEn= 1.53D-01
 Coeff-Com:  0.545D-06 0.837D-03-0.941D-02 0.168D+00 0.301D+00 0.540D+00
 Coeff-En:   0.000D+00 0.000D+00 0.000D+00 0.000D+00 0.744D-01 0.926D+00
 Coeff:      0.462D-06 0.709D-03-0.798D-02 0.142D+00 0.267D+00 0.599D+00
 Gap=     0.230 Goal=   None    Shift=    0.000
 Gap=     0.086 Goal=   None    Shift=    0.000
 RMSDP=1.13D-04 MaxDP=9.27D-03 DE=-1.78D-01 OVMax= 1.57D-01

 Cycle   7  Pass 1  IDiag  1:
 RMSU=  5.36D-05    CP:  7.22D-05  1.02D+00  4.00D-01  5.17D-01  4.94D-01
                    CP:  3.33D-01
 E= -152.680434143216     Delta-E=       -0.018348038255 Rises=F Damp=F
 DIIS: error= 8.38D-03 at cycle   7 NSaved=   7.
 NSaved= 7 IEnMin= 7 EnMin= -152.680434143216     IErMin= 7 ErrMin= 8.38D-03
 ErrMax= 8.38D-03  0.00D+00 EMaxC= 1.00D-01 BMatC= 1.97D-02 BMatP= 8.96D-02
 IDIUse=3 WtCom= 9.16D-01 WtEn= 8.38D-02
 Coeff-Com:  0.379D-06 0.239D-03-0.105D-01 0.729D-01 0.151D+00 0.402D+00
 Coeff-Com:  0.384D+00
 Coeff-En:   0.000D+00 0.000D+00 0.000D+00 0.000D+00 0.000D+00 0.225D+00
 Coeff-En:   0.775D+00
 Coeff:      0.347D-06 0.219D-03-0.958D-02 0.668D-01 0.139D+00 0.387D+00
 Coeff:      0.417D+00
 Gap=     0.219 Goal=   None    Shift=    0.000
 Gap=     0.083 Goal=   None    Shift=    0.000
 RMSDP=4.67D-05 MaxDP=4.10D-03 DE=-1.83D-02 OVMax= 5.36D-02

 Cycle   8  Pass 1  IDiag  1:
 RMSU=  2.21D-05    CP:  7.20D-05  1.01D+00  4.05D-01  5.16D-01  4.58D-01
                    CP:  5.47D-01  4.05D-01
 E= -152.686379703205     Delta-E=       -0.005945559989 Rises=F Damp=F
 DIIS: error= 2.29D-03 at cycle   8 NSaved=   8.
 NSaved= 8 IEnMin= 8 EnMin= -152.686379703205     IErMin= 8 ErrMin= 2.29D-03
 ErrMax= 2.29D-03  0.00D+00 EMaxC= 1.00D-01 BMatC= 2.01D-03 BMatP= 1.97D-02
 IDIUse=3 WtCom= 9.77D-01 WtEn= 2.29D-02
 Coeff-Com:  0.124D-06 0.258D-04-0.172D-02-0.335D-02 0.169D-02 0.975D-01
 Coeff-Com:  0.287D+00 0.619D+00
 Coeff-En:   0.000D+00 0.000D+00 0.000D+00 0.000D+00 0.000D+00 0.000D+00
 Coeff-En:   0.898D-01 0.910D+00
 Coeff:      0.121D-06 0.252D-04-0.168D-02-0.327D-02 0.165D-02 0.953D-01
 Coeff:      0.282D+00 0.626D+00
 Gap=     0.216 Goal=   None    Shift=    0.000
 DSYEVD returned Info=        1121 IAlg= 4 N=   747 NDim=   747 NE2=      714320 trying DSYEV.
 Gap=     0.082 Goal=   None    Shift=    0.000
 RMSDP=1.60D-05 MaxDP=2.04D-03 DE=-5.95D-03 OVMax= 1.40D-02

 Cycle   9  Pass 1  IDiag  1:
 RMSU=  9.19D-06    CP:  7.18D-05  1.01D+00  4.00D-01  5.14D-01  4.46D-01
                    CP:  5.49D-01  5.51D-01  6.15D-01
 E= -152.687002098373     Delta-E=       -0.000622395168 Rises=F Damp=F
 DIIS: error= 2.94D-04 at cycle   9 NSaved=   9.
 NSaved= 9 IEnMin= 9 EnMin= -152.687002098373     IErMin= 9 ErrMin= 2.94D-04
 ErrMax= 2.94D-04  0.00D+00 EMaxC= 1.00D-01 BMatC= 3.03D-05 BMatP= 2.01D-03
 IDIUse=3 WtCom= 9.97D-01 WtEn= 2.94D-03
 Coeff-Com: -0.373D-07-0.181D-04 0.761D-03-0.423D-02-0.802D-02-0.169D-02
 Coeff-Com:  0.318D-01 0.145D+00 0.837D+00
 Coeff-En:   0.000D+00 0.000D+00 0.000D+00 0.000D+00 0.000D+00 0.000D+00
 Coeff-En:   0.000D+00 0.000D+00 0.100D+01
 Coeff:     -0.371D-07-0.180D-04 0.759D-03-0.422D-02-0.799D-02-0.169D-02
 Coeff:      0.317D-01 0.144D+00 0.837D+00
 Gap=     0.217 Goal=   None    Shift=    0.000
 Gap=     0.083 Goal=   None    Shift=    0.000
 RMSDP=3.88D-06 MaxDP=5.78D-04 DE=-6.22D-04 OVMax= 3.61D-03

 Cycle  10  Pass 1  IDiag  1:
 RMSU=  3.11D-06    CP:  7.19D-05  1.01D+00  4.01D-01  5.14D-01  4.44D-01
                    CP:  5.43D-01  5.57D-01  6.70D-01  1.07D+00
 E= -152.687021724507     Delta-E=       -0.000019626133 Rises=F Damp=F
 DIIS: error= 1.34D-04 at cycle  10 NSaved=  10.
 NSaved=10 IEnMin=10 EnMin= -152.687021724507     IErMin=10 ErrMin= 1.34D-04
 ErrMax= 1.34D-04  0.00D+00 EMaxC= 1.00D-01 BMatC= 5.20D-06 BMatP= 3.03D-05
 IDIUse=3 WtCom= 9.99D-01 WtEn= 1.34D-03
 Coeff-Com:  0.616D-08-0.808D-05-0.966D-05-0.252D-03-0.131D-02-0.124D-01
 Coeff-Com: -0.438D-01-0.100D+00-0.113D+00 0.127D+01
 Coeff-En:   0.000D+00 0.000D+00 0.000D+00 0.000D+00 0.000D+00 0.000D+00
 Coeff-En:   0.000D+00 0.000D+00 0.000D+00 0.100D+01
 Coeff:      0.615D-08-0.807D-05-0.965D-05-0.251D-03-0.131D-02-0.124D-01
 Coeff:     -0.438D-01-0.100D+00-0.113D+00 0.127D+01
 Gap=     0.217 Goal=   None    Shift=    0.000
 Gap=     0.083 Goal=   None    Shift=    0.000
 RMSDP=3.22D-06 MaxDP=5.53D-04 DE=-1.96D-05 OVMax= 3.07D-03

 Cycle  11  Pass 1  IDiag  1:
 RMSU=  1.02D-06    CP:  7.19D-05  1.01D+00  4.01D-01  5.13D-01  4.41D-01
                    CP:  5.44D-01  5.61D-01  6.87D-01  1.25D+00  1.78D+00
 E= -152.687030006557     Delta-E=       -0.000008282050 Rises=F Damp=F
 DIIS: error= 4.89D-05 at cycle  11 NSaved=  11.
 NSaved=11 IEnMin=11 EnMin= -152.687030006557     IErMin=11 ErrMin= 4.89D-05
 ErrMax= 4.89D-05  0.00D+00 EMaxC= 1.00D-01 BMatC= 9.99D-07 BMatP= 5.20D-06
 IDIUse=1 WtCom= 1.00D+00 WtEn= 0.00D+00
 Coeff-Com: -0.121D-08-0.949D-06-0.104D-03 0.115D-03 0.845D-03 0.297D-02
 Coeff-Com:  0.500D-02-0.114D-01-0.168D+00-0.196D+00 0.137D+01
 Coeff:     -0.121D-08-0.949D-06-0.104D-03 0.115D-03 0.845D-03 0.297D-02
 Coeff:      0.500D-02-0.114D-01-0.168D+00-0.196D+00 0.137D+01
 Gap=     0.217 Goal=   None    Shift=    0.000
 Gap=     0.083 Goal=   None    Shift=    0.000
 RMSDP=1.99D-06 MaxDP=3.20D-04 DE=-8.28D-06 OVMax= 1.88D-03

 Cycle  12  Pass 1  IDiag  1:
 RMSU=  4.97D-07    CP:  7.19D-05  1.01D+00  4.01D-01  5.13D-01  4.40D-01
                    CP:  5.43D-01  5.65D-01  6.96D-01  1.35D+00  2.25D+00
                    CP:  1.62D+00
 E= -152.687031979141     Delta-E=       -0.000001972584 Rises=F Damp=F
 DIIS: error= 2.67D-05 at cycle  12 NSaved=  12.
 NSaved=12 IEnMin=12 EnMin= -152.687031979141     IErMin=12 ErrMin= 2.67D-05
 ErrMax= 2.67D-05  0.00D+00 EMaxC= 1.00D-01 BMatC= 1.33D-07 BMatP= 9.99D-07
 IDIUse=1 WtCom= 1.00D+00 WtEn= 0.00D+00
 Coeff-Com: -0.508D-09 0.177D-05 0.495D-04-0.499D-04-0.394D-03 0.504D-03
 Coeff-Com:  0.298D-02 0.189D-01 0.912D-01-0.676D-01-0.568D+00 0.152D+01
 Coeff:     -0.508D-09 0.177D-05 0.495D-04-0.499D-04-0.394D-03 0.504D-03
 Coeff:      0.298D-02 0.189D-01 0.912D-01-0.676D-01-0.568D+00 0.152D+01
 Gap=     0.217 Goal=   None    Shift=    0.000
 Gap=     0.083 Goal=   None    Shift=    0.000
 RMSDP=6.93D-07 MaxDP=9.95D-05 DE=-1.97D-06 OVMax= 6.71D-04

 Cycle  13  Pass 1  IDiag  1:
 RMSU=  2.05D-07    CP:  7.19D-05  1.01D+00  4.01D-01  5.13D-01  4.40D-01
                    CP:  5.42D-01  5.65D-01  7.00D-01  1.37D+00  2.38D+00
                    CP:  1.93D+00  1.73D+00
 E= -152.687032287478     Delta-E=       -0.000000308338 Rises=F Damp=F
 DIIS: error= 9.74D-06 at cycle  13 NSaved=  13.
 NSaved=13 IEnMin=13 EnMin= -152.687032287478     IErMin=13 ErrMin= 9.74D-06
 ErrMax= 9.74D-06  0.00D+00 EMaxC= 1.00D-01 BMatC= 2.49D-08 BMatP= 1.33D-07
 IDIUse=1 WtCom= 1.00D+00 WtEn= 0.00D+00
 Coeff-Com: -0.115D-09-0.502D-06 0.428D-05-0.163D-05-0.183D-04-0.810D-03
 Coeff-Com: -0.183D-02-0.418D-02 0.104D-01 0.627D-01-0.145D+00-0.466D+00
 Coeff-Com:  0.154D+01
 Coeff:     -0.115D-09-0.502D-06 0.428D-05-0.163D-05-0.183D-04-0.810D-03
 Coeff:     -0.183D-02-0.418D-02 0.104D-01 0.627D-01-0.145D+00-0.466D+00
 Coeff:      0.154D+01
 Gap=     0.217 Goal=   None    Shift=    0.000
 Gap=     0.083 Goal=   None    Shift=    0.000
 RMSDP=4.12D-07 MaxDP=5.23D-05 DE=-3.08D-07 OVMax= 5.10D-04

 Cycle  14  Pass 1  IDiag  1:
 RMSU=  6.83D-08    CP:  7.19D-05  1.01D+00  4.01D-01  5.13D-01  4.40D-01
                    CP:  5.42D-01  5.65D-01  7.01D-01  1.39D+00  2.43D+00
                    CP:  2.09D+00  2.19D+00  1.85D+00
 E= -152.687032363277     Delta-E=       -0.000000075799 Rises=F Damp=F
 DIIS: error= 2.80D-06 at cycle  14 NSaved=  14.
 NSaved=14 IEnMin=14 EnMin= -152.687032363277     IErMin=14 ErrMin= 2.80D-06
 ErrMax= 2.80D-06  0.00D+00 EMaxC= 1.00D-01 BMatC= 3.27D-09 BMatP= 2.49D-08
 IDIUse=1 WtCom= 1.00D+00 WtEn= 0.00D+00
 Coeff-Com:  0.149D-09 0.449D-07-0.618D-05 0.160D-05 0.496D-04 0.125D-03
 Coeff-Com:  0.322D-03-0.451D-04-0.153D-01-0.209D-01 0.132D+00 0.362D-01
 Coeff-Com: -0.747D+00 0.161D+01
 Coeff:      0.149D-09 0.449D-07-0.618D-05 0.160D-05 0.496D-04 0.125D-03
 Coeff:      0.322D-03-0.451D-04-0.153D-01-0.209D-01 0.132D+00 0.362D-01
 Coeff:     -0.747D+00 0.161D+01
 Gap=     0.217 Goal=   None    Shift=    0.000
 Gap=     0.083 Goal=   None    Shift=    0.000
 RMSDP=1.29D-07 MaxDP=1.51D-05 DE=-7.58D-08 OVMax= 1.61D-04

 Cycle  15  Pass 1  IDiag  1:
 RMSU=  2.58D-08    CP:  7.19D-05  1.01D+00  4.01D-01  5.13D-01  4.40D-01
                    CP:  5.42D-01  5.65D-01  7.01D-01  1.39D+00  2.45D+00
                    CP:  2.12D+00  2.30D+00  2.21D+00  1.78D+00
 E= -152.687032371175     Delta-E=       -0.000000007898 Rises=F Damp=F
 DIIS: error= 1.15D-06 at cycle  15 NSaved=  15.
 NSaved=15 IEnMin=15 EnMin= -152.687032371175     IErMin=15 ErrMin= 1.15D-06
 ErrMax= 1.15D-06  0.00D+00 EMaxC= 1.00D-01 BMatC= 3.63D-10 BMatP= 3.27D-09
 IDIUse=1 WtCom= 1.00D+00 WtEn= 0.00D+00
 Coeff-Com: -0.289D-10 0.755D-07 0.176D-05 0.471D-05-0.660D-05 0.436D-04
 Coeff-Com:  0.189D-03 0.525D-03 0.323D-02-0.139D-02-0.189D-01 0.543D-01
 Coeff-Com: -0.192D-02-0.414D+00 0.138D+01
 Coeff:     -0.289D-10 0.755D-07 0.176D-05 0.471D-05-0.660D-05 0.436D-04
 Coeff:      0.189D-03 0.525D-03 0.323D-02-0.139D-02-0.189D-01 0.543D-01
 Coeff:     -0.192D-02-0.414D+00 0.138D+01
 Gap=     0.217 Goal=   None    Shift=    0.000
 Gap=     0.083 Goal=   None    Shift=    0.000
 RMSDP=3.01D-08 MaxDP=3.73D-06 DE=-7.90D-09 OVMax= 3.77D-05

 Cycle  16  Pass 1  IDiag  1:
 RMSU=  7.17D-09    CP:  7.19D-05  1.01D+00  4.01D-01  5.13D-01  4.40D-01
                    CP:  5.42D-01  5.65D-01  7.01D-01  1.39D+00  2.45D+00
                    CP:  2.13D+00  2.33D+00  2.27D+00  2.04D+00  1.48D+00
 E= -152.687032371706     Delta-E=       -0.000000000531 Rises=F Damp=F
 DIIS: error= 2.14D-07 at cycle  16 NSaved=  16.
 NSaved=16 IEnMin=16 EnMin= -152.687032371706     IErMin=16 ErrMin= 2.14D-07
 ErrMax= 2.14D-07  0.00D+00 EMaxC= 1.00D-01 BMatC= 1.64D-11 BMatP= 3.63D-10
 IDIUse=1 WtCom= 1.00D+00 WtEn= 0.00D+00
 Coeff-Com:  0.171D-10-0.197D-07-0.182D-06-0.693D-06-0.154D-05-0.142D-04
 Coeff-Com: -0.558D-04-0.432D-04 0.858D-03 0.152D-02-0.760D-02-0.983D-02
 Coeff-Com:  0.621D-01-0.853D-01-0.135D+00 0.117D+01
 Coeff:      0.171D-10-0.197D-07-0.182D-06-0.693D-06-0.154D-05-0.142D-04
 Coeff:     -0.558D-04-0.432D-04 0.858D-03 0.152D-02-0.760D-02-0.983D-02
 Coeff:      0.621D-01-0.853D-01-0.135D+00 0.117D+01
 Gap=     0.217 Goal=   None    Shift=    0.000
 Gap=     0.083 Goal=   None    Shift=    0.000
 RMSDP=5.76D-09 MaxDP=6.78D-07 DE=-5.31D-10 OVMax= 4.21D-06

 SCF Done:  E(UAPFD) =  -152.687032372     A.U. after   16 cycles
            NFock= 16  Conv=0.58D-08     -V/T= 2.0043
 <Sx>= 0.0000 <Sy>= 0.0000 <Sz>= 0.5000 <S**2>= 0.7689 S= 0.5094
 <L.S>= 0.000000000000E+00
 KE= 1.520323891489D+02 PE=-4.950992047845D+02 EE= 1.199147475619D+02
 Annihilation of the first spin contaminant:
 S**2 before annihilation     0.7689,   after     0.7501
 Leave Link  502 at Wed Aug 14 11:38:20 2013, MaxMem=  536870912 cpu:   62372.5
 (Enter /share/apps/gaussian/gdvh12/gdv/l801.exe)
 DoSCS=F DFT=T ScalE2(SS,OS)=  1.000000  1.000000
 Range of M.O.s used for correlation:     1   747
 NBasis=   760 NAE=    13 NBE=    12 NFC=     0 NFV=     0
 NROrb=    747 NOA=    13 NOB=    12 NVA=   734 NVB=   735

 **** Warning!!: The largest alpha MO coefficient is  0.28534508D+03


 **** Warning!!: The largest beta MO coefficient is  0.28533980D+03


 **** Warning!!: The smallest beta delta epsilon is  0.82780951D-01

 Leave Link  801 at Wed Aug 14 11:38:21 2013, MaxMem=  536870912 cpu:       0.8
 (Enter /share/apps/gaussian/gdvh12/gdv/l1101.exe)
 Using compressed storage, NAtomX=     5.
 Will process      6 centers per pass.
 R6Disp: Adding Petersson-Frisch dispersion energy 1st derivatives to the gradient.
 Leave Link 1101 at Wed Aug 14 11:38:23 2013, MaxMem=  536870912 cpu:       4.8
 (Enter /share/apps/gaussian/gdvh12/gdv/l1102.exe)
 Symmetrizing basis deriv contribution to polar:
 IMax=3 JMax=2 DiffMx= 0.00D+00
 Leave Link 1102 at Wed Aug 14 11:38:24 2013, MaxMem=  536870912 cpu:       0.8
 (Enter /share/apps/gaussian/gdvh12/gdv/l1110.exe)
 Forming Gx(P) for the SCF density, NAtomX=     5.
 Integral derivatives from FoFJK, PRISM(SPDF).
 Do as many integral derivatives as possible in FoFJK.
 G2DrvN: MDV=     536870768.
 G2DrvN: will do     6 centers at a time, making    1 passes.
 Calling FoFCou, ICntrl=  3107 FMM=F I1Cent=   0 AccDes= 1.00D-12.
 FoFJK:  IHMeth= 1 ICntrl=    3107 DoSepK=F KAlg= 0 I1Cent=   0 FoldK=F
 IRaf=       0 NMat=   1 IRICut=       1 DoRegI=T DoRafI=F ISym2E= 0.
 FoFCou: FMM=F IPFlag=           0 FMFlag=      100000 FMFlg1=           0
         NFxFlg=           0 DoJE=F BraDBF=F KetDBF=F FulRan=T
         wScrn=  0.000000 ICntrl=    3107 IOpCl=  1 I1Cent=           0 NGrid=           0
         NMat0=    1 NMatS0=      1 NMatT0=    0 NMatD0=    1 NMtDS0=    0 NMtDT0=    0
 Symmetry not used in FoFCou.
 End of G2Drv F.D. properties file   721 does not exist.
 End of G2Drv F.D. properties file   722 does not exist.
 Leave Link 1110 at Wed Aug 14 16:02:24 2013, MaxMem=  536870912 cpu:   31664.3
 (Enter /share/apps/gaussian/gdvh12/gdv/l1002.exe)
 Minotr:  UHF open shell wavefunction.
          IDoAtm=11111
          Direct CPHF calculation.
          Differentiating once with respect to electric field.
                with respect to dipole field.
          Differentiating once with respect to nuclear coordinates.
          Requested convergence is 1.0D-08 RMS, and 1.0D-07 maximum.
          Secondary convergence is 1.0D-12 RMS, and 1.0D-12 maximum.
          NewPWx=T KeepS1=F KeepF1=F KeepIn=T MapXYZ=F SortEE=F KeepMc=T.
          MDV=     536869364 using IRadAn=  199590.
 Generate precomputed XC quadrature information.
          Solving linear equations simultaneously, MaxMat=       0.
 FoFJK:  IHMeth= 1 ICntrl=       0 DoSepK=F KAlg= 0 I1Cent=   0 FoldK=F
 IRaf=       0 NMat=  18 IRICut=       1 DoRegI=T DoRafI=F ISym2E= 0.
 FoFCou: FMM=F IPFlag=           0 FMFlag=      100000 FMFlg1=           0
         NFxFlg=           0 DoJE=F BraDBF=F KetDBF=F FulRan=T
         wScrn=  0.000000 ICntrl=       0 IOpCl=  1 I1Cent=           0 NGrid=           0
         NMat0=   18 NMatS0=     18 NMatT0=    0 NMatD0=   18 NMtDS0=    0 NMtDT0=    0
 Symmetry not used in FoFCou.
          There are    18 degrees of freedom in the 1st order CPHF.  IDoFFX=6 NUNeed=     3.
     15 vectors produced by pass  0 Test12= 1.02D-13 5.56D-09 XBig12= 3.80D+02 1.00D+01.
 AX will form    15 AO Fock derivatives at one time.
     15 vectors produced by pass  1 Test12= 1.02D-13 5.56D-09 XBig12= 1.69D+02 2.85D+00.
     15 vectors produced by pass  2 Test12= 1.02D-13 5.56D-09 XBig12= 6.51D+00 5.39D-01.
