 Entering Gaussian System, Link 0=gdv
 Initial command:
 /share/apps/gaussian/gdvh12/gdv/l1.exe /localscratch/12780/Gau-13501.inp -scrdir=/localscratch/12780/
 Entering Link 1 = /share/apps/gaussian/gdvh12/gdv/l1.exe PID=     13502.
  
 Copyright (c) 1988,1990,1992,1993,1995,1998,2003,2009,2011,
            Gaussian, Inc.  All Rights Reserved.
  
 This is the private, development version of
 the Gaussian(R) DV system of programs. It is based on
 the Gaussian(R) 09 system (copyright 2009, Gaussian, Inc.),
 the Gaussian(R) 03 system (copyright 2003, Gaussian, Inc.),
 the Gaussian(R) 98 system (copyright 1998, Gaussian, Inc.),
 the Gaussian(R) 94 system (copyright 1995, Gaussian, Inc.),
 the Gaussian 92(TM) system (copyright 1992, Gaussian, Inc.),
 the Gaussian 90(TM) system (copyright 1990, Gaussian, Inc.),
 the Gaussian 88(TM) system (copyright 1988, Gaussian, Inc.),
 the Gaussian 86(TM) system (copyright 1986, Carnegie Mellon
 University), and the Gaussian 82(TM) system (copyright 1983,
 Carnegie Mellon University). Gaussian is a federally registered
 trademark of Gaussian, Inc.
  
 This software contains proprietary and confidential information,
 including trade secrets, belonging to Gaussian, Inc.
  
 This software is provided under written license and may be
 used, copied, transmitted, or stored only in accord with that
 written license.
  
 The following legend is applicable only to US Government
 contracts under FAR:
  
                    RESTRICTED RIGHTS LEGEND
  
 Use, reproduction and disclosure by the US Government is
 subject to restrictions as set forth in subparagraphs (a)
 and (c) of the Commercial Computer Software - Restricted
 Rights clause in FAR 52.227-19.
  
 Gaussian, Inc.
 340 Quinnipiac St., Bldg. 40, Wallingford CT 06492
  
  
 ---------------------------------------------------------------
 Warning -- This program may not be used in any manner that
 competes with the business of Gaussian, Inc. or will provide
 assistance to any competitor of Gaussian, Inc.  The licensee
 of this program is prohibited from giving any competitor of
 Gaussian, Inc. access to this program.  By using this program,
 the user acknowledges that Gaussian, Inc. is engaged in the
 business of creating and licensing software in the field of
 computational chemistry and represents and warrants to the
 licensee that it is not a competitor of Gaussian, Inc. and that
 it will not use this program in any manner prohibited above.
 ---------------------------------------------------------------
  

 Cite this work as:
 Gaussian Development Version, Revision H.12,
 M. J. Frisch, G. W. Trucks, H. B. Schlegel, G. E. Scuseria, 
 M. A. Robb, J. R. Cheeseman, G. Scalmani, V. Barone, B. Mennucci, 
 G. A. Petersson, H. Nakatsuji, M. Caricato, X. Li, H. P. Hratchian, 
 A. F. Izmaylov, J. Bloino, G. Zheng, J. L. Sonnenberg, M. Hada, 
 M. Ehara, K. Toyota, R. Fukuda, J. Hasegawa, M. Ishida, T. Nakajima, 
 Y. Honda, O. Kitao, H. Nakai, T. Vreven, J. A. Montgomery, Jr., 
 J. E. Peralta, F. Ogliaro, M. Bearpark, J. J. Heyd, E. Brothers, 
 K. N. Kudin, V. N. Staroverov, T. Keith, R. Kobayashi, J. Normand, 
 K. Raghavachari, A. Rendell, J. C. Burant, S. S. Iyengar, J. Tomasi, 
 M. Cossi, N. Rega, J. M. Millam, M. Klene, J. E. Knox, J. B. Cross, 
 V. Bakken, C. Adamo, J. Jaramillo, R. Gomperts, R. E. Stratmann, 
 O. Yazyev, A. J. Austin, R. Cammi, C. Pomelli, J. W. Ochterski, 
 R. L. Martin, K. Morokuma, V. G. Zakrzewski, G. A. Voth, 
 P. Salvador, J. J. Dannenberg, S. Dapprich, P. V. Parandekar, 
 N. J. Mayhall, A. D. Daniels, O. Farkas, J. B. Foresman, 
 J. V. Ortiz, J. Cioslowski, and D. J. Fox, 
 Gaussian, Inc., Wallingford CT, 2010.
 
 ******************************************
 Gaussian DV:  EM64L-GDVRevH.12  9-Jun-2011
                27-Jul-2013 
 ******************************************
 %chk=CCCl.chk
 %mem=4gb
 %nproc=2
 Will use up to    2 processors via shared memory.
 ----------------------------------------------------------------------
 #p apfd/ugbs1p opt=tight freq=(vibrot,anharm) int=(acc2e=12,grid=29997
 4) test gfprint gfinput output=pickett
 ----------------------------------------------------------------------
 1/7=10,14=-1,18=20,19=15,26=1,38=1,80=1/1,3;
 2/9=110,12=2,17=6,18=5,40=1/2;
 3/5=23,7=7,11=2,16=1,24=110,25=1,30=1,71=1,74=-44,75=299974/1,2,3;
 4//1;
 5/5=2,38=5,87=12/2;
 6/7=2,8=2,9=2,10=2,28=1/1;
 7/87=12/1,2,3,16;
 1/7=10,14=-1,18=20,19=15,80=1/3(2);
 2/9=110/2;
 99/8=1100,10=1024/99;
 2/9=110/2;
 3/5=23,7=7,11=2,16=1,25=1,30=1,71=1,74=-44,75=299974/1,2,3;
 4/5=5,16=3,69=1/1;
 5/5=2,38=5,87=12/2;
 7/87=12/1,2,3,16;
 1/7=10,14=-1,18=20,19=15,80=1/3(-5);
 2/9=110/2;
 6/7=2,8=2,9=2,10=2,19=2,28=1/1;
 99/8=1100,9=1,10=1024/99;
 Leave Link    1 at Sat Jul 27 10:04:56 2013, MaxMem=  536870912 cpu:       0.2
 (Enter /share/apps/gaussian/gdvh12/gdv/l101.exe)
 --------------------------------------
 CCCl pre-optimized at apfd/aug-cc-pVTZ
 --------------------------------------
 Charge =  0 Multiplicity = 2
 Symbolic Z-Matrix:
 C                    -0.17947   0.        0. 
 C                     1.02225   0.        0. 
 Cl                    2.65722   0.        0. 
 
 NAtoms=      3 NQM=        0 NQMF=       0 NMMI=      3 NMMIF=      0
                NMic=       0 NMicF=      0.
                    Isotopes and Nuclear Properties:
 (Nuclear quadrupole moments (NQMom) in fm**2, nuclear magnetic moments (NMagM)
  in nuclear magnetons)

  Atom         1           2           3
 IAtWgt=          12          12          35
 AtmWgt=  12.0000000  12.0000000  34.9688527
 NucSpn=           0           0           3
 AtZEff=   0.0000000   0.0000000   0.0000000
 NQMom=    0.0000000   0.0000000  -8.1650000
 NMagM=    0.0000000   0.0000000   0.8218740
 AtZNuc=   6.0000000   6.0000000  17.0000000
 Leave Link  101 at Sat Jul 27 10:04:56 2013, MaxMem=  536870912 cpu:       0.6
 (Enter /share/apps/gaussian/gdvh12/gdv/l103.exe)

 GradGradGradGradGradGradGradGradGradGradGradGradGradGradGradGradGradGrad
 Berny optimization.
 Initialization pass.
                           ----------------------------
                           !    Initial Parameters    !
                           ! (Angstroms and Degrees)  !
 --------------------------                            --------------------------
 ! Name  Definition              Value          Derivative Info.                !
 --------------------------------------------------------------------------------
 ! R1    R(1,2)                  1.2017         estimate D2E/DX2                !
 ! R2    R(2,3)                  1.635          estimate D2E/DX2                !
 ! A1    L(1,2,3,-2,-1)        180.0            estimate D2E/DX2                !
 ! A2    L(1,2,3,-3,-2)        180.0            estimate D2E/DX2                !
 --------------------------------------------------------------------------------
 Trust Radius=3.00D-01 FncErr=1.00D-07 GrdErr=1.00D-07
 Number of steps in this run=     20 maximum allowed number of steps=    100.
 GradGradGradGradGradGradGradGradGradGradGradGradGradGradGradGradGradGrad

 Leave Link  103 at Sat Jul 27 10:04:57 2013, MaxMem=  536870912 cpu:       0.0
 (Enter /share/apps/gaussian/gdvh12/gdv/l202.exe)
                          Input orientation:                          
 ---------------------------------------------------------------------
 Center     Atomic      Atomic             Coordinates (Angstroms)
 Number     Number       Type             X           Y           Z
 ---------------------------------------------------------------------
      1          6           0       -0.179469    0.000000    0.000000
      2          6           0        1.022248    0.000000    0.000000
      3         17           0        2.657221    0.000000    0.000000
 ---------------------------------------------------------------------
                    Distance matrix (angstroms):
                    1          2          3
     1  C    0.000000
     2  C    1.201716   0.000000
     3  Cl   2.836689   1.634973   0.000000
 Stoichiometry    C2Cl(2)
 Framework group  C*V[C*(CCCl)]
 Deg. of freedom     2
 Full point group                 C*V     NOp   4
 Largest Abelian subgroup         C2V     NOp   4
 Largest concise Abelian subgroup C1      NOp   1
                         Standard orientation:                         
 ---------------------------------------------------------------------
 Center     Atomic      Atomic             Coordinates (Angstroms)
 Number     Number       Type             X           Y           Z
 ---------------------------------------------------------------------
      1          6           0        0.000000    0.000000   -1.911518
      2          6           0        0.000000    0.000000   -0.709801
      3         17           0        0.000000    0.000000    0.925171
 ---------------------------------------------------------------------
 Rotational constants (GHZ):      0.0000000      6.3322522      6.3322522
 Leave Link  202 at Sat Jul 27 10:04:57 2013, MaxMem=  536870912 cpu:       0.0
 (Enter /share/apps/gaussian/gdvh12/gdv/l301.exe)
 Standard basis: UGBS1P (5D, 7F)
 Ernie: Thresh=  0.10000D-02 Tol=  0.10000D-05 Strict=F.
 AO basis set in the form of general basis input (Overlap normalization):
      1 0
 S   1 1.00       0.000000000000
      0.2019953588D+06  0.1000000000D+01
 S   1 1.00       0.000000000000
      0.1031562389D+06  0.1000000000D+01
 S   1 1.00       0.000000000000
      0.5268046591D+05  0.1000000000D+01
 S   1 1.00       0.000000000000
      0.2690318607D+05  0.1000000000D+01
 S   1 1.00       0.000000000000
      0.1373908542D+05  0.1000000000D+01
 S   1 1.00       0.000000000000
      0.7016361094D+04  0.1000000000D+01
 S   1 1.00       0.000000000000
      0.3583158668D+04  0.1000000000D+01
 S   1 1.00       0.000000000000
      0.1829869625D+04  0.1000000000D+01
 S   1 1.00       0.000000000000
      0.9344891347D+03  0.1000000000D+01
 S   1 1.00       0.000000000000
      0.4772306896D+03  0.1000000000D+01
 S   1 1.00       0.000000000000
      0.2437151195D+03  0.1000000000D+01
 S   1 1.00       0.000000000000
      0.1244619442D+03  0.1000000000D+01
 S   1 1.00       0.000000000000
      0.6356099525D+02  0.1000000000D+01
 S   1 1.00       0.000000000000
      0.3245972208D+02  0.1000000000D+01
 S   1 1.00       0.000000000000
      0.1657673158D+02  0.1000000000D+01
 S   1 1.00       0.000000000000
      0.8465507783D+01  0.1000000000D+01
 S   1 1.00       0.000000000000
      0.4323217860D+01  0.1000000000D+01
 S   1 1.00       0.000000000000
      0.2207807629D+01  0.1000000000D+01
 S   1 1.00       0.000000000000
      0.1127496852D+01  0.1000000000D+01
 S   1 1.00       0.000000000000
      0.5757970639D+00  0.1000000000D+01
 S   1 1.00       0.000000000000
      0.2940516050D+00  0.1000000000D+01
 S   1 1.00       0.000000000000
      0.1501680918D+00  0.1000000000D+01
 S   1 1.00       0.000000000000
      0.7668876969D-01  0.1000000000D+01
 P   1 1.00       0.000000000000
      0.2019953588D+06  0.1000000000D+01
 P   1 1.00       0.000000000000
      0.1031562389D+06  0.1000000000D+01
 P   1 1.00       0.000000000000
      0.5268046591D+05  0.1000000000D+01
 P   1 1.00       0.000000000000
      0.2690318607D+05  0.1000000000D+01
 P   1 1.00       0.000000000000
      0.1373908542D+05  0.1000000000D+01
 P   1 1.00       0.000000000000
      0.7016361094D+04  0.1000000000D+01
 P   1 1.00       0.000000000000
      0.3583158668D+04  0.1000000000D+01
 P   1 1.00       0.000000000000
      0.1829869625D+04  0.1000000000D+01
 P   1 1.00       0.000000000000
      0.9344891347D+03  0.1000000000D+01
 P   1 1.00       0.000000000000
      0.4772306896D+03  0.1000000000D+01
 P   1 1.00       0.000000000000
      0.2437151195D+03  0.1000000000D+01
 P   1 1.00       0.000000000000
      0.1244619442D+03  0.1000000000D+01
 P   1 1.00       0.000000000000
      0.6356099525D+02  0.1000000000D+01
 P   1 1.00       0.000000000000
      0.3245972208D+02  0.1000000000D+01
 P   1 1.00       0.000000000000
      0.1657673158D+02  0.1000000000D+01
 P   1 1.00       0.000000000000
      0.8465507783D+01  0.1000000000D+01
 P   1 1.00       0.000000000000
      0.4323217860D+01  0.1000000000D+01
 P   1 1.00       0.000000000000
      0.2207807629D+01  0.1000000000D+01
 P   1 1.00       0.000000000000
      0.1127496852D+01  0.1000000000D+01
 P   1 1.00       0.000000000000
      0.5757970639D+00  0.1000000000D+01
 P   1 1.00       0.000000000000
      0.2940516050D+00  0.1000000000D+01
 P   1 1.00       0.000000000000
      0.1501680918D+00  0.1000000000D+01
 P   1 1.00       0.000000000000
      0.7668876969D-01  0.1000000000D+01
 P   1 1.00       0.000000000000
      0.3916389510D-01  0.1000000000D+01
 D   1 1.00       0.000000000000
      0.4772306896D+03  0.1000000000D+01
 D   1 1.00       0.000000000000
      0.2437151195D+03  0.1000000000D+01
 D   1 1.00       0.000000000000
      0.1244619442D+03  0.1000000000D+01
 D   1 1.00       0.000000000000
      0.6356099525D+02  0.1000000000D+01
 D   1 1.00       0.000000000000
      0.3245972208D+02  0.1000000000D+01
 D   1 1.00       0.000000000000
      0.1657673158D+02  0.1000000000D+01
 D   1 1.00       0.000000000000
      0.8465507783D+01  0.1000000000D+01
 D   1 1.00       0.000000000000
      0.4323217860D+01  0.1000000000D+01
 D   1 1.00       0.000000000000
      0.2207807629D+01  0.1000000000D+01
 D   1 1.00       0.000000000000
      0.1127496852D+01  0.1000000000D+01
 D   1 1.00       0.000000000000
      0.5757970639D+00  0.1000000000D+01
 D   1 1.00       0.000000000000
      0.2940516050D+00  0.1000000000D+01
 D   1 1.00       0.000000000000
      0.1501680918D+00  0.1000000000D+01
 D   1 1.00       0.000000000000
      0.7668876969D-01  0.1000000000D+01
 D   1 1.00       0.000000000000
      0.3916389510D-01  0.1000000000D+01
 ****
      2 0
 S   1 1.00       0.000000000000
      0.2019953588D+06  0.1000000000D+01
 S   1 1.00       0.000000000000
      0.1031562389D+06  0.1000000000D+01
 S   1 1.00       0.000000000000
      0.5268046591D+05  0.1000000000D+01
 S   1 1.00       0.000000000000
      0.2690318607D+05  0.1000000000D+01
 S   1 1.00       0.000000000000
      0.1373908542D+05  0.1000000000D+01
 S   1 1.00       0.000000000000
      0.7016361094D+04  0.1000000000D+01
 S   1 1.00       0.000000000000
      0.3583158668D+04  0.1000000000D+01
 S   1 1.00       0.000000000000
      0.1829869625D+04  0.1000000000D+01
 S   1 1.00       0.000000000000
      0.9344891347D+03  0.1000000000D+01
 S   1 1.00       0.000000000000
      0.4772306896D+03  0.1000000000D+01
 S   1 1.00       0.000000000000
      0.2437151195D+03  0.1000000000D+01
 S   1 1.00       0.000000000000
      0.1244619442D+03  0.1000000000D+01
 S   1 1.00       0.000000000000
      0.6356099525D+02  0.1000000000D+01
 S   1 1.00       0.000000000000
      0.3245972208D+02  0.1000000000D+01
 S   1 1.00       0.000000000000
      0.1657673158D+02  0.1000000000D+01
 S   1 1.00       0.000000000000
      0.8465507783D+01  0.1000000000D+01
 S   1 1.00       0.000000000000
      0.4323217860D+01  0.1000000000D+01
 S   1 1.00       0.000000000000
      0.2207807629D+01  0.1000000000D+01
 S   1 1.00       0.000000000000
      0.1127496852D+01  0.1000000000D+01
 S   1 1.00       0.000000000000
      0.5757970639D+00  0.1000000000D+01
 S   1 1.00       0.000000000000
      0.2940516050D+00  0.1000000000D+01
 S   1 1.00       0.000000000000
      0.1501680918D+00  0.1000000000D+01
 S   1 1.00       0.000000000000
      0.7668876969D-01  0.1000000000D+01
 P   1 1.00       0.000000000000
      0.2019953588D+06  0.1000000000D+01
 P   1 1.00       0.000000000000
      0.1031562389D+06  0.1000000000D+01
 P   1 1.00       0.000000000000
      0.5268046591D+05  0.1000000000D+01
 P   1 1.00       0.000000000000
      0.2690318607D+05  0.1000000000D+01
 P   1 1.00       0.000000000000
      0.1373908542D+05  0.1000000000D+01
 P   1 1.00       0.000000000000
      0.7016361094D+04  0.1000000000D+01
 P   1 1.00       0.000000000000
      0.3583158668D+04  0.1000000000D+01
 P   1 1.00       0.000000000000
      0.1829869625D+04  0.1000000000D+01
 P   1 1.00       0.000000000000
      0.9344891347D+03  0.1000000000D+01
 P   1 1.00       0.000000000000
      0.4772306896D+03  0.1000000000D+01
 P   1 1.00       0.000000000000
      0.2437151195D+03  0.1000000000D+01
 P   1 1.00       0.000000000000
      0.1244619442D+03  0.1000000000D+01
 P   1 1.00       0.000000000000
      0.6356099525D+02  0.1000000000D+01
 P   1 1.00       0.000000000000
      0.3245972208D+02  0.1000000000D+01
 P   1 1.00       0.000000000000
      0.1657673158D+02  0.1000000000D+01
 P   1 1.00       0.000000000000
      0.8465507783D+01  0.1000000000D+01
 P   1 1.00       0.000000000000
      0.4323217860D+01  0.1000000000D+01
 P   1 1.00       0.000000000000
      0.2207807629D+01  0.1000000000D+01
 P   1 1.00       0.000000000000
      0.1127496852D+01  0.1000000000D+01
 P   1 1.00       0.000000000000
      0.5757970639D+00  0.1000000000D+01
 P   1 1.00       0.000000000000
      0.2940516050D+00  0.1000000000D+01
 P   1 1.00       0.000000000000
      0.1501680918D+00  0.1000000000D+01
 P   1 1.00       0.000000000000
      0.7668876969D-01  0.1000000000D+01
 P   1 1.00       0.000000000000
      0.3916389510D-01  0.1000000000D+01
 D   1 1.00       0.000000000000
      0.4772306896D+03  0.1000000000D+01
 D   1 1.00       0.000000000000
      0.2437151195D+03  0.1000000000D+01
 D   1 1.00       0.000000000000
      0.1244619442D+03  0.1000000000D+01
 D   1 1.00       0.000000000000
      0.6356099525D+02  0.1000000000D+01
 D   1 1.00       0.000000000000
      0.3245972208D+02  0.1000000000D+01
 D   1 1.00       0.000000000000
      0.1657673158D+02  0.1000000000D+01
 D   1 1.00       0.000000000000
      0.8465507783D+01  0.1000000000D+01
 D   1 1.00       0.000000000000
      0.4323217860D+01  0.1000000000D+01
 D   1 1.00       0.000000000000
      0.2207807629D+01  0.1000000000D+01
 D   1 1.00       0.000000000000
      0.1127496852D+01  0.1000000000D+01
 D   1 1.00       0.000000000000
      0.5757970639D+00  0.1000000000D+01
 D   1 1.00       0.000000000000
      0.2940516050D+00  0.1000000000D+01
 D   1 1.00       0.000000000000
      0.1501680918D+00  0.1000000000D+01
 D   1 1.00       0.000000000000
      0.7668876969D-01  0.1000000000D+01
 D   1 1.00       0.000000000000
      0.3916389510D-01  0.1000000000D+01
 ****
      3 0
 S   1 1.00       0.000000000000
      0.2969784651D+07  0.1000000000D+01
 S   1 1.00       0.000000000000
      0.1516627989D+07  0.1000000000D+01
 S   1 1.00       0.000000000000
      0.7745209592D+06  0.1000000000D+01
 S   1 1.00       0.000000000000
      0.3955371526D+06  0.1000000000D+01
 S   1 1.00       0.000000000000
      0.2019953588D+06  0.1000000000D+01
 S   1 1.00       0.000000000000
      0.1031562389D+06  0.1000000000D+01
 S   1 1.00       0.000000000000
      0.5268046591D+05  0.1000000000D+01
 S   1 1.00       0.000000000000
      0.2690318607D+05  0.1000000000D+01
 S   1 1.00       0.000000000000
      0.1373908542D+05  0.1000000000D+01
 S   1 1.00       0.000000000000
      0.7016361094D+04  0.1000000000D+01
 S   1 1.00       0.000000000000
      0.3583158668D+04  0.1000000000D+01
 S   1 1.00       0.000000000000
      0.1829869625D+04  0.1000000000D+01
 S   1 1.00       0.000000000000
      0.9344891347D+03  0.1000000000D+01
 S   1 1.00       0.000000000000
      0.4772306896D+03  0.1000000000D+01
 S   1 1.00       0.000000000000
      0.2437151195D+03  0.1000000000D+01
 S   1 1.00       0.000000000000
      0.1244619442D+03  0.1000000000D+01
 S   1 1.00       0.000000000000
      0.6356099525D+02  0.1000000000D+01
 S   1 1.00       0.000000000000
      0.3245972208D+02  0.1000000000D+01
 S   1 1.00       0.000000000000
      0.1657673158D+02  0.1000000000D+01
 S   1 1.00       0.000000000000
      0.8465507783D+01  0.1000000000D+01
 S   1 1.00       0.000000000000
      0.4323217860D+01  0.1000000000D+01
 S   1 1.00       0.000000000000
      0.2207807629D+01  0.1000000000D+01
 S   1 1.00       0.000000000000
      0.1127496852D+01  0.1000000000D+01
 S   1 1.00       0.000000000000
      0.5757970639D+00  0.1000000000D+01
 S   1 1.00       0.000000000000
      0.2940516050D+00  0.1000000000D+01
 S   1 1.00       0.000000000000
      0.1501680918D+00  0.1000000000D+01
 S   1 1.00       0.000000000000
      0.7668876969D-01  0.1000000000D+01
 P   1 1.00       0.000000000000
      0.2969784651D+07  0.1000000000D+01
 P   1 1.00       0.000000000000
      0.1516627989D+07  0.1000000000D+01
 P   1 1.00       0.000000000000
      0.7745209592D+06  0.1000000000D+01
 P   1 1.00       0.000000000000
      0.3955371526D+06  0.1000000000D+01
 P   1 1.00       0.000000000000
      0.2019953588D+06  0.1000000000D+01
 P   1 1.00       0.000000000000
      0.1031562389D+06  0.1000000000D+01
 P   1 1.00       0.000000000000
      0.5268046591D+05  0.1000000000D+01
 P   1 1.00       0.000000000000
      0.2690318607D+05  0.1000000000D+01
 P   1 1.00       0.000000000000
      0.1373908542D+05  0.1000000000D+01
 P   1 1.00       0.000000000000
      0.7016361094D+04  0.1000000000D+01
 P   1 1.00       0.000000000000
      0.3583158668D+04  0.1000000000D+01
 P   1 1.00       0.000000000000
      0.1829869625D+04  0.1000000000D+01
 P   1 1.00       0.000000000000
      0.9344891347D+03  0.1000000000D+01
 P   1 1.00       0.000000000000
      0.4772306896D+03  0.1000000000D+01
 P   1 1.00       0.000000000000
      0.2437151195D+03  0.1000000000D+01
 P   1 1.00       0.000000000000
      0.1244619442D+03  0.1000000000D+01
 P   1 1.00       0.000000000000
      0.6356099525D+02  0.1000000000D+01
 P   1 1.00       0.000000000000
      0.3245972208D+02  0.1000000000D+01
 P   1 1.00       0.000000000000
      0.1657673158D+02  0.1000000000D+01
 P   1 1.00       0.000000000000
      0.8465507783D+01  0.1000000000D+01
 P   1 1.00       0.000000000000
      0.4323217860D+01  0.1000000000D+01
 P   1 1.00       0.000000000000
      0.2207807629D+01  0.1000000000D+01
 P   1 1.00       0.000000000000
      0.1127496852D+01  0.1000000000D+01
 P   1 1.00       0.000000000000
      0.5757970639D+00  0.1000000000D+01
 P   1 1.00       0.000000000000
      0.2940516050D+00  0.1000000000D+01
 P   1 1.00       0.000000000000
      0.1501680918D+00  0.1000000000D+01
 P   1 1.00       0.000000000000
      0.7668876969D-01  0.1000000000D+01
 D   1 1.00       0.000000000000
      0.1373908542D+05  0.1000000000D+01
 D   1 1.00       0.000000000000
      0.7016361094D+04  0.1000000000D+01
 D   1 1.00       0.000000000000
      0.3583158668D+04  0.1000000000D+01
 D   1 1.00       0.000000000000
      0.1829869625D+04  0.1000000000D+01
 D   1 1.00       0.000000000000
      0.9344891347D+03  0.1000000000D+01
 D   1 1.00       0.000000000000
      0.4772306896D+03  0.1000000000D+01
 D   1 1.00       0.000000000000
      0.2437151195D+03  0.1000000000D+01
 D   1 1.00       0.000000000000
      0.1244619442D+03  0.1000000000D+01
 D   1 1.00       0.000000000000
      0.6356099525D+02  0.1000000000D+01
 D   1 1.00       0.000000000000
      0.3245972208D+02  0.1000000000D+01
 D   1 1.00       0.000000000000
      0.1657673158D+02  0.1000000000D+01
 D   1 1.00       0.000000000000
      0.8465507783D+01  0.1000000000D+01
 D   1 1.00       0.000000000000
      0.4323217860D+01  0.1000000000D+01
 D   1 1.00       0.000000000000
      0.2207807629D+01  0.1000000000D+01
 D   1 1.00       0.000000000000
      0.1127496852D+01  0.1000000000D+01
 D   1 1.00       0.000000000000
      0.5757970639D+00  0.1000000000D+01
 D   1 1.00       0.000000000000
      0.2940516050D+00  0.1000000000D+01
 D   1 1.00       0.000000000000
      0.1501680918D+00  0.1000000000D+01
 D   1 1.00       0.000000000000
      0.7668876969D-01  0.1000000000D+01
 ****

 AO basis set (Overlap normalization):
 Atom C1       Shell     1 S   1     bf    1 -     1          0.000000000000          0.000000000000         -3.612245044034
      0.2019953588D+06  0.1000000000D+01
 Atom C1       Shell     2 S   1     bf    2 -     2          0.000000000000          0.000000000000         -3.612245044034
      0.1031562389D+06  0.1000000000D+01
 Atom C1       Shell     3 S   1     bf    3 -     3          0.000000000000          0.000000000000         -3.612245044034
      0.5268046591D+05  0.1000000000D+01
 Atom C1       Shell     4 S   1     bf    4 -     4          0.000000000000          0.000000000000         -3.612245044034
      0.2690318607D+05  0.1000000000D+01
 Atom C1       Shell     5 S   1     bf    5 -     5          0.000000000000          0.000000000000         -3.612245044034
      0.1373908542D+05  0.1000000000D+01
 Atom C1       Shell     6 S   1     bf    6 -     6          0.000000000000          0.000000000000         -3.612245044034
      0.7016361094D+04  0.1000000000D+01
 Atom C1       Shell     7 S   1     bf    7 -     7          0.000000000000          0.000000000000         -3.612245044034
      0.3583158668D+04  0.1000000000D+01
 Atom C1       Shell     8 S   1     bf    8 -     8          0.000000000000          0.000000000000         -3.612245044034
      0.1829869625D+04  0.1000000000D+01
 Atom C1       Shell     9 S   1     bf    9 -     9          0.000000000000          0.000000000000         -3.612245044034
      0.9344891347D+03  0.1000000000D+01
 Atom C1       Shell    10 S   1     bf   10 -    10          0.000000000000          0.000000000000         -3.612245044034
      0.4772306896D+03  0.1000000000D+01
 Atom C1       Shell    11 S   1     bf   11 -    11          0.000000000000          0.000000000000         -3.612245044034
      0.2437151195D+03  0.1000000000D+01
 Atom C1       Shell    12 S   1     bf   12 -    12          0.000000000000          0.000000000000         -3.612245044034
      0.1244619442D+03  0.1000000000D+01
 Atom C1       Shell    13 S   1     bf   13 -    13          0.000000000000          0.000000000000         -3.612245044034
      0.6356099525D+02  0.1000000000D+01
 Atom C1       Shell    14 S   1     bf   14 -    14          0.000000000000          0.000000000000         -3.612245044034
      0.3245972208D+02  0.1000000000D+01
 Atom C1       Shell    15 S   1     bf   15 -    15          0.000000000000          0.000000000000         -3.612245044034
      0.1657673158D+02  0.1000000000D+01
 Atom C1       Shell    16 S   1     bf   16 -    16          0.000000000000          0.000000000000         -3.612245044034
      0.8465507783D+01  0.1000000000D+01
 Atom C1       Shell    17 S   1     bf   17 -    17          0.000000000000          0.000000000000         -3.612245044034
      0.4323217860D+01  0.1000000000D+01
 Atom C1       Shell    18 S   1     bf   18 -    18          0.000000000000          0.000000000000         -3.612245044034
      0.2207807629D+01  0.1000000000D+01
 Atom C1       Shell    19 S   1     bf   19 -    19          0.000000000000          0.000000000000         -3.612245044034
      0.1127496852D+01  0.1000000000D+01
 Atom C1       Shell    20 S   1     bf   20 -    20          0.000000000000          0.000000000000         -3.612245044034
      0.5757970639D+00  0.1000000000D+01
 Atom C1       Shell    21 S   1     bf   21 -    21          0.000000000000          0.000000000000         -3.612245044034
      0.2940516050D+00  0.1000000000D+01
 Atom C1       Shell    22 S   1     bf   22 -    22          0.000000000000          0.000000000000         -3.612245044034
      0.1501680918D+00  0.1000000000D+01
 Atom C1       Shell    23 S   1     bf   23 -    23          0.000000000000          0.000000000000         -3.612245044034
      0.7668876969D-01  0.1000000000D+01
 Atom C1       Shell    24 P   1     bf   24 -    26          0.000000000000          0.000000000000         -3.612245044034
      0.2019953588D+06  0.1000000000D+01
 Atom C1       Shell    25 P   1     bf   27 -    29          0.000000000000          0.000000000000         -3.612245044034
      0.1031562389D+06  0.1000000000D+01
 Atom C1       Shell    26 P   1     bf   30 -    32          0.000000000000          0.000000000000         -3.612245044034
      0.5268046591D+05  0.1000000000D+01
 Atom C1       Shell    27 P   1     bf   33 -    35          0.000000000000          0.000000000000         -3.612245044034
      0.2690318607D+05  0.1000000000D+01
 Atom C1       Shell    28 P   1     bf   36 -    38          0.000000000000          0.000000000000         -3.612245044034
      0.1373908542D+05  0.1000000000D+01
 Atom C1       Shell    29 P   1     bf   39 -    41          0.000000000000          0.000000000000         -3.612245044034
      0.7016361094D+04  0.1000000000D+01
 Atom C1       Shell    30 P   1     bf   42 -    44          0.000000000000          0.000000000000         -3.612245044034
      0.3583158668D+04  0.1000000000D+01
 Atom C1       Shell    31 P   1     bf   45 -    47          0.000000000000          0.000000000000         -3.612245044034
      0.1829869625D+04  0.1000000000D+01
 Atom C1       Shell    32 P   1     bf   48 -    50          0.000000000000          0.000000000000         -3.612245044034
      0.9344891347D+03  0.1000000000D+01
 Atom C1       Shell    33 P   1     bf   51 -    53          0.000000000000          0.000000000000         -3.612245044034
      0.4772306896D+03  0.1000000000D+01
 Atom C1       Shell    34 P   1     bf   54 -    56          0.000000000000          0.000000000000         -3.612245044034
      0.2437151195D+03  0.1000000000D+01
 Atom C1       Shell    35 P   1     bf   57 -    59          0.000000000000          0.000000000000         -3.612245044034
      0.1244619442D+03  0.1000000000D+01
 Atom C1       Shell    36 P   1     bf   60 -    62          0.000000000000          0.000000000000         -3.612245044034
      0.6356099525D+02  0.1000000000D+01
 Atom C1       Shell    37 P   1     bf   63 -    65          0.000000000000          0.000000000000         -3.612245044034
      0.3245972208D+02  0.1000000000D+01
 Atom C1       Shell    38 P   1     bf   66 -    68          0.000000000000          0.000000000000         -3.612245044034
      0.1657673158D+02  0.1000000000D+01
 Atom C1       Shell    39 P   1     bf   69 -    71          0.000000000000          0.000000000000         -3.612245044034
      0.8465507783D+01  0.1000000000D+01
 Atom C1       Shell    40 P   1     bf   72 -    74          0.000000000000          0.000000000000         -3.612245044034
      0.4323217860D+01  0.1000000000D+01
 Atom C1       Shell    41 P   1     bf   75 -    77          0.000000000000          0.000000000000         -3.612245044034
      0.2207807629D+01  0.1000000000D+01
 Atom C1       Shell    42 P   1     bf   78 -    80          0.000000000000          0.000000000000         -3.612245044034
      0.1127496852D+01  0.1000000000D+01
 Atom C1       Shell    43 P   1     bf   81 -    83          0.000000000000          0.000000000000         -3.612245044034
      0.5757970639D+00  0.1000000000D+01
 Atom C1       Shell    44 P   1     bf   84 -    86          0.000000000000          0.000000000000         -3.612245044034
      0.2940516050D+00  0.1000000000D+01
 Atom C1       Shell    45 P   1     bf   87 -    89          0.000000000000          0.000000000000         -3.612245044034
      0.1501680918D+00  0.1000000000D+01
 Atom C1       Shell    46 P   1     bf   90 -    92          0.000000000000          0.000000000000         -3.612245044034
      0.7668876969D-01  0.1000000000D+01
 Atom C1       Shell    47 P   1     bf   93 -    95          0.000000000000          0.000000000000         -3.612245044034
      0.3916389510D-01  0.1000000000D+01
 Atom C1       Shell    48 D   1     bf   96 -   100          0.000000000000          0.000000000000         -3.612245044034
      0.4772306896D+03  0.1000000000D+01
 Atom C1       Shell    49 D   1     bf  101 -   105          0.000000000000          0.000000000000         -3.612245044034
      0.2437151195D+03  0.1000000000D+01
 Atom C1       Shell    50 D   1     bf  106 -   110          0.000000000000          0.000000000000         -3.612245044034
      0.1244619442D+03  0.1000000000D+01
 Atom C1       Shell    51 D   1     bf  111 -   115          0.000000000000          0.000000000000         -3.612245044034
      0.6356099525D+02  0.1000000000D+01
 Atom C1       Shell    52 D   1     bf  116 -   120          0.000000000000          0.000000000000         -3.612245044034
      0.3245972208D+02  0.1000000000D+01
 Atom C1       Shell    53 D   1     bf  121 -   125          0.000000000000          0.000000000000         -3.612245044034
      0.1657673158D+02  0.1000000000D+01
 Atom C1       Shell    54 D   1     bf  126 -   130          0.000000000000          0.000000000000         -3.612245044034
      0.8465507783D+01  0.1000000000D+01
 Atom C1       Shell    55 D   1     bf  131 -   135          0.000000000000          0.000000000000         -3.612245044034
      0.4323217860D+01  0.1000000000D+01
 Atom C1       Shell    56 D   1     bf  136 -   140          0.000000000000          0.000000000000         -3.612245044034
      0.2207807629D+01  0.1000000000D+01
 Atom C1       Shell    57 D   1     bf  141 -   145          0.000000000000          0.000000000000         -3.612245044034
      0.1127496852D+01  0.1000000000D+01
 Atom C1       Shell    58 D   1     bf  146 -   150          0.000000000000          0.000000000000         -3.612245044034
      0.5757970639D+00  0.1000000000D+01
 Atom C1       Shell    59 D   1     bf  151 -   155          0.000000000000          0.000000000000         -3.612245044034
      0.2940516050D+00  0.1000000000D+01
 Atom C1       Shell    60 D   1     bf  156 -   160          0.000000000000          0.000000000000         -3.612245044034
      0.1501680918D+00  0.1000000000D+01
 Atom C1       Shell    61 D   1     bf  161 -   165          0.000000000000          0.000000000000         -3.612245044034
      0.7668876969D-01  0.1000000000D+01
 Atom C1       Shell    62 D   1     bf  166 -   170          0.000000000000          0.000000000000         -3.612245044034
      0.3916389510D-01  0.1000000000D+01
 Atom C2       Shell    63 S   1     bf  171 -   171          0.000000000000          0.000000000000         -1.341330152211
      0.2019953588D+06  0.1000000000D+01
 Atom C2       Shell    64 S   1     bf  172 -   172          0.000000000000          0.000000000000         -1.341330152211
      0.1031562389D+06  0.1000000000D+01
 Atom C2       Shell    65 S   1     bf  173 -   173          0.000000000000          0.000000000000         -1.341330152211
      0.5268046591D+05  0.1000000000D+01
 Atom C2       Shell    66 S   1     bf  174 -   174          0.000000000000          0.000000000000         -1.341330152211
      0.2690318607D+05  0.1000000000D+01
 Atom C2       Shell    67 S   1     bf  175 -   175          0.000000000000          0.000000000000         -1.341330152211
      0.1373908542D+05  0.1000000000D+01
 Atom C2       Shell    68 S   1     bf  176 -   176          0.000000000000          0.000000000000         -1.341330152211
      0.7016361094D+04  0.1000000000D+01
 Atom C2       Shell    69 S   1     bf  177 -   177          0.000000000000          0.000000000000         -1.341330152211
      0.3583158668D+04  0.1000000000D+01
 Atom C2       Shell    70 S   1     bf  178 -   178          0.000000000000          0.000000000000         -1.341330152211
      0.1829869625D+04  0.1000000000D+01
 Atom C2       Shell    71 S   1     bf  179 -   179          0.000000000000          0.000000000000         -1.341330152211
      0.9344891347D+03  0.1000000000D+01
 Atom C2       Shell    72 S   1     bf  180 -   180          0.000000000000          0.000000000000         -1.341330152211
      0.4772306896D+03  0.1000000000D+01
 Atom C2       Shell    73 S   1     bf  181 -   181          0.000000000000          0.000000000000         -1.341330152211
      0.2437151195D+03  0.1000000000D+01
 Atom C2       Shell    74 S   1     bf  182 -   182          0.000000000000          0.000000000000         -1.341330152211
      0.1244619442D+03  0.1000000000D+01
 Atom C2       Shell    75 S   1     bf  183 -   183          0.000000000000          0.000000000000         -1.341330152211
      0.6356099525D+02  0.1000000000D+01
 Atom C2       Shell    76 S   1     bf  184 -   184          0.000000000000          0.000000000000         -1.341330152211
      0.3245972208D+02  0.1000000000D+01
 Atom C2       Shell    77 S   1     bf  185 -   185          0.000000000000          0.000000000000         -1.341330152211
      0.1657673158D+02  0.1000000000D+01
 Atom C2       Shell    78 S   1     bf  186 -   186          0.000000000000          0.000000000000         -1.341330152211
      0.8465507783D+01  0.1000000000D+01
 Atom C2       Shell    79 S   1     bf  187 -   187          0.000000000000          0.000000000000         -1.341330152211
      0.4323217860D+01  0.1000000000D+01
 Atom C2       Shell    80 S   1     bf  188 -   188          0.000000000000          0.000000000000         -1.341330152211
      0.2207807629D+01  0.1000000000D+01
 Atom C2       Shell    81 S   1     bf  189 -   189          0.000000000000          0.000000000000         -1.341330152211
      0.1127496852D+01  0.1000000000D+01
 Atom C2       Shell    82 S   1     bf  190 -   190          0.000000000000          0.000000000000         -1.341330152211
      0.5757970639D+00  0.1000000000D+01
 Atom C2       Shell    83 S   1     bf  191 -   191          0.000000000000          0.000000000000         -1.341330152211
      0.2940516050D+00  0.1000000000D+01
 Atom C2       Shell    84 S   1     bf  192 -   192          0.000000000000          0.000000000000         -1.341330152211
      0.1501680918D+00  0.1000000000D+01
 Atom C2       Shell    85 S   1     bf  193 -   193          0.000000000000          0.000000000000         -1.341330152211
      0.7668876969D-01  0.1000000000D+01
 Atom C2       Shell    86 P   1     bf  194 -   196          0.000000000000          0.000000000000         -1.341330152211
      0.2019953588D+06  0.1000000000D+01
 Atom C2       Shell    87 P   1     bf  197 -   199          0.000000000000          0.000000000000         -1.341330152211
      0.1031562389D+06  0.1000000000D+01
 Atom C2       Shell    88 P   1     bf  200 -   202          0.000000000000          0.000000000000         -1.341330152211
      0.5268046591D+05  0.1000000000D+01
 Atom C2       Shell    89 P   1     bf  203 -   205          0.000000000000          0.000000000000         -1.341330152211
      0.2690318607D+05  0.1000000000D+01
 Atom C2       Shell    90 P   1     bf  206 -   208          0.000000000000          0.000000000000         -1.341330152211
      0.1373908542D+05  0.1000000000D+01
 Atom C2       Shell    91 P   1     bf  209 -   211          0.000000000000          0.000000000000         -1.341330152211
      0.7016361094D+04  0.1000000000D+01
 Atom C2       Shell    92 P   1     bf  212 -   214          0.000000000000          0.000000000000         -1.341330152211
      0.3583158668D+04  0.1000000000D+01
 Atom C2       Shell    93 P   1     bf  215 -   217          0.000000000000          0.000000000000         -1.341330152211
      0.1829869625D+04  0.1000000000D+01
 Atom C2       Shell    94 P   1     bf  218 -   220          0.000000000000          0.000000000000         -1.341330152211
      0.9344891347D+03  0.1000000000D+01
 Atom C2       Shell    95 P   1     bf  221 -   223          0.000000000000          0.000000000000         -1.341330152211
      0.4772306896D+03  0.1000000000D+01
 Atom C2       Shell    96 P   1     bf  224 -   226          0.000000000000          0.000000000000         -1.341330152211
      0.2437151195D+03  0.1000000000D+01
 Atom C2       Shell    97 P   1     bf  227 -   229          0.000000000000          0.000000000000         -1.341330152211
      0.1244619442D+03  0.1000000000D+01
 Atom C2       Shell    98 P   1     bf  230 -   232          0.000000000000          0.000000000000         -1.341330152211
      0.6356099525D+02  0.1000000000D+01
 Atom C2       Shell    99 P   1     bf  233 -   235          0.000000000000          0.000000000000         -1.341330152211
      0.3245972208D+02  0.1000000000D+01
 Atom C2       Shell   100 P   1     bf  236 -   238          0.000000000000          0.000000000000         -1.341330152211
      0.1657673158D+02  0.1000000000D+01
 Atom C2       Shell   101 P   1     bf  239 -   241          0.000000000000          0.000000000000         -1.341330152211
      0.8465507783D+01  0.1000000000D+01
 Atom C2       Shell   102 P   1     bf  242 -   244          0.000000000000          0.000000000000         -1.341330152211
      0.4323217860D+01  0.1000000000D+01
 Atom C2       Shell   103 P   1     bf  245 -   247          0.000000000000          0.000000000000         -1.341330152211
      0.2207807629D+01  0.1000000000D+01
 Atom C2       Shell   104 P   1     bf  248 -   250          0.000000000000          0.000000000000         -1.341330152211
      0.1127496852D+01  0.1000000000D+01
 Atom C2       Shell   105 P   1     bf  251 -   253          0.000000000000          0.000000000000         -1.341330152211
      0.5757970639D+00  0.1000000000D+01
 Atom C2       Shell   106 P   1     bf  254 -   256          0.000000000000          0.000000000000         -1.341330152211
      0.2940516050D+00  0.1000000000D+01
 Atom C2       Shell   107 P   1     bf  257 -   259          0.000000000000          0.000000000000         -1.341330152211
      0.1501680918D+00  0.1000000000D+01
 Atom C2       Shell   108 P   1     bf  260 -   262          0.000000000000          0.000000000000         -1.341330152211
      0.7668876969D-01  0.1000000000D+01
 Atom C2       Shell   109 P   1     bf  263 -   265          0.000000000000          0.000000000000         -1.341330152211
      0.3916389510D-01  0.1000000000D+01
 Atom C2       Shell   110 D   1     bf  266 -   270          0.000000000000          0.000000000000         -1.341330152211
      0.4772306896D+03  0.1000000000D+01
 Atom C2       Shell   111 D   1     bf  271 -   275          0.000000000000          0.000000000000         -1.341330152211
      0.2437151195D+03  0.1000000000D+01
 Atom C2       Shell   112 D   1     bf  276 -   280          0.000000000000          0.000000000000         -1.341330152211
      0.1244619442D+03  0.1000000000D+01
 Atom C2       Shell   113 D   1     bf  281 -   285          0.000000000000          0.000000000000         -1.341330152211
      0.6356099525D+02  0.1000000000D+01
 Atom C2       Shell   114 D   1     bf  286 -   290          0.000000000000          0.000000000000         -1.341330152211
      0.3245972208D+02  0.1000000000D+01
 Atom C2       Shell   115 D   1     bf  291 -   295          0.000000000000          0.000000000000         -1.341330152211
      0.1657673158D+02  0.1000000000D+01
 Atom C2       Shell   116 D   1     bf  296 -   300          0.000000000000          0.000000000000         -1.341330152211
      0.8465507783D+01  0.1000000000D+01
 Atom C2       Shell   117 D   1     bf  301 -   305          0.000000000000          0.000000000000         -1.341330152211
      0.4323217860D+01  0.1000000000D+01
 Atom C2       Shell   118 D   1     bf  306 -   310          0.000000000000          0.000000000000         -1.341330152211
      0.2207807629D+01  0.1000000000D+01
 Atom C2       Shell   119 D   1     bf  311 -   315          0.000000000000          0.000000000000         -1.341330152211
      0.1127496852D+01  0.1000000000D+01
 Atom C2       Shell   120 D   1     bf  316 -   320          0.000000000000          0.000000000000         -1.341330152211
      0.5757970639D+00  0.1000000000D+01
 Atom C2       Shell   121 D   1     bf  321 -   325          0.000000000000          0.000000000000         -1.341330152211
      0.2940516050D+00  0.1000000000D+01
 Atom C2       Shell   122 D   1     bf  326 -   330          0.000000000000          0.000000000000         -1.341330152211
      0.1501680918D+00  0.1000000000D+01
 Atom C2       Shell   123 D   1     bf  331 -   335          0.000000000000          0.000000000000         -1.341330152211
      0.7668876969D-01  0.1000000000D+01
 Atom C2       Shell   124 D   1     bf  336 -   340          0.000000000000          0.000000000000         -1.341330152211
      0.3916389510D-01  0.1000000000D+01
 Atom Cl3      Shell   125 S   1     bf  341 -   341          0.000000000000          0.000000000000          1.748320657498
      0.2969784651D+07  0.1000000000D+01
 Atom Cl3      Shell   126 S   1     bf  342 -   342          0.000000000000          0.000000000000          1.748320657498
      0.1516627989D+07  0.1000000000D+01
 Atom Cl3      Shell   127 S   1     bf  343 -   343          0.000000000000          0.000000000000          1.748320657498
      0.7745209592D+06  0.1000000000D+01
 Atom Cl3      Shell   128 S   1     bf  344 -   344          0.000000000000          0.000000000000          1.748320657498
      0.3955371526D+06  0.1000000000D+01
 Atom Cl3      Shell   129 S   1     bf  345 -   345          0.000000000000          0.000000000000          1.748320657498
      0.2019953588D+06  0.1000000000D+01
 Atom Cl3      Shell   130 S   1     bf  346 -   346          0.000000000000          0.000000000000          1.748320657498
      0.1031562389D+06  0.1000000000D+01
 Atom Cl3      Shell   131 S   1     bf  347 -   347          0.000000000000          0.000000000000          1.748320657498
      0.5268046591D+05  0.1000000000D+01
 Atom Cl3      Shell   132 S   1     bf  348 -   348          0.000000000000          0.000000000000          1.748320657498
      0.2690318607D+05  0.1000000000D+01
 Atom Cl3      Shell   133 S   1     bf  349 -   349          0.000000000000          0.000000000000          1.748320657498
      0.1373908542D+05  0.1000000000D+01
 Atom Cl3      Shell   134 S   1     bf  350 -   350          0.000000000000          0.000000000000          1.748320657498
      0.7016361094D+04  0.1000000000D+01
 Atom Cl3      Shell   135 S   1     bf  351 -   351          0.000000000000          0.000000000000          1.748320657498
      0.3583158668D+04  0.1000000000D+01
 Atom Cl3      Shell   136 S   1     bf  352 -   352          0.000000000000          0.000000000000          1.748320657498
      0.1829869625D+04  0.1000000000D+01
 Atom Cl3      Shell   137 S   1     bf  353 -   353          0.000000000000          0.000000000000          1.748320657498
      0.9344891347D+03  0.1000000000D+01
 Atom Cl3      Shell   138 S   1     bf  354 -   354          0.000000000000          0.000000000000          1.748320657498
      0.4772306896D+03  0.1000000000D+01
 Atom Cl3      Shell   139 S   1     bf  355 -   355          0.000000000000          0.000000000000          1.748320657498
      0.2437151195D+03  0.1000000000D+01
 Atom Cl3      Shell   140 S   1     bf  356 -   356          0.000000000000          0.000000000000          1.748320657498
      0.1244619442D+03  0.1000000000D+01
 Atom Cl3      Shell   141 S   1     bf  357 -   357          0.000000000000          0.000000000000          1.748320657498
      0.6356099525D+02  0.1000000000D+01
 Atom Cl3      Shell   142 S   1     bf  358 -   358          0.000000000000          0.000000000000          1.748320657498
      0.3245972208D+02  0.1000000000D+01
 Atom Cl3      Shell   143 S   1     bf  359 -   359          0.000000000000          0.000000000000          1.748320657498
      0.1657673158D+02  0.1000000000D+01
 Atom Cl3      Shell   144 S   1     bf  360 -   360          0.000000000000          0.000000000000          1.748320657498
      0.8465507783D+01  0.1000000000D+01
 Atom Cl3      Shell   145 S   1     bf  361 -   361          0.000000000000          0.000000000000          1.748320657498
      0.4323217860D+01  0.1000000000D+01
 Atom Cl3      Shell   146 S   1     bf  362 -   362          0.000000000000          0.000000000000          1.748320657498
      0.2207807629D+01  0.1000000000D+01
 Atom Cl3      Shell   147 S   1     bf  363 -   363          0.000000000000          0.000000000000          1.748320657498
      0.1127496852D+01  0.1000000000D+01
 Atom Cl3      Shell   148 S   1     bf  364 -   364          0.000000000000          0.000000000000          1.748320657498
      0.5757970639D+00  0.1000000000D+01
 Atom Cl3      Shell   149 S   1     bf  365 -   365          0.000000000000          0.000000000000          1.748320657498
      0.2940516050D+00  0.1000000000D+01
 Atom Cl3      Shell   150 S   1     bf  366 -   366          0.000000000000          0.000000000000          1.748320657498
      0.1501680918D+00  0.1000000000D+01
 Atom Cl3      Shell   151 S   1     bf  367 -   367          0.000000000000          0.000000000000          1.748320657498
      0.7668876969D-01  0.1000000000D+01
 Atom Cl3      Shell   152 P   1     bf  368 -   370          0.000000000000          0.000000000000          1.748320657498
      0.2969784651D+07  0.1000000000D+01
 Atom Cl3      Shell   153 P   1     bf  371 -   373          0.000000000000          0.000000000000          1.748320657498
      0.1516627989D+07  0.1000000000D+01
 Atom Cl3      Shell   154 P   1     bf  374 -   376          0.000000000000          0.000000000000          1.748320657498
      0.7745209592D+06  0.1000000000D+01
 Atom Cl3      Shell   155 P   1     bf  377 -   379          0.000000000000          0.000000000000          1.748320657498
      0.3955371526D+06  0.1000000000D+01
 Atom Cl3      Shell   156 P   1     bf  380 -   382          0.000000000000          0.000000000000          1.748320657498
      0.2019953588D+06  0.1000000000D+01
 Atom Cl3      Shell   157 P   1     bf  383 -   385          0.000000000000          0.000000000000          1.748320657498
      0.1031562389D+06  0.1000000000D+01
 Atom Cl3      Shell   158 P   1     bf  386 -   388          0.000000000000          0.000000000000          1.748320657498
      0.5268046591D+05  0.1000000000D+01
 Atom Cl3      Shell   159 P   1     bf  389 -   391          0.000000000000          0.000000000000          1.748320657498
      0.2690318607D+05  0.1000000000D+01
 Atom Cl3      Shell   160 P   1     bf  392 -   394          0.000000000000          0.000000000000          1.748320657498
      0.1373908542D+05  0.1000000000D+01
 Atom Cl3      Shell   161 P   1     bf  395 -   397          0.000000000000          0.000000000000          1.748320657498
      0.7016361094D+04  0.1000000000D+01
 Atom Cl3      Shell   162 P   1     bf  398 -   400          0.000000000000          0.000000000000          1.748320657498
      0.3583158668D+04  0.1000000000D+01
 Atom Cl3      Shell   163 P   1     bf  401 -   403          0.000000000000          0.000000000000          1.748320657498
      0.1829869625D+04  0.1000000000D+01
 Atom Cl3      Shell   164 P   1     bf  404 -   406          0.000000000000          0.000000000000          1.748320657498
      0.9344891347D+03  0.1000000000D+01
 Atom Cl3      Shell   165 P   1     bf  407 -   409          0.000000000000          0.000000000000          1.748320657498
      0.4772306896D+03  0.1000000000D+01
 Atom Cl3      Shell   166 P   1     bf  410 -   412          0.000000000000          0.000000000000          1.748320657498
      0.2437151195D+03  0.1000000000D+01
 Atom Cl3      Shell   167 P   1     bf  413 -   415          0.000000000000          0.000000000000          1.748320657498
      0.1244619442D+03  0.1000000000D+01
 Atom Cl3      Shell   168 P   1     bf  416 -   418          0.000000000000          0.000000000000          1.748320657498
      0.6356099525D+02  0.1000000000D+01
 Atom Cl3      Shell   169 P   1     bf  419 -   421          0.000000000000          0.000000000000          1.748320657498
      0.3245972208D+02  0.1000000000D+01
 Atom Cl3      Shell   170 P   1     bf  422 -   424          0.000000000000          0.000000000000          1.748320657498
      0.1657673158D+02  0.1000000000D+01
 Atom Cl3      Shell   171 P   1     bf  425 -   427          0.000000000000          0.000000000000          1.748320657498
      0.8465507783D+01  0.1000000000D+01
 Atom Cl3      Shell   172 P   1     bf  428 -   430          0.000000000000          0.000000000000          1.748320657498
      0.4323217860D+01  0.1000000000D+01
 Atom Cl3      Shell   173 P   1     bf  431 -   433          0.000000000000          0.000000000000          1.748320657498
      0.2207807629D+01  0.1000000000D+01
 Atom Cl3      Shell   174 P   1     bf  434 -   436          0.000000000000          0.000000000000          1.748320657498
      0.1127496852D+01  0.1000000000D+01
 Atom Cl3      Shell   175 P   1     bf  437 -   439          0.000000000000          0.000000000000          1.748320657498
      0.5757970639D+00  0.1000000000D+01
 Atom Cl3      Shell   176 P   1     bf  440 -   442          0.000000000000          0.000000000000          1.748320657498
      0.2940516050D+00  0.1000000000D+01
 Atom Cl3      Shell   177 P   1     bf  443 -   445          0.000000000000          0.000000000000          1.748320657498
      0.1501680918D+00  0.1000000000D+01
 Atom Cl3      Shell   178 P   1     bf  446 -   448          0.000000000000          0.000000000000          1.748320657498
      0.7668876969D-01  0.1000000000D+01
 Atom Cl3      Shell   179 D   1     bf  449 -   453          0.000000000000          0.000000000000          1.748320657498
      0.1373908542D+05  0.1000000000D+01
 Atom Cl3      Shell   180 D   1     bf  454 -   458          0.000000000000          0.000000000000          1.748320657498
      0.7016361094D+04  0.1000000000D+01
 Atom Cl3      Shell   181 D   1     bf  459 -   463          0.000000000000          0.000000000000          1.748320657498
      0.3583158668D+04  0.1000000000D+01
 Atom Cl3      Shell   182 D   1     bf  464 -   468          0.000000000000          0.000000000000          1.748320657498
      0.1829869625D+04  0.1000000000D+01
 Atom Cl3      Shell   183 D   1     bf  469 -   473          0.000000000000          0.000000000000          1.748320657498
      0.9344891347D+03  0.1000000000D+01
 Atom Cl3      Shell   184 D   1     bf  474 -   478          0.000000000000          0.000000000000          1.748320657498
      0.4772306896D+03  0.1000000000D+01
 Atom Cl3      Shell   185 D   1     bf  479 -   483          0.000000000000          0.000000000000          1.748320657498
      0.2437151195D+03  0.1000000000D+01
 Atom Cl3      Shell   186 D   1     bf  484 -   488          0.000000000000          0.000000000000          1.748320657498
      0.1244619442D+03  0.1000000000D+01
 Atom Cl3      Shell   187 D   1     bf  489 -   493          0.000000000000          0.000000000000          1.748320657498
      0.6356099525D+02  0.1000000000D+01
 Atom Cl3      Shell   188 D   1     bf  494 -   498          0.000000000000          0.000000000000          1.748320657498
      0.3245972208D+02  0.1000000000D+01
 Atom Cl3      Shell   189 D   1     bf  499 -   503          0.000000000000          0.000000000000          1.748320657498
      0.1657673158D+02  0.1000000000D+01
 Atom Cl3      Shell   190 D   1     bf  504 -   508          0.000000000000          0.000000000000          1.748320657498
      0.8465507783D+01  0.1000000000D+01
 Atom Cl3      Shell   191 D   1     bf  509 -   513          0.000000000000          0.000000000000          1.748320657498
      0.4323217860D+01  0.1000000000D+01
 Atom Cl3      Shell   192 D   1     bf  514 -   518          0.000000000000          0.000000000000          1.748320657498
      0.2207807629D+01  0.1000000000D+01
 Atom Cl3      Shell   193 D   1     bf  519 -   523          0.000000000000          0.000000000000          1.748320657498
      0.1127496852D+01  0.1000000000D+01
 Atom Cl3      Shell   194 D   1     bf  524 -   528          0.000000000000          0.000000000000          1.748320657498
      0.5757970639D+00  0.1000000000D+01
 Atom Cl3      Shell   195 D   1     bf  529 -   533          0.000000000000          0.000000000000          1.748320657498
      0.2940516050D+00  0.1000000000D+01
 Atom Cl3      Shell   196 D   1     bf  534 -   538          0.000000000000          0.000000000000          1.748320657498
      0.1501680918D+00  0.1000000000D+01
 Atom Cl3      Shell   197 D   1     bf  539 -   543          0.000000000000          0.000000000000          1.748320657498
      0.7668876969D-01  0.1000000000D+01
 There are   295 symmetry adapted cartesian basis functions of A1  symmetry.
 There are    49 symmetry adapted cartesian basis functions of A2  symmetry.
 There are   124 symmetry adapted cartesian basis functions of B1  symmetry.
 There are   124 symmetry adapted cartesian basis functions of B2  symmetry.
 There are   246 symmetry adapted basis functions of A1  symmetry.
 There are    49 symmetry adapted basis functions of A2  symmetry.
 There are   124 symmetry adapted basis functions of B1  symmetry.
 There are   124 symmetry adapted basis functions of B2  symmetry.
   543 basis functions,   592 primitive gaussians,   592 cartesian basis functions
    15 alpha electrons       14 beta electrons
       nuclear repulsion energy        67.8939236468 Hartrees.
 IExCor= 3731 DFT=T Ex+Corr=APFD ExCW=0 ScaHFX=  0.229450
 ScaDFX=  1.000000  1.000000  1.000000  1.000000 ScalE2=  1.000000  1.000000
 IRadAn= 299974 IRanWt=     -1 IRanGd=            0 ICorTp=0 IEmpDi=211
 NAtoms=    3 NActive=    3 NUniq=    3 SFac= 1.00D+00 NAtFMM=   60 NAOKFM=F Big=F
 Integral buffers will be    131072 words long.
 Raffenetti 2 integral format.
 Two-electron integral symmetry is turned on.
 R6Disp:  Petersson-Frisch Dispersion energy=       -0.0002390189 Hartrees.
 Nuclear repulsion after empirical dispersion term =       67.8936846279 Hartrees.
 Leave Link  301 at Sat Jul 27 10:04:57 2013, MaxMem=  536870912 cpu:       0.2
 (Enter /share/apps/gaussian/gdvh12/gdv/l302.exe)
 NPDir=0 NMtPBC=     1 NCelOv=     1 NCel=       1 NClECP=     1 NCelD=      1
         NCelK=      1 NCelE2=     1 NClLst=     1 CellRange=     0.0.
 One-electron integrals computed using PRISM.
 NBasis=   543 RedAO= T EigKep=  1.98D-06  NBF=   246    49   124   124
 NBsUse=   542 1.00D-06 EigRej=  2.55D-07 NBFU=   245    49   124   124
 Precomputing XC quadrature grid using
 IXCGrd= 2 IRadAn=      299974 IRanWt=          -1 IRanGd=           0 AccXCQ= 0.00D+00.
 NRdTot=     897 NPtTot=      728552 NUsed=      734883 NTot=      734915
 NSgBfM=   420   420   420   420   420 NAtAll=     3     3.
 Leave Link  302 at Sat Jul 27 10:04:58 2013, MaxMem=  536870912 cpu:       1.9
 (Enter /share/apps/gaussian/gdvh12/gdv/l303.exe)
 DipDrv:  MaxL=1.
 Leave Link  303 at Sat Jul 27 10:04:58 2013, MaxMem=  536870912 cpu:       0.3
 (Enter /share/apps/gaussian/gdvh12/gdv/l401.exe)
 ExpMin= 3.92D-02 ExpMax= 2.97D+06 ExpMxC= 2.97D+06 IAcc=4 IRadAn=    299974 AccDes= 0.00D+00
 Harris functional with IExCor= 3731 and IRadAn=  299974 diagonalized for initial guess.
 HarFok:  IExCor= 3731 AccDes= 0.00D+00 IRadAn=    299974 IDoV= 1 UseB2=F ITyADJ=14
 ICtDFT=  3500011 ScaDFX=  1.000000  1.000000  1.000000  1.000000
 FoFCou: FMM=F IPFlag=           0 FMFlag=      100000 FMFlg1=           0
         NFxFlg=           0 DoJE=T BraDBF=F KetDBF=T FulRan=T
         wScrn=  0.000000 ICntrl=     500 IOpCl=  0 I1Cent=   200000004 NGrid=           0
         NMat0=    1 NMatS0=      1 NMatT0=    0 NMatD0=    1 NMtDS0=    0 NMtDT0=    0
 Petite list used in FoFCou.
 Harris En= -527.571448550919    
 Initial guess orbital symmetries:
 Alpha Orbitals:
       Occupied  (SG) (SG) (SG) (SG) (SG) (PI) (PI) (SG) (SG) (SG)
                 (PI) (PI) (SG) (PI) (PI)
       Virtual   (SG) (PI) (PI) (SG) (SG) (PI) (PI) (PI) (PI) (DLTA)
                 (DLTA) (SG) (SG) (DLTA) (DLTA) (PI) (PI) (SG)
                 (PI) (PI) (DLTA) (DLTA) (SG) (SG) (PI) (PI) (DLTA)
                 (DLTA) (PI) (PI) (SG) (SG) (PI) (PI) (DLTA) (DLTA)
                 (PI) (PI) (SG) (PI) (PI) (SG) (DLTA) (DLTA) (PI)
                 (PI) (SG) (DLTA) (DLTA) (SG) (PI) (PI) (SG) (SG)
                 (PI) (PI) (DLTA) (DLTA) (PI) (PI) (SG) (PI) (PI)
                 (SG) (PI) (PI) (SG) (DLTA) (DLTA) (SG) (PI) (PI)
                 (SG) (PI) (PI) (DLTA) (DLTA) (SG) (SG) (SG) (PI)
                 (PI) (DLTA) (DLTA) (SG) (PI) (PI) (PI) (PI) (SG)
                 (SG) (DLTA) (DLTA) (PI) (PI) (PI) (PI) (SG) (PI)
                 (PI) (SG) (SG) (SG) (DLTA) (DLTA) (PI) (PI) (DLTA)
                 (DLTA) (SG) (SG) (PI) (PI) (SG) (SG) (PI) (PI)
                 (SG) (PI) (PI) (DLTA) (DLTA) (PI) (PI) (SG) (SG)
                 (PI) (PI) (SG) (SG) (DLTA) (DLTA) (PI) (PI) (DLTA)
                 (DLTA) (SG) (PI) (PI) (SG) (SG) (SG) (SG) (PI)
                 (PI) (PI) (PI) (DLTA) (DLTA) (PI) (PI) (SG) (SG)
                 (SG) (PI) (PI) (DLTA) (DLTA) (PI) (PI) (SG) (DLTA)
                 (DLTA) (PI) (PI) (SG) (SG) (SG) (SG) (PI) (PI)
                 (SG) (PI) (PI) (DLTA) (DLTA) (PI) (PI) (SG) (SG)
                 (SG) (DLTA) (DLTA) (PI) (PI) (DLTA) (DLTA) (PI)
                 (PI) (SG) (PI) (PI) (SG) (SG) (SG) (SG) (PI) (PI)
                 (PI) (PI) (SG) (SG) (DLTA) (DLTA) (PI) (PI) (SG)
                 (SG) (DLTA) (DLTA) (PI) (PI) (DLTA) (DLTA) (PI)
                 (PI) (SG) (PI) (PI) (SG) (SG) (SG) (PI) (PI) (PI)
                 (PI) (SG) (SG) (DLTA) (DLTA) (PI) (PI) (SG) (SG)
                 (SG) (DLTA) (DLTA) (PI) (PI) (DLTA) (DLTA) (PI)
                 (PI) (SG) (SG) (SG) (PI) (PI) (SG) (PI) (PI) (PI)
                 (PI) (SG) (SG) (DLTA) (DLTA) (PI) (PI) (SG) (SG)
                 (DLTA) (DLTA) (SG) (PI) (PI) (DLTA) (DLTA) (PI)
                 (PI) (SG) (SG) (SG) (PI) (PI) (SG) (PI) (PI) (PI)
                 (PI) (SG) (SG) (DLTA) (DLTA) (PI) (PI) (SG) (DLTA)
                 (DLTA) (SG) (PI) (PI) (DLTA) (DLTA) (PI) (PI)
                 (SG) (SG) (SG) (SG) (PI) (PI) (SG) (PI) (PI) (PI)
                 (PI) (SG) (SG) (DLTA) (DLTA) (PI) (PI) (SG) (DLTA)
                 (DLTA) (SG) (PI) (PI) (DLTA) (DLTA) (PI) (PI)
                 (SG) (SG) (SG) (SG) (PI) (PI) (SG) (PI) (PI) (PI)
                 (PI) (SG) (SG) (DLTA) (DLTA) (PI) (PI) (SG) (DLTA)
                 (DLTA) (SG) (PI) (PI) (DLTA) (DLTA) (PI) (PI)
                 (SG) (SG) (SG) (SG) (PI) (PI) (SG) (PI) (PI) (PI)
                 (PI) (SG) (SG) (DLTA) (DLTA) (PI) (PI) (SG) (DLTA)
                 (DLTA) (SG) (PI) (PI) (DLTA) (DLTA) (PI) (PI)
                 (SG) (SG) (SG) (SG) (PI) (PI) (SG) (PI) (PI) (PI)
                 (PI) (SG) (SG) (DLTA) (DLTA) (PI) (PI) (SG) (SG)
                 (SG) (SG) (PI) (PI) (SG) (PI) (PI) (PI) (PI) (SG)
                 (SG) (DLTA) (DLTA) (PI) (PI) (SG) (SG) (SG) (SG)
                 (PI) (PI) (SG) (PI) (PI) (PI) (PI) (SG) (SG) (DLTA)
                 (DLTA) (PI) (PI) (SG) (SG) (SG) (SG) (PI) (PI)
                 (SG) (PI) (PI) (PI) (PI) (SG) (SG) (DLTA) (DLTA)
                 (PI) (PI) (SG) (SG) (SG) (SG) (PI) (PI) (SG) (PI)
                 (PI) (PI) (PI) (SG) (SG) (DLTA) (DLTA) (PI) (PI)
                 (SG) (SG) (SG) (SG) (PI) (PI) (SG) (PI) (PI) (PI)
                 (PI) (SG) (SG) (SG) (SG) (SG) (PI) (PI) (SG) (PI)
                 (PI) (PI) (PI) (SG) (SG) (SG) (SG) (SG) (PI) (PI)
                 (SG) (PI) (PI) (PI) (PI) (SG) (SG) (SG) (PI) (PI)
                 (SG) (SG) (SG) (PI) (PI) (PI) (PI) (SG) (SG) (SG)
                 (PI) (PI) (SG) (SG) (PI) (PI) (SG) (SG) (PI) (PI)
                 (SG) (SG) (PI) (PI) (SG)
 Beta  Orbitals:
       Occupied  (SG) (SG) (SG) (SG) (SG) (PI) (PI) (SG) (SG) (SG)
                 (PI) (PI) (SG) (PI)
       Virtual   (PI) (SG) (PI) (PI) (SG) (SG) (PI) (PI) (PI) (PI)
                 (DLTA) (DLTA) (SG) (SG) (DLTA) (DLTA) (PI) (PI)
                 (SG) (PI) (PI) (DLTA) (DLTA) (SG) (SG) (PI) (PI)
                 (DLTA) (DLTA) (PI) (PI) (SG) (SG) (PI) (PI) (DLTA)
                 (DLTA) (PI) (PI) (SG) (PI) (PI) (SG) (DLTA) (DLTA)
                 (PI) (PI) (SG) (DLTA) (DLTA) (SG) (PI) (PI) (SG)
                 (SG) (PI) (PI) (DLTA) (DLTA) (PI) (PI) (SG) (PI)
                 (PI) (SG) (PI) (PI) (SG) (DLTA) (DLTA) (SG) (PI)
                 (PI) (SG) (PI) (PI) (DLTA) (DLTA) (SG) (SG) (SG)
                 (PI) (PI) (DLTA) (DLTA) (SG) (PI) (PI) (PI) (PI)
                 (SG) (SG) (DLTA) (DLTA) (PI) (PI) (PI) (PI) (SG)
                 (PI) (PI) (SG) (SG) (SG) (DLTA) (DLTA) (PI) (PI)
                 (DLTA) (DLTA) (SG) (SG) (PI) (PI) (SG) (SG) (PI)
                 (PI) (SG) (PI) (PI) (DLTA) (DLTA) (PI) (PI) (SG)
                 (SG) (PI) (PI) (SG) (SG) (DLTA) (DLTA) (PI) (PI)
                 (DLTA) (DLTA) (SG) (PI) (PI) (SG) (SG) (SG) (SG)
                 (PI) (PI) (PI) (PI) (DLTA) (DLTA) (PI) (PI) (SG)
                 (SG) (SG) (PI) (PI) (DLTA) (DLTA) (PI) (PI) (SG)
                 (DLTA) (DLTA) (PI) (PI) (SG) (SG) (SG) (SG) (PI)
                 (PI) (SG) (PI) (PI) (DLTA) (DLTA) (PI) (PI) (SG)
                 (SG) (SG) (DLTA) (DLTA) (PI) (PI) (DLTA) (DLTA)
                 (PI) (PI) (SG) (PI) (PI) (SG) (SG) (SG) (SG) (PI)
                 (PI) (PI) (PI) (SG) (SG) (DLTA) (DLTA) (PI) (PI)
                 (SG) (SG) (DLTA) (DLTA) (PI) (PI) (DLTA) (DLTA)
                 (PI) (PI) (SG) (PI) (PI) (SG) (SG) (SG) (PI) (PI)
                 (PI) (PI) (SG) (SG) (DLTA) (DLTA) (PI) (PI) (SG)
                 (SG) (SG) (DLTA) (DLTA) (PI) (PI) (DLTA) (DLTA)
                 (PI) (PI) (SG) (SG) (SG) (PI) (PI) (SG) (PI) (PI)
                 (PI) (PI) (SG) (SG) (DLTA) (DLTA) (PI) (PI) (SG)
                 (SG) (DLTA) (DLTA) (SG) (PI) (PI) (DLTA) (DLTA)
                 (PI) (PI) (SG) (SG) (SG) (PI) (PI) (SG) (PI) (PI)
                 (PI) (PI) (SG) (SG) (DLTA) (DLTA) (PI) (PI) (SG)
                 (DLTA) (DLTA) (SG) (PI) (PI) (DLTA) (DLTA) (PI)
                 (PI) (SG) (SG) (SG) (SG) (PI) (PI) (SG) (PI) (PI)
                 (PI) (PI) (SG) (SG) (DLTA) (DLTA) (PI) (PI) (SG)
                 (DLTA) (DLTA) (SG) (PI) (PI) (DLTA) (DLTA) (PI)
                 (PI) (SG) (SG) (SG) (SG) (PI) (PI) (SG) (PI) (PI)
                 (PI) (PI) (SG) (SG) (DLTA) (DLTA) (PI) (PI) (SG)
                 (DLTA) (DLTA) (SG) (PI) (PI) (DLTA) (DLTA) (PI)
                 (PI) (SG) (SG) (SG) (SG) (PI) (PI) (SG) (PI) (PI)
                 (PI) (PI) (SG) (SG) (DLTA) (DLTA) (PI) (PI) (SG)
                 (DLTA) (DLTA) (SG) (PI) (PI) (DLTA) (DLTA) (PI)
                 (PI) (SG) (SG) (SG) (SG) (PI) (PI) (SG) (PI) (PI)
                 (PI) (PI) (SG) (SG) (DLTA) (DLTA) (PI) (PI) (SG)
                 (SG) (SG) (SG) (PI) (PI) (SG) (PI) (PI) (PI) (PI)
                 (SG) (SG) (DLTA) (DLTA) (PI) (PI) (SG) (SG) (SG)
                 (SG) (PI) (PI) (SG) (PI) (PI) (PI) (PI) (SG) (SG)
                 (DLTA) (DLTA) (PI) (PI) (SG) (SG) (SG) (SG) (PI)
                 (PI) (SG) (PI) (PI) (PI) (PI) (SG) (SG) (DLTA)
                 (DLTA) (PI) (PI) (SG) (SG) (SG) (SG) (PI) (PI)
                 (SG) (PI) (PI) (PI) (PI) (SG) (SG) (DLTA) (DLTA)
                 (PI) (PI) (SG) (SG) (SG) (SG) (PI) (PI) (SG) (PI)
                 (PI) (PI) (PI) (SG) (SG) (SG) (SG) (SG) (PI) (PI)
                 (SG) (PI) (PI) (PI) (PI) (SG) (SG) (SG) (SG) (SG)
                 (PI) (PI) (SG) (PI) (PI) (PI) (PI) (SG) (SG) (SG)
                 (PI) (PI) (SG) (SG) (SG) (PI) (PI) (PI) (PI) (SG)
                 (SG) (SG) (PI) (PI) (SG) (SG) (PI) (PI) (SG) (SG)
                 (PI) (PI) (SG) (SG) (PI) (PI) (SG)
 Initial guess <Sx>= 0.0000 <Sy>= 0.0000 <Sz>= 0.5000 <S**2>= 0.7500 S= 0.5000
 Leave Link  401 at Sat Jul 27 10:05:09 2013, MaxMem=  536870912 cpu:      21.7
 (Enter /share/apps/gaussian/gdvh12/gdv/l502.exe)
 UHF open shell SCF:
 Using DIIS extrapolation, IDIIS=  1040.
 Integral symmetry usage will be decided dynamically.
       734843 words used for storage of precomputed grid.
 IVT=     1812822 IEndB=     1812822 NGot=   536870912 MDV=   535425787
 LenX=   535425787 LenY=   535074731
 Requested convergence on RMS density matrix=1.00D-08 within 128 cycles.
 Requested convergence on MAX density matrix=1.00D-06.
 Requested convergence on             energy=1.00D-06.
 No special actions if energy rises.
 Fock matrices will be formed incrementally for  20 cycles.

 Cycle   1  Pass 1  IDiag  1:
 FoFJK:  IHMeth= 1 ICntrl=       0 DoSepK=F KAlg= 0 I1Cent=   0 FoldK=F
 IRaf=       0 NMat=   1 IRICut=       1 DoRegI=T DoRafI=F ISym2E= 1.
 FoFCou: FMM=F IPFlag=           0 FMFlag=      100000 FMFlg1=           0
         NFxFlg=           0 DoJE=F BraDBF=F KetDBF=F FulRan=T
         wScrn=  0.000000 ICntrl=       0 IOpCl=  1 I1Cent=           0 NGrid=           0
         NMat0=    1 NMatS0=      1 NMatT0=    0 NMatD0=    1 NMtDS0=    0 NMtDT0=    0
 Petite list used in FoFCou.
 E= -535.480343699461    
 DIIS: error= 1.05D-01 at cycle   1 NSaved=   1.
 NSaved= 1 IEnMin= 1 EnMin= -535.480343699461     IErMin= 1 ErrMin= 1.05D-01
 ErrMax= 1.05D-01  0.00D+00 EMaxC= 1.00D-01 BMatC= 1.02D+01 BMatP= 1.02D+01
 IDIUse=3 WtCom= 0.00D+00 WtEn= 1.00D+00
 Coeff-Com:  0.100D+01
 Coeff-En:   0.100D+01
 Coeff:      0.100D+01
 Gap=     0.037 Goal=   None    Shift=    0.000
 Gap=     0.394 Goal=   None    Shift=    0.000
 GapD=    0.037 DampG=0.250 DampE=0.250 DampFc=0.2500 IDamp=-1.
 Damping current iteration by 2.50D-01
 RMSDP=2.61D-03 MaxDP=2.23D-01              OVMax= 9.42D-01

 Cycle   2  Pass 1  IDiag  1:
 RMSU=  6.31D-04    CP:  9.59D-01
 E= -535.633979830574     Delta-E=       -0.153636131113 Rises=F Damp=T
 DIIS: error= 7.65D-02 at cycle   2 NSaved=   2.
 NSaved= 2 IEnMin= 2 EnMin= -535.633979830574     IErMin= 2 ErrMin= 7.65D-02
 ErrMax= 7.65D-02  0.00D+00 EMaxC= 1.00D-01 BMatC= 4.30D+00 BMatP= 1.02D+01
 IDIUse=3 WtCom= 2.35D-01 WtEn= 7.65D-01
 Coeff-Com: -0.970D+00 0.197D+01
 Coeff-En:   0.257D+00 0.743D+00
 Coeff:     -0.307D-01 0.103D+01
 Gap=     0.113 Goal=   None    Shift=    0.000
 Gap=     0.170 Goal=   None    Shift=    0.000
 RMSDP=1.22D-03 MaxDP=1.89D-01 DE=-1.54D-01 OVMax= 9.70D-01

 Cycle   3  Pass 1  IDiag  1:
 RMSU=  1.12D-03    CP:  8.40D-01  1.05D+00
 E= -535.993043727916     Delta-E=       -0.359063897342 Rises=F Damp=F
 DIIS: error= 2.24D-02 at cycle   3 NSaved=   3.
 NSaved= 3 IEnMin= 3 EnMin= -535.993043727916     IErMin= 3 ErrMin= 2.24D-02
 ErrMax= 2.24D-02  0.00D+00 EMaxC= 1.00D-01 BMatC= 4.95D-01 BMatP= 4.30D+00
 IDIUse=3 WtCom= 7.76D-01 WtEn= 2.24D-01
 Coeff-Com: -0.151D+00 0.390D+00 0.760D+00
 Coeff-En:   0.000D+00 0.000D+00 0.100D+01
 Coeff:     -0.117D+00 0.303D+00 0.814D+00
 Gap=     0.229 Goal=   None    Shift=    0.000
 Gap=     0.023 Goal=   None    Shift=    0.000
 RMSDP=7.11D-04 MaxDP=8.87D-02 DE=-3.59D-01 OVMax= 1.60D-01

 Cycle   4  Pass 1  IDiag  1:
 RMSU=  5.77D-04    CP:  8.84D-01  1.06D+00  6.65D-01
 E= -535.986027400356     Delta-E=        0.007016327559 Rises=F Damp=F
 DIIS: error= 2.60D-02 at cycle   4 NSaved=   4.
 NSaved= 4 IEnMin= 3 EnMin= -535.993043727916     IErMin= 3 ErrMin= 2.24D-02
 ErrMax= 2.60D-02  0.00D+00 EMaxC= 1.00D-01 BMatC= 3.95D-01 BMatP= 4.95D-01
 IDIUse=3 WtCom= 7.40D-01 WtEn= 2.60D-01
 Coeff-Com: -0.396D-01 0.102D+00 0.467D+00 0.471D+00
 Coeff-En:   0.000D+00 0.000D+00 0.519D+00 0.481D+00
 Coeff:     -0.293D-01 0.753D-01 0.480D+00 0.474D+00
 Gap=     0.257 Goal=   None    Shift=    0.000
 Gap=     0.058 Goal=   None    Shift=    0.000
 RMSDP=5.41D-04 MaxDP=8.87D-02 DE= 7.02D-03 OVMax= 2.21D-01

 Cycle   5  Pass 1  IDiag  1:
 RMSU=  4.08D-04    CP:  8.12D-01  1.19D+00  7.13D-01  6.77D-01
 E= -536.066641334254     Delta-E=       -0.080613933897 Rises=F Damp=F
 DIIS: error= 6.47D-03 at cycle   5 NSaved=   5.
 NSaved= 5 IEnMin= 5 EnMin= -536.066641334254     IErMin= 5 ErrMin= 6.47D-03
 ErrMax= 6.47D-03  0.00D+00 EMaxC= 1.00D-01 BMatC= 2.87D-02 BMatP= 3.95D-01
 IDIUse=3 WtCom= 9.35D-01 WtEn= 6.47D-02
 Coeff-Com:  0.278D-01-0.350D-01 0.148D+00 0.249D+00 0.610D+00
 Coeff-En:   0.000D+00 0.000D+00 0.000D+00 0.774D-02 0.992D+00
 Coeff:      0.260D-01-0.327D-01 0.138D+00 0.234D+00 0.635D+00
 Gap=     0.280 Goal=   None    Shift=    0.000
 Gap=     0.076 Goal=   None    Shift=    0.000
 DSYEVD returned Info=        7999 IAlg= 4 N=   124 NDim=   542 NE2=      987221 trying DSYEV.
 RMSDP=2.37D-04 MaxDP=2.79D-02 DE=-8.06D-02 OVMax= 3.09D-02

 Cycle   6  Pass 1  IDiag  1:
 RMSU=  1.39D-04    CP:  8.42D-01  1.24D+00  6.52D-01  8.89D-01  8.98D-01
 E= -536.074153248046     Delta-E=       -0.007511913793 Rises=F Damp=F
 DIIS: error= 1.06D-03 at cycle   6 NSaved=   6.
 NSaved= 6 IEnMin= 6 EnMin= -536.074153248046     IErMin= 6 ErrMin= 1.06D-03
 ErrMax= 1.06D-03  0.00D+00 EMaxC= 1.00D-01 BMatC= 8.60D-04 BMatP= 2.87D-02
 IDIUse=3 WtCom= 9.89D-01 WtEn= 1.06D-02
 Coeff-Com:  0.163D-01-0.229D-01 0.960D-02 0.248D-01 0.153D+00 0.819D+00
 Coeff-En:   0.000D+00 0.000D+00 0.000D+00 0.000D+00 0.000D+00 0.100D+01
 Coeff:      0.161D-01-0.226D-01 0.949D-02 0.246D-01 0.151D+00 0.821D+00
 Gap=     0.283 Goal=   None    Shift=    0.000
 Gap=     0.082 Goal=   None    Shift=    0.000
 RMSDP=9.73D-05 MaxDP=2.01D-02 DE=-7.51D-03 OVMax= 1.96D-02

 Cycle   7  Pass 1  IDiag  1:
 RMSU=  5.89D-05    CP:  8.26D-01  1.23D+00  6.51D-01  8.86D-01  9.97D-01
                    CP:  8.84D-01
 E= -536.074461026640     Delta-E=       -0.000307778593 Rises=F Damp=F
 DIIS: error= 5.03D-04 at cycle   7 NSaved=   7.
 NSaved= 7 IEnMin= 7 EnMin= -536.074461026640     IErMin= 7 ErrMin= 5.03D-04
 ErrMax= 5.03D-04  0.00D+00 EMaxC= 1.00D-01 BMatC= 1.32D-04 BMatP= 8.60D-04
 IDIUse=3 WtCom= 9.95D-01 WtEn= 5.03D-03
 Coeff-Com:  0.216D-02-0.250D-02-0.506D-02-0.149D-01-0.760D-01 0.503D-01
 Coeff-Com:  0.105D+01
 Coeff-En:   0.000D+00 0.000D+00 0.000D+00 0.000D+00 0.000D+00 0.000D+00
 Coeff-En:   0.100D+01
 Coeff:      0.215D-02-0.248D-02-0.504D-02-0.148D-01-0.756D-01 0.500D-01
 Coeff:      0.105D+01
 Gap=     0.284 Goal=   None    Shift=    0.000
 Gap=     0.084 Goal=   None    Shift=    0.000
 RMSDP=3.51D-05 MaxDP=7.98D-03 DE=-3.08D-04 OVMax= 8.26D-03

 Cycle   8  Pass 1  IDiag  1:
 RMSU=  1.18D-05    CP:  8.24D-01  1.24D+00  6.58D-01  8.90D-01  9.80D-01
                    CP:  9.19D-01  1.49D+00
 E= -536.074525449630     Delta-E=       -0.000064422990 Rises=F Damp=F
 DIIS: error= 1.31D-04 at cycle   8 NSaved=   8.
 NSaved= 8 IEnMin= 8 EnMin= -536.074525449630     IErMin= 8 ErrMin= 1.31D-04
 ErrMax= 1.31D-04  0.00D+00 EMaxC= 1.00D-01 BMatC= 1.18D-05 BMatP= 1.32D-04
 IDIUse=3 WtCom= 9.99D-01 WtEn= 1.31D-03
 Coeff-Com:  0.156D-03-0.210D-03-0.119D-02-0.741D-03-0.219D-01-0.597D-01
 Coeff-Com:  0.105D+00 0.978D+00
 Coeff-En:   0.000D+00 0.000D+00 0.000D+00 0.000D+00 0.000D+00 0.000D+00
 Coeff-En:   0.000D+00 0.100D+01
 Coeff:      0.156D-03-0.209D-03-0.119D-02-0.740D-03-0.218D-01-0.596D-01
 Coeff:      0.105D+00 0.978D+00
 Gap=     0.284 Goal=   None    Shift=    0.000
 Gap=     0.084 Goal=   None    Shift=    0.000
 RMSDP=1.40D-05 MaxDP=2.23D-03 DE=-6.44D-05 OVMax= 2.40D-03

 Cycle   9  Pass 1  IDiag  1:
 RMSU=  3.84D-06    CP:  8.24D-01  1.23D+00  6.63D-01  8.90D-01  9.62D-01
                    CP:  9.23D-01  1.64D+00  1.45D+00
 E= -536.074531303593     Delta-E=       -0.000005853964 Rises=F Damp=F
 DIIS: error= 4.18D-05 at cycle   9 NSaved=   9.
 NSaved= 9 IEnMin= 9 EnMin= -536.074531303593     IErMin= 9 ErrMin= 4.18D-05
 ErrMax= 4.18D-05  0.00D+00 EMaxC= 1.00D-01 BMatC= 9.02D-07 BMatP= 1.18D-05
 IDIUse=1 WtCom= 1.00D+00 WtEn= 0.00D+00
 Coeff-Com:  0.126D-03-0.181D-03 0.288D-05 0.861D-03 0.170D-02-0.156D-01
 Coeff-Com: -0.735D-01 0.125D+00 0.962D+00
 Coeff:      0.126D-03-0.181D-03 0.288D-05 0.861D-03 0.170D-02-0.156D-01
 Coeff:     -0.735D-01 0.125D+00 0.962D+00
 Gap=     0.284 Goal=   None    Shift=    0.000
 Gap=     0.084 Goal=   None    Shift=    0.000
 RMSDP=5.65D-06 MaxDP=1.04D-03 DE=-5.85D-06 OVMax= 7.64D-04

 Cycle  10  Pass 1  IDiag  1:
 RMSU=  1.21D-06    CP:  8.23D-01  1.23D+00  6.65D-01  8.89D-01  9.56D-01
                    CP:  9.22D-01  1.70D+00  1.63D+00  1.40D+00
 E= -536.074531910347     Delta-E=       -0.000000606754 Rises=F Damp=F
 DIIS: error= 2.63D-05 at cycle  10 NSaved=  10.
 NSaved=10 IEnMin=10 EnMin= -536.074531910347     IErMin=10 ErrMin= 2.63D-05
 ErrMax= 2.63D-05  0.00D+00 EMaxC= 1.00D-01 BMatC= 9.80D-08 BMatP= 9.02D-07
 IDIUse=1 WtCom= 1.00D+00 WtEn= 0.00D+00
 Coeff-Com:  0.615D-04-0.738D-04 0.324D-03 0.599D-05 0.151D-02 0.454D-02
 Coeff-Com: -0.742D-02-0.901D-01-0.148D-01 0.111D+01
 Coeff:      0.615D-04-0.738D-04 0.324D-03 0.599D-05 0.151D-02 0.454D-02
 Coeff:     -0.742D-02-0.901D-01-0.148D-01 0.111D+01
 Gap=     0.284 Goal=   None    Shift=    0.000
 Gap=     0.084 Goal=   None    Shift=    0.000
 RMSDP=1.70D-06 MaxDP=2.84D-04 DE=-6.07D-07 OVMax= 3.28D-04

 Cycle  11  Pass 1  IDiag  1:
 RMSU=  3.33D-07    CP:  8.24D-01  1.23D+00  6.65D-01  8.89D-01  9.53D-01
                    CP:  9.22D-01  1.70D+00  1.68D+00  1.58D+00  1.33D+00
 E= -536.074532006594     Delta-E=       -0.000000096247 Rises=F Damp=F
 DIIS: error= 7.10D-06 at cycle  11 NSaved=  11.
 NSaved=11 IEnMin=11 EnMin= -536.074532006594     IErMin=11 ErrMin= 7.10D-06
 ErrMax= 7.10D-06  0.00D+00 EMaxC= 1.00D-01 BMatC= 1.18D-08 BMatP= 9.80D-08
 IDIUse=1 WtCom= 1.00D+00 WtEn= 0.00D+00
 Coeff-Com: -0.316D-04 0.386D-04-0.121D-03-0.442D-04-0.416D-03-0.874D-04
 Coeff-Com:  0.882D-02 0.300D-01-0.107D+00-0.465D+00 0.153D+01
 Coeff:     -0.316D-04 0.386D-04-0.121D-03-0.442D-04-0.416D-03-0.874D-04
 Coeff:      0.882D-02 0.300D-01-0.107D+00-0.465D+00 0.153D+01
 Gap=     0.284 Goal=   None    Shift=    0.000
 Gap=     0.084 Goal=   None    Shift=    0.000
 RMSDP=3.69D-07 MaxDP=2.74D-05 DE=-9.62D-08 OVMax= 1.87D-04

 Cycle  12  Pass 1  IDiag  1:
 RMSU=  1.27D-07    CP:  8.24D-01  1.23D+00  6.65D-01  8.89D-01  9.54D-01
                    CP:  9.22D-01  1.70D+00  1.68D+00  1.60D+00  1.48D+00
                    CP:  1.76D+00
 E= -536.074532027341     Delta-E=       -0.000000020746 Rises=F Damp=F
 DIIS: error= 2.13D-06 at cycle  12 NSaved=  12.
 NSaved=12 IEnMin=12 EnMin= -536.074532027341     IErMin=12 ErrMin= 2.13D-06
 ErrMax= 2.13D-06  0.00D+00 EMaxC= 1.00D-01 BMatC= 9.77D-10 BMatP= 1.18D-08
 IDIUse=1 WtCom= 1.00D+00 WtEn= 0.00D+00
 Coeff-Com: -0.165D-04 0.219D-04-0.208D-04-0.185D-04-0.779D-04-0.275D-03
 Coeff-Com: -0.985D-03-0.221D-02 0.299D-01 0.105D-01-0.397D+00 0.136D+01
 Coeff:     -0.165D-04 0.219D-04-0.208D-04-0.185D-04-0.779D-04-0.275D-03
 Coeff:     -0.985D-03-0.221D-02 0.299D-01 0.105D-01-0.397D+00 0.136D+01
 Gap=     0.284 Goal=   None    Shift=    0.000
 Gap=     0.084 Goal=   None    Shift=    0.000
 RMSDP=2.58D-07 MaxDP=3.26D-05 DE=-2.07D-08 OVMax= 5.04D-05

 Cycle  13  Pass 1  IDiag  1:
 RMSU=  5.30D-08    CP:  8.24D-01  1.23D+00  6.65D-01  8.89D-01  9.54D-01
                    CP:  9.22D-01  1.70D+00  1.68D+00  1.59D+00  1.47D+00
                    CP:  1.94D+00  1.46D+00
 E= -536.074532028685     Delta-E=       -0.000000001344 Rises=F Damp=F
 DIIS: error= 3.76D-07 at cycle  13 NSaved=  13.
 NSaved=13 IEnMin=13 EnMin= -536.074532028685     IErMin=13 ErrMin= 3.76D-07
 ErrMax= 3.76D-07  0.00D+00 EMaxC= 1.00D-01 BMatC= 3.76D-11 BMatP= 9.77D-10
 IDIUse=1 WtCom= 1.00D+00 WtEn= 0.00D+00
 Coeff-Com: -0.269D-05 0.376D-05 0.159D-06-0.444D-05 0.649D-05 0.785D-04
 Coeff-Com: -0.330D-03-0.158D-02 0.312D-02 0.201D-01-0.574D-01-0.113D-01
 Coeff-Com:  0.105D+01
 Coeff:     -0.269D-05 0.376D-05 0.159D-06-0.444D-05 0.649D-05 0.785D-04
 Coeff:     -0.330D-03-0.158D-02 0.312D-02 0.201D-01-0.574D-01-0.113D-01
 Coeff:      0.105D+01
 Gap=     0.284 Goal=   None    Shift=    0.000
 Gap=     0.084 Goal=   None    Shift=    0.000
 RMSDP=4.55D-08 MaxDP=6.02D-06 DE=-1.34D-09 OVMax= 5.05D-06

 Cycle  14  Pass 1  IDiag  1:
 RMSU=  5.15D-09    CP:  8.24D-01  1.23D+00  6.65D-01  8.89D-01  9.54D-01
                    CP:  9.23D-01  1.70D+00  1.68D+00  1.59D+00  1.47D+00
                    CP:  1.93D+00  1.50D+00  1.27D+00
 E= -536.074532028707     Delta-E=       -0.000000000023 Rises=F Damp=F
[...]
 Vibrational              4.501              2.543              2.119
 Vibration     1          0.653              1.793              1.867
                       Q            Log10(Q)             Ln(Q)
 Total Bot       0.525197D+08          7.720322         17.776699
 Total V=0       0.549627D+11         10.740068         24.729921
 Vib (Bot)       0.145911D-02         -2.835912         -6.529928
 Vib (Bot)    1  0.850266D+00         -0.070445         -0.162206
 Vib (V=0)       0.152698D+01          0.183835          0.423295
 Vib (V=0)    1  0.148638D+01          0.172131          0.396346
 Electronic      0.200000D+01          0.301030          0.693147
 Translational   0.177987D+08          7.250389         16.694638
 Rotational      0.101115D+04          3.004814          6.918841
 
                                                CCCl pre-optimized at apfd/aug-cc
 -pVTZ
                                                             IR Spectrum
 
     1                                                                                                                               
     8                                                                            7                                  2               
     9                                                                            5                                  3               
     8                                                                            2                                  1               
 
     X                                                                            X                                                  
     X                                                                            X                                                  
                                                                                  X                                                  
                                                                                  X                                                  
                                                                                  X                                                  
                                                                                  X                                                  
                                                                                  X                                                  
                                                                                  X                                                  
                                                                                  X                                                  
                                                                                  X                                                  
                                                                                  X                                                  
                                                                                  X                                                  
                                                                                  X                                                  
                                                                                  X                                                  
                                                                                  X                                                  
                                                                                  X                                                  
                                                                                  X                                                  
                                                                                  X                                                  
                                                                                  X                                                  
                                                                                  X                                                  
 
 ***** Axes restored to original set *****
 -------------------------------------------------------------------
 Center     Atomic                   Forces (Hartrees/Bohr)
 Number     Number              X              Y              Z
 -------------------------------------------------------------------
      1        6          -0.000008633    0.000000000    0.000000000
      2        6           0.000007204    0.000000000    0.000000000
      3       17           0.000001429    0.000000000    0.000000000
 -------------------------------------------------------------------
 Cartesian Forces:  Max     0.000008633 RMS     0.000003778
 Force constants in Cartesian coordinates: 
                1             2             3             4             5 
      1  0.700808D+00
      2  0.000000D+00 -0.204760D-01
      3  0.000000D+00  0.000000D+00  0.547351D-02
      4 -0.707333D+00  0.000000D+00  0.000000D+00  0.106978D+01
      5  0.000000D+00  0.367781D-01  0.000000D+00  0.000000D+00 -0.660525D-01
      6  0.000000D+00  0.000000D+00 -0.983257D-02  0.000000D+00  0.000000D+00
      7  0.652476D-02  0.000000D+00  0.000000D+00 -0.362444D+00  0.000000D+00
      8  0.000000D+00 -0.163021D-01  0.000000D+00  0.000000D+00  0.292744D-01
      9  0.000000D+00  0.000000D+00  0.435905D-02  0.000000D+00  0.000000D+00
                6             7             8             9 
      6  0.176712D-01
      7  0.000000D+00  0.355920D+00
      8  0.000000D+00  0.000000D+00 -0.129724D-01
      9 -0.783860D-02  0.000000D+00  0.000000D+00  0.347955D-02
 Red2BG is reusing G-inverse.
 Force constants in internal coordinates: 
                1             2             3             4 
      1  0.700808D+00
      2 -0.652476D-02  0.355920D+00
      3  0.000000D+00  0.000000D+00  0.322591D-01
      4  0.000000D+00  0.000000D+00  0.000000D+00 -0.120550D+00
 Leave Link  716 at Mon Jul 29 13:50:45 2013, MaxMem=  536870912 cpu:       0.2
 (Enter /share/apps/gaussian/gdvh12/gdv/l717.exe)

 **********************************************************************

             Second-order Perturbative Anharmonic Analysis

 **********************************************************************


     ==================================================
               Analysis of the Rotor Symmetry
     ==================================================

 Framework Group : C*V 
 Rotor Type      : Linear Molecule
 Representation  : III r Representation, Ix < Iy < Iz

 For representation A1  
    4 Vibrations with frequencies:
   -447.60    231.49    752.46   1897.81

                             Possible   Symmetry allowed
 Coriolis couplings:            30           20
 Third derivatives :            20           20
 Fourth derivatives: total      35           35
                     (ii|jj)    10           10
                     (ii|jk)    24           24
 NO Anharmonic analysis for Linear Molecules
 Leave Link  717 at Mon Jul 29 13:50:45 2013, MaxMem=  536870912 cpu:       0.0
 (Enter /share/apps/gaussian/gdvh12/gdv/l103.exe)

 GradGradGradGradGradGradGradGradGradGradGradGradGradGradGradGradGradGrad
 Berny optimization.
 Red2BG is reusing G-inverse.
 Internal  Forces:  Max     0.000008633 RMS     0.000004375
 Search for a local minimum.
 Step number   1 out of a maximum of    2
 All quantities printed in internal units (Hartrees-Bohrs-Radians)
 Second derivative matrix not updated -- analytic derivatives used.
 The second derivative matrix:
                          R1        R2        A1        A2
           R1           0.70081
           R2          -0.00652   0.35592
           A1           0.00000   0.00000   0.03226
           A2           0.00000   0.00000   0.00000  -0.12055
 ITU=  0
     Eigenvalues ---   -0.12055   0.03226   0.35580   0.70093
 Eigenvalue     1 is  -1.21D-01 should be greater than     0.000000 Eigenvector:
                          A2        A1        R1        R2
   1                    1.00000   0.00000   0.00000   0.00000
 Angle between quadratic step and forces=   9.54 degrees.
 Linear search not attempted -- first point.
 Iteration  1 RMS(Cart)=  0.00000610 RMS(Int)=  0.00000000
 Iteration  2 RMS(Cart)=  0.00000000 RMS(Int)=  0.00000000
 ClnCor:  largest displacement from symmetrization is 1.72D-14 for atom     2.
 Variable       Old X    -DE/DX   Delta X   Delta X   Delta X     New X
                                 (Linear)    (Quad)   (Total)
    R1        2.42666   0.00001   0.00000   0.00001   0.00001   2.42667
    R2        3.04775   0.00000   0.00000   0.00000   0.00000   3.04776
    A1        3.14159   0.00000   0.00000   0.00000   0.00000   3.14159
    A2        3.14159   0.00000   0.00000   0.00000   0.00000   3.14159
         Item               Value     Threshold  Converged?
 Maximum Force            0.000009     0.000015     YES
 RMS     Force            0.000004     0.000010     YES
 Maximum Displacement     0.000010     0.000060     YES
 RMS     Displacement     0.000006     0.000040     YES
 Predicted change in Energy=-5.637048D-11
 Optimization completed.
    -- Stationary point found.
                           ----------------------------
                           !   Optimized Parameters   !
                           ! (Angstroms and Degrees)  !
 --------------------------                            --------------------------
 ! Name  Definition              Value          Derivative Info.                !
 --------------------------------------------------------------------------------
 ! R1    R(1,2)                  1.2841         -DE/DX =    0.0                 !
 ! R2    R(2,3)                  1.6128         -DE/DX =    0.0                 !
 ! A1    L(1,2,3,-2,-1)        180.0            -DE/DX =    0.0                 !
 ! A2    L(1,2,3,-3,-2)        180.0            -DE/DX =    0.0                 !
 --------------------------------------------------------------------------------
 GradGradGradGradGradGradGradGradGradGradGradGradGradGradGradGradGradGrad

 Leave Link  103 at Mon Jul 29 13:50:45 2013, MaxMem=  536870912 cpu:       0.5
 (Enter /share/apps/gaussian/gdvh12/gdv/l9999.exe)

 Test job not archived.
 1\1\GINC-C28\Freq\UAPFD\UGBS1P\C2Cl1(2)\EBARNES\29-Jul-2013\0\\#P Geom
 =AllCheck Guess=TCheck SCRF=Check Test GenChk UAPFD/UGBS1P Freq\\CCCl 
 pre-optimized at apfd/aug-cc-pVTZ\\0,2\C,-0.2270225831,0.,0.\C,1.05711
 04695,0.,0.\Cl,2.6699121136,0.,0.\\Version=EM64L-GDVRevH.12\HF=-536.08
 49287\S2=0.753021\S2-1=0.\S2A=0.750007\RMSD=4.263e-09\RMSF=3.778e-06\Z
 eroPoint=0.0065651\Thermal=0.0095328\Dipole=1.3639507,0.,0.\DipoleDeri
 v=0.6018243,0.,0.,0.,-0.8463538,0.,0.,0.,-0.2037843,0.1048811,0.,0.,0.
 ,1.0727048,0.,0.,0.,-0.0814866,-0.7067053,0.,0.,0.,-0.226351,0.,0.,0.,
 0.2852708\Polar=59.7569869,0.,36.1746966,0.,0.,27.7747336\Quadrupole=-
 3.0362969,2.2304553,0.8058415,0.,0.,0.\PG=C*V [C*(C1C1Cl1)]\NImag=1\\0
 .70080836,0.,-0.02047604,0.,0.,0.00547351,-0.70733312,0.,0.,1.06977741
 ,0.,0.03677809,0.,0.,-0.06605250,0.,0.,-0.00983257,0.,0.,0.01767117,0.
 00652476,0.,0.,-0.36244429,0.,0.,0.35591952,0.,-0.01630205,0.,0.,0.029
 27441,0.,0.,-0.01297236,0.,0.,0.00435905,0.,0.,-0.00783860,0.,0.,0.003
 47955\\0.00000863,0.,0.,-0.00000720,0.,0.,-0.00000143,0.,0.\\-0.000000
 89,0.39198908,0.00002112,0.00000030,-0.00000054,0.00548543,0.00000349,
 -0.40565169,-0.00000058,-0.00000916,-0.61151075,-0.00003033,0.00000122
 ,0.59889105,0.00004198,-0.00000057,0.00000097,-0.00984974,0.00000105,-
 0.00000219,0.01768791,-0.00000260,0.01366261,0.00000027,0.00000567,0.0
 1261969,-0.00000048,-0.00000307,0.21952166,0.00000921,-0.00000068,-0.1
 9323936,-0.00001166,0.00000122,-0.02628230,0.00000245,0.00000026,-0.00
 000043,0.00436431,-0.00000048,0.00000097,-0.00783817,0.00000021,-0.000
 00054,0.00347386,0.00004771,-0.00001172,0.00572430,0.09956058,-0.00001
 962,0.00008303,-0.00006397,0.00001015,-0.10369170,0.00008445,0.0000210
 5,-0.01054819,0.00003524,-0.00001823,0.01943649,-0.09127970,0.00003600
 ,-0.00029628,0.06565267,-0.00006467,0.00079941,0.00001627,0.00000157,0
 .00413111,-0.00002047,-0.00000282,0.02562703,0.00000421,-0.00000933,0.
 00482389,-0.00001562,0.00000808,-0.00888830,0.00002867,0.00000125,0.00
 406441,-0.00828088,-0.00001638,0.00021325,0.03803902,0.00002943,-0.000
 50313,-0.02975814,-0.00001305,0.00028987,0.15292741,0.00000003,-0.0488
 1467,0.,0.,-0.01794351,-0.14768650,-0.00000003,0.,0.37999812,-0.000000
 05,0.07228020,0.,0.00000005,-0.14109573,0.,0.,0.01590606,0.,0.,-0.0381
 7788,-0.00524091,0.,0.,-0.23231161,0.,0.,0.23755252,0.00000002,-0.0234
 6553,0.,-0.00000002,0.06881553,0.,0.,-0.04535000,0.,0.,0.00203746,0.,0
 .,0.02227183,0.,0.,-0.02430928,-0.88976833,-0.00000002,0.31470963,0.,0
 .,0.11017432,0.90748610,0.,0.,-0.67858750,0.00000005,-0.46822643,0.,0.
 ,0.71089944,0.,0.,-0.10603730,0.,0.,0.06966802,-0.01771777,0.00000003,
 0.,-0.22889860,-0.00000005,0.,0.24661637,-0.00000002,0.15351681,0.,0.,
 -0.24267301,0.,0.00000002,0.08915621,0.,0.,-0.00413702,0.,0.,0.0363692
 8,0.,0.,-0.03223227,-6.21363304,-0.00012681,1.22136978,0.00024391,-0.0
 0006458,-144.44187035,6.44335861,0.00016904,-0.00034758,-6.67124132,0.
 00018264,-2.02732842,0.00011057,-0.00025356,3.42798592,-0.00043556,0.0
 0011575,259.48557206,0.00062239,-0.00019813,-466.10254609,-0.22972558,
 -0.00004223,0.00010367,0.22788271,0.00007092,-0.00018682,0.00184289,-0
 .00005583,0.80595863,-0.00004599,0.00008452,-1.40065752,0.00008236,-0.
 00002869,0.59469888,0.00019165,-0.00005118,-115.04370170,-0.00027481,0
 .00008757,206.61697403,0.00008316,-0.00003638,-91.57327231,-0.15926889
 ,-0.00014469,126.10894470,-0.00089376,0.00049507,0.08114417,0.16195278
 ,0.00013015,0.00165736,-0.19514552,0.00026026,-226.92365122,-0.0008890
 0,-0.00023421,408.34148447,0.00110778,-0.00100386,-0.10684669,-0.00202
 389,0.00180278,0.16024447,-0.00268389,0.00001454,-0.00076360,0.0331927
 2,-0.00002604,0.00091611,-0.03050886,-0.00011557,100.81470654,0.000393
 93,0.00010407,-181.41783324,-0.00079892,0.00001150,80.60312672,-0.0002
 1402,0.00050878,0.02570254,0.00036653,-0.00091378,-0.05339778,-0.00015
 251,0.00040499,0.02769526,0.02585683,0.00000277,-0.06965559,-0.0000003
 7,-0.00000040,-0.01160250,-0.02706182,-0.00000369,0.00000024,0.1578902
 3,-0.00000444,0.11902120,0.00000027,0.00000580,-0.22874006,0.00000068,
 0.00000079,0.01234880,-0.00000053,-0.00000058,-0.03284122,0.00120498,0
 .00000092,0.00000013,-0.13082841,-0.00000136,-0.00000015,0.12962348,0.
 00000167,-0.04936560,0.00000013,-0.00000211,0.10971884,-0.00000021,0.0
 0000044,-0.06035321,-0.00000031,-0.00000041,-0.00074630,0.00000029,0.0
 0000034,0.02049242,0.00000002,0.00000007,-0.01974609,0.92534167,-0.000
 02985,-3.10145143,0.00000015,-0.00000031,-0.19832189,-0.93052665,0.000
 03386,-0.00000014,1.08231018,0.00005201,5.33912585,0.00000051,-0.00005
 846,-9.31804285,-0.00000024,0.00000058,0.20324805,0.00000017,-0.000000
 98,-0.23242415,0.00518497,-0.00000402,-0.00000002,-0.15178353,0.000006
 45,0.00000007,0.14659856,-0.00002216,-2.23767441,-0.00000021,0.0000245
 9,3.97891698,0.00000042,-0.00000243,-1.74124257,0.00000009,-0.00000029
 ,-0.00492615,-0.00000004,0.00000050,0.02917610,-0.00000006,-0.00000021
 ,-0.02424995\\@
 DoSRE=F DoSRN=F DoDH=T DoFC=T DoNQ=T DoQCD=T DoSCD=F
 Inertia tensor (amu-bohr**2): 
                 1             2             3 
      1   0.293742D+03  0.000000D+00  0.000000D+00
      2   0.000000D+00  0.293742D+03  0.000000D+00
      3   0.000000D+00  0.000000D+00  0.000000D+00
 Principal inertia moments (amu-bohr**2):
 Iaa = 0.000000D+00 Ibb= 0.293742D+03 Icc= 0.293742D+03
 Rotation matrix to Principal Axis frame: 
                 1             2             3 
      1   0.000000D+00  0.100000D+01  0.000000D+00
      2   0.000000D+00  0.000000D+00  0.100000D+01
      3   0.100000D+01  0.000000D+00  0.000000D+00
                Principal axis orientation:                
 ---------------------------------------------------------------------
 Center     Atomic                     Coordinates (Angstroms)
 Number     Number                        X           Y           Z
 ---------------------------------------------------------------------
      1          6                   -1.979216    0.000000    0.000000
      2          6                   -0.695083    0.000000    0.000000
      3         17                    0.917719    0.000000    0.000000
 ---------------------------------------------------------------------
 Rotational constants (MHZ):
      0.0000000   6143.9573004   6143.9573004
 electron spin - nuclear spin (dipole-dipole) [T] (MHz):
  1  C12   
   aa=     0.0000   ba=     0.0000   ca=     0.0000
   ab=     0.0000   bb=     0.0000   cb=     0.0000
   ac=     0.0000   bc=     0.0000   cc=     0.0000
  2  C12   
   aa=     0.0000   ba=     0.0000   ca=     0.0000
   ab=     0.0000   bb=     0.0000   cb=     0.0000
   ac=     0.0000   bc=     0.0000   cc=     0.0000
  3  Cl35  
   aa=   -33.0643   ba=     0.0000   ca=     0.0000
   ab=     0.0000   bb=   -28.2770   cb=     0.0000
   ac=     0.0000   bc=     0.0000   cc=    61.3414
 Isotropic Fermi Contact Couplings [a_f](MHz):
  1  C12        0.0000
  2  C12        0.0000
  3  Cl35       8.4901
 Nuclear quadrupole coupling constants [Chi] (MHz):
  1  C(12) 
   aa=     0.0000   ba=     0.0000   ca=     0.0000
   ab=     0.0000   bb=     0.0000   cb=     0.0000
   ac=     0.0000   bc=     0.0000   cc=     0.0000
  2  C(12) 
   aa=     0.0000   ba=     0.0000   ca=     0.0000
   ab=     0.0000   bb=     0.0000   cb=     0.0000
   ac=     0.0000   bc=     0.0000   cc=     0.0000
  3  Cl(35)
   aa=   -68.0812   ba=     0.0000   ca=     0.0000
   ab=     0.0000   bb=    50.4909   cb=     0.0000
   ac=     0.0000   bc=     0.0000   cc=    17.5903
 Dipole moment (Debye):
      0.0000000      3.4668165      0.0000000  Tot=      3.4668165
 Quartic Centrifugal Distortion Constants (MHz)
    (Asymmetrically reduced)          (Symmetrically reduced)
    DELTA N  =    0.000000000         D N  =    0.000000000
    DELTA K  =    0.000000000         D K  =    0.000000000
    DELTA NK =    0.000000000         D NK =    0.000000000
    delta N  =    0.000000000         d 1  =    0.000000000
    delta K  =    0.000000000         d 2  =    0.000000000

 Atoms with significant hyperfine tensors:  Cl3-35

--------------------------------------------------------------------------------
 CCCl pre-optimized at apfd/aug-cc-pVTZ                  
   99  1000  50  0.1760E-11  0.1000E+07  0.1000E+01 1.0000000000
a 42  1  0  0  0  1  1   1  0  1  0
     10000   0.00000000E+00    0.0000E+00   /  A  /
     20000   0.61439573E+04    0.0000E+00   /  B  /
     30000   0.61439573E+04    0.0000E+00   /  C  /
       200   0.00000000E+00    0.0000E+00   /  -DELTA N  /
      2000   0.00000000E+00    0.0000E+00   /  -DELTA K  /
      1100   0.00000000E+00    0.0000E+00   /  -DELTA NK  /
     40100   0.00000000E+00    0.0000E+00   /  -delta N  /
     41000   0.00000000E+00    0.0000E+00   /  -delta K  /
 120010000  -0.49596478E+02    0.0000E+00   /  (3 Cl-35) 3/2*T_aa              /
 120040000  -0.22404596E+02    0.0000E+00   /  (3 Cl-35) 1/4*(T_bb - T_cc)     /
 120000000   0.84901048E+01    0.0000E+00   /  (3 Cl-35) b_f                   /
 220010000  -0.10212181E+03    0.0000E+00   /  (3 Cl-35) 3/2*Chi_aa            /
 220040000   0.82251497E+01    0.0000E+00   /  (3 Cl-35) 1/4*(Chi_bb-Chi_cc)   /
--------------------------------------------------------------------------------



 BE NOT THE FIRST BY WHOM THE NEW ARE TRIED,
 NOR YET THE THE LAST TO LAY THE OLD ASIDE.

                          -- ALEXANDER POPE
 Job cpu time:  3 days 22 hours 50 minutes  2.7 seconds.
 File lengths (MBytes):  RWF=    375 Int=      0 D2E=      0 Chk=     84 Scr=      1
 Normal termination of Gaussian DV at Mon Jul 29 13:50:46 2013.
