 Entering Gaussian System, Link 0=gdv
 Initial command:
 /share/apps/gaussian/gdvh12/gdv/l1.exe /localscratch/12781/Gau-28773.inp -scrdir=/localscratch/12781/
 Entering Link 1 = /share/apps/gaussian/gdvh12/gdv/l1.exe PID=     28774.
  
 Copyright (c) 1988,1990,1992,1993,1995,1998,2003,2009,2011,
            Gaussian, Inc.  All Rights Reserved.
  
 This is the private, development version of
 the Gaussian(R) DV system of programs. It is based on
 the Gaussian(R) 09 system (copyright 2009, Gaussian, Inc.),
 the Gaussian(R) 03 system (copyright 2003, Gaussian, Inc.),
 the Gaussian(R) 98 system (copyright 1998, Gaussian, Inc.),
 the Gaussian(R) 94 system (copyright 1995, Gaussian, Inc.),
 the Gaussian 92(TM) system (copyright 1992, Gaussian, Inc.),
 the Gaussian 90(TM) system (copyright 1990, Gaussian, Inc.),
 the Gaussian 88(TM) system (copyright 1988, Gaussian, Inc.),
 the Gaussian 86(TM) system (copyright 1986, Carnegie Mellon
 University), and the Gaussian 82(TM) system (copyright 1983,
 Carnegie Mellon University). Gaussian is a federally registered
 trademark of Gaussian, Inc.
  
 This software contains proprietary and confidential information,
 including trade secrets, belonging to Gaussian, Inc.
  
 This software is provided under written license and may be
 used, copied, transmitted, or stored only in accord with that
 written license.
  
 The following legend is applicable only to US Government
 contracts under FAR:
  
                    RESTRICTED RIGHTS LEGEND
  
 Use, reproduction and disclosure by the US Government is
 subject to restrictions as set forth in subparagraphs (a)
 and (c) of the Commercial Computer Software - Restricted
 Rights clause in FAR 52.227-19.
  
 Gaussian, Inc.
 340 Quinnipiac St., Bldg. 40, Wallingford CT 06492
  
  
 ---------------------------------------------------------------
 Warning -- This program may not be used in any manner that
 competes with the business of Gaussian, Inc. or will provide
 assistance to any competitor of Gaussian, Inc.  The licensee
 of this program is prohibited from giving any competitor of
 Gaussian, Inc. access to this program.  By using this program,
 the user acknowledges that Gaussian, Inc. is engaged in the
 business of creating and licensing software in the field of
 computational chemistry and represents and warrants to the
 licensee that it is not a competitor of Gaussian, Inc. and that
 it will not use this program in any manner prohibited above.
 ---------------------------------------------------------------
  

 Cite this work as:
 Gaussian Development Version, Revision H.12,
 M. J. Frisch, G. W. Trucks, H. B. Schlegel, G. E. Scuseria, 
 M. A. Robb, J. R. Cheeseman, G. Scalmani, V. Barone, B. Mennucci, 
 G. A. Petersson, H. Nakatsuji, M. Caricato, X. Li, H. P. Hratchian, 
 A. F. Izmaylov, J. Bloino, G. Zheng, J. L. Sonnenberg, M. Hada, 
 M. Ehara, K. Toyota, R. Fukuda, J. Hasegawa, M. Ishida, T. Nakajima, 
 Y. Honda, O. Kitao, H. Nakai, T. Vreven, J. A. Montgomery, Jr., 
 J. E. Peralta, F. Ogliaro, M. Bearpark, J. J. Heyd, E. Brothers, 
 K. N. Kudin, V. N. Staroverov, T. Keith, R. Kobayashi, J. Normand, 
 K. Raghavachari, A. Rendell, J. C. Burant, S. S. Iyengar, J. Tomasi, 
 M. Cossi, N. Rega, J. M. Millam, M. Klene, J. E. Knox, J. B. Cross, 
 V. Bakken, C. Adamo, J. Jaramillo, R. Gomperts, R. E. Stratmann, 
 O. Yazyev, A. J. Austin, R. Cammi, C. Pomelli, J. W. Ochterski, 
 R. L. Martin, K. Morokuma, V. G. Zakrzewski, G. A. Voth, 
 P. Salvador, J. J. Dannenberg, S. Dapprich, P. V. Parandekar, 
 N. J. Mayhall, A. D. Daniels, O. Farkas, J. B. Foresman, 
 J. V. Ortiz, J. Cioslowski, and D. J. Fox, 
 Gaussian, Inc., Wallingford CT, 2010.
 
 ******************************************
 Gaussian DV:  EM64L-GDVRevH.12  9-Jun-2011
                27-Jul-2013 
 ******************************************
 %chk=CCH.chk
 %mem=4gb
 %nproc=2
 Will use up to    2 processors via shared memory.
 ----------------------------------------------------------------------
 #p apfd/ugbs1p opt=tight freq=(vibrot,anharm) int=(acc2e=12,grid=29997
 4) test gfprint gfinput output=pickett
 ----------------------------------------------------------------------
 1/7=10,14=-1,18=20,19=15,26=1,38=1,80=1/1,3;
 2/9=110,12=2,17=6,18=5,40=1/2;
 3/5=23,7=7,11=2,16=1,24=110,25=1,30=1,71=1,74=-44,75=299974/1,2,3;
 4//1;
 5/5=2,38=5,87=12/2;
 6/7=2,8=2,9=2,10=2,28=1/1;
 7/87=12/1,2,3,16;
 1/7=10,14=-1,18=20,19=15,80=1/3(2);
 2/9=110/2;
 99/8=1100,10=1024/99;
 2/9=110/2;
 3/5=23,7=7,11=2,16=1,25=1,30=1,71=1,74=-44,75=299974/1,2,3;
 4/5=5,16=3,69=1/1;
 5/5=2,38=5,87=12/2;
 7/87=12/1,2,3,16;
 1/7=10,14=-1,18=20,19=15,80=1/3(-5);
 2/9=110/2;
 6/7=2,8=2,9=2,10=2,19=2,28=1/1;
 99/8=1100,9=1,10=1024/99;
 Leave Link    1 at Sat Jul 27 10:08:49 2013, MaxMem=  536870912 cpu:       0.2
 (Enter /share/apps/gaussian/gdvh12/gdv/l101.exe)
 ---
 CCH
 ---
 Charge =  0 Multiplicity = 2
 Symbolic Z-Matrix:
 C                    -1.37843   0.        0. 
 C                    -0.09685   0.        0. 
 H                     0.97528   0.        0. 
 
 NAtoms=      3 NQM=        0 NQMF=       0 NMMI=      3 NMMIF=      0
                NMic=       0 NMicF=      0.
                    Isotopes and Nuclear Properties:
 (Nuclear quadrupole moments (NQMom) in fm**2, nuclear magnetic moments (NMagM)
  in nuclear magnetons)

  Atom         1           2           3
 IAtWgt=          12          12           1
 AtmWgt=  12.0000000  12.0000000   1.0078250
 NucSpn=           0           0           1
 AtZEff=   0.0000000   0.0000000   0.0000000
 NQMom=    0.0000000   0.0000000   0.0000000
 NMagM=    0.0000000   0.0000000   2.7928460
 AtZNuc=   6.0000000   6.0000000   1.0000000
 Leave Link  101 at Sat Jul 27 10:08:49 2013, MaxMem=  536870912 cpu:       0.6
 (Enter /share/apps/gaussian/gdvh12/gdv/l103.exe)

 GradGradGradGradGradGradGradGradGradGradGradGradGradGradGradGradGradGrad
 Berny optimization.
 Initialization pass.
                           ----------------------------
                           !    Initial Parameters    !
                           ! (Angstroms and Degrees)  !
 --------------------------                            --------------------------
 ! Name  Definition              Value          Derivative Info.                !
 --------------------------------------------------------------------------------
 ! R1    R(1,2)                  1.2816         estimate D2E/DX2                !
 ! R2    R(2,3)                  1.0721         estimate D2E/DX2                !
 ! A1    L(1,2,3,-2,-1)        180.0            estimate D2E/DX2                !
 ! A2    L(1,2,3,-3,-2)        180.0            estimate D2E/DX2                !
 --------------------------------------------------------------------------------
 Trust Radius=3.00D-01 FncErr=1.00D-07 GrdErr=1.00D-07
 Number of steps in this run=     20 maximum allowed number of steps=    100.
 GradGradGradGradGradGradGradGradGradGradGradGradGradGradGradGradGradGrad

 Leave Link  103 at Sat Jul 27 10:08:49 2013, MaxMem=  536870912 cpu:       0.0
 (Enter /share/apps/gaussian/gdvh12/gdv/l202.exe)
                          Input orientation:                          
 ---------------------------------------------------------------------
 Center     Atomic      Atomic             Coordinates (Angstroms)
 Number     Number       Type             X           Y           Z
 ---------------------------------------------------------------------
      1          6           0       -1.378430    0.000000    0.000000
      2          6           0       -0.096850    0.000000    0.000000
      3          1           0        0.975280    0.000000    0.000000
 ---------------------------------------------------------------------
                    Distance matrix (angstroms):
                    1          2          3
     1  C    0.000000
     2  C    1.281580   0.000000
     3  H    2.353710   1.072130   0.000000
 Stoichiometry    C2H(2)
 Framework group  C*V[C*(HCC)]
 Deg. of freedom     2
 Full point group                 C*V     NOp   4
 Largest Abelian subgroup         C2V     NOp   4
 Largest concise Abelian subgroup C1      NOp   1
                         Standard orientation:                         
 ---------------------------------------------------------------------
 Center     Atomic      Atomic             Coordinates (Angstroms)
 Number     Number       Type             X           Y           Z
 ---------------------------------------------------------------------
      1          6           0        0.000000    0.000000    0.772553
      2          6           0        0.000000    0.000000   -0.509027
      3          1           0        0.000000    0.000000   -1.581157
 ---------------------------------------------------------------------
 Rotational constants (GHZ):      0.0000000     39.8169242     39.8169242
 Leave Link  202 at Sat Jul 27 10:08:49 2013, MaxMem=  536870912 cpu:       0.0
 (Enter /share/apps/gaussian/gdvh12/gdv/l301.exe)
 Standard basis: UGBS1P (5D, 7F)
 Ernie: Thresh=  0.10000D-02 Tol=  0.10000D-05 Strict=F.
 AO basis set in the form of general basis input (Overlap normalization):
      1 0
 S   1 1.00       0.000000000000
      0.2019953588D+06  0.1000000000D+01
 S   1 1.00       0.000000000000
      0.1031562389D+06  0.1000000000D+01
 S   1 1.00       0.000000000000
      0.5268046591D+05  0.1000000000D+01
 S   1 1.00       0.000000000000
      0.2690318607D+05  0.1000000000D+01
 S   1 1.00       0.000000000000
      0.1373908542D+05  0.1000000000D+01
 S   1 1.00       0.000000000000
      0.7016361094D+04  0.1000000000D+01
 S   1 1.00       0.000000000000
      0.3583158668D+04  0.1000000000D+01
 S   1 1.00       0.000000000000
      0.1829869625D+04  0.1000000000D+01
 S   1 1.00       0.000000000000
      0.9344891347D+03  0.1000000000D+01
 S   1 1.00       0.000000000000
      0.4772306896D+03  0.1000000000D+01
 S   1 1.00       0.000000000000
      0.2437151195D+03  0.1000000000D+01
 S   1 1.00       0.000000000000
      0.1244619442D+03  0.1000000000D+01
 S   1 1.00       0.000000000000
      0.6356099525D+02  0.1000000000D+01
 S   1 1.00       0.000000000000
      0.3245972208D+02  0.1000000000D+01
 S   1 1.00       0.000000000000
      0.1657673158D+02  0.1000000000D+01
 S   1 1.00       0.000000000000
      0.8465507783D+01  0.1000000000D+01
 S   1 1.00       0.000000000000
      0.4323217860D+01  0.1000000000D+01
 S   1 1.00       0.000000000000
      0.2207807629D+01  0.1000000000D+01
 S   1 1.00       0.000000000000
      0.1127496852D+01  0.1000000000D+01
 S   1 1.00       0.000000000000
      0.5757970639D+00  0.1000000000D+01
 S   1 1.00       0.000000000000
      0.2940516050D+00  0.1000000000D+01
 S   1 1.00       0.000000000000
      0.1501680918D+00  0.1000000000D+01
 S   1 1.00       0.000000000000
      0.7668876969D-01  0.1000000000D+01
 P   1 1.00       0.000000000000
      0.2019953588D+06  0.1000000000D+01
 P   1 1.00       0.000000000000
      0.1031562389D+06  0.1000000000D+01
 P   1 1.00       0.000000000000
      0.5268046591D+05  0.1000000000D+01
 P   1 1.00       0.000000000000
      0.2690318607D+05  0.1000000000D+01
 P   1 1.00       0.000000000000
      0.1373908542D+05  0.1000000000D+01
 P   1 1.00       0.000000000000
      0.7016361094D+04  0.1000000000D+01
 P   1 1.00       0.000000000000
      0.3583158668D+04  0.1000000000D+01
 P   1 1.00       0.000000000000
      0.1829869625D+04  0.1000000000D+01
 P   1 1.00       0.000000000000
      0.9344891347D+03  0.1000000000D+01
 P   1 1.00       0.000000000000
      0.4772306896D+03  0.1000000000D+01
 P   1 1.00       0.000000000000
      0.2437151195D+03  0.1000000000D+01
 P   1 1.00       0.000000000000
      0.1244619442D+03  0.1000000000D+01
 P   1 1.00       0.000000000000
      0.6356099525D+02  0.1000000000D+01
 P   1 1.00       0.000000000000
      0.3245972208D+02  0.1000000000D+01
 P   1 1.00       0.000000000000
      0.1657673158D+02  0.1000000000D+01
 P   1 1.00       0.000000000000
      0.8465507783D+01  0.1000000000D+01
 P   1 1.00       0.000000000000
      0.4323217860D+01  0.1000000000D+01
 P   1 1.00       0.000000000000
      0.2207807629D+01  0.1000000000D+01
 P   1 1.00       0.000000000000
      0.1127496852D+01  0.1000000000D+01
 P   1 1.00       0.000000000000
      0.5757970639D+00  0.1000000000D+01
 P   1 1.00       0.000000000000
      0.2940516050D+00  0.1000000000D+01
 P   1 1.00       0.000000000000
      0.1501680918D+00  0.1000000000D+01
 P   1 1.00       0.000000000000
      0.7668876969D-01  0.1000000000D+01
 P   1 1.00       0.000000000000
      0.3916389510D-01  0.1000000000D+01
 D   1 1.00       0.000000000000
      0.4772306896D+03  0.1000000000D+01
 D   1 1.00       0.000000000000
      0.2437151195D+03  0.1000000000D+01
 D   1 1.00       0.000000000000
      0.1244619442D+03  0.1000000000D+01
 D   1 1.00       0.000000000000
      0.6356099525D+02  0.1000000000D+01
 D   1 1.00       0.000000000000
      0.3245972208D+02  0.1000000000D+01
 D   1 1.00       0.000000000000
      0.1657673158D+02  0.1000000000D+01
 D   1 1.00       0.000000000000
      0.8465507783D+01  0.1000000000D+01
 D   1 1.00       0.000000000000
      0.4323217860D+01  0.1000000000D+01
 D   1 1.00       0.000000000000
      0.2207807629D+01  0.1000000000D+01
 D   1 1.00       0.000000000000
      0.1127496852D+01  0.1000000000D+01
 D   1 1.00       0.000000000000
      0.5757970639D+00  0.1000000000D+01
 D   1 1.00       0.000000000000
      0.2940516050D+00  0.1000000000D+01
 D   1 1.00       0.000000000000
      0.1501680918D+00  0.1000000000D+01
 D   1 1.00       0.000000000000
      0.7668876969D-01  0.1000000000D+01
 D   1 1.00       0.000000000000
      0.3916389510D-01  0.1000000000D+01
 ****
      2 0
 S   1 1.00       0.000000000000
      0.2019953588D+06  0.1000000000D+01
 S   1 1.00       0.000000000000
      0.1031562389D+06  0.1000000000D+01
 S   1 1.00       0.000000000000
      0.5268046591D+05  0.1000000000D+01
 S   1 1.00       0.000000000000
      0.2690318607D+05  0.1000000000D+01
 S   1 1.00       0.000000000000
      0.1373908542D+05  0.1000000000D+01
 S   1 1.00       0.000000000000
      0.7016361094D+04  0.1000000000D+01
 S   1 1.00       0.000000000000
      0.3583158668D+04  0.1000000000D+01
 S   1 1.00       0.000000000000
      0.1829869625D+04  0.1000000000D+01
 S   1 1.00       0.000000000000
      0.9344891347D+03  0.1000000000D+01
 S   1 1.00       0.000000000000
      0.4772306896D+03  0.1000000000D+01
 S   1 1.00       0.000000000000
      0.2437151195D+03  0.1000000000D+01
 S   1 1.00       0.000000000000
      0.1244619442D+03  0.1000000000D+01
 S   1 1.00       0.000000000000
      0.6356099525D+02  0.1000000000D+01
 S   1 1.00       0.000000000000
      0.3245972208D+02  0.1000000000D+01
 S   1 1.00       0.000000000000
      0.1657673158D+02  0.1000000000D+01
 S   1 1.00       0.000000000000
      0.8465507783D+01  0.1000000000D+01
 S   1 1.00       0.000000000000
      0.4323217860D+01  0.1000000000D+01
 S   1 1.00       0.000000000000
      0.2207807629D+01  0.1000000000D+01
 S   1 1.00       0.000000000000
      0.1127496852D+01  0.1000000000D+01
 S   1 1.00       0.000000000000
      0.5757970639D+00  0.1000000000D+01
 S   1 1.00       0.000000000000
      0.2940516050D+00  0.1000000000D+01
 S   1 1.00       0.000000000000
      0.1501680918D+00  0.1000000000D+01
 S   1 1.00       0.000000000000
      0.7668876969D-01  0.1000000000D+01
 P   1 1.00       0.000000000000
      0.2019953588D+06  0.1000000000D+01
 P   1 1.00       0.000000000000
      0.1031562389D+06  0.1000000000D+01
 P   1 1.00       0.000000000000
      0.5268046591D+05  0.1000000000D+01
 P   1 1.00       0.000000000000
      0.2690318607D+05  0.1000000000D+01
 P   1 1.00       0.000000000000
      0.1373908542D+05  0.1000000000D+01
 P   1 1.00       0.000000000000
      0.7016361094D+04  0.1000000000D+01
 P   1 1.00       0.000000000000
      0.3583158668D+04  0.1000000000D+01
 P   1 1.00       0.000000000000
      0.1829869625D+04  0.1000000000D+01
 P   1 1.00       0.000000000000
      0.9344891347D+03  0.1000000000D+01
 P   1 1.00       0.000000000000
      0.4772306896D+03  0.1000000000D+01
 P   1 1.00       0.000000000000
      0.2437151195D+03  0.1000000000D+01
 P   1 1.00       0.000000000000
      0.1244619442D+03  0.1000000000D+01
 P   1 1.00       0.000000000000
      0.6356099525D+02  0.1000000000D+01
 P   1 1.00       0.000000000000
      0.3245972208D+02  0.1000000000D+01
 P   1 1.00       0.000000000000
      0.1657673158D+02  0.1000000000D+01
 P   1 1.00       0.000000000000
      0.8465507783D+01  0.1000000000D+01
 P   1 1.00       0.000000000000
      0.4323217860D+01  0.1000000000D+01
 P   1 1.00       0.000000000000
      0.2207807629D+01  0.1000000000D+01
 P   1 1.00       0.000000000000
      0.1127496852D+01  0.1000000000D+01
 P   1 1.00       0.000000000000
      0.5757970639D+00  0.1000000000D+01
 P   1 1.00       0.000000000000
      0.2940516050D+00  0.1000000000D+01
 P   1 1.00       0.000000000000
      0.1501680918D+00  0.1000000000D+01
 P   1 1.00       0.000000000000
      0.7668876969D-01  0.1000000000D+01
 P   1 1.00       0.000000000000
      0.3916389510D-01  0.1000000000D+01
 D   1 1.00       0.000000000000
      0.4772306896D+03  0.1000000000D+01
 D   1 1.00       0.000000000000
      0.2437151195D+03  0.1000000000D+01
 D   1 1.00       0.000000000000
      0.1244619442D+03  0.1000000000D+01
 D   1 1.00       0.000000000000
      0.6356099525D+02  0.1000000000D+01
 D   1 1.00       0.000000000000
      0.3245972208D+02  0.1000000000D+01
 D   1 1.00       0.000000000000
      0.1657673158D+02  0.1000000000D+01
 D   1 1.00       0.000000000000
      0.8465507783D+01  0.1000000000D+01
 D   1 1.00       0.000000000000
      0.4323217860D+01  0.1000000000D+01
 D   1 1.00       0.000000000000
      0.2207807629D+01  0.1000000000D+01
 D   1 1.00       0.000000000000
      0.1127496852D+01  0.1000000000D+01
 D   1 1.00       0.000000000000
      0.5757970639D+00  0.1000000000D+01
 D   1 1.00       0.000000000000
      0.2940516050D+00  0.1000000000D+01
 D   1 1.00       0.000000000000
      0.1501680918D+00  0.1000000000D+01
 D   1 1.00       0.000000000000
      0.7668876969D-01  0.1000000000D+01
 D   1 1.00       0.000000000000
      0.3916389510D-01  0.1000000000D+01
 ****
      3 0
 S   1 1.00       0.000000000000
      0.1373908542D+05  0.1000000000D+01
 S   1 1.00       0.000000000000
      0.7016361094D+04  0.1000000000D+01
 S   1 1.00       0.000000000000
      0.3583158668D+04  0.1000000000D+01
 S   1 1.00       0.000000000000
      0.1829869625D+04  0.1000000000D+01
 S   1 1.00       0.000000000000
      0.9344891347D+03  0.1000000000D+01
 S   1 1.00       0.000000000000
      0.4772306896D+03  0.1000000000D+01
 S   1 1.00       0.000000000000
      0.2437151195D+03  0.1000000000D+01
 S   1 1.00       0.000000000000
      0.1244619442D+03  0.1000000000D+01
 S   1 1.00       0.000000000000
      0.6356099525D+02  0.1000000000D+01
 S   1 1.00       0.000000000000
      0.3245972208D+02  0.1000000000D+01
 S   1 1.00       0.000000000000
      0.1657673158D+02  0.1000000000D+01
 S   1 1.00       0.000000000000
      0.8465507783D+01  0.1000000000D+01
 S   1 1.00       0.000000000000
      0.4323217860D+01  0.1000000000D+01
 S   1 1.00       0.000000000000
      0.2207807629D+01  0.1000000000D+01
 S   1 1.00       0.000000000000
      0.1127496852D+01  0.1000000000D+01
 S   1 1.00       0.000000000000
      0.5757970639D+00  0.1000000000D+01
 S   1 1.00       0.000000000000
      0.2940516050D+00  0.1000000000D+01
 S   1 1.00       0.000000000000
      0.1501680918D+00  0.1000000000D+01
 S   1 1.00       0.000000000000
      0.7668876969D-01  0.1000000000D+01
 S   1 1.00       0.000000000000
      0.3916389510D-01  0.1000000000D+01
 P   1 1.00       0.000000000000
      0.1373908542D+05  0.1000000000D+01
 P   1 1.00       0.000000000000
      0.7016361094D+04  0.1000000000D+01
 P   1 1.00       0.000000000000
      0.3583158668D+04  0.1000000000D+01
 P   1 1.00       0.000000000000
      0.1829869625D+04  0.1000000000D+01
 P   1 1.00       0.000000000000
      0.9344891347D+03  0.1000000000D+01
 P   1 1.00       0.000000000000
      0.4772306896D+03  0.1000000000D+01
 P   1 1.00       0.000000000000
      0.2437151195D+03  0.1000000000D+01
 P   1 1.00       0.000000000000
      0.1244619442D+03  0.1000000000D+01
 P   1 1.00       0.000000000000
      0.6356099525D+02  0.1000000000D+01
 P   1 1.00       0.000000000000
      0.3245972208D+02  0.1000000000D+01
 P   1 1.00       0.000000000000
      0.1657673158D+02  0.1000000000D+01
 P   1 1.00       0.000000000000
      0.8465507783D+01  0.1000000000D+01
 P   1 1.00       0.000000000000
      0.4323217860D+01  0.1000000000D+01
 P   1 1.00       0.000000000000
      0.2207807629D+01  0.1000000000D+01
 P   1 1.00       0.000000000000
      0.1127496852D+01  0.1000000000D+01
 P   1 1.00       0.000000000000
      0.5757970639D+00  0.1000000000D+01
 P   1 1.00       0.000000000000
      0.2940516050D+00  0.1000000000D+01
 P   1 1.00       0.000000000000
      0.1501680918D+00  0.1000000000D+01
 P   1 1.00       0.000000000000
      0.7668876969D-01  0.1000000000D+01
 P   1 1.00       0.000000000000
      0.3916389510D-01  0.1000000000D+01
 ****

 AO basis set (Overlap normalization):
 Atom C1       Shell     1 S   1     bf    1 -     1          0.000000000000          0.000000000000          1.459913738503
      0.2019953588D+06  0.1000000000D+01
 Atom C1       Shell     2 S   1     bf    2 -     2          0.000000000000          0.000000000000          1.459913738503
      0.1031562389D+06  0.1000000000D+01
 Atom C1       Shell     3 S   1     bf    3 -     3          0.000000000000          0.000000000000          1.459913738503
      0.5268046591D+05  0.1000000000D+01
 Atom C1       Shell     4 S   1     bf    4 -     4          0.000000000000          0.000000000000          1.459913738503
      0.2690318607D+05  0.1000000000D+01
 Atom C1       Shell     5 S   1     bf    5 -     5          0.000000000000          0.000000000000          1.459913738503
      0.1373908542D+05  0.1000000000D+01
 Atom C1       Shell     6 S   1     bf    6 -     6          0.000000000000          0.000000000000          1.459913738503
      0.7016361094D+04  0.1000000000D+01
 Atom C1       Shell     7 S   1     bf    7 -     7          0.000000000000          0.000000000000          1.459913738503
      0.3583158668D+04  0.1000000000D+01
 Atom C1       Shell     8 S   1     bf    8 -     8          0.000000000000          0.000000000000          1.459913738503
      0.1829869625D+04  0.1000000000D+01
 Atom C1       Shell     9 S   1     bf    9 -     9          0.000000000000          0.000000000000          1.459913738503
      0.9344891347D+03  0.1000000000D+01
 Atom C1       Shell    10 S   1     bf   10 -    10          0.000000000000          0.000000000000          1.459913738503
      0.4772306896D+03  0.1000000000D+01
 Atom C1       Shell    11 S   1     bf   11 -    11          0.000000000000          0.000000000000          1.459913738503
      0.2437151195D+03  0.1000000000D+01
 Atom C1       Shell    12 S   1     bf   12 -    12          0.000000000000          0.000000000000          1.459913738503
      0.1244619442D+03  0.1000000000D+01
 Atom C1       Shell    13 S   1     bf   13 -    13          0.000000000000          0.000000000000          1.459913738503
      0.6356099525D+02  0.1000000000D+01
 Atom C1       Shell    14 S   1     bf   14 -    14          0.000000000000          0.000000000000          1.459913738503
      0.3245972208D+02  0.1000000000D+01
 Atom C1       Shell    15 S   1     bf   15 -    15          0.000000000000          0.000000000000          1.459913738503
      0.1657673158D+02  0.1000000000D+01
 Atom C1       Shell    16 S   1     bf   16 -    16          0.000000000000          0.000000000000          1.459913738503
      0.8465507783D+01  0.1000000000D+01
 Atom C1       Shell    17 S   1     bf   17 -    17          0.000000000000          0.000000000000          1.459913738503
      0.4323217860D+01  0.1000000000D+01
 Atom C1       Shell    18 S   1     bf   18 -    18          0.000000000000          0.000000000000          1.459913738503
      0.2207807629D+01  0.1000000000D+01
 Atom C1       Shell    19 S   1     bf   19 -    19          0.000000000000          0.000000000000          1.459913738503
      0.1127496852D+01  0.1000000000D+01
 Atom C1       Shell    20 S   1     bf   20 -    20          0.000000000000          0.000000000000          1.459913738503
      0.5757970639D+00  0.1000000000D+01
 Atom C1       Shell    21 S   1     bf   21 -    21          0.000000000000          0.000000000000          1.459913738503
      0.2940516050D+00  0.1000000000D+01
 Atom C1       Shell    22 S   1     bf   22 -    22          0.000000000000          0.000000000000          1.459913738503
      0.1501680918D+00  0.1000000000D+01
 Atom C1       Shell    23 S   1     bf   23 -    23          0.000000000000          0.000000000000          1.459913738503
      0.7668876969D-01  0.1000000000D+01
 Atom C1       Shell    24 P   1     bf   24 -    26          0.000000000000          0.000000000000          1.459913738503
      0.2019953588D+06  0.1000000000D+01
 Atom C1       Shell    25 P   1     bf   27 -    29          0.000000000000          0.000000000000          1.459913738503
      0.1031562389D+06  0.1000000000D+01
 Atom C1       Shell    26 P   1     bf   30 -    32          0.000000000000          0.000000000000          1.459913738503
      0.5268046591D+05  0.1000000000D+01
 Atom C1       Shell    27 P   1     bf   33 -    35          0.000000000000          0.000000000000          1.459913738503
      0.2690318607D+05  0.1000000000D+01
 Atom C1       Shell    28 P   1     bf   36 -    38          0.000000000000          0.000000000000          1.459913738503
      0.1373908542D+05  0.1000000000D+01
 Atom C1       Shell    29 P   1     bf   39 -    41          0.000000000000          0.000000000000          1.459913738503
      0.7016361094D+04  0.1000000000D+01
 Atom C1       Shell    30 P   1     bf   42 -    44          0.000000000000          0.000000000000          1.459913738503
      0.3583158668D+04  0.1000000000D+01
 Atom C1       Shell    31 P   1     bf   45 -    47          0.000000000000          0.000000000000          1.459913738503
      0.1829869625D+04  0.1000000000D+01
 Atom C1       Shell    32 P   1     bf   48 -    50          0.000000000000          0.000000000000          1.459913738503
      0.9344891347D+03  0.1000000000D+01
 Atom C1       Shell    33 P   1     bf   51 -    53          0.000000000000          0.000000000000          1.459913738503
      0.4772306896D+03  0.1000000000D+01
 Atom C1       Shell    34 P   1     bf   54 -    56          0.000000000000          0.000000000000          1.459913738503
      0.2437151195D+03  0.1000000000D+01
 Atom C1       Shell    35 P   1     bf   57 -    59          0.000000000000          0.000000000000          1.459913738503
      0.1244619442D+03  0.1000000000D+01
 Atom C1       Shell    36 P   1     bf   60 -    62          0.000000000000          0.000000000000          1.459913738503
      0.6356099525D+02  0.1000000000D+01
 Atom C1       Shell    37 P   1     bf   63 -    65          0.000000000000          0.000000000000          1.459913738503
      0.3245972208D+02  0.1000000000D+01
 Atom C1       Shell    38 P   1     bf   66 -    68          0.000000000000          0.000000000000          1.459913738503
      0.1657673158D+02  0.1000000000D+01
 Atom C1       Shell    39 P   1     bf   69 -    71          0.000000000000          0.000000000000          1.459913738503
      0.8465507783D+01  0.1000000000D+01
 Atom C1       Shell    40 P   1     bf   72 -    74          0.000000000000          0.000000000000          1.459913738503
      0.4323217860D+01  0.1000000000D+01
 Atom C1       Shell    41 P   1     bf   75 -    77          0.000000000000          0.000000000000          1.459913738503
      0.2207807629D+01  0.1000000000D+01
 Atom C1       Shell    42 P   1     bf   78 -    80          0.000000000000          0.000000000000          1.459913738503
      0.1127496852D+01  0.1000000000D+01
 Atom C1       Shell    43 P   1     bf   81 -    83          0.000000000000          0.000000000000          1.459913738503
      0.5757970639D+00  0.1000000000D+01
 Atom C1       Shell    44 P   1     bf   84 -    86          0.000000000000          0.000000000000          1.459913738503
      0.2940516050D+00  0.1000000000D+01
 Atom C1       Shell    45 P   1     bf   87 -    89          0.000000000000          0.000000000000          1.459913738503
      0.1501680918D+00  0.1000000000D+01
 Atom C1       Shell    46 P   1     bf   90 -    92          0.000000000000          0.000000000000          1.459913738503
      0.7668876969D-01  0.1000000000D+01
 Atom C1       Shell    47 P   1     bf   93 -    95          0.000000000000          0.000000000000          1.459913738503
      0.3916389510D-01  0.1000000000D+01
 Atom C1       Shell    48 D   1     bf   96 -   100          0.000000000000          0.000000000000          1.459913738503
      0.4772306896D+03  0.1000000000D+01
 Atom C1       Shell    49 D   1     bf  101 -   105          0.000000000000          0.000000000000          1.459913738503
      0.2437151195D+03  0.1000000000D+01
 Atom C1       Shell    50 D   1     bf  106 -   110          0.000000000000          0.000000000000          1.459913738503
      0.1244619442D+03  0.1000000000D+01
 Atom C1       Shell    51 D   1     bf  111 -   115          0.000000000000          0.000000000000          1.459913738503
      0.6356099525D+02  0.1000000000D+01
 Atom C1       Shell    52 D   1     bf  116 -   120          0.000000000000          0.000000000000          1.459913738503
      0.3245972208D+02  0.1000000000D+01
 Atom C1       Shell    53 D   1     bf  121 -   125          0.000000000000          0.000000000000          1.459913738503
      0.1657673158D+02  0.1000000000D+01
 Atom C1       Shell    54 D   1     bf  126 -   130          0.000000000000          0.000000000000          1.459913738503
      0.8465507783D+01  0.1000000000D+01
 Atom C1       Shell    55 D   1     bf  131 -   135          0.000000000000          0.000000000000          1.459913738503
      0.4323217860D+01  0.1000000000D+01
 Atom C1       Shell    56 D   1     bf  136 -   140          0.000000000000          0.000000000000          1.459913738503
      0.2207807629D+01  0.1000000000D+01
 Atom C1       Shell    57 D   1     bf  141 -   145          0.000000000000          0.000000000000          1.459913738503
      0.1127496852D+01  0.1000000000D+01
 Atom C1       Shell    58 D   1     bf  146 -   150          0.000000000000          0.000000000000          1.459913738503
      0.5757970639D+00  0.1000000000D+01
 Atom C1       Shell    59 D   1     bf  151 -   155          0.000000000000          0.000000000000          1.459913738503
      0.2940516050D+00  0.1000000000D+01
 Atom C1       Shell    60 D   1     bf  156 -   160          0.000000000000          0.000000000000          1.459913738503
      0.1501680918D+00  0.1000000000D+01
 Atom C1       Shell    61 D   1     bf  161 -   165          0.000000000000          0.000000000000          1.459913738503
      0.7668876969D-01  0.1000000000D+01
 Atom C1       Shell    62 D   1     bf  166 -   170          0.000000000000          0.000000000000          1.459913738503
      0.3916389510D-01  0.1000000000D+01
 Atom C2       Shell    63 S   1     bf  171 -   171          0.000000000000          0.000000000000         -0.961921478881
      0.2019953588D+06  0.1000000000D+01
 Atom C2       Shell    64 S   1     bf  172 -   172          0.000000000000          0.000000000000         -0.961921478881
      0.1031562389D+06  0.1000000000D+01
 Atom C2       Shell    65 S   1     bf  173 -   173          0.000000000000          0.000000000000         -0.961921478881
      0.5268046591D+05  0.1000000000D+01
 Atom C2       Shell    66 S   1     bf  174 -   174          0.000000000000          0.000000000000         -0.961921478881
      0.2690318607D+05  0.1000000000D+01
 Atom C2       Shell    67 S   1     bf  175 -   175          0.000000000000          0.000000000000         -0.961921478881
      0.1373908542D+05  0.1000000000D+01
 Atom C2       Shell    68 S   1     bf  176 -   176          0.000000000000          0.000000000000         -0.961921478881
      0.7016361094D+04  0.1000000000D+01
 Atom C2       Shell    69 S   1     bf  177 -   177          0.000000000000          0.000000000000         -0.961921478881
      0.3583158668D+04  0.1000000000D+01
 Atom C2       Shell    70 S   1     bf  178 -   178          0.000000000000          0.000000000000         -0.961921478881
      0.1829869625D+04  0.1000000000D+01
 Atom C2       Shell    71 S   1     bf  179 -   179          0.000000000000          0.000000000000         -0.961921478881
      0.9344891347D+03  0.1000000000D+01
 Atom C2       Shell    72 S   1     bf  180 -   180          0.000000000000          0.000000000000         -0.961921478881
      0.4772306896D+03  0.1000000000D+01
 Atom C2       Shell    73 S   1     bf  181 -   181          0.000000000000          0.000000000000         -0.961921478881
      0.2437151195D+03  0.1000000000D+01
 Atom C2       Shell    74 S   1     bf  182 -   182          0.000000000000          0.000000000000         -0.961921478881
      0.1244619442D+03  0.1000000000D+01
 Atom C2       Shell    75 S   1     bf  183 -   183          0.000000000000          0.000000000000         -0.961921478881
      0.6356099525D+02  0.1000000000D+01
 Atom C2       Shell    76 S   1     bf  184 -   184          0.000000000000          0.000000000000         -0.961921478881
      0.3245972208D+02  0.1000000000D+01
 Atom C2       Shell    77 S   1     bf  185 -   185          0.000000000000          0.000000000000         -0.961921478881
      0.1657673158D+02  0.1000000000D+01
 Atom C2       Shell    78 S   1     bf  186 -   186          0.000000000000          0.000000000000         -0.961921478881
      0.8465507783D+01  0.1000000000D+01
 Atom C2       Shell    79 S   1     bf  187 -   187          0.000000000000          0.000000000000         -0.961921478881
      0.4323217860D+01  0.1000000000D+01
 Atom C2       Shell    80 S   1     bf  188 -   188          0.000000000000          0.000000000000         -0.961921478881
      0.2207807629D+01  0.1000000000D+01
 Atom C2       Shell    81 S   1     bf  189 -   189          0.000000000000          0.000000000000         -0.961921478881
      0.1127496852D+01  0.1000000000D+01
 Atom C2       Shell    82 S   1     bf  190 -   190          0.000000000000          0.000000000000         -0.961921478881
      0.5757970639D+00  0.1000000000D+01
 Atom C2       Shell    83 S   1     bf  191 -   191          0.000000000000          0.000000000000         -0.961921478881
      0.2940516050D+00  0.1000000000D+01
 Atom C2       Shell    84 S   1     bf  192 -   192          0.000000000000          0.000000000000         -0.961921478881
      0.1501680918D+00  0.1000000000D+01
 Atom C2       Shell    85 S   1     bf  193 -   193          0.000000000000          0.000000000000         -0.961921478881
      0.7668876969D-01  0.1000000000D+01
 Atom C2       Shell    86 P   1     bf  194 -   196          0.000000000000          0.000000000000         -0.961921478881
      0.2019953588D+06  0.1000000000D+01
 Atom C2       Shell    87 P   1     bf  197 -   199          0.000000000000          0.000000000000         -0.961921478881
      0.1031562389D+06  0.1000000000D+01
 Atom C2       Shell    88 P   1     bf  200 -   202          0.000000000000          0.000000000000         -0.961921478881
      0.5268046591D+05  0.1000000000D+01
 Atom C2       Shell    89 P   1     bf  203 -   205          0.000000000000          0.000000000000         -0.961921478881
      0.2690318607D+05  0.1000000000D+01
 Atom C2       Shell    90 P   1     bf  206 -   208          0.000000000000          0.000000000000         -0.961921478881
      0.1373908542D+05  0.1000000000D+01
 Atom C2       Shell    91 P   1     bf  209 -   211          0.000000000000          0.000000000000         -0.961921478881
      0.7016361094D+04  0.1000000000D+01
 Atom C2       Shell    92 P   1     bf  212 -   214          0.000000000000          0.000000000000         -0.961921478881
      0.3583158668D+04  0.1000000000D+01
 Atom C2       Shell    93 P   1     bf  215 -   217          0.000000000000          0.000000000000         -0.961921478881
      0.1829869625D+04  0.1000000000D+01
 Atom C2       Shell    94 P   1     bf  218 -   220          0.000000000000          0.000000000000         -0.961921478881
      0.9344891347D+03  0.1000000000D+01
 Atom C2       Shell    95 P   1     bf  221 -   223          0.000000000000          0.000000000000         -0.961921478881
      0.4772306896D+03  0.1000000000D+01
 Atom C2       Shell    96 P   1     bf  224 -   226          0.000000000000          0.000000000000         -0.961921478881
      0.2437151195D+03  0.1000000000D+01
 Atom C2       Shell    97 P   1     bf  227 -   229          0.000000000000          0.000000000000         -0.961921478881
      0.1244619442D+03  0.1000000000D+01
 Atom C2       Shell    98 P   1     bf  230 -   232          0.000000000000          0.000000000000         -0.961921478881
      0.6356099525D+02  0.1000000000D+01
 Atom C2       Shell    99 P   1     bf  233 -   235          0.000000000000          0.000000000000         -0.961921478881
      0.3245972208D+02  0.1000000000D+01
 Atom C2       Shell   100 P   1     bf  236 -   238          0.000000000000          0.000000000000         -0.961921478881
      0.1657673158D+02  0.1000000000D+01
 Atom C2       Shell   101 P   1     bf  239 -   241          0.000000000000          0.000000000000         -0.961921478881
      0.8465507783D+01  0.1000000000D+01
 Atom C2       Shell   102 P   1     bf  242 -   244          0.000000000000          0.000000000000         -0.961921478881
      0.4323217860D+01  0.1000000000D+01
 Atom C2       Shell   103 P   1     bf  245 -   247          0.000000000000          0.000000000000         -0.961921478881
      0.2207807629D+01  0.1000000000D+01
 Atom C2       Shell   104 P   1     bf  248 -   250          0.000000000000          0.000000000000         -0.961921478881
      0.1127496852D+01  0.1000000000D+01
 Atom C2       Shell   105 P   1     bf  251 -   253          0.000000000000          0.000000000000         -0.961921478881
      0.5757970639D+00  0.1000000000D+01
 Atom C2       Shell   106 P   1     bf  254 -   256          0.000000000000          0.000000000000         -0.961921478881
      0.2940516050D+00  0.1000000000D+01
 Atom C2       Shell   107 P   1     bf  257 -   259          0.000000000000          0.000000000000         -0.961921478881
      0.1501680918D+00  0.1000000000D+01
 Atom C2       Shell   108 P   1     bf  260 -   262          0.000000000000          0.000000000000         -0.961921478881
      0.7668876969D-01  0.1000000000D+01
 Atom C2       Shell   109 P   1     bf  263 -   265          0.000000000000          0.000000000000         -0.961921478881
      0.3916389510D-01  0.1000000000D+01
 Atom C2       Shell   110 D   1     bf  266 -   270          0.000000000000          0.000000000000         -0.961921478881
      0.4772306896D+03  0.1000000000D+01
 Atom C2       Shell   111 D   1     bf  271 -   275          0.000000000000          0.000000000000         -0.961921478881
      0.2437151195D+03  0.1000000000D+01
 Atom C2       Shell   112 D   1     bf  276 -   280          0.000000000000          0.000000000000         -0.961921478881
      0.1244619442D+03  0.1000000000D+01
 Atom C2       Shell   113 D   1     bf  281 -   285          0.000000000000          0.000000000000         -0.961921478881
      0.6356099525D+02  0.1000000000D+01
 Atom C2       Shell   114 D   1     bf  286 -   290          0.000000000000          0.000000000000         -0.961921478881
      0.3245972208D+02  0.1000000000D+01
 Atom C2       Shell   115 D   1     bf  291 -   295          0.000000000000          0.000000000000         -0.961921478881
      0.1657673158D+02  0.1000000000D+01
 Atom C2       Shell   116 D   1     bf  296 -   300          0.000000000000          0.000000000000         -0.961921478881
      0.8465507783D+01  0.1000000000D+01
 Atom C2       Shell   117 D   1     bf  301 -   305          0.000000000000          0.000000000000         -0.961921478881
      0.4323217860D+01  0.1000000000D+01
 Atom C2       Shell   118 D   1     bf  306 -   310          0.000000000000          0.000000000000         -0.961921478881
      0.2207807629D+01  0.1000000000D+01
 Atom C2       Shell   119 D   1     bf  311 -   315          0.000000000000          0.000000000000         -0.961921478881
      0.1127496852D+01  0.1000000000D+01
 Atom C2       Shell   120 D   1     bf  316 -   320          0.000000000000          0.000000000000         -0.961921478881
      0.5757970639D+00  0.1000000000D+01
 Atom C2       Shell   121 D   1     bf  321 -   325          0.000000000000          0.000000000000         -0.961921478881
      0.2940516050D+00  0.1000000000D+01
 Atom C2       Shell   122 D   1     bf  326 -   330          0.000000000000          0.000000000000         -0.961921478881
      0.1501680918D+00  0.1000000000D+01
 Atom C2       Shell   123 D   1     bf  331 -   335          0.000000000000          0.000000000000         -0.961921478881
      0.7668876969D-01  0.1000000000D+01
 Atom C2       Shell   124 D   1     bf  336 -   340          0.000000000000          0.000000000000         -0.961921478881
      0.3916389510D-01  0.1000000000D+01
 Atom H3       Shell   125 S   1     bf  341 -   341          0.000000000000          0.000000000000         -2.987953557732
      0.1373908542D+05  0.1000000000D+01
 Atom H3       Shell   126 S   1     bf  342 -   342          0.000000000000          0.000000000000         -2.987953557732
      0.7016361094D+04  0.1000000000D+01
 Atom H3       Shell   127 S   1     bf  343 -   343          0.000000000000          0.000000000000         -2.987953557732
      0.3583158668D+04  0.1000000000D+01
 Atom H3       Shell   128 S   1     bf  344 -   344          0.000000000000          0.000000000000         -2.987953557732
      0.1829869625D+04  0.1000000000D+01
 Atom H3       Shell   129 S   1     bf  345 -   345          0.000000000000          0.000000000000         -2.987953557732
      0.9344891347D+03  0.1000000000D+01
 Atom H3       Shell   130 S   1     bf  346 -   346          0.000000000000          0.000000000000         -2.987953557732
      0.4772306896D+03  0.1000000000D+01
 Atom H3       Shell   131 S   1     bf  347 -   347          0.000000000000          0.000000000000         -2.987953557732
      0.2437151195D+03  0.1000000000D+01
 Atom H3       Shell   132 S   1     bf  348 -   348          0.000000000000          0.000000000000         -2.987953557732
      0.1244619442D+03  0.1000000000D+01
 Atom H3       Shell   133 S   1     bf  349 -   349          0.000000000000          0.000000000000         -2.987953557732
      0.6356099525D+02  0.1000000000D+01
 Atom H3       Shell   134 S   1     bf  350 -   350          0.000000000000          0.000000000000         -2.987953557732
      0.3245972208D+02  0.1000000000D+01
 Atom H3       Shell   135 S   1     bf  351 -   351          0.000000000000          0.000000000000         -2.987953557732
      0.1657673158D+02  0.1000000000D+01
 Atom H3       Shell   136 S   1     bf  352 -   352          0.000000000000          0.000000000000         -2.987953557732
      0.8465507783D+01  0.1000000000D+01
 Atom H3       Shell   137 S   1     bf  353 -   353          0.000000000000          0.000000000000         -2.987953557732
      0.4323217860D+01  0.1000000000D+01
 Atom H3       Shell   138 S   1     bf  354 -   354          0.000000000000          0.000000000000         -2.987953557732
      0.2207807629D+01  0.1000000000D+01
 Atom H3       Shell   139 S   1     bf  355 -   355          0.000000000000          0.000000000000         -2.987953557732
      0.1127496852D+01  0.1000000000D+01
 Atom H3       Shell   140 S   1     bf  356 -   356          0.000000000000          0.000000000000         -2.987953557732
      0.5757970639D+00  0.1000000000D+01
 Atom H3       Shell   141 S   1     bf  357 -   357          0.000000000000          0.000000000000         -2.987953557732
      0.2940516050D+00  0.1000000000D+01
 Atom H3       Shell   142 S   1     bf  358 -   358          0.000000000000          0.000000000000         -2.987953557732
      0.1501680918D+00  0.1000000000D+01
 Atom H3       Shell   143 S   1     bf  359 -   359          0.000000000000          0.000000000000         -2.987953557732
      0.7668876969D-01  0.1000000000D+01
 Atom H3       Shell   144 S   1     bf  360 -   360          0.000000000000          0.000000000000         -2.987953557732
      0.3916389510D-01  0.1000000000D+01
 Atom H3       Shell   145 P   1     bf  361 -   363          0.000000000000          0.000000000000         -2.987953557732
      0.1373908542D+05  0.1000000000D+01
 Atom H3       Shell   146 P   1     bf  364 -   366          0.000000000000          0.000000000000         -2.987953557732
      0.7016361094D+04  0.1000000000D+01
 Atom H3       Shell   147 P   1     bf  367 -   369          0.000000000000          0.000000000000         -2.987953557732
      0.3583158668D+04  0.1000000000D+01
 Atom H3       Shell   148 P   1     bf  370 -   372          0.000000000000          0.000000000000         -2.987953557732
      0.1829869625D+04  0.1000000000D+01
 Atom H3       Shell   149 P   1     bf  373 -   375          0.000000000000          0.000000000000         -2.987953557732
      0.9344891347D+03  0.1000000000D+01
 Atom H3       Shell   150 P   1     bf  376 -   378          0.000000000000          0.000000000000         -2.987953557732
      0.4772306896D+03  0.1000000000D+01
 Atom H3       Shell   151 P   1     bf  379 -   381          0.000000000000          0.000000000000         -2.987953557732
      0.2437151195D+03  0.1000000000D+01
 Atom H3       Shell   152 P   1     bf  382 -   384          0.000000000000          0.000000000000         -2.987953557732
      0.1244619442D+03  0.1000000000D+01
 Atom H3       Shell   153 P   1     bf  385 -   387          0.000000000000          0.000000000000         -2.987953557732
      0.6356099525D+02  0.1000000000D+01
 Atom H3       Shell   154 P   1     bf  388 -   390          0.000000000000          0.000000000000         -2.987953557732
      0.3245972208D+02  0.1000000000D+01
 Atom H3       Shell   155 P   1     bf  391 -   393          0.000000000000          0.000000000000         -2.987953557732
      0.1657673158D+02  0.1000000000D+01
 Atom H3       Shell   156 P   1     bf  394 -   396          0.000000000000          0.000000000000         -2.987953557732
      0.8465507783D+01  0.1000000000D+01
 Atom H3       Shell   157 P   1     bf  397 -   399          0.000000000000          0.000000000000         -2.987953557732
      0.4323217860D+01  0.1000000000D+01
 Atom H3       Shell   158 P   1     bf  400 -   402          0.000000000000          0.000000000000         -2.987953557732
      0.2207807629D+01  0.1000000000D+01
 Atom H3       Shell   159 P   1     bf  403 -   405          0.000000000000          0.000000000000         -2.987953557732
      0.1127496852D+01  0.1000000000D+01
 Atom H3       Shell   160 P   1     bf  406 -   408          0.000000000000          0.000000000000         -2.987953557732
      0.5757970639D+00  0.1000000000D+01
 Atom H3       Shell   161 P   1     bf  409 -   411          0.000000000000          0.000000000000         -2.987953557732
      0.2940516050D+00  0.1000000000D+01
 Atom H3       Shell   162 P   1     bf  412 -   414          0.000000000000          0.000000000000         -2.987953557732
      0.1501680918D+00  0.1000000000D+01
 Atom H3       Shell   163 P   1     bf  415 -   417          0.000000000000          0.000000000000         -2.987953557732
      0.7668876969D-01  0.1000000000D+01
 Atom H3       Shell   164 P   1     bf  418 -   420          0.000000000000          0.000000000000         -2.987953557732
      0.3916389510D-01  0.1000000000D+01
 There are   224 symmetry adapted cartesian basis functions of A1  symmetry.
 There are    30 symmetry adapted cartesian basis functions of A2  symmetry.
 There are    98 symmetry adapted cartesian basis functions of B1  symmetry.
 There are    98 symmetry adapted cartesian basis functions of B2  symmetry.
 There are   194 symmetry adapted basis functions of A1  symmetry.
 There are    30 symmetry adapted basis functions of A2  symmetry.
 There are    98 symmetry adapted basis functions of B1  symmetry.
 There are    98 symmetry adapted basis functions of B2  symmetry.
   420 basis functions,   450 primitive gaussians,   450 cartesian basis functions
     7 alpha electrons        6 beta electrons
       nuclear repulsion energy        19.1751750151 Hartrees.
 IExCor= 3731 DFT=T Ex+Corr=APFD ExCW=0 ScaHFX=  0.229450
 ScaDFX=  1.000000  1.000000  1.000000  1.000000 ScalE2=  1.000000  1.000000
 IRadAn= 299974 IRanWt=     -1 IRanGd=            0 ICorTp=0 IEmpDi=211
 NAtoms=    3 NActive=    3 NUniq=    3 SFac= 1.00D+00 NAtFMM=   60 NAOKFM=F Big=F
 Integral buffers will be    131072 words long.
 Raffenetti 2 integral format.
 Two-electron integral symmetry is turned on.
 R6Disp:  Petersson-Frisch Dispersion energy=       -0.0001995089 Hartrees.
 Nuclear repulsion after empirical dispersion term =       19.1749755062 Hartrees.
 Leave Link  301 at Sat Jul 27 10:08:49 2013, MaxMem=  536870912 cpu:       0.2
 (Enter /share/apps/gaussian/gdvh12/gdv/l302.exe)
 NPDir=0 NMtPBC=     1 NCelOv=     1 NCel=       1 NClECP=     1 NCelD=      1
         NCelK=      1 NCelE2=     1 NClLst=     1 CellRange=     0.0.
 One-electron integrals computed using PRISM.
 NBasis=   420 RedAO= T EigKep=  1.07D-06  NBF=   194    30    98    98
 NBsUse=   419 1.00D-06 EigRej=  3.12D-07 NBFU=   193    30    98    98
 Precomputing XC quadrature grid using
 IXCGrd= 2 IRadAn=      299974 IRanWt=          -1 IRanGd=           0 AccXCQ= 0.00D+00.
 NRdTot=     897 NPtTot=      735370 NUsed=      741701 NTot=      741733
 NSgBfM=   320   320   320   320   320 NAtAll=     3     3.
 Leave Link  302 at Sat Jul 27 10:08:50 2013, MaxMem=  536870912 cpu:       1.5
 (Enter /share/apps/gaussian/gdvh12/gdv/l303.exe)
 DipDrv:  MaxL=1.
 Leave Link  303 at Sat Jul 27 10:08:50 2013, MaxMem=  536870912 cpu:       0.2
 (Enter /share/apps/gaussian/gdvh12/gdv/l401.exe)
 ExpMin= 3.92D-02 ExpMax= 2.02D+05 ExpMxC= 2.02D+05 IAcc=4 IRadAn=    299974 AccDes= 0.00D+00
 Harris functional with IExCor= 3731 and IRadAn=  299974 diagonalized for initial guess.
 HarFok:  IExCor= 3731 AccDes= 0.00D+00 IRadAn=    299974 IDoV= 1 UseB2=F ITyADJ=14
 ICtDFT=  3500011 ScaDFX=  1.000000  1.000000  1.000000  1.000000
 FoFCou: FMM=F IPFlag=           0 FMFlag=      100000 FMFlg1=           0
         NFxFlg=           0 DoJE=T BraDBF=F KetDBF=T FulRan=T
         wScrn=  0.000000 ICntrl=     500 IOpCl=  0 I1Cent=   200000004 NGrid=           0
         NMat0=    1 NMatS0=      1 NMatT0=    0 NMatD0=    1 NMtDS0=    0 NMtDT0=    0
 Petite list used in FoFCou.
 Harris En= -74.1750323868459    
 Initial guess orbital symmetries:
 Alpha Orbitals:
       Occupied  (SG) (SG) (SG) (SG) (PI) (PI) (SG)
       Virtual   (PI) (PI) (SG) (SG) (PI) (PI) (SG) (DLTA) (DLTA)
                 (PI) (PI) (SG) (PI) (PI) (SG) (SG) (DLTA) (DLTA)
                 (PI) (PI) (SG) (PI) (PI) (SG) (PI) (PI) (DLTA)
                 (DLTA) (SG) (PI) (PI) (SG) (SG) (DLTA) (DLTA)
                 (PI) (PI) (PI) (PI) (SG) (SG) (PI) (PI) (DLTA)
                 (DLTA) (SG) (PI) (PI) (SG) (SG) (PI) (PI) (DLTA)
                 (DLTA) (SG) (PI) (PI) (SG) (PI) (PI) (SG) (SG)
                 (PI) (PI) (SG) (DLTA) (DLTA) (SG) (PI) (PI) (SG)
                 (PI) (PI) (DLTA) (DLTA) (SG) (SG) (PI) (PI) (PI)
                 (PI) (SG) (PI) (PI) (SG) (SG) (SG) (PI) (PI) (PI)
                 (PI) (DLTA) (DLTA) (SG) (SG) (DLTA) (DLTA) (SG)
                 (SG) (PI) (PI) (SG) (PI) (PI) (PI) (PI) (SG) (SG)
                 (SG) (SG) (PI) (PI) (SG) (DLTA) (DLTA) (PI) (PI)
                 (DLTA) (DLTA) (SG) (PI) (PI) (SG) (SG) (SG) (PI)
                 (PI) (PI) (PI) (SG) (SG) (PI) (PI) (SG) (DLTA)
                 (DLTA) (PI) (PI) (SG) (DLTA) (DLTA) (PI) (PI)
                 (SG) (SG) (SG) (PI) (PI) (PI) (PI) (SG) (SG) (SG)
                 (SG) (PI) (PI) (DLTA) (DLTA) (PI) (PI) (DLTA)
                 (DLTA) (PI) (PI) (SG) (SG) (SG) (SG) (SG) (PI)
                 (PI) (PI) (PI) (SG) (SG) (PI) (PI) (SG) (DLTA)
                 (DLTA) (DLTA) (DLTA) (PI) (PI) (SG) (PI) (PI)
                 (SG) (SG) (SG) (SG) (PI) (PI) (PI) (PI) (SG) (SG)
                 (PI) (PI) (SG) (DLTA) (DLTA) (DLTA) (DLTA) (PI)
                 (PI) (SG) (PI) (PI) (SG) (SG) (SG) (SG) (PI) (PI)
                 (PI) (PI) (SG) (SG) (PI) (PI) (SG) (DLTA) (DLTA)
                 (DLTA) (DLTA) (PI) (PI) (PI) (PI) (SG) (SG) (SG)
                 (SG) (SG) (PI) (PI) (PI) (PI) (SG) (SG) (PI) (PI)
                 (SG) (DLTA) (DLTA) (DLTA) (DLTA) (PI) (PI) (PI)
                 (PI) (SG) (SG) (SG) (SG) (SG) (PI) (PI) (PI) (PI)
                 (SG) (SG) (PI) (PI) (SG) (DLTA) (DLTA) (DLTA)
                 (DLTA) (PI) (PI) (PI) (PI) (SG) (SG) (SG) (SG)
                 (SG) (PI) (PI) (PI) (PI) (SG) (SG) (PI) (PI) (SG)
                 (DLTA) (DLTA) (DLTA) (DLTA) (PI) (PI) (PI) (PI)
                 (SG) (SG) (SG) (SG) (SG) (PI) (PI) (PI) (PI) (SG)
                 (SG) (PI) (PI) (SG) (DLTA) (DLTA) (DLTA) (DLTA)
                 (PI) (PI) (PI) (PI) (SG) (SG) (SG) (SG) (SG) (PI)
                 (PI) (PI) (PI) (SG) (SG) (PI) (PI) (SG) (SG) (SG)
                 (SG) (PI) (PI) (PI) (PI) (SG) (SG) (PI) (PI) (SG)
                 (SG) (SG) (SG) (PI) (PI) (PI) (PI) (SG) (SG) (PI)
                 (PI) (SG) (SG) (SG) (SG) (PI) (PI) (PI) (PI) (SG)
                 (SG) (PI) (PI) (SG) (SG) (SG) (PI) (PI) (PI) (PI)
                 (SG) (SG) (SG) (PI) (PI) (SG) (SG) (SG) (PI) (PI)
                 (PI) (PI) (SG) (SG) (SG) (SG) (PI) (PI) (PI) (PI)
                 (SG) (SG) (SG) (SG) (PI) (PI) (PI) (PI) (SG) (SG)
                 (SG) (SG) (PI) (PI) (PI) (PI) (SG) (SG)
 Beta  Orbitals:
       Occupied  (SG) (SG) (SG) (SG) (PI) (PI)
       Virtual   (SG) (PI) (PI) (SG) (SG) (PI) (PI) (SG) (DLTA)
                 (DLTA) (PI) (PI) (SG) (PI) (PI) (SG) (SG) (DLTA)
                 (DLTA) (PI) (PI) (SG) (PI) (PI) (SG) (PI) (PI)
                 (DLTA) (DLTA) (SG) (PI) (PI) (SG) (SG) (DLTA)
                 (DLTA) (PI) (PI) (PI) (PI) (SG) (SG) (PI) (PI)
                 (DLTA) (DLTA) (SG) (PI) (PI) (SG) (SG) (PI) (PI)
                 (DLTA) (DLTA) (SG) (PI) (PI) (SG) (PI) (PI) (SG)
                 (SG) (PI) (PI) (SG) (DLTA) (DLTA) (SG) (PI) (PI)
                 (SG) (PI) (PI) (DLTA) (DLTA) (SG) (SG) (PI) (PI)
                 (PI) (PI) (SG) (PI) (PI) (SG) (SG) (SG) (PI) (PI)
                 (PI) (PI) (DLTA) (DLTA) (SG) (SG) (DLTA) (DLTA)
                 (SG) (SG) (PI) (PI) (SG) (PI) (PI) (PI) (PI) (SG)
                 (SG) (SG) (SG) (PI) (PI) (SG) (DLTA) (DLTA) (PI)
                 (PI) (DLTA) (DLTA) (SG) (PI) (PI) (SG) (SG) (SG)
                 (PI) (PI) (PI) (PI) (SG) (SG) (PI) (PI) (SG) (DLTA)
                 (DLTA) (PI) (PI) (SG) (DLTA) (DLTA) (PI) (PI)
                 (SG) (SG) (SG) (PI) (PI) (PI) (PI) (SG) (SG) (SG)
                 (SG) (PI) (PI) (DLTA) (DLTA) (PI) (PI) (DLTA)
                 (DLTA) (PI) (PI) (SG) (SG) (SG) (SG) (SG) (PI)
                 (PI) (PI) (PI) (SG) (SG) (PI) (PI) (SG) (DLTA)
                 (DLTA) (DLTA) (DLTA) (PI) (PI) (SG) (PI) (PI)
                 (SG) (SG) (SG) (SG) (PI) (PI) (PI) (PI) (SG) (SG)
                 (PI) (PI) (SG) (DLTA) (DLTA) (DLTA) (DLTA) (PI)
                 (PI) (SG) (PI) (PI) (SG) (SG) (SG) (SG) (PI) (PI)
                 (PI) (PI) (SG) (SG) (PI) (PI) (SG) (DLTA) (DLTA)
                 (DLTA) (DLTA) (PI) (PI) (PI) (PI) (SG) (SG) (SG)
                 (SG) (SG) (PI) (PI) (PI) (PI) (SG) (SG) (PI) (PI)
                 (SG) (DLTA) (DLTA) (DLTA) (DLTA) (PI) (PI) (PI)
                 (PI) (SG) (SG) (SG) (SG) (SG) (PI) (PI) (PI) (PI)
                 (SG) (SG) (PI) (PI) (SG) (DLTA) (DLTA) (DLTA)
                 (DLTA) (PI) (PI) (PI) (PI) (SG) (SG) (SG) (SG)
                 (SG) (PI) (PI) (PI) (PI) (SG) (SG) (PI) (PI) (SG)
                 (DLTA) (DLTA) (DLTA) (DLTA) (PI) (PI) (PI) (PI)
                 (SG) (SG) (SG) (SG) (SG) (PI) (PI) (PI) (PI) (SG)
                 (SG) (PI) (PI) (SG) (DLTA) (DLTA) (DLTA) (DLTA)
                 (PI) (PI) (PI) (PI) (SG) (SG) (SG) (SG) (SG) (PI)
                 (PI) (PI) (PI) (SG) (SG) (PI) (PI) (SG) (SG) (SG)
                 (SG) (PI) (PI) (PI) (PI) (SG) (SG) (PI) (PI) (SG)
                 (SG) (SG) (SG) (PI) (PI) (PI) (PI) (SG) (SG) (PI)
                 (PI) (SG) (SG) (SG) (SG) (PI) (PI) (PI) (PI) (SG)
                 (SG) (PI) (PI) (SG) (SG) (SG) (PI) (PI) (PI) (PI)
                 (SG) (SG) (SG) (PI) (PI) (SG) (SG) (SG) (PI) (PI)
                 (PI) (PI) (SG) (SG) (SG) (SG) (PI) (PI) (PI) (PI)
                 (SG) (SG) (SG) (SG) (PI) (PI) (PI) (PI) (SG) (SG)
                 (SG) (SG) (PI) (PI) (PI) (PI) (SG) (SG)
 The electronic state of the initial guess is 2-SG.
 Initial guess <Sx>= 0.0000 <Sy>= 0.0000 <Sz>= 0.5000 <S**2>= 0.7500 S= 0.5000
 Leave Link  401 at Sat Jul 27 10:08:59 2013, MaxMem=  536870912 cpu:      17.5
 (Enter /share/apps/gaussian/gdvh12/gdv/l502.exe)
 UHF open shell SCF:
 Using DIIS extrapolation, IDIIS=  1040.
 Integral symmetry usage will be decided dynamically.
       741661 words used for storage of precomputed grid.
 IVT=     1373789 IEndB=     1373789 NGot=   536870912 MDV=   535716714
 LenX=   535716714 LenY=   535513764
 Requested convergence on RMS density matrix=1.00D-08 within 128 cycles.
 Requested convergence on MAX density matrix=1.00D-06.
 Requested convergence on             energy=1.00D-06.
 No special actions if energy rises.
 Fock matrices will be formed incrementally for  20 cycles.

 Cycle   1  Pass 1  IDiag  1:
 FoFJK:  IHMeth= 1 ICntrl=       0 DoSepK=F KAlg= 0 I1Cent=   0 FoldK=F
 IRaf=       0 NMat=   1 IRICut=       1 DoRegI=T DoRafI=F ISym2E= 1.
 FoFCou: FMM=F IPFlag=           0 FMFlag=      100000 FMFlg1=           0
         NFxFlg=           0 DoJE=F BraDBF=F KetDBF=F FulRan=T
         wScrn=  0.000000 ICntrl=       0 IOpCl=  1 I1Cent=           0 NGrid=           0
         NMat0=    1 NMatS0=      1 NMatT0=    0 NMatD0=    1 NMtDS0=    0 NMtDT0=    0
 Petite list used in FoFCou.
 E= -76.4986667381043    
 DIIS: error= 4.58D-02 at cycle   1 NSaved=   1.
 NSaved= 1 IEnMin= 1 EnMin= -76.4986667381043     IErMin= 1 ErrMin= 4.58D-02
 ErrMax= 4.58D-02  0.00D+00 EMaxC= 1.00D-01 BMatC= 1.39D+00 BMatP= 1.39D+00
 IDIUse=3 WtCom= 5.42D-01 WtEn= 4.58D-01
 Coeff-Com:  0.100D+01
 Coeff-En:   0.100D+01
 Coeff:      0.100D+01
 Gap=     0.286 Goal=   None    Shift=    0.000
 Gap=     0.023 Goal=   None    Shift=    0.000
 GapD=    0.023 DampG=0.250 DampE=0.500 DampFc=0.2500 IDamp=-1.
 Damping current iteration by 2.50D-01
 RMSDP=6.45D-04 MaxDP=7.56D-02              OVMax= 2.44D-01

 Cycle   2  Pass 1  IDiag  1:
 RMSU=  1.43D-04    CP:  9.60D-01
 E= -76.5141934541428     Delta-E=       -0.015526716038 Rises=F Damp=T
 DIIS: error= 3.07D-02 at cycle   2 NSaved=   2.
 NSaved= 2 IEnMin= 2 EnMin= -76.5141934541428     IErMin= 2 ErrMin= 3.07D-02
 ErrMax= 3.07D-02  0.00D+00 EMaxC= 1.00D-01 BMatC= 7.10D-01 BMatP= 1.39D+00
 IDIUse=3 WtCom= 6.93D-01 WtEn= 3.07D-01
 Coeff-Com: -0.161D+01 0.261D+01
 Coeff-En:   0.000D+00 0.100D+01
 Coeff:     -0.112D+01 0.212D+01
 Gap=     0.257 Goal=   None    Shift=    0.000
 Gap=     0.126 Goal=   None    Shift=    0.000
 RMSDP=4.52D-04 MaxDP=5.47D-02 DE=-1.55D-02 OVMax= 3.08D-01

 Cycle   3  Pass 1  IDiag  1:
 RMSU=  3.88D-04    CP:  8.64D-01  2.05D+00
 E= -76.4161215077168     Delta-E=        0.098071946426 Rises=F Damp=F
 DIIS: error= 4.59D-02 at cycle   3 NSaved=   3.
 NSaved= 3 IEnMin= 2 EnMin= -76.5141934541428     IErMin= 2 ErrMin= 3.07D-02
 ErrMax= 4.59D-02  0.00D+00 EMaxC= 1.00D-01 BMatC= 5.25D-01 BMatP= 7.10D-01
 IDIUse=3 WtCom= 5.41D-01 WtEn= 4.59D-01
 Rare condition: small coef for last iteration:  0.000D+00
 Coeff-Com: -0.136D+01 0.188D+01 0.482D+00
 Coeff-En:   0.000D+00 0.000D+00 0.100D+01
 Coeff:     -0.136D+01 0.188D+01 0.482D+00
 Gap=     0.288 Goal=   None    Shift=    0.000
 Gap=     0.101 Goal=   None    Shift=    0.000
 RMSDP=2.35D-04 MaxDP=1.44D-02 DE= 9.81D-02 OVMax= 1.63D-01

 Cycle   4  Pass 1  IDiag  1:
 RMSU=  6.37D-05    CP:  8.68D-01  2.85D+00  4.97D-01
 E= -76.5552039955264     Delta-E=       -0.139082487810 Rises=F Damp=F
 DIIS: error= 1.33D-03 at cycle   4 NSaved=   4.
 NSaved= 4 IEnMin= 4 EnMin= -76.5552039955264     IErMin= 4 ErrMin= 1.33D-03
 ErrMax= 1.33D-03  0.00D+00 EMaxC= 1.00D-01 BMatC= 8.84D-04 BMatP= 5.25D-01
 IDIUse=3 WtCom= 9.87D-01 WtEn= 1.33D-02
 Coeff-Com: -0.262D+00 0.351D+00 0.893D-01 0.822D+00
 Coeff-En:   0.000D+00 0.000D+00 0.000D+00 0.100D+01
 Coeff:     -0.258D+00 0.346D+00 0.881D-01 0.824D+00
 Gap=     0.304 Goal=   None    Shift=    0.000
 Gap=     0.107 Goal=   None    Shift=    0.000
 RMSDP=3.43D-05 MaxDP=5.40D-03 DE=-1.39D-01 OVMax= 1.18D-02

 Cycle   5  Pass 1  IDiag  1:
 RMSU=  2.88D-05    CP:  8.74D-01  2.83D+00  4.75D-01  1.18D+00
 E= -76.5556318595169     Delta-E=       -0.000427863990 Rises=F Damp=F
 DIIS: error= 8.20D-04 at cycle   5 NSaved=   5.
 NSaved= 5 IEnMin= 5 EnMin= -76.5556318595169     IErMin= 5 ErrMin= 8.20D-04
 ErrMax= 8.20D-04  0.00D+00 EMaxC= 1.00D-01 BMatC= 1.13D-04 BMatP= 8.84D-04
 IDIUse=3 WtCom= 9.92D-01 WtEn= 8.20D-03
 Coeff-Com:  0.669D-01-0.903D-01-0.221D-01-0.975D-01 0.114D+01
 Coeff-En:   0.000D+00 0.000D+00 0.000D+00 0.000D+00 0.100D+01
 Coeff:      0.663D-01-0.895D-01-0.219D-01-0.967D-01 0.114D+01
 Gap=     0.305 Goal=   None    Shift=    0.000
 Gap=     0.110 Goal=   None    Shift=    0.000
 RMSDP=2.12D-05 MaxDP=2.27D-03 DE=-4.28D-04 OVMax= 1.06D-02

 Cycle   6  Pass 1  IDiag  1:
 RMSU=  1.09D-05    CP:  8.75D-01  2.80D+00  4.69D-01  1.33D+00  1.50D+00
 E= -76.5558653633057     Delta-E=       -0.000233503789 Rises=F Damp=F
 DIIS: error= 5.88D-04 at cycle   6 NSaved=   6.
 NSaved= 6 IEnMin= 6 EnMin= -76.5558653633057     IErMin= 6 ErrMin= 5.88D-04
 ErrMax= 5.88D-04  0.00D+00 EMaxC= 1.00D-01 BMatC= 5.89D-05 BMatP= 1.13D-04
 IDIUse=3 WtCom= 9.94D-01 WtEn= 5.88D-03
 Coeff-Com:  0.398D-01-0.534D-01-0.139D-01-0.113D+00-0.129D+00 0.127D+01
 Coeff-En:   0.000D+00 0.000D+00 0.000D+00 0.000D+00 0.000D+00 0.100D+01
 Coeff:      0.395D-01-0.531D-01-0.139D-01-0.112D+00-0.128D+00 0.127D+01
 Gap=     0.305 Goal=   None    Shift=    0.000
 Gap=     0.111 Goal=   None    Shift=    0.000
 RMSDP=1.65D-05 MaxDP=9.69D-04 DE=-2.34D-04 OVMax= 1.00D-02

 Cycle   7  Pass 1  IDiag  1:
 RMSU=  7.50D-06    CP:  8.76D-01  2.81D+00  4.68D-01  1.43D+00  1.80D+00
                    CP:  1.94D+00
 E= -76.5560070123873     Delta-E=       -0.000141649082 Rises=F Damp=F
 DIIS: error= 4.53D-04 at cycle   7 NSaved=   7.
 NSaved= 7 IEnMin= 7 EnMin= -76.5560070123873     IErMin= 7 ErrMin= 4.53D-04
 ErrMax= 4.53D-04  0.00D+00 EMaxC= 1.00D-01 BMatC= 2.71D-05 BMatP= 5.89D-05
 IDIUse=3 WtCom= 9.95D-01 WtEn= 4.53D-03
 Coeff-Com: -0.227D-01 0.311D-01 0.826D-02 0.136D-01-0.930D+00 0.522D+00
 Coeff-Com:  0.138D+01
 Coeff-En:   0.000D+00 0.000D+00 0.000D+00 0.000D+00 0.000D+00 0.000D+00
 Coeff-En:   0.100D+01
 Coeff:     -0.226D-01 0.310D-01 0.822D-02 0.135D-01-0.926D+00 0.520D+00
 Coeff:      0.138D+01
 Gap=     0.306 Goal=   None    Shift=    0.000
 Gap=     0.113 Goal=   None    Shift=    0.000
 RMSDP=2.21D-05 MaxDP=1.29D-03 DE=-1.42D-04 OVMax= 1.29D-02

 Cycle   8  Pass 1  IDiag  1:
 RMSU=  5.94D-06    CP:  8.75D-01  2.82D+00  4.68D-01  1.52D+00  2.16D+00
                    CP:  3.00D+00  1.98D+00
 E= -76.5560894556149     Delta-E=       -0.000082443228 Rises=F Damp=F
 DIIS: error= 4.38D-05 at cycle   8 NSaved=   8.
 NSaved= 8 IEnMin= 8 EnMin= -76.5560894556149     IErMin= 8 ErrMin= 4.38D-05
 ErrMax= 4.38D-05  0.00D+00 EMaxC= 1.00D-01 BMatC= 4.77D-07 BMatP= 2.71D-05
 IDIUse=1 WtCom= 1.00D+00 WtEn= 0.00D+00
 Coeff-Com: -0.299D-02 0.395D-02 0.132D-02 0.119D-01 0.720D-01-0.104D+00
 Coeff-Com: -0.168D+00 0.119D+01
 Coeff:     -0.299D-02 0.395D-02 0.132D-02 0.119D-01 0.720D-01-0.104D+00
 Coeff:     -0.168D+00 0.119D+01
 Gap=     0.306 Goal=   None    Shift=    0.000
 Gap=     0.113 Goal=   None    Shift=    0.000
 RMSDP=3.21D-06 MaxDP=2.45D-04 DE=-8.24D-05 OVMax= 1.51D-03

 Cycle   9  Pass 1  IDiag  1:
 RMSU=  1.06D-06    CP:  8.75D-01  2.82D+00  4.68D-01  1.52D+00  2.18D+00
                    CP:  3.00D+00  2.15D+00  1.44D+00
 E= -76.5560905007108     Delta-E=       -0.000001045096 Rises=F Damp=F
 DIIS: error= 3.37D-06 at cycle   9 NSaved=   9.
 NSaved= 9 IEnMin= 9 EnMin= -76.5560905007108     IErMin= 9 ErrMin= 3.37D-06
 ErrMax= 3.37D-06  0.00D+00 EMaxC= 1.00D-01 BMatC= 4.95D-09 BMatP= 4.77D-07
 IDIUse=1 WtCom= 1.00D+00 WtEn= 0.00D+00
 Coeff-Com:  0.311D-03-0.408D-03-0.111D-03-0.132D-02 0.158D-02 0.394D-02
 Coeff-Com:  0.533D-02-0.122D+00 0.111D+01
 Coeff:      0.311D-03-0.408D-03-0.111D-03-0.132D-02 0.158D-02 0.394D-02
 Coeff:      0.533D-02-0.122D+00 0.111D+01
 Gap=     0.306 Goal=   None    Shift=    0.000
 Gap=     0.113 Goal=   None    Shift=    0.000
 RMSDP=1.90D-07 MaxDP=2.48D-05 DE=-1.05D-06 OVMax= 4.96D-05

 Cycle  10  Pass 1  IDiag  1:
 RMSU=  1.06D-07    CP:  8.75D-01  2.82D+00  4.68D-01  1.52D+00  2.18D+00
                    CP:  3.00D+00  2.15D+00  1.45D+00  1.08D+00
 E= -76.5560905037142     Delta-E=       -0.000000003003 Rises=F Damp=F
 DIIS: error= 1.71D-06 at cycle  10 NSaved=  10.
 NSaved=10 IEnMin=10 EnMin= -76.5560905037142     IErMin=10 ErrMin= 1.71D-06
 ErrMax= 1.71D-06  0.00D+00 EMaxC= 1.00D-01 BMatC= 6.45D-10 BMatP= 4.95D-09
 IDIUse=1 WtCom= 1.00D+00 WtEn= 0.00D+00
 Coeff-Com: -0.312D-05 0.422D-05-0.359D-04-0.764D-05-0.222D-02 0.177D-02
 Coeff-Com:  0.483D-02-0.212D-01-0.649D-01 0.108D+01
 Coeff:     -0.312D-05 0.422D-05-0.359D-04-0.764D-05-0.222D-02 0.177D-02
 Coeff:      0.483D-02-0.212D-01-0.649D-01 0.108D+01
 Gap=     0.306 Goal=   None    Shift=    0.000
 Gap=     0.113 Goal=   None    Shift=    0.000
 RMSDP=5.27D-08 MaxDP=6.81D-06 DE=-3.00D-09 OVMax= 1.10D-05

 Cycle  11  Pass 1  IDiag  1:
 RMSU=  2.55D-08    CP:  8.75D-01  2.82D+00  4.68D-01  1.52D+00  2.18D+00
                    CP:  3.00D+00  2.15D+00  1.45D+00  1.08D+00  1.24D+00
 E= -76.5560905039730     Delta-E=       -0.000000000259 Rises=F Damp=F
 DIIS: error= 2.48D-07 at cycle  11 NSaved=  11.
 NSaved=11 IEnMin=11 EnMin= -76.5560905039730     IErMin=11 ErrMin= 2.48D-07
 ErrMax= 2.48D-07  0.00D+00 EMaxC= 1.00D-01 BMatC= 1.92D-11 BMatP= 6.45D-10
 IDIUse=1 WtCom= 1.00D+00 WtEn= 0.00D+00
 Coeff-Com: -0.872D-05 0.110D-04 0.808D-05 0.770D-04 0.510D-04-0.292D-03
 Coeff-Com: -0.502D-03 0.691D-02-0.534D-01-0.487D-01 0.110D+01
 Coeff:     -0.872D-05 0.110D-04 0.808D-05 0.770D-04 0.510D-04-0.292D-03
 Coeff:     -0.502D-03 0.691D-02-0.534D-01-0.487D-01 0.110D+01
 Gap=     0.306 Goal=   None    Shift=    0.000
 Gap=     0.113 Goal=   None    Shift=    0.000
 RMSDP=1.13D-08 MaxDP=1.19D-06 DE=-2.59D-10 OVMax= 2.11D-06

 Cycle  12  Pass 1  IDiag  1:
 RMSU=  3.94D-09    CP:  8.75D-01  2.82D+00  4.68D-01  1.52D+00  2.18D+00
                    CP:  3.00D+00  2.15D+00  1.45D+00  1.08D+00  1.28D+00
                    CP:  1.20D+00
 E= -76.5560905039825     Delta-E=       -0.000000000010 Rises=F Damp=F
 DIIS: error= 5.63D-08 at cycle  12 NSaved=  12.
 NSaved=12 IEnMin=12 EnMin= -76.5560905039825     IErMin=12 ErrMin= 5.63D-08
 ErrMax= 5.63D-08  0.00D+00 EMaxC= 1.00D-01 BMatC= 5.35D-13 BMatP= 1.92D-11
 IDIUse=1 WtCom= 1.00D+00 WtEn= 0.00D+00
 Coeff-Com:  0.244D-05-0.312D-05 0.747D-07-0.182D-04 0.811D-04-0.433D-04
 Coeff-Com: -0.878D-04 0.117D-03 0.807D-02-0.394D-01-0.122D+00 0.115D+01
 Coeff:      0.244D-05-0.312D-05 0.747D-07-0.182D-04 0.811D-04-0.433D-04
 Coeff:     -0.878D-04 0.117D-03 0.807D-02-0.394D-01-0.122D+00 0.115D+01
 Gap=     0.306 Goal=   None    Shift=    0.000
 Gap=     0.113 Goal=   None    Shift=    0.000
 RMSDP=1.44D-09 MaxDP=1.56D-07 DE=-9.58D-12 OVMax= 5.49D-07

 SCF Done:  E(UAPFD) =  -76.5560905040     A.U. after   12 cycles
            NFock= 12  Conv=0.14D-08     -V/T= 2.0086
 <Sx>= 0.0000 <Sy>= 0.0000 <Sz>= 0.5000 <S**2>= 0.8113 S= 0.5302
 <L.S>= 0.000000000000E+00
 KE= 7.590156514432D+01 PE=-2.158549484175D+02 EE= 4.422231726297D+01
 Annihilation of the first spin contaminant:
 S**2 before annihilation     0.8113,   after     0.7522
 Leave Link  502 at Sat Jul 27 10:30:55 2013, MaxMem=  536870912 cpu:    2631.4
 (Enter /share/apps/gaussian/gdvh12/gdv/l601.exe)
 Copying SCF densities to generalized density rwf, IOpCl= 1 IROHF=0.

 **********************************************************************

            Population analysis using the SCF density.

 **********************************************************************

 Orbital symmetries:
 Alpha Orbitals:
       Occupied  (SG) (SG) (SG) (SG) (SG) (PI) (PI)
       Virtual   (PI) (PI) (SG) (SG) (PI) (PI) (SG) (PI) (PI) (DLTA)
                 (DLTA) (SG) (PI) (PI) (SG) (SG) (DLTA) (DLTA)
                 (PI) (PI) (SG) (PI) (PI) (SG) (PI) (PI) (DLTA)
                 (DLTA) (SG) (PI) (PI) (SG) (SG) (DLTA) (DLTA)
                 (PI) (PI) (PI) (PI) (SG) (SG) (PI) (PI) (SG) (DLTA)
                 (DLTA) (SG) (PI) (PI) (SG) (PI) (PI) (DLTA) (DLTA)
                 (SG) (PI) (PI) (SG) (PI) (PI) (SG) (SG) (PI) (PI)
                 (SG) (DLTA) (DLTA) (SG) (PI) (PI) (SG) (PI) (PI)
                 (DLTA) (DLTA) (SG) (SG) (PI) (PI) (PI) (PI) (SG)
                 (PI) (PI) (SG) (SG) (SG) (PI) (PI) (PI) (PI) (SG)
                 (DLTA) (DLTA) (SG) (DLTA) (DLTA) (SG) (SG) (PI)
                 (PI) (SG) (PI) (PI) (PI) (PI) (SG) (SG) (SG) (SG)
                 (PI) (PI) (SG) (DLTA) (DLTA) (PI) (PI) (DLTA)
                 (DLTA) (SG) (PI) (PI) (SG) (SG) (SG) (PI) (PI)
                 (PI) (PI) (SG) (SG) (PI) (PI) (SG) (DLTA) (DLTA)
                 (PI) (PI) (SG) (DLTA) (DLTA) (PI) (PI) (SG) (SG)
                 (SG) (PI) (PI) (PI) (PI) (SG) (SG) (SG) (SG) (PI)
                 (PI) (DLTA) (DLTA) (PI) (PI) (DLTA) (DLTA) (PI)
                 (PI) (SG) (SG) (SG) (SG) (SG) (PI) (PI) (PI) (PI)
                 (SG) (SG) (PI) (PI) (SG) (DLTA) (DLTA) (PI) (PI)
                 (DLTA) (DLTA) (SG) (PI) (PI) (SG) (SG) (SG) (SG)
                 (PI) (PI) (PI) (PI) (SG) (SG) (PI) (PI) (SG) (DLTA)
                 (DLTA) (PI) (PI) (DLTA) (DLTA) (SG) (PI) (PI)
                 (SG) (SG) (SG) (SG) (PI) (PI) (PI) (PI) (SG) (SG)
                 (PI) (PI) (SG) (DLTA) (DLTA) (PI) (PI) (DLTA)
                 (DLTA) (SG) (PI) (PI) (SG) (SG) (SG) (SG) (PI)
                 (PI) (PI) (PI) (SG) (SG) (PI) (PI) (SG) (DLTA)
                 (DLTA) (PI) (PI) (DLTA) (DLTA) (SG) (PI) (PI)
                 (SG) (SG) (SG) (SG) (PI) (PI) (PI) (PI) (SG) (SG)
                 (PI) (PI) (SG) (DLTA) (DLTA) (PI) (PI) (DLTA)
                 (DLTA) (SG) (PI) (PI) (SG) (SG) (SG) (SG) (PI)
                 (PI) (PI) (PI) (SG) (SG) (PI) (PI) (SG) (DLTA)
                 (DLTA) (PI) (PI) (DLTA) (DLTA) (SG) (PI) (PI)
                 (SG) (SG) (SG) (SG) (PI) (PI) (PI) (PI) (SG) (SG)
                 (PI) (PI) (SG) (DLTA) (DLTA) (PI) (PI) (DLTA)
                 (DLTA) (SG) (PI) (PI) (SG) (SG) (SG) (SG) (PI)
                 (PI) (PI) (PI) (SG) (SG) (PI) (PI) (SG) (SG) (SG)
                 (SG) (PI) (PI) (PI) (PI) (SG) (SG) (PI) (PI) (SG)
                 (SG) (SG) (SG) (PI) (PI) (PI) (PI) (SG) (SG) (PI)
                 (PI) (SG) (SG) (SG) (SG) (PI) (PI) (PI) (PI) (SG)
                 (SG) (PI) (PI) (SG) (SG) (SG) (PI) (PI) (PI) (PI)
                 (SG) (SG) (SG) (PI) (PI) (SG) (SG) (SG) (PI) (PI)
                 (PI) (PI) (SG) (SG) (SG) (SG) (PI) (PI) (PI) (PI)
                 (SG) (SG) (SG) (SG) (PI) (PI) (PI) (PI) (SG) (SG)
                 (SG) (SG) (PI) (PI) (PI) (PI) (SG) (SG)
 Beta  Orbitals:
       Occupied  (SG) (SG) (SG) (SG) (PI) (PI)
       Virtual   (SG) (SG) (PI) (PI) (SG) (PI) (PI) (SG) (DLTA)
                 (DLTA) (PI) (PI) (SG) (PI) (PI) (SG) (SG) (DLTA)
                 (DLTA) (PI) (PI) (SG) (PI) (PI) (PI) (PI) (SG)
                 (DLTA) (DLTA) (SG) (PI) (PI) (SG) (SG) (DLTA)
                 (DLTA) (PI) (PI) (PI) (PI) (SG) (SG) (PI) (PI)
                 (DLTA) (DLTA) (SG) (PI) (PI) (SG) (SG) (PI) (PI)
                 (DLTA) (DLTA) (SG) (PI) (PI) (PI) (PI) (SG) (SG)
                 (SG) (PI) (PI) (SG) (DLTA) (DLTA) (PI) (PI) (SG)
                 (SG) (PI) (PI) (DLTA) (DLTA) (SG) (SG) (PI) (PI)
                 (PI) (PI) (SG) (PI) (PI) (SG) (SG) (SG) (PI) (PI)
                 (DLTA) (DLTA) (SG) (PI) (PI) (SG) (DLTA) (DLTA)
                 (SG) (SG) (PI) (PI) (SG) (PI) (PI) (PI) (PI) (SG)
                 (SG) (SG) (PI) (PI) (SG) (SG) (DLTA) (DLTA) (DLTA)
                 (DLTA) (PI) (PI) (SG) (PI) (PI) (SG) (SG) (SG)
                 (PI) (PI) (PI) (PI) (SG) (SG) (PI) (PI) (SG) (DLTA)
                 (DLTA) (PI) (PI) (SG) (DLTA) (DLTA) (PI) (PI)
                 (SG) (SG) (SG) (PI) (PI) (PI) (PI) (SG) (SG) (SG)
                 (SG) (PI) (PI) (DLTA) (DLTA) (DLTA) (DLTA) (PI)
                 (PI) (PI) (PI) (SG) (SG) (SG) (SG) (SG) (PI) (PI)
                 (PI) (PI) (SG) (SG) (PI) (PI) (SG) (DLTA) (DLTA)
                 (DLTA) (DLTA) (PI) (PI) (SG) (PI) (PI) (SG) (SG)
                 (SG) (SG) (PI) (PI) (PI) (PI) (SG) (SG) (PI) (PI)
                 (SG) (DLTA) (DLTA) (DLTA) (DLTA) (PI) (PI) (SG)
                 (PI) (PI) (SG) (SG) (SG) (SG) (PI) (PI) (PI) (PI)
                 (SG) (SG) (PI) (PI) (SG) (DLTA) (DLTA) (DLTA)
                 (DLTA) (PI) (PI) (SG) (PI) (PI) (SG) (SG) (SG)
                 (SG) (PI) (PI) (PI) (PI) (SG) (SG) (PI) (PI) (SG)
                 (DLTA) (DLTA) (PI) (PI) (DLTA) (DLTA) (SG) (PI)
                 (PI) (SG) (SG) (SG) (SG) (PI) (PI) (PI) (PI) (SG)
                 (SG) (PI) (PI) (SG) (DLTA) (DLTA) (PI) (PI) (DLTA)
                 (DLTA) (SG) (PI) (PI) (SG) (SG) (SG) (SG) (PI)
                 (PI) (PI) (PI) (SG) (SG) (PI) (PI) (SG) (DLTA)
                 (DLTA) (PI) (PI) (DLTA) (DLTA) (SG) (PI) (PI)
                 (SG) (SG) (SG) (SG) (PI) (PI) (PI) (PI) (SG) (SG)
                 (PI) (PI) (SG) (DLTA) (DLTA) (PI) (PI) (DLTA)
                 (DLTA) (SG) (PI) (PI) (SG) (SG) (SG) (SG) (PI)
                 (PI) (PI) (PI) (SG) (SG) (PI) (PI) (SG) (SG) (SG)
                 (SG) (PI) (PI) (PI) (PI) (SG) (SG) (PI) (PI) (SG)
                 (SG) (SG) (SG) (PI) (PI) (PI) (PI) (SG) (SG) (PI)
                 (PI) (SG) (SG) (SG) (SG) (PI) (PI) (PI) (PI) (SG)
                 (SG) (PI) (PI) (SG) (SG) (SG) (PI) (PI) (PI) (PI)
                 (SG) (SG) (SG) (PI) (PI) (SG) (SG) (SG) (PI) (PI)
                 (PI) (PI) (SG) (SG) (SG) (SG) (PI) (PI) (PI) (PI)
                 (SG) (SG) (SG) (SG) (PI) (PI) (PI) (PI) (SG) (SG)
                 (SG) (SG) (PI) (PI) (PI) (PI) (SG) (SG)
 The electronic state is 2-SG.
 Alpha  occ. eigenvalues --  -10.29585 -10.24831  -0.77833  -0.57539  -0.42400
 Alpha  occ. eigenvalues --   -0.31767  -0.31767
 Alpha virt. eigenvalues --   -0.01175  -0.01175   0.00822   0.02625   0.04839
 Alpha virt. eigenvalues --    0.04839   0.06514   0.08323   0.08323   0.08553
 Alpha virt. eigenvalues --    0.08553   0.10117   0.11499   0.11499   0.11780
 Alpha virt. eigenvalues --    0.12383   0.12882   0.12882   0.17841   0.17841
 Alpha virt. eigenvalues --    0.19608   0.20784   0.20784   0.21288   0.23065
 Alpha virt. eigenvalues --    0.23065   0.23847   0.23847   0.26014   0.26380
 Alpha virt. eigenvalues --    0.26380   0.28514   0.30792   0.32379   0.32379
 Alpha virt. eigenvalues --    0.32874   0.32874   0.41197   0.41197   0.43075
 Alpha virt. eigenvalues --    0.44996   0.46716   0.46716   0.52441   0.53541
 Alpha virt. eigenvalues --    0.53541   0.55467   0.56056   0.56056   0.56846
 Alpha virt. eigenvalues --    0.63342   0.63342   0.67493   0.67493   0.68037
 Alpha virt. eigenvalues --    0.73818   0.73818   0.81397   0.82351   0.82351
 Alpha virt. eigenvalues --    0.87964   0.90830   0.94615   0.94615   1.00573
 Alpha virt. eigenvalues --    1.13307   1.13307   1.15064   1.16091   1.16091
 Alpha virt. eigenvalues --    1.20188   1.24901   1.24901   1.30671   1.30671
 Alpha virt. eigenvalues --    1.36365   1.45152   1.51480   1.51480   1.66557
 Alpha virt. eigenvalues --    1.66557   1.80758   1.86289   1.86289   1.90557
 Alpha virt. eigenvalues --    1.93840   2.05215   2.28656   2.28656   2.35411
 Alpha virt. eigenvalues --    2.35411   2.36358   2.36791   2.36791   2.47715
 Alpha virt. eigenvalues --    2.51003   2.51003   2.69763   2.75220   2.78135
 Alpha virt. eigenvalues --    2.78135   3.27479   3.47541   3.47541   3.74171
 Alpha virt. eigenvalues --    3.74171   3.81250   3.99287   4.07156   4.65300
 Alpha virt. eigenvalues --    4.66699   4.66699   4.72399   4.84072   4.84072
 Alpha virt. eigenvalues --    4.88712   4.88712   4.93424   4.93424   4.94239
 Alpha virt. eigenvalues --    5.08781   5.08781   5.41259   5.61120   7.19223
 Alpha virt. eigenvalues --    7.31339   7.31339   7.54315   7.54315   7.94298
 Alpha virt. eigenvalues --    8.21662   9.46401   9.46401   9.49084   9.74322
 Alpha virt. eigenvalues --    9.74322   9.74452   9.74452   9.78678   9.87963
 Alpha virt. eigenvalues --    9.87963  10.08170  10.08170  10.42682  10.67711
 Alpha virt. eigenvalues --   11.24430  15.30981  15.30981  15.54957  15.54957
 Alpha virt. eigenvalues --   15.59161  15.83848  15.94061  18.92542  18.99431
 Alpha virt. eigenvalues --   18.99431  19.67679  19.67679  19.73086  19.73086
 Alpha virt. eigenvalues --   19.77499  19.77499  19.92007  19.92007  19.94335
 Alpha virt. eigenvalues --   20.71345  22.85355  23.39438  31.60821  31.81190
 Alpha virt. eigenvalues --   31.81190  31.98861  31.98861  32.13227  32.63390
 Alpha virt. eigenvalues --   37.90823  37.90823  38.24492  39.66441  39.66441
 Alpha virt. eigenvalues --   39.71989  39.71989  39.75380  39.75380  39.78339
 Alpha virt. eigenvalues --   39.89340  39.89340  40.56588  49.22324  49.63984
 Alpha virt. eigenvalues --   63.53253  65.37305  65.37305  65.53931  65.53931
 Alpha virt. eigenvalues --   65.73433  65.98860  75.28877  75.28877  75.60401
 Alpha virt. eigenvalues --   79.90019  79.90019  79.95662  79.95662  79.97857
 Alpha virt. eigenvalues --   79.97857  80.02683  80.11380  80.11380  80.66860
 Alpha virt. eigenvalues --  104.09601 104.50553 126.35605 133.31899 133.31899
 Alpha virt. eigenvalues --  133.47491 133.47491 133.67241 133.84629 148.98570
 Alpha virt. eigenvalues --  148.98570 149.28667 160.64993 160.64993 160.70327
 Alpha virt. eigenvalues --  160.70327 160.72123 160.72123 160.79332 160.84325
 Alpha virt. eigenvalues --  160.84325 161.30066 216.56058 216.96628 250.26996
 Alpha virt. eigenvalues --  269.84395 269.84395 269.98996 269.98996 270.17364
 Alpha virt. eigenvalues --  270.32840 294.04806 294.04806 294.33690 322.69883
 Alpha virt. eigenvalues --  322.69883 322.74784 322.74784 322.76379 322.76379
 Alpha virt. eigenvalues --  322.84270 322.87209 322.87209 323.25641 444.11721
 Alpha virt. eigenvalues --  444.51702 494.39055 542.50205 542.50205 542.63855
 Alpha virt. eigenvalues --  542.63855 542.80695 542.95213 579.24348 579.24348
 Alpha virt. eigenvalues --  579.51908 649.72492 649.72492 649.76860 649.76860
[...]
                      KCal/Mol        Cal/Mol-Kelvin    Cal/Mol-Kelvin
 Total                   10.957              7.887             50.634
 Electronic               0.000              0.000              1.377
 Translational            0.889              2.981             35.587
 Rotational               0.592              1.987             11.794
 Vibrational              9.476              2.919              1.876
 Vibration     1          0.772              1.455              0.938
 Vibration     2          0.772              1.455              0.938
                       Q            Log10(Q)             Ln(Q)
 Total Bot       0.397878D+03          2.599750          5.986145
 Total V=0       0.185015D+10          9.267208         21.338535
 Vib (Bot)       0.291031D-06         -6.536061        -15.049837
 Vib (Bot)    1  0.435843D+00         -0.360670         -0.830473
 Vib (Bot)    2  0.435843D+00         -0.360670         -0.830473
 Vib (V=0)       0.135331D+01          0.131397          0.302552
 Vib (V=0)    1  0.116329D+01          0.065690          0.151256
 Vib (V=0)    2  0.116329D+01          0.065690          0.151256
 Electronic      0.200000D+01          0.301030          0.693147
 Translational   0.491552D+07          6.691569         15.407907
 Rotational      0.139063D+03          2.143212          4.934928
 
                                                                 CCH
                                                             IR Spectrum
 
     3                                                 2                                                                             
     4                                                 0                                                              4              
     5                                                 9                                                              0              
     2                                                 7                                                              7              
 
     X                                                 X                                                              X              
     X                                                                                                                               
     X                                                                                                                               
     X                                                                                                                               
     X                                                                                                                               
     X                                                                                                                               
     X                                                                                                                               
     X                                                                                                                               
     X                                                                                                                               
     X                                                                                                                               
     X                                                                                                                               
     X                                                                                                                               
     X                                                                                                                               
     X                                                                                                                               
     X                                                                                                                               
     X                                                                                                                               
     X                                                                                                                               
     X                                                                                                                               
     X                                                                                                                               
     X                                                                                                                               
 
 ***** Axes restored to original set *****
 -------------------------------------------------------------------
 Center     Atomic                   Forces (Hartrees/Bohr)
 Number     Number              X              Y              Z
 -------------------------------------------------------------------
      1        6           0.000000477    0.000000000    0.000000000
      2        6          -0.000000437    0.000000000    0.000000000
      3        1          -0.000000040    0.000000000    0.000000000
 -------------------------------------------------------------------
 Cartesian Forces:  Max     0.000000477 RMS     0.000000216
 Force constants in Cartesian coordinates: 
                1             2             3             4             5 
      1  0.107052D+01
      2  0.000000D+00  0.364869D-02
      3  0.000000D+00  0.000000D+00  0.364869D-02
      4 -0.107854D+01  0.000000D+00  0.000000D+00  0.149345D+01
      5  0.000000D+00 -0.775517D-02  0.000000D+00  0.000000D+00  0.164849D-01
      6  0.000000D+00  0.000000D+00 -0.775517D-02  0.000000D+00  0.000000D+00
      7  0.802626D-02  0.000000D+00  0.000000D+00 -0.414905D+00  0.000000D+00
      8  0.000000D+00  0.410648D-02  0.000000D+00  0.000000D+00 -0.872969D-02
      9  0.000000D+00  0.000000D+00  0.410648D-02  0.000000D+00  0.000000D+00
                6             7             8             9 
      6  0.164849D-01
      7  0.000000D+00  0.406879D+00
      8  0.000000D+00  0.000000D+00  0.462322D-02
      9 -0.872969D-02  0.000000D+00  0.000000D+00  0.462322D-02
 Red2BG is reusing G-inverse.
 Force constants in internal coordinates: 
                1             2             3             4 
      1  0.107052D+01
      2 -0.802626D-02  0.406879D+00
      3  0.000000D+00  0.000000D+00  0.187374D-01
      4  0.000000D+00  0.000000D+00  0.000000D+00  0.187374D-01
 Leave Link  716 at Sun Jul 28 21:00:55 2013, MaxMem=  536870912 cpu:       0.2
 (Enter /share/apps/gaussian/gdvh12/gdv/l717.exe)

 **********************************************************************

             Second-order Perturbative Anharmonic Analysis

 **********************************************************************


     ==================================================
               Analysis of the Rotor Symmetry
     ==================================================

 Framework Group : C*V 
 Rotor Type      : Linear Molecule
 Representation  : III r Representation, Ix < Iy < Iz

 For representation A1  
    4 Vibrations with frequencies:
    406.88    406.88   2096.95   3452.09

                             Possible   Symmetry allowed
 Coriolis couplings:            30           20
 Third derivatives :            20           20
 Fourth derivatives: total      35           35
                     (ii|jj)    10           10
                     (ii|jk)    24           24
 NO Anharmonic analysis for Linear Molecules
 Leave Link  717 at Sun Jul 28 21:00:55 2013, MaxMem=  536870912 cpu:       0.1
 (Enter /share/apps/gaussian/gdvh12/gdv/l103.exe)

 GradGradGradGradGradGradGradGradGradGradGradGradGradGradGradGradGradGrad
 Berny optimization.
 Red2BG is reusing G-inverse.
 Internal  Forces:  Max     0.000000477 RMS     0.000000239
 Search for a local minimum.
 Step number   1 out of a maximum of    2
 All quantities printed in internal units (Hartrees-Bohrs-Radians)
 Second derivative matrix not updated -- analytic derivatives used.
 The second derivative matrix:
                          R1        R2        A1        A2
           R1           1.07052
           R2          -0.00803   0.40688
           A1           0.00000   0.00000   0.01874
           A2           0.00000   0.00000   0.00000   0.01874
 ITU=  0
     Eigenvalues ---    0.01874   0.01874   0.40678   1.07061
 Angle between quadratic step and forces=  90.00 degrees.
 Linear search not attempted -- first point.
 Iteration  1 RMS(Cart)=  0.00000021 RMS(Int)=  0.00000001
 ClnCor:  largest displacement from symmetrization is 2.22D-16 for atom     3.
 Variable       Old X    -DE/DX   Delta X   Delta X   Delta X     New X
                                 (Linear)    (Quad)   (Total)
    R1        2.26656   0.00000   0.00000   0.00000   0.00000   2.26656
    R2        2.01304   0.00000   0.00000   0.00000   0.00000   2.01304
    A1        3.14159   0.00000   0.00000   0.00000   0.00000   3.14159
    A2        3.14159   0.00000   0.00000   0.00000   0.00000   3.14159
         Item               Value     Threshold  Converged?
 Maximum Force            0.000000     0.000015     YES
 RMS     Force            0.000000     0.000010     YES
 Maximum Displacement     0.000000     0.000060     YES
 RMS     Displacement     0.000000     0.000040     YES
 Predicted change in Energy=-1.084225D-13
 Optimization completed.
    -- Stationary point found.
                           ----------------------------
                           !   Optimized Parameters   !
                           ! (Angstroms and Degrees)  !
 --------------------------                            --------------------------
 ! Name  Definition              Value          Derivative Info.                !
 --------------------------------------------------------------------------------
 ! R1    R(1,2)                  1.1994         -DE/DX =    0.0                 !
 ! R2    R(2,3)                  1.0653         -DE/DX =    0.0                 !
 ! A1    L(1,2,3,-2,-1)        180.0            -DE/DX =    0.0                 !
 ! A2    L(1,2,3,-3,-2)        180.0            -DE/DX =    0.0                 !
 --------------------------------------------------------------------------------
 GradGradGradGradGradGradGradGradGradGradGradGradGradGradGradGradGradGrad

 Leave Link  103 at Sun Jul 28 21:00:55 2013, MaxMem=  536870912 cpu:       0.3
 (Enter /share/apps/gaussian/gdvh12/gdv/l9999.exe)

 Test job not archived.
 1\1\GINC-C29\Freq\UAPFD\UGBS1P\C2H1(2)\EBARNES\28-Jul-2013\0\\#P Geom=
 AllCheck Guess=TCheck SCRF=Check Test GenChk UAPFD/UGBS1P Freq\\CCH\\0
 ,2\C,-1.3213585023,0.,0.\C,-0.1219472728,0.,0.\H,0.9433057751,0.,0.\\V
 ersion=EM64L-GDVRevH.12\State=2-SG\HF=-76.5671157\S2=0.784992\S2-1=0.\
 S2A=0.750716\RMSD=5.351e-10\RMSF=2.159e-07\ZeroPoint=0.0144955\Thermal
 =0.0174618\Dipole=0.301771,0.,0.\DipoleDeriv=-0.077966,0.,0.,0.,-0.082
 2971,0.,0.,0.,-0.0822971,-0.1682681,0.,0.,0.,0.0250244,0.,0.,0.,0.0250
 244,0.246234,0.,0.,0.,0.0572726,0.,0.,0.,0.0572726\Polar=26.9305113,0.
 ,21.8975498,0.,0.,21.8975498\Quadrupole=2.3092763,-1.1546381,-1.154638
 1,0.,0.,0.\PG=C*V [C*(H1C1C1)]\NImag=0\\1.07051792,0.,0.00364869,0.,0.
 ,0.00364869,-1.07854419,0.,0.,1.49344920,0.,-0.00775517,0.,0.,0.016484
 86,0.,0.,-0.00775517,0.,0.,0.01648486,0.00802626,0.,0.,-0.41490501,0.,
 0.,0.40687875,0.,0.00410648,0.,0.,-0.00872969,0.,0.,0.00462322,0.,0.,0
 .00410648,0.,0.,-0.00872969,0.,0.,0.00462322\\-0.00000048,0.,0.,0.0000
 0044,0.,0.,0.00000004,0.,0.\\-0.00000869,-0.01205223,0.00006745,-0.000
 35865,-0.00000004,0.00006882,0.00000688,0.01906577,0.00056736,-0.00001
 518,-0.08156753,-0.00010448,0.00000007,0.26420329,0.00014650,-0.002427
 05,0.00000007,-0.00010672,0.00786161,-0.00000011,0.00015010,0.00000180
 ,-0.00701355,-0.00020870,0.00000830,-0.18263576,-0.00543456,-0.0000101
 0,0.09361975,0.00003703,-0.00000002,-0.28326906,-0.00004202,0.00000004
 ,0.18964931,0.00000500,0.00278571,-0.00000003,0.00003789,-0.00842897,0
 .00000004,-0.00004338,0.00564327,-0.00000001,0.00000548,-0.00000869,0.
 00035865,0.00006882,-0.01205223,0.00000004,0.00006745,0.00000688,-0.00
 056736,0.01906577,-0.00001518,0.00242706,-0.00010672,-0.00000007,-0.00
 786162,0.00015010,-0.08156753,-0.00000007,-0.00010448,0.26420329,0.000
 00011,0.00014650,0.00000180,0.00020871,-0.00701355,0.00000830,0.005434
 56,-0.18263576,-0.00001010,-0.00278571,0.00003789,0.00000003,0.0084289
 8,-0.00004338,-0.00000004,-0.00564327,0.00000548,0.09361975,0.00000003
 ,0.00003703,-0.28326906,-0.00000004,-0.00004202,0.18964931,0.00000001,
 0.00000500,-1.28857762,0.,0.15668591,0.,0.,0.15668591,1.28761349,0.,0.
 ,-1.45023631,0.,-0.12883505,0.,0.,0.09662441,0.,0.,-0.12883505,0.,0.,0
 .09662441,0.00096413,0.,0.,0.16262281,0.,0.,-0.16358694,0.,-0.02785085
 ,0.,0.,0.03221064,0.,0.,-0.00435979,0.,0.,-0.02785085,0.,0.,0.03221064
 ,0.,0.,-0.00435979,0.43892548,0.,-0.06135807,0.,0.,-0.06135807,-0.4296
 4449,0.,0.,-0.81572281,0.,0.05783903,0.,0.,0.15544150,0.,0.,0.05783903
 ,0.,0.,0.15544150,-0.00928099,0.,0.,1.24536730,0.,0.,-1.23608631,0.,0.
 00351904,0.,0.,-0.21328053,0.,0.,0.20976150,0.,0.,0.00351904,0.,0.,-0.
 21328053,0.,0.,0.20976150,-0.67674799,-0.00044844,0.07387514,-0.000013
 37,0.00222000,-0.00027376,0.75012065,0.00044288,0.00001317,-1.58453073
 ,0.00119264,-0.19266227,-0.00445894,-0.00111435,0.74170488,0.00003554,
 -0.00445900,-0.04494416,-0.00003313,0.01537302,0.23534815,-0.07337266,
 0.00000556,0.00000020,0.83441008,-0.00007828,-0.00000241,-0.76103742,-
 0.00074420,0.11878712,0.00223893,0.00067148,-0.54904262,-0.01091402,0.
 00007272,0.43025550,-0.00002217,0.00223900,0.04521791,0.00001995,-0.01
 091408,-0.19040401,0.00000222,0.00867508,0.14518610,-0.67674794,0.0000
 1332,-0.00027375,-0.00044848,-0.00221992,0.07387516,0.75012059,-0.0000
 1315,0.00044292,-1.58453067,-0.00003544,-0.04494418,0.00445896,0.00003
 308,0.23534828,0.00119275,0.00445891,-0.19266229,-0.00111446,-0.015373
 16,0.74170492,-0.07337265,-0.00000017,0.00000557,0.83441009,0.00000236
 ,-0.00007829,-0.76103744,0.00002212,0.04521793,-0.00223904,-0.00001993
 ,-0.19040409,0.01091425,-0.00000219,0.14518616,-0.00074427,-0.00223899
 ,0.11878712,0.00067154,0.01091420,-0.54904264,0.00007273,-0.00867521,0
 .43025552,1.24093420,0.00000003,-0.32111020,-0.00000004,-0.00000002,-0
 .32111020,-1.24802606,-0.00000004,0.00000005,1.30784175,-0.00000007,0.
 37108342,0.00000003,0.00000008,-0.49814841,0.00000005,0.00000004,0.371
 08343,-0.00000008,-0.00000006,-0.49814843,0.00709187,0.00000001,-0.000
 00001,-0.05981568,0.,0.00000003,0.05272381,0.00000004,-0.04997322,-0.0
 0000002,-0.00000004,0.12706499,0.00000003,0.,-0.07709176,0.,-0.0000000
 3,-0.04997323,0.00000002,0.00000003,0.12706500,-0.00000001,0.,-0.07709
 177,0.11999380,0.00000004,-0.03119072,0.00000004,0.,-0.03119065,-0.161
 93104,-0.00000005,-0.00000005,3.64172385,-0.00000008,0.03752281,0.,0.0
 0000009,-0.89695475,-0.00000007,0.00000002,0.03752277,0.00000007,-0.00
 000003,-0.89695471,0.04193725,0.00000001,0.00000001,-3.47979280,0.,0.,
 3.43785555,0.00000005,-0.00633210,0.,-0.00000005,0.85943194,0.00000001
 ,0.,-0.85309985,0.00000003,-0.00000003,-0.00633212,-0.00000002,0.00000
 003,0.85943195,0.,0.,-0.85309983\\@
 DoSRE=F DoSRN=F DoDH=T DoFC=T DoNQ=T DoQCD=T DoSCD=F
 Inertia tensor (amu-bohr**2): 
                 1             2             3 
      1   0.403984D+02  0.000000D+00  0.000000D+00
      2   0.000000D+00  0.403984D+02  0.000000D+00
      3   0.000000D+00  0.000000D+00  0.000000D+00
 Principal inertia moments (amu-bohr**2):
 Iaa = 0.000000D+00 Ibb= 0.403984D+02 Icc= 0.403984D+02
 Rotation matrix to Principal Axis frame: 
                 1             2             3 
      1   0.000000D+00  0.100000D+01  0.000000D+00
      2   0.000000D+00  0.000000D+00  0.100000D+01
      3   0.100000D+01  0.000000D+00  0.000000D+00
                Principal axis orientation:                
 ---------------------------------------------------------------------
 Center     Atomic                     Coordinates (Angstroms)
 Number     Number                        X           Y           Z
 ---------------------------------------------------------------------
      1          6                    0.666804    0.000000    0.000000
      2          6                   -0.532607    0.000000    0.000000
      3          1                   -1.597860    0.000000    0.000000
 ---------------------------------------------------------------------
 Rotational constants (MHZ):
      0.0000000  44673.5482373  44673.5482373
 electron spin - nuclear spin (dipole-dipole) [T] (MHz):
  1  C12   
   aa=     0.0000   ba=     0.0000   ca=     0.0000
   ab=     0.0000   bb=     0.0000   cb=     0.0000
   ac=     0.0000   bc=     0.0000   cc=     0.0000
  2  C12   
   aa=     0.0000   ba=     0.0000   ca=     0.0000
   ab=     0.0000   bb=     0.0000   cb=     0.0000
   ac=     0.0000   bc=     0.0000   cc=     0.0000
  3  H1    
   aa=     4.3104   ba=     0.0000   ca=     0.0000
   ab=     0.0000   bb=    -2.1552   cb=     0.0000
   ac=     0.0000   bc=     0.0000   cc=    -2.1552
 Isotropic Fermi Contact Couplings [a_f](MHz):
  1  C12        0.0000
  2  C12        0.0000
  3  H1        60.4089
 Nuclear quadrupole coupling constants [Chi] (MHz):
  1  C(12) 
   aa=     0.0000   ba=     0.0000   ca=     0.0000
   ab=     0.0000   bb=     0.0000   cb=     0.0000
   ac=     0.0000   bc=     0.0000   cc=     0.0000
  2  C(12) 
   aa=     0.0000   ba=     0.0000   ca=     0.0000
   ab=     0.0000   bb=     0.0000   cb=     0.0000
   ac=     0.0000   bc=     0.0000   cc=     0.0000
  3  H(1)  
   aa=     0.0000   ba=     0.0000   ca=     0.0000
   ab=     0.0000   bb=     0.0000   cb=     0.0000
   ac=     0.0000   bc=     0.0000   cc=     0.0000
 Dipole moment (Debye):
      0.0000000      0.7670253      0.0000000  Tot=      0.7670253
 Quartic Centrifugal Distortion Constants (MHz)
    (Asymmetrically reduced)          (Symmetrically reduced)
    DELTA N  =    0.000000000         D N  =    0.000000000
    DELTA K  =    0.000000000         D K  =    0.000000000
    DELTA NK =    0.000000000         D NK =    0.000000000
    delta N  =    0.000000000         d 1  =    0.000000000
    delta K  =    0.000000000         d 2  =    0.000000000

 Atoms with significant hyperfine tensors:  H3-1

--------------------------------------------------------------------------------
 CCH                                                     
   99  1000  50  0.1760E-11  0.1000E+07  0.1000E+01 1.0000000000
a 22  1  0  0  0  1  1   1  0  1  0
     10000   0.00000000E+00    0.0000E+00   /  A  /
     20000   0.44673548E+05    0.0000E+00   /  B  /
     30000   0.44673548E+05    0.0000E+00   /  C  /
       200   0.00000000E+00    0.0000E+00   /  -DELTA N  /
      2000   0.00000000E+00    0.0000E+00   /  -DELTA K  /
      1100   0.00000000E+00    0.0000E+00   /  -DELTA NK  /
     40100   0.00000000E+00    0.0000E+00   /  -delta N  /
     41000   0.00000000E+00    0.0000E+00   /  -delta K  /
 120010000   0.64655898E+01    0.0000E+00   /  (3 H-1) 3/2*T_aa                /
 120000000   0.60408854E+02    0.0000E+00   /  (3 H-1) b_f                     /
--------------------------------------------------------------------------------



 WE'RE IN THE POSITION OF A VISITOR FROM ANOTHER
 DIMENSION WHO COMES TO EARTH AND SEES A CHESS MATCH.
 ASSUMING HE KNOWS IT'S A GAME, HE'S GOT TWO PROBLEMS:
 FIRST, FIGURE OUT THE RULES, AND SECOND, FIGURE OUT HOW TO WIN.
 NINETY PERCENT OF SCIENCE (INCLUDING VIRTUALLY ALL OF CHEMISRY)
 IS IN THAT SECOND CATEGORY.  THEY'RE TRYING TO APPLY
 THE LAWS THAT ARE ALREADY KNOWN.

                     -- SHELDON GLASHOW, 1979
 Job cpu time:  2 days 18 hours 36 minutes 57.1 seconds.
 File lengths (MBytes):  RWF=    256 Int=      0 D2E=      0 Chk=     65 Scr=      1
 Normal termination of Gaussian DV at Sun Jul 28 21:00:55 2013.
