 Entering Gaussian System, Link 0=gdv
 Initial command:
 /share/apps/gaussian/gdvh12/gdv/l1.exe /localscratch/12782/Gau-4064.inp -scrdir=/localscratch/12782/
 Entering Link 1 = /share/apps/gaussian/gdvh12/gdv/l1.exe PID=      4065.
  
 Copyright (c) 1988,1990,1992,1993,1995,1998,2003,2009,2011,
            Gaussian, Inc.  All Rights Reserved.
  
 This is the private, development version of
 the Gaussian(R) DV system of programs. It is based on
 the Gaussian(R) 09 system (copyright 2009, Gaussian, Inc.),
 the Gaussian(R) 03 system (copyright 2003, Gaussian, Inc.),
 the Gaussian(R) 98 system (copyright 1998, Gaussian, Inc.),
 the Gaussian(R) 94 system (copyright 1995, Gaussian, Inc.),
 the Gaussian 92(TM) system (copyright 1992, Gaussian, Inc.),
 the Gaussian 90(TM) system (copyright 1990, Gaussian, Inc.),
 the Gaussian 88(TM) system (copyright 1988, Gaussian, Inc.),
 the Gaussian 86(TM) system (copyright 1986, Carnegie Mellon
 University), and the Gaussian 82(TM) system (copyright 1983,
 Carnegie Mellon University). Gaussian is a federally registered
 trademark of Gaussian, Inc.
  
 This software contains proprietary and confidential information,
 including trade secrets, belonging to Gaussian, Inc.
  
 This software is provided under written license and may be
 used, copied, transmitted, or stored only in accord with that
 written license.
  
 The following legend is applicable only to US Government
 contracts under FAR:
  
                    RESTRICTED RIGHTS LEGEND
  
 Use, reproduction and disclosure by the US Government is
 subject to restrictions as set forth in subparagraphs (a)
 and (c) of the Commercial Computer Software - Restricted
 Rights clause in FAR 52.227-19.
  
 Gaussian, Inc.
 340 Quinnipiac St., Bldg. 40, Wallingford CT 06492
  
  
 ---------------------------------------------------------------
 Warning -- This program may not be used in any manner that
 competes with the business of Gaussian, Inc. or will provide
 assistance to any competitor of Gaussian, Inc.  The licensee
 of this program is prohibited from giving any competitor of
 Gaussian, Inc. access to this program.  By using this program,
 the user acknowledges that Gaussian, Inc. is engaged in the
 business of creating and licensing software in the field of
 computational chemistry and represents and warrants to the
 licensee that it is not a competitor of Gaussian, Inc. and that
 it will not use this program in any manner prohibited above.
 ---------------------------------------------------------------
  

 Cite this work as:
 Gaussian Development Version, Revision H.12,
 M. J. Frisch, G. W. Trucks, H. B. Schlegel, G. E. Scuseria, 
 M. A. Robb, J. R. Cheeseman, G. Scalmani, V. Barone, B. Mennucci, 
 G. A. Petersson, H. Nakatsuji, M. Caricato, X. Li, H. P. Hratchian, 
 A. F. Izmaylov, J. Bloino, G. Zheng, J. L. Sonnenberg, M. Hada, 
 M. Ehara, K. Toyota, R. Fukuda, J. Hasegawa, M. Ishida, T. Nakajima, 
 Y. Honda, O. Kitao, H. Nakai, T. Vreven, J. A. Montgomery, Jr., 
 J. E. Peralta, F. Ogliaro, M. Bearpark, J. J. Heyd, E. Brothers, 
 K. N. Kudin, V. N. Staroverov, T. Keith, R. Kobayashi, J. Normand, 
 K. Raghavachari, A. Rendell, J. C. Burant, S. S. Iyengar, J. Tomasi, 
 M. Cossi, N. Rega, J. M. Millam, M. Klene, J. E. Knox, J. B. Cross, 
 V. Bakken, C. Adamo, J. Jaramillo, R. Gomperts, R. E. Stratmann, 
 O. Yazyev, A. J. Austin, R. Cammi, C. Pomelli, J. W. Ochterski, 
 R. L. Martin, K. Morokuma, V. G. Zakrzewski, G. A. Voth, 
 P. Salvador, J. J. Dannenberg, S. Dapprich, P. V. Parandekar, 
 N. J. Mayhall, A. D. Daniels, O. Farkas, J. B. Foresman, 
 J. V. Ortiz, J. Cioslowski, and D. J. Fox, 
 Gaussian, Inc., Wallingford CT, 2010.
 
 ******************************************
 Gaussian DV:  EM64L-GDVRevH.12  9-Jun-2011
                27-Jul-2013 
 ******************************************
 %chk=CCS.chk
 %mem=4gb
 %nproc=2
 Will use up to    2 processors via shared memory.
 ----------------------------------------------------------------------
 #p apfd/ugbs1p opt=tight freq=(vibrot,anharm) int=(acc2e=12,grid=29997
 4) test gfprint gfinput output=pickett
 ----------------------------------------------------------------------
 1/7=10,14=-1,18=20,19=15,26=1,38=1,80=1/1,3;
 2/9=110,12=2,17=6,18=5,40=1/2;
 3/5=23,7=7,11=2,16=1,24=110,25=1,30=1,71=1,74=-44,75=299974/1,2,3;
 4//1;
 5/5=2,38=5,87=12/2;
 6/7=2,8=2,9=2,10=2,28=1/1;
 7/87=12/1,2,3,16;
 1/7=10,14=-1,18=20,19=15,80=1/3(2);
 2/9=110/2;
 99/8=1100,10=1024/99;
 2/9=110/2;
 3/5=23,7=7,11=2,16=1,25=1,30=1,71=1,74=-44,75=299974/1,2,3;
 4/5=5,16=3,69=1/1;
 5/5=2,38=5,87=12/2;
 7/87=12/1,2,3,16;
 1/7=10,14=-1,18=20,19=15,80=1/3(-5);
 2/9=110/2;
 6/7=2,8=2,9=2,10=2,19=2,28=1/1;
 99/8=1100,9=1,10=1024/99;
 Leave Link    1 at Sat Jul 27 10:11:04 2013, MaxMem=  536870912 cpu:       0.2
 (Enter /share/apps/gaussian/gdvh12/gdv/l101.exe)
 -------------------------------------
 CCS pre-optimized at apfd/aug-cc-pVTZ
 -------------------------------------
 Charge =  0 Multiplicity = 3
 Symbolic Z-Matrix:
 C                    -0.19548   0.        0. 
 C                     1.04413   0.        0. 
 S                     2.65135   0.        0. 
 
 NAtoms=      3 NQM=        0 NQMF=       0 NMMI=      3 NMMIF=      0
                NMic=       0 NMicF=      0.
                    Isotopes and Nuclear Properties:
 (Nuclear quadrupole moments (NQMom) in fm**2, nuclear magnetic moments (NMagM)
  in nuclear magnetons)

  Atom         1           2           3
 IAtWgt=          12          12          32
 AtmWgt=  12.0000000  12.0000000  31.9720718
 NucSpn=           0           0           0
 AtZEff=   0.0000000   0.0000000   0.0000000
 NQMom=    0.0000000   0.0000000   0.0000000
 NMagM=    0.0000000   0.0000000   0.0000000
 AtZNuc=   6.0000000   6.0000000  16.0000000
 Leave Link  101 at Sat Jul 27 10:11:04 2013, MaxMem=  536870912 cpu:       0.7
 (Enter /share/apps/gaussian/gdvh12/gdv/l103.exe)

 GradGradGradGradGradGradGradGradGradGradGradGradGradGradGradGradGradGrad
 Berny optimization.
 Initialization pass.
                           ----------------------------
                           !    Initial Parameters    !
                           ! (Angstroms and Degrees)  !
 --------------------------                            --------------------------
 ! Name  Definition              Value          Derivative Info.                !
 --------------------------------------------------------------------------------
 ! R1    R(1,2)                  1.2396         estimate D2E/DX2                !
 ! R2    R(2,3)                  1.6072         estimate D2E/DX2                !
 ! A1    L(1,2,3,-2,-1)        180.0            estimate D2E/DX2                !
 ! A2    L(1,2,3,-3,-2)        180.0            estimate D2E/DX2                !
 --------------------------------------------------------------------------------
 Trust Radius=3.00D-01 FncErr=1.00D-07 GrdErr=1.00D-07
 Number of steps in this run=     20 maximum allowed number of steps=    100.
 GradGradGradGradGradGradGradGradGradGradGradGradGradGradGradGradGradGrad

 Leave Link  103 at Sat Jul 27 10:11:04 2013, MaxMem=  536870912 cpu:       0.0
 (Enter /share/apps/gaussian/gdvh12/gdv/l202.exe)
                          Input orientation:                          
 ---------------------------------------------------------------------
 Center     Atomic      Atomic             Coordinates (Angstroms)
 Number     Number       Type             X           Y           Z
 ---------------------------------------------------------------------
      1          6           0       -0.195480    0.000000    0.000000
      2          6           0        1.044126    0.000000    0.000000
      3         16           0        2.651354    0.000000    0.000000
 ---------------------------------------------------------------------
                    Distance matrix (angstroms):
                    1          2          3
     1  C    0.000000
     2  C    1.239606   0.000000
     3  S    2.846833   1.607227   0.000000
 Stoichiometry    C2S(3)
 Framework group  C*V[C*(CCS)]
 Deg. of freedom     2
 Full point group                 C*V     NOp   4
 Largest Abelian subgroup         C2V     NOp   4
 Largest concise Abelian subgroup C1      NOp   1
                         Standard orientation:                         
 ---------------------------------------------------------------------
 Center     Atomic      Atomic             Coordinates (Angstroms)
 Number     Number       Type             X           Y           Z
 ---------------------------------------------------------------------
      1          6           0        0.000000    0.000000   -1.892392
      2          6           0        0.000000    0.000000   -0.652786
      3         16           0        0.000000    0.000000    0.954442
 ---------------------------------------------------------------------
 Rotational constants (GHZ):      0.0000000      6.5452974      6.5452974
 Leave Link  202 at Sat Jul 27 10:11:04 2013, MaxMem=  536870912 cpu:       0.0
 (Enter /share/apps/gaussian/gdvh12/gdv/l301.exe)
 Standard basis: UGBS1P (5D, 7F)
 Ernie: Thresh=  0.10000D-02 Tol=  0.10000D-05 Strict=F.
 AO basis set in the form of general basis input (Overlap normalization):
      1 0
 S   1 1.00       0.000000000000
      0.2019953588D+06  0.1000000000D+01
 S   1 1.00       0.000000000000
      0.1031562389D+06  0.1000000000D+01
 S   1 1.00       0.000000000000
      0.5268046591D+05  0.1000000000D+01
 S   1 1.00       0.000000000000
      0.2690318607D+05  0.1000000000D+01
 S   1 1.00       0.000000000000
      0.1373908542D+05  0.1000000000D+01
 S   1 1.00       0.000000000000
      0.7016361094D+04  0.1000000000D+01
 S   1 1.00       0.000000000000
      0.3583158668D+04  0.1000000000D+01
 S   1 1.00       0.000000000000
      0.1829869625D+04  0.1000000000D+01
 S   1 1.00       0.000000000000
      0.9344891347D+03  0.1000000000D+01
 S   1 1.00       0.000000000000
      0.4772306896D+03  0.1000000000D+01
 S   1 1.00       0.000000000000
      0.2437151195D+03  0.1000000000D+01
 S   1 1.00       0.000000000000
      0.1244619442D+03  0.1000000000D+01
 S   1 1.00       0.000000000000
      0.6356099525D+02  0.1000000000D+01
 S   1 1.00       0.000000000000
      0.3245972208D+02  0.1000000000D+01
 S   1 1.00       0.000000000000
      0.1657673158D+02  0.1000000000D+01
 S   1 1.00       0.000000000000
      0.8465507783D+01  0.1000000000D+01
 S   1 1.00       0.000000000000
      0.4323217860D+01  0.1000000000D+01
 S   1 1.00       0.000000000000
      0.2207807629D+01  0.1000000000D+01
 S   1 1.00       0.000000000000
      0.1127496852D+01  0.1000000000D+01
 S   1 1.00       0.000000000000
      0.5757970639D+00  0.1000000000D+01
 S   1 1.00       0.000000000000
      0.2940516050D+00  0.1000000000D+01
 S   1 1.00       0.000000000000
      0.1501680918D+00  0.1000000000D+01
 S   1 1.00       0.000000000000
      0.7668876969D-01  0.1000000000D+01
 P   1 1.00       0.000000000000
      0.2019953588D+06  0.1000000000D+01
 P   1 1.00       0.000000000000
      0.1031562389D+06  0.1000000000D+01
 P   1 1.00       0.000000000000
      0.5268046591D+05  0.1000000000D+01
 P   1 1.00       0.000000000000
      0.2690318607D+05  0.1000000000D+01
 P   1 1.00       0.000000000000
      0.1373908542D+05  0.1000000000D+01
 P   1 1.00       0.000000000000
      0.7016361094D+04  0.1000000000D+01
 P   1 1.00       0.000000000000
      0.3583158668D+04  0.1000000000D+01
 P   1 1.00       0.000000000000
      0.1829869625D+04  0.1000000000D+01
 P   1 1.00       0.000000000000
      0.9344891347D+03  0.1000000000D+01
 P   1 1.00       0.000000000000
      0.4772306896D+03  0.1000000000D+01
 P   1 1.00       0.000000000000
      0.2437151195D+03  0.1000000000D+01
 P   1 1.00       0.000000000000
      0.1244619442D+03  0.1000000000D+01
 P   1 1.00       0.000000000000
      0.6356099525D+02  0.1000000000D+01
 P   1 1.00       0.000000000000
      0.3245972208D+02  0.1000000000D+01
 P   1 1.00       0.000000000000
      0.1657673158D+02  0.1000000000D+01
 P   1 1.00       0.000000000000
      0.8465507783D+01  0.1000000000D+01
 P   1 1.00       0.000000000000
      0.4323217860D+01  0.1000000000D+01
 P   1 1.00       0.000000000000
      0.2207807629D+01  0.1000000000D+01
 P   1 1.00       0.000000000000
      0.1127496852D+01  0.1000000000D+01
 P   1 1.00       0.000000000000
      0.5757970639D+00  0.1000000000D+01
 P   1 1.00       0.000000000000
      0.2940516050D+00  0.1000000000D+01
 P   1 1.00       0.000000000000
      0.1501680918D+00  0.1000000000D+01
 P   1 1.00       0.000000000000
      0.7668876969D-01  0.1000000000D+01
 P   1 1.00       0.000000000000
      0.3916389510D-01  0.1000000000D+01
 D   1 1.00       0.000000000000
      0.4772306896D+03  0.1000000000D+01
 D   1 1.00       0.000000000000
      0.2437151195D+03  0.1000000000D+01
 D   1 1.00       0.000000000000
      0.1244619442D+03  0.1000000000D+01
 D   1 1.00       0.000000000000
      0.6356099525D+02  0.1000000000D+01
 D   1 1.00       0.000000000000
      0.3245972208D+02  0.1000000000D+01
 D   1 1.00       0.000000000000
      0.1657673158D+02  0.1000000000D+01
 D   1 1.00       0.000000000000
      0.8465507783D+01  0.1000000000D+01
 D   1 1.00       0.000000000000
      0.4323217860D+01  0.1000000000D+01
 D   1 1.00       0.000000000000
      0.2207807629D+01  0.1000000000D+01
 D   1 1.00       0.000000000000
      0.1127496852D+01  0.1000000000D+01
 D   1 1.00       0.000000000000
      0.5757970639D+00  0.1000000000D+01
 D   1 1.00       0.000000000000
      0.2940516050D+00  0.1000000000D+01
 D   1 1.00       0.000000000000
      0.1501680918D+00  0.1000000000D+01
 D   1 1.00       0.000000000000
      0.7668876969D-01  0.1000000000D+01
 D   1 1.00       0.000000000000
      0.3916389510D-01  0.1000000000D+01
 ****
      2 0
 S   1 1.00       0.000000000000
      0.2019953588D+06  0.1000000000D+01
 S   1 1.00       0.000000000000
      0.1031562389D+06  0.1000000000D+01
 S   1 1.00       0.000000000000
      0.5268046591D+05  0.1000000000D+01
 S   1 1.00       0.000000000000
      0.2690318607D+05  0.1000000000D+01
 S   1 1.00       0.000000000000
      0.1373908542D+05  0.1000000000D+01
 S   1 1.00       0.000000000000
      0.7016361094D+04  0.1000000000D+01
 S   1 1.00       0.000000000000
      0.3583158668D+04  0.1000000000D+01
 S   1 1.00       0.000000000000
      0.1829869625D+04  0.1000000000D+01
 S   1 1.00       0.000000000000
      0.9344891347D+03  0.1000000000D+01
 S   1 1.00       0.000000000000
      0.4772306896D+03  0.1000000000D+01
 S   1 1.00       0.000000000000
      0.2437151195D+03  0.1000000000D+01
 S   1 1.00       0.000000000000
      0.1244619442D+03  0.1000000000D+01
 S   1 1.00       0.000000000000
      0.6356099525D+02  0.1000000000D+01
 S   1 1.00       0.000000000000
      0.3245972208D+02  0.1000000000D+01
 S   1 1.00       0.000000000000
      0.1657673158D+02  0.1000000000D+01
 S   1 1.00       0.000000000000
      0.8465507783D+01  0.1000000000D+01
 S   1 1.00       0.000000000000
      0.4323217860D+01  0.1000000000D+01
 S   1 1.00       0.000000000000
      0.2207807629D+01  0.1000000000D+01
 S   1 1.00       0.000000000000
      0.1127496852D+01  0.1000000000D+01
 S   1 1.00       0.000000000000
      0.5757970639D+00  0.1000000000D+01
 S   1 1.00       0.000000000000
      0.2940516050D+00  0.1000000000D+01
 S   1 1.00       0.000000000000
      0.1501680918D+00  0.1000000000D+01
 S   1 1.00       0.000000000000
      0.7668876969D-01  0.1000000000D+01
 P   1 1.00       0.000000000000
      0.2019953588D+06  0.1000000000D+01
 P   1 1.00       0.000000000000
      0.1031562389D+06  0.1000000000D+01
 P   1 1.00       0.000000000000
      0.5268046591D+05  0.1000000000D+01
 P   1 1.00       0.000000000000
      0.2690318607D+05  0.1000000000D+01
 P   1 1.00       0.000000000000
      0.1373908542D+05  0.1000000000D+01
 P   1 1.00       0.000000000000
      0.7016361094D+04  0.1000000000D+01
 P   1 1.00       0.000000000000
      0.3583158668D+04  0.1000000000D+01
 P   1 1.00       0.000000000000
      0.1829869625D+04  0.1000000000D+01
 P   1 1.00       0.000000000000
      0.9344891347D+03  0.1000000000D+01
 P   1 1.00       0.000000000000
      0.4772306896D+03  0.1000000000D+01
 P   1 1.00       0.000000000000
      0.2437151195D+03  0.1000000000D+01
 P   1 1.00       0.000000000000
      0.1244619442D+03  0.1000000000D+01
 P   1 1.00       0.000000000000
      0.6356099525D+02  0.1000000000D+01
 P   1 1.00       0.000000000000
      0.3245972208D+02  0.1000000000D+01
 P   1 1.00       0.000000000000
      0.1657673158D+02  0.1000000000D+01
 P   1 1.00       0.000000000000
      0.8465507783D+01  0.1000000000D+01
 P   1 1.00       0.000000000000
      0.4323217860D+01  0.1000000000D+01
 P   1 1.00       0.000000000000
      0.2207807629D+01  0.1000000000D+01
 P   1 1.00       0.000000000000
      0.1127496852D+01  0.1000000000D+01
 P   1 1.00       0.000000000000
      0.5757970639D+00  0.1000000000D+01
 P   1 1.00       0.000000000000
      0.2940516050D+00  0.1000000000D+01
 P   1 1.00       0.000000000000
      0.1501680918D+00  0.1000000000D+01
 P   1 1.00       0.000000000000
      0.7668876969D-01  0.1000000000D+01
 P   1 1.00       0.000000000000
      0.3916389510D-01  0.1000000000D+01
 D   1 1.00       0.000000000000
      0.4772306896D+03  0.1000000000D+01
 D   1 1.00       0.000000000000
      0.2437151195D+03  0.1000000000D+01
 D   1 1.00       0.000000000000
      0.1244619442D+03  0.1000000000D+01
 D   1 1.00       0.000000000000
      0.6356099525D+02  0.1000000000D+01
 D   1 1.00       0.000000000000
      0.3245972208D+02  0.1000000000D+01
 D   1 1.00       0.000000000000
      0.1657673158D+02  0.1000000000D+01
 D   1 1.00       0.000000000000
      0.8465507783D+01  0.1000000000D+01
 D   1 1.00       0.000000000000
      0.4323217860D+01  0.1000000000D+01
 D   1 1.00       0.000000000000
      0.2207807629D+01  0.1000000000D+01
 D   1 1.00       0.000000000000
      0.1127496852D+01  0.1000000000D+01
 D   1 1.00       0.000000000000
      0.5757970639D+00  0.1000000000D+01
 D   1 1.00       0.000000000000
      0.2940516050D+00  0.1000000000D+01
 D   1 1.00       0.000000000000
      0.1501680918D+00  0.1000000000D+01
 D   1 1.00       0.000000000000
      0.7668876969D-01  0.1000000000D+01
 D   1 1.00       0.000000000000
      0.3916389510D-01  0.1000000000D+01
 ****
      3 0
 S   1 1.00       0.000000000000
      0.2969784651D+07  0.1000000000D+01
 S   1 1.00       0.000000000000
      0.1516627989D+07  0.1000000000D+01
 S   1 1.00       0.000000000000
      0.7745209592D+06  0.1000000000D+01
 S   1 1.00       0.000000000000
      0.3955371526D+06  0.1000000000D+01
 S   1 1.00       0.000000000000
      0.2019953588D+06  0.1000000000D+01
 S   1 1.00       0.000000000000
      0.1031562389D+06  0.1000000000D+01
 S   1 1.00       0.000000000000
      0.5268046591D+05  0.1000000000D+01
 S   1 1.00       0.000000000000
      0.2690318607D+05  0.1000000000D+01
 S   1 1.00       0.000000000000
      0.1373908542D+05  0.1000000000D+01
 S   1 1.00       0.000000000000
      0.7016361094D+04  0.1000000000D+01
 S   1 1.00       0.000000000000
      0.3583158668D+04  0.1000000000D+01
 S   1 1.00       0.000000000000
      0.1829869625D+04  0.1000000000D+01
 S   1 1.00       0.000000000000
      0.9344891347D+03  0.1000000000D+01
 S   1 1.00       0.000000000000
      0.4772306896D+03  0.1000000000D+01
 S   1 1.00       0.000000000000
      0.2437151195D+03  0.1000000000D+01
 S   1 1.00       0.000000000000
      0.1244619442D+03  0.1000000000D+01
 S   1 1.00       0.000000000000
      0.6356099525D+02  0.1000000000D+01
 S   1 1.00       0.000000000000
      0.3245972208D+02  0.1000000000D+01
 S   1 1.00       0.000000000000
      0.1657673158D+02  0.1000000000D+01
 S   1 1.00       0.000000000000
      0.8465507783D+01  0.1000000000D+01
 S   1 1.00       0.000000000000
      0.4323217860D+01  0.1000000000D+01
 S   1 1.00       0.000000000000
      0.2207807629D+01  0.1000000000D+01
 S   1 1.00       0.000000000000
      0.1127496852D+01  0.1000000000D+01
 S   1 1.00       0.000000000000
      0.5757970639D+00  0.1000000000D+01
 S   1 1.00       0.000000000000
      0.2940516050D+00  0.1000000000D+01
 S   1 1.00       0.000000000000
      0.1501680918D+00  0.1000000000D+01
 S   1 1.00       0.000000000000
      0.7668876969D-01  0.1000000000D+01
 P   1 1.00       0.000000000000
      0.2969784651D+07  0.1000000000D+01
 P   1 1.00       0.000000000000
      0.1516627989D+07  0.1000000000D+01
 P   1 1.00       0.000000000000
      0.7745209592D+06  0.1000000000D+01
 P   1 1.00       0.000000000000
      0.3955371526D+06  0.1000000000D+01
 P   1 1.00       0.000000000000
      0.2019953588D+06  0.1000000000D+01
 P   1 1.00       0.000000000000
      0.1031562389D+06  0.1000000000D+01
 P   1 1.00       0.000000000000
      0.5268046591D+05  0.1000000000D+01
 P   1 1.00       0.000000000000
      0.2690318607D+05  0.1000000000D+01
 P   1 1.00       0.000000000000
      0.1373908542D+05  0.1000000000D+01
 P   1 1.00       0.000000000000
      0.7016361094D+04  0.1000000000D+01
 P   1 1.00       0.000000000000
      0.3583158668D+04  0.1000000000D+01
 P   1 1.00       0.000000000000
      0.1829869625D+04  0.1000000000D+01
 P   1 1.00       0.000000000000
      0.9344891347D+03  0.1000000000D+01
 P   1 1.00       0.000000000000
      0.4772306896D+03  0.1000000000D+01
 P   1 1.00       0.000000000000
      0.2437151195D+03  0.1000000000D+01
 P   1 1.00       0.000000000000
      0.1244619442D+03  0.1000000000D+01
 P   1 1.00       0.000000000000
      0.6356099525D+02  0.1000000000D+01
 P   1 1.00       0.000000000000
      0.3245972208D+02  0.1000000000D+01
 P   1 1.00       0.000000000000
      0.1657673158D+02  0.1000000000D+01
 P   1 1.00       0.000000000000
      0.8465507783D+01  0.1000000000D+01
 P   1 1.00       0.000000000000
      0.4323217860D+01  0.1000000000D+01
 P   1 1.00       0.000000000000
      0.2207807629D+01  0.1000000000D+01
 P   1 1.00       0.000000000000
      0.1127496852D+01  0.1000000000D+01
 P   1 1.00       0.000000000000
      0.5757970639D+00  0.1000000000D+01
 P   1 1.00       0.000000000000
      0.2940516050D+00  0.1000000000D+01
 P   1 1.00       0.000000000000
      0.1501680918D+00  0.1000000000D+01
 P   1 1.00       0.000000000000
      0.7668876969D-01  0.1000000000D+01
 P   1 1.00       0.000000000000
      0.3916389510D-01  0.1000000000D+01
 D   1 1.00       0.000000000000
      0.7016361094D+04  0.1000000000D+01
 D   1 1.00       0.000000000000
      0.3583158668D+04  0.1000000000D+01
 D   1 1.00       0.000000000000
      0.1829869625D+04  0.1000000000D+01
 D   1 1.00       0.000000000000
      0.9344891347D+03  0.1000000000D+01
 D   1 1.00       0.000000000000
      0.4772306896D+03  0.1000000000D+01
 D   1 1.00       0.000000000000
      0.2437151195D+03  0.1000000000D+01
 D   1 1.00       0.000000000000
      0.1244619442D+03  0.1000000000D+01
 D   1 1.00       0.000000000000
      0.6356099525D+02  0.1000000000D+01
 D   1 1.00       0.000000000000
      0.3245972208D+02  0.1000000000D+01
 D   1 1.00       0.000000000000
      0.1657673158D+02  0.1000000000D+01
 D   1 1.00       0.000000000000
      0.8465507783D+01  0.1000000000D+01
 D   1 1.00       0.000000000000
      0.4323217860D+01  0.1000000000D+01
 D   1 1.00       0.000000000000
      0.2207807629D+01  0.1000000000D+01
 D   1 1.00       0.000000000000
      0.1127496852D+01  0.1000000000D+01
 D   1 1.00       0.000000000000
      0.5757970639D+00  0.1000000000D+01
 D   1 1.00       0.000000000000
      0.2940516050D+00  0.1000000000D+01
 D   1 1.00       0.000000000000
      0.1501680918D+00  0.1000000000D+01
 D   1 1.00       0.000000000000
      0.7668876969D-01  0.1000000000D+01
 D   1 1.00       0.000000000000
      0.3916389510D-01  0.1000000000D+01
 ****

 AO basis set (Overlap normalization):
 Atom C1       Shell     1 S   1     bf    1 -     1          0.000000000000          0.000000000000         -3.576102116893
      0.2019953588D+06  0.1000000000D+01
 Atom C1       Shell     2 S   1     bf    2 -     2          0.000000000000          0.000000000000         -3.576102116893
      0.1031562389D+06  0.1000000000D+01
 Atom C1       Shell     3 S   1     bf    3 -     3          0.000000000000          0.000000000000         -3.576102116893
      0.5268046591D+05  0.1000000000D+01
 Atom C1       Shell     4 S   1     bf    4 -     4          0.000000000000          0.000000000000         -3.576102116893
      0.2690318607D+05  0.1000000000D+01
 Atom C1       Shell     5 S   1     bf    5 -     5          0.000000000000          0.000000000000         -3.576102116893
      0.1373908542D+05  0.1000000000D+01
 Atom C1       Shell     6 S   1     bf    6 -     6          0.000000000000          0.000000000000         -3.576102116893
      0.7016361094D+04  0.1000000000D+01
 Atom C1       Shell     7 S   1     bf    7 -     7          0.000000000000          0.000000000000         -3.576102116893
      0.3583158668D+04  0.1000000000D+01
 Atom C1       Shell     8 S   1     bf    8 -     8          0.000000000000          0.000000000000         -3.576102116893
      0.1829869625D+04  0.1000000000D+01
 Atom C1       Shell     9 S   1     bf    9 -     9          0.000000000000          0.000000000000         -3.576102116893
      0.9344891347D+03  0.1000000000D+01
 Atom C1       Shell    10 S   1     bf   10 -    10          0.000000000000          0.000000000000         -3.576102116893
      0.4772306896D+03  0.1000000000D+01
 Atom C1       Shell    11 S   1     bf   11 -    11          0.000000000000          0.000000000000         -3.576102116893
      0.2437151195D+03  0.1000000000D+01
 Atom C1       Shell    12 S   1     bf   12 -    12          0.000000000000          0.000000000000         -3.576102116893
      0.1244619442D+03  0.1000000000D+01
 Atom C1       Shell    13 S   1     bf   13 -    13          0.000000000000          0.000000000000         -3.576102116893
      0.6356099525D+02  0.1000000000D+01
 Atom C1       Shell    14 S   1     bf   14 -    14          0.000000000000          0.000000000000         -3.576102116893
      0.3245972208D+02  0.1000000000D+01
 Atom C1       Shell    15 S   1     bf   15 -    15          0.000000000000          0.000000000000         -3.576102116893
      0.1657673158D+02  0.1000000000D+01
 Atom C1       Shell    16 S   1     bf   16 -    16          0.000000000000          0.000000000000         -3.576102116893
      0.8465507783D+01  0.1000000000D+01
 Atom C1       Shell    17 S   1     bf   17 -    17          0.000000000000          0.000000000000         -3.576102116893
      0.4323217860D+01  0.1000000000D+01
 Atom C1       Shell    18 S   1     bf   18 -    18          0.000000000000          0.000000000000         -3.576102116893
      0.2207807629D+01  0.1000000000D+01
 Atom C1       Shell    19 S   1     bf   19 -    19          0.000000000000          0.000000000000         -3.576102116893
      0.1127496852D+01  0.1000000000D+01
 Atom C1       Shell    20 S   1     bf   20 -    20          0.000000000000          0.000000000000         -3.576102116893
      0.5757970639D+00  0.1000000000D+01
 Atom C1       Shell    21 S   1     bf   21 -    21          0.000000000000          0.000000000000         -3.576102116893
      0.2940516050D+00  0.1000000000D+01
 Atom C1       Shell    22 S   1     bf   22 -    22          0.000000000000          0.000000000000         -3.576102116893
      0.1501680918D+00  0.1000000000D+01
 Atom C1       Shell    23 S   1     bf   23 -    23          0.000000000000          0.000000000000         -3.576102116893
      0.7668876969D-01  0.1000000000D+01
 Atom C1       Shell    24 P   1     bf   24 -    26          0.000000000000          0.000000000000         -3.576102116893
      0.2019953588D+06  0.1000000000D+01
 Atom C1       Shell    25 P   1     bf   27 -    29          0.000000000000          0.000000000000         -3.576102116893
      0.1031562389D+06  0.1000000000D+01
 Atom C1       Shell    26 P   1     bf   30 -    32          0.000000000000          0.000000000000         -3.576102116893
      0.5268046591D+05  0.1000000000D+01
 Atom C1       Shell    27 P   1     bf   33 -    35          0.000000000000          0.000000000000         -3.576102116893
      0.2690318607D+05  0.1000000000D+01
 Atom C1       Shell    28 P   1     bf   36 -    38          0.000000000000          0.000000000000         -3.576102116893
      0.1373908542D+05  0.1000000000D+01
 Atom C1       Shell    29 P   1     bf   39 -    41          0.000000000000          0.000000000000         -3.576102116893
      0.7016361094D+04  0.1000000000D+01
 Atom C1       Shell    30 P   1     bf   42 -    44          0.000000000000          0.000000000000         -3.576102116893
      0.3583158668D+04  0.1000000000D+01
 Atom C1       Shell    31 P   1     bf   45 -    47          0.000000000000          0.000000000000         -3.576102116893
      0.1829869625D+04  0.1000000000D+01
 Atom C1       Shell    32 P   1     bf   48 -    50          0.000000000000          0.000000000000         -3.576102116893
      0.9344891347D+03  0.1000000000D+01
 Atom C1       Shell    33 P   1     bf   51 -    53          0.000000000000          0.000000000000         -3.576102116893
      0.4772306896D+03  0.1000000000D+01
 Atom C1       Shell    34 P   1     bf   54 -    56          0.000000000000          0.000000000000         -3.576102116893
      0.2437151195D+03  0.1000000000D+01
 Atom C1       Shell    35 P   1     bf   57 -    59          0.000000000000          0.000000000000         -3.576102116893
      0.1244619442D+03  0.1000000000D+01
 Atom C1       Shell    36 P   1     bf   60 -    62          0.000000000000          0.000000000000         -3.576102116893
      0.6356099525D+02  0.1000000000D+01
 Atom C1       Shell    37 P   1     bf   63 -    65          0.000000000000          0.000000000000         -3.576102116893
      0.3245972208D+02  0.1000000000D+01
 Atom C1       Shell    38 P   1     bf   66 -    68          0.000000000000          0.000000000000         -3.576102116893
      0.1657673158D+02  0.1000000000D+01
 Atom C1       Shell    39 P   1     bf   69 -    71          0.000000000000          0.000000000000         -3.576102116893
      0.8465507783D+01  0.1000000000D+01
 Atom C1       Shell    40 P   1     bf   72 -    74          0.000000000000          0.000000000000         -3.576102116893
      0.4323217860D+01  0.1000000000D+01
 Atom C1       Shell    41 P   1     bf   75 -    77          0.000000000000          0.000000000000         -3.576102116893
      0.2207807629D+01  0.1000000000D+01
 Atom C1       Shell    42 P   1     bf   78 -    80          0.000000000000          0.000000000000         -3.576102116893
      0.1127496852D+01  0.1000000000D+01
 Atom C1       Shell    43 P   1     bf   81 -    83          0.000000000000          0.000000000000         -3.576102116893
      0.5757970639D+00  0.1000000000D+01
 Atom C1       Shell    44 P   1     bf   84 -    86          0.000000000000          0.000000000000         -3.576102116893
      0.2940516050D+00  0.1000000000D+01
 Atom C1       Shell    45 P   1     bf   87 -    89          0.000000000000          0.000000000000         -3.576102116893
      0.1501680918D+00  0.1000000000D+01
 Atom C1       Shell    46 P   1     bf   90 -    92          0.000000000000          0.000000000000         -3.576102116893
      0.7668876969D-01  0.1000000000D+01
 Atom C1       Shell    47 P   1     bf   93 -    95          0.000000000000          0.000000000000         -3.576102116893
      0.3916389510D-01  0.1000000000D+01
 Atom C1       Shell    48 D   1     bf   96 -   100          0.000000000000          0.000000000000         -3.576102116893
      0.4772306896D+03  0.1000000000D+01
 Atom C1       Shell    49 D   1     bf  101 -   105          0.000000000000          0.000000000000         -3.576102116893
      0.2437151195D+03  0.1000000000D+01
 Atom C1       Shell    50 D   1     bf  106 -   110          0.000000000000          0.000000000000         -3.576102116893
      0.1244619442D+03  0.1000000000D+01
 Atom C1       Shell    51 D   1     bf  111 -   115          0.000000000000          0.000000000000         -3.576102116893
      0.6356099525D+02  0.1000000000D+01
 Atom C1       Shell    52 D   1     bf  116 -   120          0.000000000000          0.000000000000         -3.576102116893
      0.3245972208D+02  0.1000000000D+01
 Atom C1       Shell    53 D   1     bf  121 -   125          0.000000000000          0.000000000000         -3.576102116893
      0.1657673158D+02  0.1000000000D+01
 Atom C1       Shell    54 D   1     bf  126 -   130          0.000000000000          0.000000000000         -3.576102116893
      0.8465507783D+01  0.1000000000D+01
 Atom C1       Shell    55 D   1     bf  131 -   135          0.000000000000          0.000000000000         -3.576102116893
      0.4323217860D+01  0.1000000000D+01
 Atom C1       Shell    56 D   1     bf  136 -   140          0.000000000000          0.000000000000         -3.576102116893
      0.2207807629D+01  0.1000000000D+01
 Atom C1       Shell    57 D   1     bf  141 -   145          0.000000000000          0.000000000000         -3.576102116893
      0.1127496852D+01  0.1000000000D+01
 Atom C1       Shell    58 D   1     bf  146 -   150          0.000000000000          0.000000000000         -3.576102116893
      0.5757970639D+00  0.1000000000D+01
 Atom C1       Shell    59 D   1     bf  151 -   155          0.000000000000          0.000000000000         -3.576102116893
      0.2940516050D+00  0.1000000000D+01
 Atom C1       Shell    60 D   1     bf  156 -   160          0.000000000000          0.000000000000         -3.576102116893
      0.1501680918D+00  0.1000000000D+01
 Atom C1       Shell    61 D   1     bf  161 -   165          0.000000000000          0.000000000000         -3.576102116893
      0.7668876969D-01  0.1000000000D+01
 Atom C1       Shell    62 D   1     bf  166 -   170          0.000000000000          0.000000000000         -3.576102116893
      0.3916389510D-01  0.1000000000D+01
 Atom C2       Shell    63 S   1     bf  171 -   171          0.000000000000          0.000000000000         -1.233586431829
      0.2019953588D+06  0.1000000000D+01
 Atom C2       Shell    64 S   1     bf  172 -   172          0.000000000000          0.000000000000         -1.233586431829
      0.1031562389D+06  0.1000000000D+01
 Atom C2       Shell    65 S   1     bf  173 -   173          0.000000000000          0.000000000000         -1.233586431829
      0.5268046591D+05  0.1000000000D+01
 Atom C2       Shell    66 S   1     bf  174 -   174          0.000000000000          0.000000000000         -1.233586431829
      0.2690318607D+05  0.1000000000D+01
 Atom C2       Shell    67 S   1     bf  175 -   175          0.000000000000          0.000000000000         -1.233586431829
      0.1373908542D+05  0.1000000000D+01
 Atom C2       Shell    68 S   1     bf  176 -   176          0.000000000000          0.000000000000         -1.233586431829
      0.7016361094D+04  0.1000000000D+01
 Atom C2       Shell    69 S   1     bf  177 -   177          0.000000000000          0.000000000000         -1.233586431829
      0.3583158668D+04  0.1000000000D+01
 Atom C2       Shell    70 S   1     bf  178 -   178          0.000000000000          0.000000000000         -1.233586431829
      0.1829869625D+04  0.1000000000D+01
 Atom C2       Shell    71 S   1     bf  179 -   179          0.000000000000          0.000000000000         -1.233586431829
      0.9344891347D+03  0.1000000000D+01
 Atom C2       Shell    72 S   1     bf  180 -   180          0.000000000000          0.000000000000         -1.233586431829
      0.4772306896D+03  0.1000000000D+01
 Atom C2       Shell    73 S   1     bf  181 -   181          0.000000000000          0.000000000000         -1.233586431829
      0.2437151195D+03  0.1000000000D+01
 Atom C2       Shell    74 S   1     bf  182 -   182          0.000000000000          0.000000000000         -1.233586431829
      0.1244619442D+03  0.1000000000D+01
 Atom C2       Shell    75 S   1     bf  183 -   183          0.000000000000          0.000000000000         -1.233586431829
      0.6356099525D+02  0.1000000000D+01
 Atom C2       Shell    76 S   1     bf  184 -   184          0.000000000000          0.000000000000         -1.233586431829
      0.3245972208D+02  0.1000000000D+01
 Atom C2       Shell    77 S   1     bf  185 -   185          0.000000000000          0.000000000000         -1.233586431829
      0.1657673158D+02  0.1000000000D+01
 Atom C2       Shell    78 S   1     bf  186 -   186          0.000000000000          0.000000000000         -1.233586431829
      0.8465507783D+01  0.1000000000D+01
 Atom C2       Shell    79 S   1     bf  187 -   187          0.000000000000          0.000000000000         -1.233586431829
      0.4323217860D+01  0.1000000000D+01
 Atom C2       Shell    80 S   1     bf  188 -   188          0.000000000000          0.000000000000         -1.233586431829
      0.2207807629D+01  0.1000000000D+01
 Atom C2       Shell    81 S   1     bf  189 -   189          0.000000000000          0.000000000000         -1.233586431829
      0.1127496852D+01  0.1000000000D+01
 Atom C2       Shell    82 S   1     bf  190 -   190          0.000000000000          0.000000000000         -1.233586431829
      0.5757970639D+00  0.1000000000D+01
 Atom C2       Shell    83 S   1     bf  191 -   191          0.000000000000          0.000000000000         -1.233586431829
      0.2940516050D+00  0.1000000000D+01
 Atom C2       Shell    84 S   1     bf  192 -   192          0.000000000000          0.000000000000         -1.233586431829
      0.1501680918D+00  0.1000000000D+01
 Atom C2       Shell    85 S   1     bf  193 -   193          0.000000000000          0.000000000000         -1.233586431829
      0.7668876969D-01  0.1000000000D+01
 Atom C2       Shell    86 P   1     bf  194 -   196          0.000000000000          0.000000000000         -1.233586431829
      0.2019953588D+06  0.1000000000D+01
 Atom C2       Shell    87 P   1     bf  197 -   199          0.000000000000          0.000000000000         -1.233586431829
      0.1031562389D+06  0.1000000000D+01
 Atom C2       Shell    88 P   1     bf  200 -   202          0.000000000000          0.000000000000         -1.233586431829
      0.5268046591D+05  0.1000000000D+01
 Atom C2       Shell    89 P   1     bf  203 -   205          0.000000000000          0.000000000000         -1.233586431829
      0.2690318607D+05  0.1000000000D+01
 Atom C2       Shell    90 P   1     bf  206 -   208          0.000000000000          0.000000000000         -1.233586431829
      0.1373908542D+05  0.1000000000D+01
 Atom C2       Shell    91 P   1     bf  209 -   211          0.000000000000          0.000000000000         -1.233586431829
      0.7016361094D+04  0.1000000000D+01
 Atom C2       Shell    92 P   1     bf  212 -   214          0.000000000000          0.000000000000         -1.233586431829
      0.3583158668D+04  0.1000000000D+01
 Atom C2       Shell    93 P   1     bf  215 -   217          0.000000000000          0.000000000000         -1.233586431829
      0.1829869625D+04  0.1000000000D+01
 Atom C2       Shell    94 P   1     bf  218 -   220          0.000000000000          0.000000000000         -1.233586431829
      0.9344891347D+03  0.1000000000D+01
 Atom C2       Shell    95 P   1     bf  221 -   223          0.000000000000          0.000000000000         -1.233586431829
      0.4772306896D+03  0.1000000000D+01
 Atom C2       Shell    96 P   1     bf  224 -   226          0.000000000000          0.000000000000         -1.233586431829
      0.2437151195D+03  0.1000000000D+01
 Atom C2       Shell    97 P   1     bf  227 -   229          0.000000000000          0.000000000000         -1.233586431829
      0.1244619442D+03  0.1000000000D+01
 Atom C2       Shell    98 P   1     bf  230 -   232          0.000000000000          0.000000000000         -1.233586431829
      0.6356099525D+02  0.1000000000D+01
 Atom C2       Shell    99 P   1     bf  233 -   235          0.000000000000          0.000000000000         -1.233586431829
      0.3245972208D+02  0.1000000000D+01
 Atom C2       Shell   100 P   1     bf  236 -   238          0.000000000000          0.000000000000         -1.233586431829
      0.1657673158D+02  0.1000000000D+01
 Atom C2       Shell   101 P   1     bf  239 -   241          0.000000000000          0.000000000000         -1.233586431829
      0.8465507783D+01  0.1000000000D+01
 Atom C2       Shell   102 P   1     bf  242 -   244          0.000000000000          0.000000000000         -1.233586431829
      0.4323217860D+01  0.1000000000D+01
 Atom C2       Shell   103 P   1     bf  245 -   247          0.000000000000          0.000000000000         -1.233586431829
      0.2207807629D+01  0.1000000000D+01
 Atom C2       Shell   104 P   1     bf  248 -   250          0.000000000000          0.000000000000         -1.233586431829
      0.1127496852D+01  0.1000000000D+01
 Atom C2       Shell   105 P   1     bf  251 -   253          0.000000000000          0.000000000000         -1.233586431829
      0.5757970639D+00  0.1000000000D+01
 Atom C2       Shell   106 P   1     bf  254 -   256          0.000000000000          0.000000000000         -1.233586431829
      0.2940516050D+00  0.1000000000D+01
 Atom C2       Shell   107 P   1     bf  257 -   259          0.000000000000          0.000000000000         -1.233586431829
      0.1501680918D+00  0.1000000000D+01
 Atom C2       Shell   108 P   1     bf  260 -   262          0.000000000000          0.000000000000         -1.233586431829
      0.7668876969D-01  0.1000000000D+01
 Atom C2       Shell   109 P   1     bf  263 -   265          0.000000000000          0.000000000000         -1.233586431829
      0.3916389510D-01  0.1000000000D+01
 Atom C2       Shell   110 D   1     bf  266 -   270          0.000000000000          0.000000000000         -1.233586431829
      0.4772306896D+03  0.1000000000D+01
 Atom C2       Shell   111 D   1     bf  271 -   275          0.000000000000          0.000000000000         -1.233586431829
      0.2437151195D+03  0.1000000000D+01
 Atom C2       Shell   112 D   1     bf  276 -   280          0.000000000000          0.000000000000         -1.233586431829
      0.1244619442D+03  0.1000000000D+01
 Atom C2       Shell   113 D   1     bf  281 -   285          0.000000000000          0.000000000000         -1.233586431829
      0.6356099525D+02  0.1000000000D+01
 Atom C2       Shell   114 D   1     bf  286 -   290          0.000000000000          0.000000000000         -1.233586431829
      0.3245972208D+02  0.1000000000D+01
 Atom C2       Shell   115 D   1     bf  291 -   295          0.000000000000          0.000000000000         -1.233586431829
      0.1657673158D+02  0.1000000000D+01
 Atom C2       Shell   116 D   1     bf  296 -   300          0.000000000000          0.000000000000         -1.233586431829
      0.8465507783D+01  0.1000000000D+01
 Atom C2       Shell   117 D   1     bf  301 -   305          0.000000000000          0.000000000000         -1.233586431829
      0.4323217860D+01  0.1000000000D+01
 Atom C2       Shell   118 D   1     bf  306 -   310          0.000000000000          0.000000000000         -1.233586431829
      0.2207807629D+01  0.1000000000D+01
 Atom C2       Shell   119 D   1     bf  311 -   315          0.000000000000          0.000000000000         -1.233586431829
      0.1127496852D+01  0.1000000000D+01
 Atom C2       Shell   120 D   1     bf  316 -   320          0.000000000000          0.000000000000         -1.233586431829
      0.5757970639D+00  0.1000000000D+01
 Atom C2       Shell   121 D   1     bf  321 -   325          0.000000000000          0.000000000000         -1.233586431829
      0.2940516050D+00  0.1000000000D+01
 Atom C2       Shell   122 D   1     bf  326 -   330          0.000000000000          0.000000000000         -1.233586431829
      0.1501680918D+00  0.1000000000D+01
 Atom C2       Shell   123 D   1     bf  331 -   335          0.000000000000          0.000000000000         -1.233586431829
      0.7668876969D-01  0.1000000000D+01
 Atom C2       Shell   124 D   1     bf  336 -   340          0.000000000000          0.000000000000         -1.233586431829
      0.3916389510D-01  0.1000000000D+01
 Atom S3       Shell   125 S   1     bf  341 -   341          0.000000000000          0.000000000000          1.803633205771
      0.2969784651D+07  0.1000000000D+01
 Atom S3       Shell   126 S   1     bf  342 -   342          0.000000000000          0.000000000000          1.803633205771
      0.1516627989D+07  0.1000000000D+01
 Atom S3       Shell   127 S   1     bf  343 -   343          0.000000000000          0.000000000000          1.803633205771
      0.7745209592D+06  0.1000000000D+01
 Atom S3       Shell   128 S   1     bf  344 -   344          0.000000000000          0.000000000000          1.803633205771
      0.3955371526D+06  0.1000000000D+01
 Atom S3       Shell   129 S   1     bf  345 -   345          0.000000000000          0.000000000000          1.803633205771
      0.2019953588D+06  0.1000000000D+01
 Atom S3       Shell   130 S   1     bf  346 -   346          0.000000000000          0.000000000000          1.803633205771
      0.1031562389D+06  0.1000000000D+01
 Atom S3       Shell   131 S   1     bf  347 -   347          0.000000000000          0.000000000000          1.803633205771
      0.5268046591D+05  0.1000000000D+01
 Atom S3       Shell   132 S   1     bf  348 -   348          0.000000000000          0.000000000000          1.803633205771
      0.2690318607D+05  0.1000000000D+01
 Atom S3       Shell   133 S   1     bf  349 -   349          0.000000000000          0.000000000000          1.803633205771
      0.1373908542D+05  0.1000000000D+01
 Atom S3       Shell   134 S   1     bf  350 -   350          0.000000000000          0.000000000000          1.803633205771
      0.7016361094D+04  0.1000000000D+01
 Atom S3       Shell   135 S   1     bf  351 -   351          0.000000000000          0.000000000000          1.803633205771
      0.3583158668D+04  0.1000000000D+01
 Atom S3       Shell   136 S   1     bf  352 -   352          0.000000000000          0.000000000000          1.803633205771
      0.1829869625D+04  0.1000000000D+01
 Atom S3       Shell   137 S   1     bf  353 -   353          0.000000000000          0.000000000000          1.803633205771
      0.9344891347D+03  0.1000000000D+01
 Atom S3       Shell   138 S   1     bf  354 -   354          0.000000000000          0.000000000000          1.803633205771
      0.4772306896D+03  0.1000000000D+01
 Atom S3       Shell   139 S   1     bf  355 -   355          0.000000000000          0.000000000000          1.803633205771
      0.2437151195D+03  0.1000000000D+01
 Atom S3       Shell   140 S   1     bf  356 -   356          0.000000000000          0.000000000000          1.803633205771
      0.1244619442D+03  0.1000000000D+01
 Atom S3       Shell   141 S   1     bf  357 -   357          0.000000000000          0.000000000000          1.803633205771
      0.6356099525D+02  0.1000000000D+01
 Atom S3       Shell   142 S   1     bf  358 -   358          0.000000000000          0.000000000000          1.803633205771
      0.3245972208D+02  0.1000000000D+01
 Atom S3       Shell   143 S   1     bf  359 -   359          0.000000000000          0.000000000000          1.803633205771
      0.1657673158D+02  0.1000000000D+01
 Atom S3       Shell   144 S   1     bf  360 -   360          0.000000000000          0.000000000000          1.803633205771
      0.8465507783D+01  0.1000000000D+01
 Atom S3       Shell   145 S   1     bf  361 -   361          0.000000000000          0.000000000000          1.803633205771
      0.4323217860D+01  0.1000000000D+01
 Atom S3       Shell   146 S   1     bf  362 -   362          0.000000000000          0.000000000000          1.803633205771
      0.2207807629D+01  0.1000000000D+01
 Atom S3       Shell   147 S   1     bf  363 -   363          0.000000000000          0.000000000000          1.803633205771
      0.1127496852D+01  0.1000000000D+01
 Atom S3       Shell   148 S   1     bf  364 -   364          0.000000000000          0.000000000000          1.803633205771
      0.5757970639D+00  0.1000000000D+01
 Atom S3       Shell   149 S   1     bf  365 -   365          0.000000000000          0.000000000000          1.803633205771
      0.2940516050D+00  0.1000000000D+01
 Atom S3       Shell   150 S   1     bf  366 -   366          0.000000000000          0.000000000000          1.803633205771
      0.1501680918D+00  0.1000000000D+01
 Atom S3       Shell   151 S   1     bf  367 -   367          0.000000000000          0.000000000000          1.803633205771
      0.7668876969D-01  0.1000000000D+01
 Atom S3       Shell   152 P   1     bf  368 -   370          0.000000000000          0.000000000000          1.803633205771
      0.2969784651D+07  0.1000000000D+01
 Atom S3       Shell   153 P   1     bf  371 -   373          0.000000000000          0.000000000000          1.803633205771
      0.1516627989D+07  0.1000000000D+01
 Atom S3       Shell   154 P   1     bf  374 -   376          0.000000000000          0.000000000000          1.803633205771
      0.7745209592D+06  0.1000000000D+01
 Atom S3       Shell   155 P   1     bf  377 -   379          0.000000000000          0.000000000000          1.803633205771
      0.3955371526D+06  0.1000000000D+01
 Atom S3       Shell   156 P   1     bf  380 -   382          0.000000000000          0.000000000000          1.803633205771
      0.2019953588D+06  0.1000000000D+01
 Atom S3       Shell   157 P   1     bf  383 -   385          0.000000000000          0.000000000000          1.803633205771
      0.1031562389D+06  0.1000000000D+01
 Atom S3       Shell   158 P   1     bf  386 -   388          0.000000000000          0.000000000000          1.803633205771
      0.5268046591D+05  0.1000000000D+01
 Atom S3       Shell   159 P   1     bf  389 -   391          0.000000000000          0.000000000000          1.803633205771
      0.2690318607D+05  0.1000000000D+01
 Atom S3       Shell   160 P   1     bf  392 -   394          0.000000000000          0.000000000000          1.803633205771
      0.1373908542D+05  0.1000000000D+01
 Atom S3       Shell   161 P   1     bf  395 -   397          0.000000000000          0.000000000000          1.803633205771
      0.7016361094D+04  0.1000000000D+01
 Atom S3       Shell   162 P   1     bf  398 -   400          0.000000000000          0.000000000000          1.803633205771
      0.3583158668D+04  0.1000000000D+01
 Atom S3       Shell   163 P   1     bf  401 -   403          0.000000000000          0.000000000000          1.803633205771
      0.1829869625D+04  0.1000000000D+01
 Atom S3       Shell   164 P   1     bf  404 -   406          0.000000000000          0.000000000000          1.803633205771
      0.9344891347D+03  0.1000000000D+01
 Atom S3       Shell   165 P   1     bf  407 -   409          0.000000000000          0.000000000000          1.803633205771
      0.4772306896D+03  0.1000000000D+01
 Atom S3       Shell   166 P   1     bf  410 -   412          0.000000000000          0.000000000000          1.803633205771
      0.2437151195D+03  0.1000000000D+01
 Atom S3       Shell   167 P   1     bf  413 -   415          0.000000000000          0.000000000000          1.803633205771
      0.1244619442D+03  0.1000000000D+01
 Atom S3       Shell   168 P   1     bf  416 -   418          0.000000000000          0.000000000000          1.803633205771
      0.6356099525D+02  0.1000000000D+01
 Atom S3       Shell   169 P   1     bf  419 -   421          0.000000000000          0.000000000000          1.803633205771
      0.3245972208D+02  0.1000000000D+01
 Atom S3       Shell   170 P   1     bf  422 -   424          0.000000000000          0.000000000000          1.803633205771
      0.1657673158D+02  0.1000000000D+01
 Atom S3       Shell   171 P   1     bf  425 -   427          0.000000000000          0.000000000000          1.803633205771
      0.8465507783D+01  0.1000000000D+01
 Atom S3       Shell   172 P   1     bf  428 -   430          0.000000000000          0.000000000000          1.803633205771
      0.4323217860D+01  0.1000000000D+01
 Atom S3       Shell   173 P   1     bf  431 -   433          0.000000000000          0.000000000000          1.803633205771
      0.2207807629D+01  0.1000000000D+01
 Atom S3       Shell   174 P   1     bf  434 -   436          0.000000000000          0.000000000000          1.803633205771
      0.1127496852D+01  0.1000000000D+01
 Atom S3       Shell   175 P   1     bf  437 -   439          0.000000000000          0.000000000000          1.803633205771
      0.5757970639D+00  0.1000000000D+01
 Atom S3       Shell   176 P   1     bf  440 -   442          0.000000000000          0.000000000000          1.803633205771
      0.2940516050D+00  0.1000000000D+01
 Atom S3       Shell   177 P   1     bf  443 -   445          0.000000000000          0.000000000000          1.803633205771
      0.1501680918D+00  0.1000000000D+01
 Atom S3       Shell   178 P   1     bf  446 -   448          0.000000000000          0.000000000000          1.803633205771
      0.7668876969D-01  0.1000000000D+01
 Atom S3       Shell   179 P   1     bf  449 -   451          0.000000000000          0.000000000000          1.803633205771
      0.3916389510D-01  0.1000000000D+01
 Atom S3       Shell   180 D   1     bf  452 -   456          0.000000000000          0.000000000000          1.803633205771
      0.7016361094D+04  0.1000000000D+01
 Atom S3       Shell   181 D   1     bf  457 -   461          0.000000000000          0.000000000000          1.803633205771
      0.3583158668D+04  0.1000000000D+01
 Atom S3       Shell   182 D   1     bf  462 -   466          0.000000000000          0.000000000000          1.803633205771
      0.1829869625D+04  0.1000000000D+01
 Atom S3       Shell   183 D   1     bf  467 -   471          0.000000000000          0.000000000000          1.803633205771
      0.9344891347D+03  0.1000000000D+01
 Atom S3       Shell   184 D   1     bf  472 -   476          0.000000000000          0.000000000000          1.803633205771
      0.4772306896D+03  0.1000000000D+01
 Atom S3       Shell   185 D   1     bf  477 -   481          0.000000000000          0.000000000000          1.803633205771
      0.2437151195D+03  0.1000000000D+01
 Atom S3       Shell   186 D   1     bf  482 -   486          0.000000000000          0.000000000000          1.803633205771
      0.1244619442D+03  0.1000000000D+01
 Atom S3       Shell   187 D   1     bf  487 -   491          0.000000000000          0.000000000000          1.803633205771
      0.6356099525D+02  0.1000000000D+01
 Atom S3       Shell   188 D   1     bf  492 -   496          0.000000000000          0.000000000000          1.803633205771
      0.3245972208D+02  0.1000000000D+01
 Atom S3       Shell   189 D   1     bf  497 -   501          0.000000000000          0.000000000000          1.803633205771
      0.1657673158D+02  0.1000000000D+01
 Atom S3       Shell   190 D   1     bf  502 -   506          0.000000000000          0.000000000000          1.803633205771
      0.8465507783D+01  0.1000000000D+01
 Atom S3       Shell   191 D   1     bf  507 -   511          0.000000000000          0.000000000000          1.803633205771
      0.4323217860D+01  0.1000000000D+01
 Atom S3       Shell   192 D   1     bf  512 -   516          0.000000000000          0.000000000000          1.803633205771
      0.2207807629D+01  0.1000000000D+01
 Atom S3       Shell   193 D   1     bf  517 -   521          0.000000000000          0.000000000000          1.803633205771
      0.1127496852D+01  0.1000000000D+01
 Atom S3       Shell   194 D   1     bf  522 -   526          0.000000000000          0.000000000000          1.803633205771
      0.5757970639D+00  0.1000000000D+01
 Atom S3       Shell   195 D   1     bf  527 -   531          0.000000000000          0.000000000000          1.803633205771
      0.2940516050D+00  0.1000000000D+01
 Atom S3       Shell   196 D   1     bf  532 -   536          0.000000000000          0.000000000000          1.803633205771
      0.1501680918D+00  0.1000000000D+01
 Atom S3       Shell   197 D   1     bf  537 -   541          0.000000000000          0.000000000000          1.803633205771
      0.7668876969D-01  0.1000000000D+01
 Atom S3       Shell   198 D   1     bf  542 -   546          0.000000000000          0.000000000000          1.803633205771
      0.3916389510D-01  0.1000000000D+01
 There are   296 symmetry adapted cartesian basis functions of A1  symmetry.
 There are    49 symmetry adapted cartesian basis functions of A2  symmetry.
 There are   125 symmetry adapted cartesian basis functions of B1  symmetry.
 There are   125 symmetry adapted cartesian basis functions of B2  symmetry.
 There are   247 symmetry adapted basis functions of A1  symmetry.
 There are    49 symmetry adapted basis functions of A2  symmetry.
 There are   125 symmetry adapted basis functions of B1  symmetry.
 There are   125 symmetry adapted basis functions of B2  symmetry.
   546 basis functions,   595 primitive gaussians,   595 cartesian basis functions
    15 alpha electrons       13 beta electrons
       nuclear repulsion energy        64.8206932279 Hartrees.
 IExCor= 3731 DFT=T Ex+Corr=APFD ExCW=0 ScaHFX=  0.229450
 ScaDFX=  1.000000  1.000000  1.000000  1.000000 ScalE2=  1.000000  1.000000
 IRadAn= 299974 IRanWt=     -1 IRanGd=            0 ICorTp=0 IEmpDi=211
 NAtoms=    3 NActive=    3 NUniq=    3 SFac= 1.00D+00 NAtFMM=   60 NAOKFM=F Big=F
 Integral buffers will be    131072 words long.
 Raffenetti 2 integral format.
 Two-electron integral symmetry is turned on.
 R6Disp:  Petersson-Frisch Dispersion energy=       -0.0001597719 Hartrees.
 Nuclear repulsion after empirical dispersion term =       64.8205334560 Hartrees.
 Leave Link  301 at Sat Jul 27 10:11:04 2013, MaxMem=  536870912 cpu:       0.2
 (Enter /share/apps/gaussian/gdvh12/gdv/l302.exe)
 NPDir=0 NMtPBC=     1 NCelOv=     1 NCel=       1 NClECP=     1 NCelD=      1
         NCelK=      1 NCelE2=     1 NClLst=     1 CellRange=     0.0.
 One-electron integrals computed using PRISM.
 NBasis=   546 RedAO= T EigKep=  1.80D-06  NBF=   247    49   125   125
 NBsUse=   545 1.00D-06 EigRej=  2.47D-07 NBFU=   246    49   125   125
 Precomputing XC quadrature grid using
 IXCGrd= 2 IRadAn=      299974 IRanWt=          -1 IRanGd=           0 AccXCQ= 0.00D+00.
 NRdTot=     897 NPtTot=      727578 NUsed=      733909 NTot=      733941
 NSgBfM=   405   405   405   405   405 NAtAll=     3     3.
 Leave Link  302 at Sat Jul 27 10:11:05 2013, MaxMem=  536870912 cpu:       1.9
 (Enter /share/apps/gaussian/gdvh12/gdv/l303.exe)
 DipDrv:  MaxL=1.
 Leave Link  303 at Sat Jul 27 10:11:05 2013, MaxMem=  536870912 cpu:       0.3
 (Enter /share/apps/gaussian/gdvh12/gdv/l401.exe)
 ExpMin= 3.92D-02 ExpMax= 2.97D+06 ExpMxC= 2.97D+06 IAcc=4 IRadAn=    299974 AccDes= 0.00D+00
 Harris functional with IExCor= 3731 and IRadAn=  299974 diagonalized for initial guess.
 HarFok:  IExCor= 3731 AccDes= 0.00D+00 IRadAn=    299974 IDoV= 1 UseB2=F ITyADJ=14
 ICtDFT=  3500011 ScaDFX=  1.000000  1.000000  1.000000  1.000000
 FoFCou: FMM=F IPFlag=           0 FMFlag=      100000 FMFlg1=           0
         NFxFlg=           0 DoJE=T BraDBF=F KetDBF=T FulRan=T
         wScrn=  0.000000 ICntrl=     500 IOpCl=  0 I1Cent=   200000004 NGrid=           0
         NMat0=    1 NMatS0=      1 NMatT0=    0 NMatD0=    1 NMtDS0=    0 NMtDT0=    0
 Petite list used in FoFCou.
 Harris En= -466.126939293222    
 Initial guess orbital symmetries:
 Alpha Orbitals:
       Occupied  (SG) (SG) (SG) (SG) (SG) (PI) (PI) (SG) (SG) (SG)
                 (PI) (PI) (SG) (PI) (PI)
       Virtual   (SG) (PI) (PI) (SG) (SG) (PI) (PI) (PI) (PI) (DLTA)
                 (DLTA) (SG) (PI) (PI) (DLTA) (DLTA) (SG) (SG)
                 (PI) (PI) (DLTA) (DLTA) (SG) (SG) (DLTA) (DLTA)
                 (PI) (PI) (PI) (PI) (SG) (PI) (PI) (DLTA) (DLTA)
                 (SG) (PI) (PI) (SG) (PI) (PI) (SG) (DLTA) (DLTA)
                 (PI) (PI) (SG) (PI) (PI) (DLTA) (DLTA) (SG) (PI)
                 (PI) (SG) (DLTA) (DLTA) (SG) (SG) (PI) (PI) (PI)
                 (PI) (SG) (DLTA) (DLTA) (PI) (PI) (PI) (PI) (SG)
                 (SG) (SG) (PI) (PI) (DLTA) (DLTA) (SG) (PI) (PI)
                 (SG) (PI) (PI) (DLTA) (DLTA) (SG) (SG) (SG) (PI)
                 (PI) (DLTA) (DLTA) (SG) (PI) (PI) (PI) (PI) (SG)
                 (SG) (PI) (PI) (DLTA) (DLTA) (SG) (PI) (PI) (SG)
                 (PI) (PI) (SG) (SG) (DLTA) (DLTA) (PI) (PI) (DLTA)
                 (DLTA) (SG) (SG) (PI) (PI) (SG) (SG) (PI) (PI)
                 (PI) (PI) (SG) (DLTA) (DLTA) (PI) (PI) (SG) (SG)
                 (PI) (PI) (SG) (SG) (DLTA) (DLTA) (PI) (PI) (DLTA)
                 (DLTA) (SG) (PI) (PI) (SG) (SG) (SG) (SG) (PI)
                 (PI) (PI) (PI) (DLTA) (DLTA) (PI) (PI) (SG) (SG)
                 (SG) (DLTA) (DLTA) (PI) (PI) (DLTA) (DLTA) (PI)
                 (PI) (SG) (PI) (PI) (SG) (SG) (SG) (SG) (PI) (PI)
                 (SG) (PI) (PI) (SG) (DLTA) (DLTA) (PI) (PI) (SG)
                 (DLTA) (DLTA) (PI) (PI) (DLTA) (DLTA) (SG) (PI)
                 (PI) (SG) (PI) (PI) (SG) (SG) (SG) (SG) (PI) (PI)
                 (PI) (PI) (SG) (SG) (DLTA) (DLTA) (PI) (PI) (SG)
                 (SG) (DLTA) (DLTA) (PI) (PI) (DLTA) (DLTA) (PI)
                 (PI) (SG) (SG) (SG) (PI) (PI) (SG) (PI) (PI) (PI)
                 (PI) (SG) (SG) (DLTA) (DLTA) (PI) (PI) (SG) (SG)
                 (SG) (DLTA) (DLTA) (PI) (PI) (DLTA) (DLTA) (PI)
                 (PI) (SG) (SG) (SG) (PI) (PI) (SG) (PI) (PI) (PI)
                 (PI) (SG) (SG) (DLTA) (DLTA) (PI) (PI) (SG) (DLTA)
                 (DLTA) (SG) (DLTA) (DLTA) (PI) (PI) (PI) (PI)
                 (SG) (SG) (SG) (SG) (PI) (PI) (SG) (PI) (PI) (PI)
                 (PI) (SG) (SG) (DLTA) (DLTA) (PI) (PI) (SG) (DLTA)
                 (DLTA) (SG) (DLTA) (DLTA) (PI) (PI) (PI) (PI)
                 (SG) (SG) (SG) (SG) (PI) (PI) (SG) (PI) (PI) (PI)
                 (PI) (SG) (SG) (DLTA) (DLTA) (PI) (PI) (SG) (DLTA)
                 (DLTA) (DLTA) (DLTA) (SG) (PI) (PI) (PI) (PI)
                 (SG) (SG) (SG) (SG) (PI) (PI) (SG) (PI) (PI) (PI)
                 (PI) (SG) (SG) (DLTA) (DLTA) (PI) (PI) (SG) (DLTA)
                 (DLTA) (DLTA) (DLTA) (SG) (PI) (PI) (PI) (PI)
                 (SG) (SG) (SG) (SG) (PI) (PI) (SG) (PI) (PI) (PI)
                 (PI) (SG) (SG) (DLTA) (DLTA) (PI) (PI) (SG) (DLTA)
                 (DLTA) (DLTA) (DLTA) (SG) (PI) (PI) (PI) (PI)
                 (SG) (SG) (SG) (SG) (PI) (PI) (SG) (PI) (PI) (PI)
                 (PI) (SG) (SG) (DLTA) (DLTA) (PI) (PI) (SG) (SG)
                 (SG) (SG) (PI) (PI) (SG) (PI) (PI) (PI) (PI) (SG)
                 (SG) (DLTA) (DLTA) (PI) (PI) (SG) (SG) (SG) (SG)
                 (PI) (PI) (SG) (PI) (PI) (PI) (PI) (SG) (SG) (DLTA)
                 (DLTA) (PI) (PI) (SG) (SG) (SG) (SG) (PI) (PI)
                 (SG) (PI) (PI) (PI) (PI) (SG) (SG) (DLTA) (DLTA)
                 (PI) (PI) (SG) (SG) (SG) (SG) (PI) (PI) (SG) (PI)
                 (PI) (PI) (PI) (SG) (SG) (SG) (SG) (SG) (PI) (PI)
                 (SG) (PI) (PI) (PI) (PI) (SG) (SG) (SG) (SG) (SG)
                 (PI) (PI) (SG) (PI) (PI) (PI) (PI) (SG) (SG) (SG)
                 (SG) (SG) (PI) (PI) (SG) (PI) (PI) (PI) (PI) (SG)
                 (SG) (SG) (PI) (PI) (SG) (SG) (SG) (PI) (PI) (PI)
                 (PI) (SG) (SG) (SG) (PI) (PI) (SG) (SG) (PI) (PI)
                 (SG) (SG) (PI) (PI) (SG) (SG) (PI) (PI) (SG)
 Beta  Orbitals:
       Occupied  (SG) (SG) (SG) (SG) (SG) (PI) (PI) (SG) (SG) (SG)
                 (PI) (PI) (SG)
       Virtual   (PI) (PI) (SG) (PI) (PI) (SG) (SG) (PI) (PI) (PI)
                 (PI) (DLTA) (DLTA) (SG) (PI) (PI) (DLTA) (DLTA)
                 (SG) (SG) (PI) (PI) (DLTA) (DLTA) (SG) (SG) (DLTA)
                 (DLTA) (PI) (PI) (PI) (PI) (SG) (PI) (PI) (DLTA)
                 (DLTA) (SG) (PI) (PI) (SG) (PI) (PI) (SG) (DLTA)
                 (DLTA) (PI) (PI) (SG) (PI) (PI) (DLTA) (DLTA)
                 (SG) (PI) (PI) (SG) (DLTA) (DLTA) (SG) (SG) (PI)
                 (PI) (PI) (PI) (SG) (DLTA) (DLTA) (PI) (PI) (PI)
                 (PI) (SG) (SG) (SG) (PI) (PI) (DLTA) (DLTA) (SG)
                 (PI) (PI) (SG) (PI) (PI) (DLTA) (DLTA) (SG) (SG)
                 (SG) (PI) (PI) (DLTA) (DLTA) (SG) (PI) (PI) (PI)
                 (PI) (SG) (SG) (PI) (PI) (DLTA) (DLTA) (SG) (PI)
                 (PI) (SG) (PI) (PI) (SG) (SG) (DLTA) (DLTA) (PI)
                 (PI) (DLTA) (DLTA) (SG) (SG) (PI) (PI) (SG) (SG)
                 (PI) (PI) (PI) (PI) (SG) (DLTA) (DLTA) (PI) (PI)
                 (SG) (SG) (PI) (PI) (SG) (SG) (DLTA) (DLTA) (PI)
                 (PI) (DLTA) (DLTA) (SG) (PI) (PI) (SG) (SG) (SG)
                 (SG) (PI) (PI) (PI) (PI) (DLTA) (DLTA) (PI) (PI)
                 (SG) (SG) (SG) (DLTA) (DLTA) (PI) (PI) (DLTA)
                 (DLTA) (PI) (PI) (SG) (PI) (PI) (SG) (SG) (SG)
                 (SG) (PI) (PI) (SG) (PI) (PI) (SG) (DLTA) (DLTA)
                 (PI) (PI) (SG) (DLTA) (DLTA) (PI) (PI) (DLTA)
                 (DLTA) (SG) (PI) (PI) (SG) (PI) (PI) (SG) (SG)
                 (SG) (SG) (PI) (PI) (PI) (PI) (SG) (SG) (DLTA)
                 (DLTA) (PI) (PI) (SG) (SG) (DLTA) (DLTA) (PI)
                 (PI) (DLTA) (DLTA) (PI) (PI) (SG) (SG) (SG) (PI)
                 (PI) (SG) (PI) (PI) (PI) (PI) (SG) (SG) (DLTA)
                 (DLTA) (PI) (PI) (SG) (SG) (SG) (DLTA) (DLTA)
                 (PI) (PI) (DLTA) (DLTA) (PI) (PI) (SG) (SG) (SG)
                 (PI) (PI) (SG) (PI) (PI) (PI) (PI) (SG) (SG) (DLTA)
                 (DLTA) (PI) (PI) (SG) (DLTA) (DLTA) (SG) (DLTA)
                 (DLTA) (PI) (PI) (PI) (PI) (SG) (SG) (SG) (SG)
                 (PI) (PI) (SG) (PI) (PI) (PI) (PI) (SG) (SG) (DLTA)
                 (DLTA) (PI) (PI) (SG) (DLTA) (DLTA) (SG) (DLTA)
                 (DLTA) (PI) (PI) (PI) (PI) (SG) (SG) (SG) (SG)
                 (PI) (PI) (SG) (PI) (PI) (PI) (PI) (SG) (SG) (DLTA)
                 (DLTA) (PI) (PI) (SG) (DLTA) (DLTA) (DLTA) (DLTA)
                 (SG) (PI) (PI) (PI) (PI) (SG) (SG) (SG) (SG) (PI)
                 (PI) (SG) (PI) (PI) (PI) (PI) (SG) (SG) (DLTA)
                 (DLTA) (PI) (PI) (SG) (DLTA) (DLTA) (DLTA) (DLTA)
                 (SG) (PI) (PI) (PI) (PI) (SG) (SG) (SG) (SG) (PI)
                 (PI) (SG) (PI) (PI) (PI) (PI) (SG) (SG) (DLTA)
                 (DLTA) (PI) (PI) (SG) (DLTA) (DLTA) (DLTA) (DLTA)
                 (SG) (PI) (PI) (PI) (PI) (SG) (SG) (SG) (SG) (PI)
                 (PI) (SG) (PI) (PI) (PI) (PI) (SG) (SG) (DLTA)
                 (DLTA) (PI) (PI) (SG) (SG) (SG) (SG) (PI) (PI)
                 (SG) (PI) (PI) (PI) (PI) (SG) (SG) (DLTA) (DLTA)
                 (PI) (PI) (SG) (SG) (SG) (SG) (PI) (PI) (SG) (PI)
                 (PI) (PI) (PI) (SG) (SG) (DLTA) (DLTA) (PI) (PI)
                 (SG) (SG) (SG) (SG) (PI) (PI) (SG) (PI) (PI) (PI)
                 (PI) (SG) (SG) (DLTA) (DLTA) (PI) (PI) (SG) (SG)
                 (SG) (SG) (PI) (PI) (SG) (PI) (PI) (PI) (PI) (SG)
                 (SG) (SG) (SG) (SG) (PI) (PI) (SG) (PI) (PI) (PI)
                 (PI) (SG) (SG) (SG) (SG) (SG) (PI) (PI) (SG) (PI)
                 (PI) (PI) (PI) (SG) (SG) (SG) (SG) (SG) (PI) (PI)
                 (SG) (PI) (PI) (PI) (PI) (SG) (SG) (SG) (PI) (PI)
                 (SG) (SG) (SG) (PI) (PI) (PI) (PI) (SG) (SG) (SG)
                 (PI) (PI) (SG) (SG) (PI) (PI) (SG) (SG) (PI) (PI)
                 (SG) (SG) (PI) (PI) (SG)
 The electronic state of the initial guess is 3-SG.
 Initial guess <Sx>= 0.0000 <Sy>= 0.0000 <Sz>= 1.0000 <S**2>= 2.0000 S= 1.0000
 Leave Link  401 at Sat Jul 27 10:11:17 2013, MaxMem=  536870912 cpu:      23.9
 (Enter /share/apps/gaussian/gdvh12/gdv/l502.exe)
 UHF open shell SCF:
 Using DIIS extrapolation, IDIIS=  1040.
 Integral symmetry usage will be decided dynamically.
       733869 words used for storage of precomputed grid.
 IVT=     1822574 IEndB=     1822574 NGot=   536870912 MDV=   535419599
 LenX=   535419599 LenY=   535064979
 Requested convergence on RMS density matrix=1.00D-08 within 128 cycles.
 Requested convergence on MAX density matrix=1.00D-06.
 Requested convergence on             energy=1.00D-06.
 No special actions if energy rises.
 Fock matrices will be formed incrementally for  20 cycles.

 Cycle   1  Pass 1  IDiag  1:
 FoFJK:  IHMeth= 1 ICntrl=       0 DoSepK=F KAlg= 0 I1Cent=   0 FoldK=F
 IRaf=       0 NMat=   1 IRICut=       1 DoRegI=T DoRafI=F ISym2E= 1.
 FoFCou: FMM=F IPFlag=           0 FMFlag=      100000 FMFlg1=           0
         NFxFlg=           0 DoJE=F BraDBF=F KetDBF=F FulRan=T
         wScrn=  0.000000 ICntrl=       0 IOpCl=  1 I1Cent=           0 NGrid=           0
         NMat0=    1 NMatS0=      1 NMatT0=    0 NMatD0=    1 NMtDS0=    0 NMtDT0=    0
 Petite list used in FoFCou.
 E= -473.739016531066    
 DIIS: error= 9.45D-02 at cycle   1 NSaved=   1.
 NSaved= 1 IEnMin= 1 EnMin= -473.739016531066     IErMin= 1 ErrMin= 9.45D-02
 ErrMax= 9.45D-02  0.00D+00 EMaxC= 1.00D-01 BMatC= 1.01D+01 BMatP= 1.01D+01
 IDIUse=3 WtCom= 5.52D-02 WtEn= 9.45D-01
 Coeff-Com:  0.100D+01
 Coeff-En:   0.100D+01
 Coeff:      0.100D+01
 Gap=     0.127 Goal=   None    Shift=    0.000
 Gap=     0.000 Goal=   None    Shift=    0.000
 GapD=    0.000 DampG=0.250 DampE=0.500 DampFc=0.2500 IDamp=-1.
 Damping current iteration by 2.50D-01
 RMSDP=3.18D-03 MaxDP=3.41D-01              OVMax= 7.90D-01

 Cycle   2  Pass 1  IDiag  1:
 RMSU=  7.27D-04    CP:  9.35D-01
 E= -473.806636654196     Delta-E=       -0.067620123130 Rises=F Damp=T
 DIIS: error= 6.84D-02 at cycle   2 NSaved=   2.
 NSaved= 2 IEnMin= 2 EnMin= -473.806636654196     IErMin= 2 ErrMin= 6.84D-02
 ErrMax= 6.84D-02  0.00D+00 EMaxC= 1.00D-01 BMatC= 4.71D+00 BMatP= 1.01D+01
 IDIUse=3 WtCom= 3.16D-01 WtEn= 6.84D-01
 Coeff-Com: -0.124D+01 0.224D+01
 Coeff-En:   0.341D+00 0.659D+00
 Coeff:     -0.158D+00 0.116D+01
 Gap=    -0.087 Goal=   None    Shift=    0.000
 Gap=     0.025 Goal=   None    Shift=    0.000
 RMSDP=1.56D-03 MaxDP=3.77D-01 DE=-6.76D-02 OVMax= 7.81D-01

 Cycle   3  Pass 1  IDiag  1:
 RMSU=  1.20D-03    CP:  7.48D-01  5.46D-01
 E= -473.869671555661     Delta-E=       -0.063034901465 Rises=F Damp=F
 DIIS: error= 7.60D-02 at cycle   3 NSaved=   3.
 NSaved= 3 IEnMin= 3 EnMin= -473.869671555661     IErMin= 2 ErrMin= 6.84D-02
 ErrMax= 7.60D-02  0.00D+00 EMaxC= 1.00D-01 BMatC= 8.22D-01 BMatP= 4.71D+00
 IDIUse=3 WtCom= 2.40D-01 WtEn= 7.60D-01
 Coeff-Com: -0.568D+00 0.901D+00 0.667D+00
 Coeff-En:   0.000D+00 0.372D+00 0.628D+00
 Coeff:     -0.136D+00 0.499D+00 0.637D+00
 Gap=     0.219 Goal=   None    Shift=    0.000
 Gap=     0.016 Goal=   None    Shift=    0.000
 RMSDP=1.31D-03 MaxDP=1.58D-01 DE=-6.30D-02 OVMax= 4.62D-01

 Cycle   4  Pass 1  IDiag  1:
 RMSU=  9.23D-04    CP:  7.22D-01  1.49D+00  4.93D-01
 E= -473.532528007913     Delta-E=        0.337143547749 Rises=F Damp=F
 DIIS: error= 6.55D-02 at cycle   4 NSaved=   4.
 NSaved= 4 IEnMin= 3 EnMin= -473.869671555661     IErMin= 4 ErrMin= 6.55D-02
 ErrMax= 6.55D-02  0.00D+00 EMaxC= 1.00D-01 BMatC= 1.44D+00 BMatP= 8.22D-01
 IDIUse=2 WtCom= 0.00D+00 WtEn= 1.00D+00
 Coeff-En:   0.000D+00 0.000D+00 0.650D+00 0.350D+00
 Coeff:      0.000D+00 0.000D+00 0.650D+00 0.350D+00
 Gap=     0.284 Goal=   None    Shift=    0.000
 DSYEVD returned Info=       45910 IAlg= 4 N=   246 NDim=   545 NE2=      981769 trying DSYEV.
 Gap=     0.021 Goal=   None    Shift=    0.000
 RMSDP=1.02D-03 MaxDP=9.25D-02 DE= 3.37D-01 OVMax= 2.13D-01

 Cycle   5  Pass 1  IDiag  1:
 RMSU=  6.33D-04    CP:  7.10D-01  7.21D-01  6.28D-01  3.98D-01
 E= -474.101521865848     Delta-E=       -0.568993857936 Rises=F Damp=F
 DIIS: error= 7.63D-03 at cycle   5 NSaved=   5.
 NSaved= 5 IEnMin= 5 EnMin= -474.101521865848     IErMin= 5 ErrMin= 7.63D-03
 ErrMax= 7.63D-03  0.00D+00 EMaxC= 1.00D-01 BMatC= 2.91D-02 BMatP= 8.22D-01
 IDIUse=3 WtCom= 9.24D-01 WtEn= 7.63D-02
 Coeff-Com: -0.771D-01 0.105D+00 0.166D+00 0.102D-01 0.796D+00
 Coeff-En:   0.000D+00 0.000D+00 0.000D+00 0.000D+00 0.100D+01
 Coeff:     -0.712D-01 0.967D-01 0.154D+00 0.945D-02 0.811D+00
 Gap=     0.302 Goal=   None    Shift=    0.000
 Gap=     0.100 Goal=   None    Shift=    0.000
 RMSDP=3.37D-04 MaxDP=4.94D-02 DE=-5.69D-01 OVMax= 4.32D-02

 Cycle   6  Pass 1  IDiag  1:
 RMSU=  2.87D-04    CP:  7.31D-01  6.69D-01  5.25D-01  3.93D-01  1.09D+00
 E= -474.107044751674     Delta-E=       -0.005522885826 Rises=F Damp=F
 DIIS: error= 4.91D-03 at cycle   6 NSaved=   6.
 NSaved= 6 IEnMin= 6 EnMin= -474.107044751674     IErMin= 6 ErrMin= 4.91D-03
 ErrMax= 4.91D-03  0.00D+00 EMaxC= 1.00D-01 BMatC= 2.29D-03 BMatP= 2.91D-02
 IDIUse=3 WtCom= 9.51D-01 WtEn= 4.91D-02
 Coeff-Com: -0.438D-01 0.599D-01 0.937D-02-0.145D-01 0.153D+00 0.836D+00
 Coeff-En:   0.000D+00 0.000D+00 0.000D+00 0.000D+00 0.000D+00 0.100D+01
 Coeff:     -0.417D-01 0.570D-01 0.891D-02-0.138D-01 0.146D+00 0.844D+00
 Gap=     0.297 Goal=   None    Shift=    0.000
 Gap=     0.112 Goal=   None    Shift=    0.000
 RMSDP=2.17D-04 MaxDP=3.61D-02 DE=-5.52D-03 OVMax= 4.07D-02

 Cycle   7  Pass 1  IDiag  1:
 RMSU=  9.59D-05    CP:  7.05D-01  7.03D-01  4.90D-01  4.32D-01  1.26D+00
                    CP:  1.28D+00
 E= -474.107732632482     Delta-E=       -0.000687880808 Rises=F Damp=F
 DIIS: error= 1.80D-03 at cycle   7 NSaved=   7.
 NSaved= 7 IEnMin= 7 EnMin= -474.107732632482     IErMin= 7 ErrMin= 1.80D-03
 ErrMax= 1.80D-03  0.00D+00 EMaxC= 1.00D-01 BMatC= 1.43D-03 BMatP= 2.29D-03
 IDIUse=3 WtCom= 9.82D-01 WtEn= 1.80D-02
 Coeff-Com:  0.132D-01-0.186D-01-0.198D-01 0.243D-02-0.246D-01 0.447D+00
 Coeff-Com:  0.600D+00
 Coeff-En:   0.000D+00 0.000D+00 0.000D+00 0.000D+00 0.000D+00 0.191D+00
 Coeff-En:   0.809D+00
 Coeff:      0.130D-01-0.182D-01-0.195D-01 0.238D-02-0.241D-01 0.443D+00
 Coeff:      0.604D+00
 Gap=     0.300 Goal=   None    Shift=    0.000
 DSYEVD returned Info=       53598 IAlg= 4 N=   246 NDim=   545 NE2=      981769 trying DSYEV.
 Gap=     0.115 Goal=   None    Shift=    0.000
 RMSDP=1.04D-04 MaxDP=1.27D-02 DE=-6.88D-04 OVMax= 1.10D-02

 Cycle   8  Pass 1  IDiag  1:
 RMSU=  4.86D-05    CP:  7.08D-01  6.78D-01  4.52D-01  4.44D-01  1.33D+00
                    CP:  1.47D+00  1.24D+00
 E= -474.108143935087     Delta-E=       -0.000411302605 Rises=F Damp=F
 DIIS: error= 3.76D-04 at cycle   8 NSaved=   8.
 NSaved= 8 IEnMin= 8 EnMin= -474.108143935087     IErMin= 8 ErrMin= 3.76D-04
 ErrMax= 3.76D-04  0.00D+00 EMaxC= 1.00D-01 BMatC= 4.53D-05 BMatP= 1.43D-03
 IDIUse=3 WtCom= 9.96D-01 WtEn= 3.76D-03
 Coeff-Com:  0.501D-02-0.657D-02-0.296D-02-0.629D-03-0.340D-01-0.296D-01
 Coeff-Com:  0.664D-01 0.100D+01
 Coeff-En:   0.000D+00 0.000D+00 0.000D+00 0.000D+00 0.000D+00 0.000D+00
 Coeff-En:   0.000D+00 0.100D+01
 Coeff:      0.499D-02-0.654D-02-0.295D-02-0.626D-03-0.339D-01-0.295D-01
 Coeff:      0.661D-01 0.100D+01
 Gap=     0.300 Goal=   None    Shift=    0.000
 Gap=     0.116 Goal=   None    Shift=    0.000
 RMSDP=3.05D-05 MaxDP=4.03D-03 DE=-4.11D-04 OVMax= 8.82D-03

 Cycle   9  Pass 1  IDiag  1:
 RMSU=  1.41D-05    CP:  7.06D-01  6.73D-01  4.46D-01  4.42D-01  1.35D+00
                    CP:  1.52D+00  1.37D+00  1.08D+00
 E= -474.108175041079     Delta-E=       -0.000031105992 Rises=F Damp=F
 DIIS: error= 2.70D-04 at cycle   9 NSaved=   9.
 NSaved= 9 IEnMin= 9 EnMin= -474.108175041079     IErMin= 9 ErrMin= 2.70D-04
 ErrMax= 2.70D-04  0.00D+00 EMaxC= 1.00D-01 BMatC= 1.70D-05 BMatP= 4.53D-05
 IDIUse=3 WtCom= 9.97D-01 WtEn= 2.70D-03
 Coeff-Com:  0.831D-03-0.108D-02 0.202D-02-0.425D-03 0.774D-02-0.152D-01
 Coeff-Com: -0.980D-01-0.565D-03 0.110D+01
 Coeff-En:   0.000D+00 0.000D+00 0.000D+00 0.000D+00 0.000D+00 0.000D+00
 Coeff-En:   0.000D+00 0.000D+00 0.100D+01
 Coeff:      0.829D-03-0.108D-02 0.201D-02-0.424D-03 0.772D-02-0.151D-01
 Coeff:     -0.977D-01-0.563D-03 0.110D+01
 Gap=     0.300 Goal=   None    Shift=    0.000
 Gap=     0.116 Goal=   None    Shift=    0.000
 RMSDP=1.16D-05 MaxDP=2.59D-03 DE=-3.11D-05 OVMax= 2.47D-03

 Cycle  10  Pass 1  IDiag  1:
 RMSU=  5.20D-06    CP:  7.06D-01  6.67D-01  4.51D-01  4.39D-01  1.35D+00
                    CP:  1.52D+00  1.38D+00  1.13D+00  1.37D+00
 E= -474.108183696650     Delta-E=       -0.000008655571 Rises=F Damp=F
 DIIS: error= 9.79D-05 at cycle  10 NSaved=  10.
 NSaved=10 IEnMin=10 EnMin= -474.108183696650     IErMin=10 ErrMin= 9.79D-05
 ErrMax= 9.79D-05  0.00D+00 EMaxC= 1.00D-01 BMatC= 1.03D-06 BMatP= 1.70D-05
 IDIUse=1 WtCom= 1.00D+00 WtEn= 0.00D+00
 Coeff-Com: -0.492D-03 0.650D-03 0.695D-03-0.309D-03 0.473D-02 0.495D-02
 Coeff-Com: -0.156D-01-0.106D+00 0.303D-01 0.108D+01
 Coeff:     -0.492D-03 0.650D-03 0.695D-03-0.309D-03 0.473D-02 0.495D-02
 Coeff:     -0.156D-01-0.106D+00 0.303D-01 0.108D+01
 Gap=     0.300 Goal=   None    Shift=    0.000
 Gap=     0.116 Goal=   None    Shift=    0.000
 RMSDP=6.92D-06 MaxDP=1.25D-03 DE=-8.66D-06 OVMax= 1.22D-03

 Cycle  11  Pass 1  IDiag  1:
 RMSU=  1.07D-06    CP:  7.06D-01  6.65D-01  4.54D-01  4.38D-01  1.34D+00
                    CP:  1.51D+00  1.37D+00  1.11D+00  1.50D+00  1.45D+00
 E= -474.108184701106     Delta-E=       -0.000001004455 Rises=F Damp=F
 DIIS: error= 2.32D-05 at cycle  11 NSaved=  11.
 NSaved=11 IEnMin=11 EnMin= -474.108184701106     IErMin=11 ErrMin= 2.32D-05
 ErrMax= 2.32D-05  0.00D+00 EMaxC= 1.00D-01 BMatC= 9.85D-08 BMatP= 1.03D-06
 IDIUse=1 WtCom= 1.00D+00 WtEn= 0.00D+00
 Coeff-Com: -0.432D-03 0.580D-03-0.681D-04-0.115D-03-0.186D-03 0.293D-02
 Coeff-Com:  0.119D-01-0.112D-01-0.156D+00 0.173D+00 0.980D+00
 Coeff:     -0.432D-03 0.580D-03-0.681D-04-0.115D-03-0.186D-03 0.293D-02
 Coeff:      0.119D-01-0.112D-01-0.156D+00 0.173D+00 0.980D+00
 Gap=     0.300 Goal=   None    Shift=    0.000
 Gap=     0.116 Goal=   None    Shift=    0.000
 RMSDP=2.14D-06 MaxDP=2.49D-04 DE=-1.00D-06 OVMax= 5.14D-04

 Cycle  12  Pass 1  IDiag  1:
 RMSU=  4.57D-07    CP:  7.06D-01  6.65D-01  4.55D-01  4.37D-01  1.34D+00
                    CP:  1.50D+00  1.37D+00  1.11D+00  1.51D+00  1.56D+00
                    CP:  1.64D+00
 E= -474.108184840150     Delta-E=       -0.000000139044 Rises=F Damp=F
 DIIS: error= 1.49D-05 at cycle  12 NSaved=  12.
 NSaved=12 IEnMin=12 EnMin= -474.108184840150     IErMin=12 ErrMin= 1.49D-05
 ErrMax= 1.49D-05  0.00D+00 EMaxC= 1.00D-01 BMatC= 1.68D-08 BMatP= 9.85D-08
 IDIUse=1 WtCom= 1.00D+00 WtEn= 0.00D+00
 Coeff-Com:  0.239D-04-0.315D-04-0.132D-03-0.176D-04-0.280D-03-0.121D-02
 Coeff-Com: -0.817D-03 0.704D-02 0.301D-01-0.140D+00-0.186D+00 0.129D+01
 Coeff:      0.239D-04-0.315D-04-0.132D-03-0.176D-04-0.280D-03-0.121D-02
 Coeff:     -0.817D-03 0.704D-02 0.301D-01-0.140D+00-0.186D+00 0.129D+01
 Gap=     0.300 Goal=   None    Shift=    0.000
 Gap=     0.116 Goal=   None    Shift=    0.000
 RMSDP=6.96D-07 MaxDP=8.26D-05 DE=-1.39D-07 OVMax= 3.13D-04

 Cycle  13  Pass 1  IDiag  1:
 RMSU=  2.80D-07    CP:  7.06D-01  6.65D-01  4.55D-01  4.37D-01  1.34D+00
                    CP:  1.50D+00  1.37D+00  1.11D+00  1.51D+00  1.56D+00
                    CP:  1.95D+00  1.44D+00
 E= -474.108184870435     Delta-E=       -0.000000030285 Rises=F Damp=F
 DIIS: error= 5.26D-06 at cycle  13 NSaved=  13.
 NSaved=13 IEnMin=13 EnMin= -474.108184870435     IErMin=13 ErrMin= 5.26D-06
 ErrMax= 5.26D-06  0.00D+00 EMaxC= 1.00D-01 BMatC= 2.45D-09 BMatP= 1.68D-08
 IDIUse=1 WtCom= 1.00D+00 WtEn= 0.00D+00
 Coeff-Com:  0.117D-04-0.146D-04 0.680D-04-0.166D-05 0.112D-03-0.182D-03
 Coeff-Com: -0.899D-03-0.487D-03 0.959D-02-0.241D-03-0.107D+00-0.925D-01
 Coeff-Com:  0.119D+01
 Coeff:      0.117D-04-0.146D-04 0.680D-04-0.166D-05 0.112D-03-0.182D-03
[...]
   ac=     0.0000   bc=     0.0000   cc=     0.0000
 Isotropic Fermi Contact Couplings [a_f](MHz):
  1  C12        0.0000
  2  C12        0.0000
  3  S32        0.0000
 Nuclear quadrupole coupling constants [Chi] (MHz):
  1  C(12) 
   aa=     0.0000   ba=     0.0000   ca=     0.0000
   ab=     0.0000   bb=     0.0000   cb=     0.0000
   ac=     0.0000   bc=     0.0000   cc=     0.0000
  2  C(12) 
   aa=     0.0000   ba=     0.0000   ca=     0.0000
   ab=     0.0000   bb=     0.0000   cb=     0.0000
   ac=     0.0000   bc=     0.0000   cc=     0.0000
  3  S(32) 
   aa=     0.0000   ba=     0.0000   ca=     0.0000
   ab=     0.0000   bb=     0.0000   cb=     0.0000
   ac=     0.0000   bc=     0.0000   cc=     0.0000
 Dipole moment (Debye):
      0.0000000      3.0676840      0.0000000  Tot=      3.0676840
 Quartic Centrifugal Distortion Constants (MHz)
    (Asymmetrically reduced)          (Symmetrically reduced)
    DELTA N  =    0.000000000         D N  =    0.000000000
    DELTA K  =    0.000000000         D K  =    0.000000000
    DELTA NK =    0.000000000         D NK =    0.000000000
    delta N  =    0.000000000         d 1  =    0.000000000
    delta K  =    0.000000000         d 2  =    0.000000000

 Atoms with significant hyperfine tensors: 

--------------------------------------------------------------------------------
 CCS pre-optimized at apfd/aug-cc-pVTZ                   
   99  1000  50  0.1760E-11  0.1000E+07  0.1000E+01 1.0000000000
a 3  1  0  0  0  1  1   1  0  1  0
     10000   0.00000000E+00    0.0000E+00   /  A  /
     20000   0.64957393E+04    0.0000E+00   /  B  /
     30000   0.64957393E+04    0.0000E+00   /  C  /
       200   0.00000000E+00    0.0000E+00   /  -DELTA N  /
      2000   0.00000000E+00    0.0000E+00   /  -DELTA K  /
      1100   0.00000000E+00    0.0000E+00   /  -DELTA NK  /
     40100   0.00000000E+00    0.0000E+00   /  -delta N  /
     41000   0.00000000E+00    0.0000E+00   /  -delta K  /
--------------------------------------------------------------------------------

 Operation on file out of range.
 FileIO: IOper= 2 IFilNo(1)=  -524 Len=      297570 IPos=           0 Q=   46912497276320


 dumping /fiocom/, unit = 1 NFiles =   102 SizExt =    524288 WInBlk =       512
                   defal = T LstWrd =    49569792 FType=2 FMxFil=10000

 Number              0             0             0             0             0             0
 Base          1707086      14403556        203264        183296       2894848       3156992
 End           1707520      14403584        207872        183808       2896384       3195904
 End1          1707520      14403584        207872        183808       2896384       3195904
 Wr Pntr       1707086      14403556        203264        183296       2894848       3156992
 Rd Pntr       1707086      14403556        203264        183296       2894848       3156992
 Length            434            28          4608           512          1536         38912

 Number              0             0             0             0             0             0
 Base          3045888       3645440       3147264       5731328       1707008      26248704
 End           3142144       3650048       3149312      12611584       1707041      34764800
 End1          3142144       3650048       3149312      12611584       1707041      34764800
 Wr Pntr       3045888       3645440       3147264       5731328       1707008      26248704
 Rd Pntr       3045888       3645440       3147264       5731328       1707008      26248704
 Length          96256          4608          2048       6880256            33       8516096

 Number              0             0             0             0             0           501
 Base          4244992        214528       3142656        181760      35363840         43520
 End           4388864        215552       3143168        182272      49569792         44520
 End1          4388864        215552       3143168        182272      49569792         44544
 Wr Pntr       4244992        214528       3142656        181760      35363840         43520
 Rd Pntr       4244992        214528       3142656        181760      35363840         44520
 Length         143872          1024           512           512      14205952          1000

 Number            502           503           508           511           514           515
 Base            72192        180736        215552        184320       1261568        664064
 End             77116        180752        215582        184337       1410899       1261388
 End1            77312        181248        216064        184832       1411072       1261568
 Wr Pntr         72192        180736        215552        184320       1261568        664064
 Rd Pntr         77116        180752        215582        184337       1261568        664064
 Length           4924            16            30            17        149331        597324

 Number            516           517           518           520           521           522
 Base           216064       2891264       2443264        214016        194048       3149312
 End            664057       2892902       2891257        214026        194083       3150400
 End1           664064       2893312       2891264        214528        194560       3150848
 Wr Pntr        216064       2891264       2443264        214016        194048       3149312
 Rd Pntr        216064       2891264       2443264        214026        194083       3150400
 Length         447993          1638        447993            10            35          1088

 Number            523           524           526           528           530           532
 Base          2893312       3650048       3947520       4388864       4538368       4689920
 End           2894402       3947072       4244544       4538195       4687699       4839251
 End1          2894848       3947520       4244992       4538368       4687872       4839424
 Wr Pntr       2893312       3650048       3947520       4388864       4538368       4689920
 Rd Pntr       2893312       3650048       4244544       4388864       4538368       4689920
 Length           1090        297024        297024        149331        149331        149331

 Number            534           536           538           540           545           547
 Base          3494912       3195904       3345408       1411072       3644928       3153920
 End           3644243       3345235       3494739       1707008       3644956       3155008
 End1          3644416       3345408       3494912       1707008       3645440       3155456
 Wr Pntr       3494912       3195904       3345408       1411072       3644928       3153920
 Rd Pntr       3494912       3345235       3494739       1411072       3644956       3153920
 Length         149331        149331        149331        295936            28          1088

 Number            548           549           551           552           559           561
 Base          4839424      21920768        182784        191488        207872        192512
 End           5433472      22216704        182822        191514        207874        192513
 End1          5433856      22216704        183296        192000        208384        193024
 Wr Pntr       4839424      21920768        182784        191488        207872        192512
 Rd Pntr       5433472      21920768        182822        191514        207872        192513
 Length         594048        295936            38            26             2             1

 Number            562           563           564           565           569           571
 Base           185344       4687872       4688896        211456       3644416       2896384
 End            191434       4688418       4689442        212248       3644418       3045715
 End1           191488       4688896       4689920        212480       3644928       3045888
 Wr Pntr        185344       4687872       4688896        211456       3644416       2896384
 Rd Pntr        191434       4687872       4688896        211456       3644418       2896384
 Length           6090           546           546           792             2        149331

 Number            575           577           579           580           581           582
 Base           183808        210944        192000       3144192       3145728        208896
 End            183972        210996        192012       3145333       3146941        210534
 End1           184320        211456        192512       3145728       3147264        210944
 Wr Pntr        183808        210944        192000       3144192       3145728        208896
 Rd Pntr        183972        210944        192000       3144192       3145728        208896
 Length            164            52            12          1141          1213          1638

 Number            583           584           585           586           588           590
 Base           208384        212480       1707041      14702592      22216704      22664704
 End            208388        212498       1707086      21920427      22664697      26248648
 End1           208896        212992       1707086      21920768      22664704      26248704
 Wr Pntr        208384        212480       1707041      14702592      22216704      22664704
 Rd Pntr        208384        212489       1707086      14702592      22216704      22664704
 Length              4            18            45       7217835        447993       3583944

 Number            592           593           598           603           605           606
 Base         12611584      13507570         77312      14403584       1708032       3150848
 End          13507570      14403556         77314      14702247       1708036       3151936
 End1         13507570      14403556         77824      14702592       1708544       3152384
 Wr Pntr      12611584      13507570         77312      14403584       1708032       3150848
 Rd Pntr      12611584      13507570         77314      14702247       1708036       3150848
 Length         895986        895986             2        298663             4          1088

 Number            607           618           619           634           665           670
 Base          3152384       1707520        212992      34764800        181248        194560
 End           3153472       1707880        213477      35363378        181288        197858
 End1          3153920       1708032        213504      35363840        181760        198144
 Wr Pntr       3152384       1707520        212992      34764800        181248        194560
 Rd Pntr       3153472       1707880        212996      34764800        181288        197858
 Length           1088           360           485        598578            40          3298

 Number            674           685           694           695           698           701
 Base           182272       5433856       3155456        213504        193536        184832
 End            182331       5730880       3156544        213625        193554        184881
 End1           182784       5731328       3156992        214016        194048        185344
 Wr Pntr        182272       5433856       3155456        213504        193536        184832
 Rd Pntr        182331       5433856       3156544        213625        193554        184881
 Length             59        297024          1088           121            18            49

 Number            703           719           742           761           765           773
 Base          3143168        202240       1709056        193024       1708544       3143680
 End           3143193        202975       2442997        193025       1708642       3143806
 End1          3143680        203264       2443264        193536       1709056       3144192
 Wr Pntr       3143168        202240       1709056        193024       1708544       3143680
 Rd Pntr       3143193        202240       1709056        193024       1708642       3143680
 Length             25           735        733941             1            98           126

 Number            776           777           989           991           992           993
 Base          3142144        198144         44544         65536         65024         43008
 End           3142185        202018         64544         72098         65033         43208
 End1          3142656        202240         65024         72192         65536         43520
 Wr Pntr       3142144        198144         44544         65536         65024         43208
 Rd Pntr       3142185        202018         64544         72098         65033         43208
 Length             41          3874         20000          6562             9           200

 Number            994           995           996           997           998           999
 Base            40448         42496         41472         41984         40960         77824
 End             40478         42516         41672         42112         41160        180328
 End1            40960         43008         41984         42496         41472        180736
 Wr Pntr         40448         42496         41472         42112         41160         77824
 Rd Pntr         40478         42516         41672         42112         41160         80328
 Length             30            20           200           128           200        102504


 dumping /fiocom/, unit = 2 NFiles =    55 SizExt =         0 WInBlk =       512
                   defal = F LstWrd =    11048448 FType=2 FMxFil=10000

 Number              0             0             0             0             0             0
 Base          1747841       1573144        976013       1871978        634726       1571567
 End           1871811       1573146        977484       2484101        641440       1572659
 End1          1871811       1573146        977484       2484101        641440       1572659
 Wr Pntr       1747841       1573144        976013       2470556        634726       1571567
 Rd Pntr       1747841       1573144        976013       2470556        634726       1571567
 Length         123970             2          1471        612123          6714          1092

 Number              0             0             0             0             0           501
 Base          1573511       1575732       1573175       1741155       3382436        940102
 End           1575691       1737891       1573223       1743509      11048448        941102
 End1          1575691       1737891       1573223       1743509      11048448        941102
 Wr Pntr       1573511       1737853       1573175       1741155       3382436        941102
 Rd Pntr       1573511       1737853       1573175       1741155       3382436        940102
 Length           2180        162159            48          2354       7666012          1000

 Number            502           503           508           511           520           521
 Base           941102       1871944         40448        949324        975939        977484
 End            946026       1871960         40478        949341        975949        977519
 End1           946026       1871960         40478        949341        975949        977519
 Wr Pntr        946026       1871960         40478        949341        975949        977519
 Rd Pntr        941102       1871944         40448        949324        975939        977484
 Length           4924            16            30            17            10            35

 Number            522           524           526           536           538           545
 Base          1737891        977519       1274543        641440        790771       1573434
 End           1738979       1274543       1571567        790771        940102       1573462
 End1          1738979       1274543       1571567        790771        940102       1573462
 Wr Pntr       1738979       1274543       1571567        790771        940102       1573462
 Rd Pntr       1737891        977519       1274543        641440        790771       1573434
 Length           1088        297024        297024        149331        149331            28

 Number            548           551           552           561           562           569
 Base            40678        975975        975949        969848        969849       1573268
 End            634726        976013        975975        969849        975939       1573270
 End1           634726        976013        975975        969849        975939       1573270
 Wr Pntr        634726        976013        975975        969849        975939       1573270
 Rd Pntr         40678        975975        975949        969848        969849       1573268
 Length         594048            38            26             1          6090             2

 Number            575           584           585           603           605           607
 Base          1573270        949381       1573223       3083773       1573146       1738979
 End           1573434        949399       1573268       3382436       1573150       1740067
 End1          1573434        949399       1573268       3382436       1573150       1740067
 Wr Pntr       1573434        949399       1573268       3382436       1573150       1740067
 Rd Pntr       1573270        949381       1573223       3083773       1573146       1738979
 Length            164            18            45        298663             4          1088

 Number            618           619           665           670           672           674
 Base          1743509       1572659        949341        946026       1871811       1871885
 End           1743869       1573144        949381        949324       1871885       1871944
 End1          1743869       1573144        949381        949324       1871885       1871944
 Wr Pntr       1743869       1573144        949381        949324       1871811       1871944
 Rd Pntr       1743509       1572659        949341        946026       1871811       1871885
 Length            360           485            40          3298            74            59

 Number            694           695           698           701           703           765
 Base          1740067        949399       1871960       1573462       1573150       1743869
 End           1741155        949520       1871978       1573511       1573175       1743967
 End1          1741155        949520       1871978       1573511       1573175       1743967
 Wr Pntr       1741155        949520       1871978       1573511       1573175       1743967
 Rd Pntr       1740067        949399       1871960       1573462       1573150       1743869
 Length           1088           121            18            49            25            98

 Number            776           777           780           989           993           997
 Base          1575691       1743967       2484101        949520        969520        969720
 End           1575732       1747841       3083773        969520        969720        969848
 End1          1575732       1747841       3083773        969520        969720        969848
 Wr Pntr       1575732       1747841       2484101        969520        969720        969848
 Rd Pntr       1575691       1743967       2484101        949520        969520        969720
 Length             41          3874        599672         20000           200           128

 Number            998
 Base            40478
 End             40678
 End1            40678
 Wr Pntr         40678
 Rd Pntr         40478
 Length            200


 dumping /fiocom/, unit = 3 NFiles =     1 SizExt =    524288 WInBlk =       512
                   defal = T LstWrd =       65536 FType=2 FMxFil=10000

 Number              0
 Base            40448
 End             65536
 End1            65536
 Wr Pntr         40448
 Rd Pntr         40448
 Length          25088
 Error termination in NtrErr:
 NtrErr Called from FileIO.
