 Entering Gaussian System, Link 0=gdv
 Initial command:
 /share/apps/gaussian/gdvh12/gdv/l1.exe /localscratch/12992/Gau-29059.inp -scrdir=/localscratch/12992/
 Entering Link 1 = /share/apps/gaussian/gdvh12/gdv/l1.exe PID=     29060.
  
 Copyright (c) 1988,1990,1992,1993,1995,1998,2003,2009,2011,
            Gaussian, Inc.  All Rights Reserved.
  
 This is the private, development version of
 the Gaussian(R) DV system of programs. It is based on
 the Gaussian(R) 09 system (copyright 2009, Gaussian, Inc.),
 the Gaussian(R) 03 system (copyright 2003, Gaussian, Inc.),
 the Gaussian(R) 98 system (copyright 1998, Gaussian, Inc.),
 the Gaussian(R) 94 system (copyright 1995, Gaussian, Inc.),
 the Gaussian 92(TM) system (copyright 1992, Gaussian, Inc.),
 the Gaussian 90(TM) system (copyright 1990, Gaussian, Inc.),
 the Gaussian 88(TM) system (copyright 1988, Gaussian, Inc.),
 the Gaussian 86(TM) system (copyright 1986, Carnegie Mellon
 University), and the Gaussian 82(TM) system (copyright 1983,
 Carnegie Mellon University). Gaussian is a federally registered
 trademark of Gaussian, Inc.
  
 This software contains proprietary and confidential information,
 including trade secrets, belonging to Gaussian, Inc.
  
 This software is provided under written license and may be
 used, copied, transmitted, or stored only in accord with that
 written license.
  
 The following legend is applicable only to US Government
 contracts under FAR:
  
                    RESTRICTED RIGHTS LEGEND
  
 Use, reproduction and disclosure by the US Government is
 subject to restrictions as set forth in subparagraphs (a)
 and (c) of the Commercial Computer Software - Restricted
 Rights clause in FAR 52.227-19.
  
 Gaussian, Inc.
 340 Quinnipiac St., Bldg. 40, Wallingford CT 06492
  
  
 ---------------------------------------------------------------
 Warning -- This program may not be used in any manner that
 competes with the business of Gaussian, Inc. or will provide
 assistance to any competitor of Gaussian, Inc.  The licensee
 of this program is prohibited from giving any competitor of
 Gaussian, Inc. access to this program.  By using this program,
 the user acknowledges that Gaussian, Inc. is engaged in the
 business of creating and licensing software in the field of
 computational chemistry and represents and warrants to the
 licensee that it is not a competitor of Gaussian, Inc. and that
 it will not use this program in any manner prohibited above.
 ---------------------------------------------------------------
  

 Cite this work as:
 Gaussian Development Version, Revision H.12,
 M. J. Frisch, G. W. Trucks, H. B. Schlegel, G. E. Scuseria, 
 M. A. Robb, J. R. Cheeseman, G. Scalmani, V. Barone, B. Mennucci, 
 G. A. Petersson, H. Nakatsuji, M. Caricato, X. Li, H. P. Hratchian, 
 A. F. Izmaylov, J. Bloino, G. Zheng, J. L. Sonnenberg, M. Hada, 
 M. Ehara, K. Toyota, R. Fukuda, J. Hasegawa, M. Ishida, T. Nakajima, 
 Y. Honda, O. Kitao, H. Nakai, T. Vreven, J. A. Montgomery, Jr., 
 J. E. Peralta, F. Ogliaro, M. Bearpark, J. J. Heyd, E. Brothers, 
 K. N. Kudin, V. N. Staroverov, T. Keith, R. Kobayashi, J. Normand, 
 K. Raghavachari, A. Rendell, J. C. Burant, S. S. Iyengar, J. Tomasi, 
 M. Cossi, N. Rega, J. M. Millam, M. Klene, J. E. Knox, J. B. Cross, 
 V. Bakken, C. Adamo, J. Jaramillo, R. Gomperts, R. E. Stratmann, 
 O. Yazyev, A. J. Austin, R. Cammi, C. Pomelli, J. W. Ochterski, 
 R. L. Martin, K. Morokuma, V. G. Zakrzewski, G. A. Voth, 
 P. Salvador, J. J. Dannenberg, S. Dapprich, P. V. Parandekar, 
 N. J. Mayhall, A. D. Daniels, O. Farkas, J. B. Foresman, 
 J. V. Ortiz, J. Cioslowski, and D. J. Fox, 
 Gaussian, Inc., Wallingford CT, 2010.
 
 ******************************************
 Gaussian DV:  EM64L-GDVRevH.12  9-Jun-2011
                30-Jul-2013 
 ******************************************
 %chk=CCS.chk
 %mem=6gb
 %nproc=2
 Will use up to    2 processors via shared memory.
 ----------------------------------------------------------------------
 #p apfd/ugbs1p freq=(vibrot,anharm) int=(acc2e=12,grid=299974) test gf
 print gfinput output=pickett
 ----------------------------------------------------------------------
 1/10=4,30=1,38=21,80=1/1,6,3;
 2/12=2,17=6,18=5,40=1/2;
 3/5=23,7=7,11=2,16=1,24=110,25=1,30=1,71=2,74=-44,75=299974,140=1/1,2,3;
 4/69=2/1;
 5/5=2,38=5,87=12,96=-2,98=1/2;
 8/6=4,10=90,11=11,87=12/1;
 11/6=1,8=1,9=11,15=111,16=1,87=12/1,2,10;
 10/6=1,60=-2,87=12/2;
 6/7=2,8=2,9=2,10=2,28=1/1;
 7/10=1,25=1,70=1,71=2,87=12/1,2,3,16;
 1/38=20,80=1/6(3);
 7/8=1,25=2,44=-1,70=1,71=2,87=12/16,17;
 1/10=4,30=1,38=20,80=1/3;
 99/8=1100,10=1024/99;
 3/5=23,7=7,11=2,16=1,25=1,30=1,71=2,74=-44,75=299974,140=1/1,2,3;
 4/5=5,16=3,69=2/1;
 5/5=2,38=5,87=12,96=-2,98=1/2;
 8/6=4,10=90,11=11,87=12/1;
 11/6=1,8=1,9=11,15=111,16=1,87=12/1,2,10;
 10/6=1,60=-2,87=12/2;
 6/7=2,8=2,9=2,10=2,28=1/1;
 7/7=1,10=1,25=1,70=1,71=1,87=12/1,2,3,16;
 1/38=20,80=1/6(-8);
 7/8=1,25=2,44=-1,70=1,71=1,87=12/16,17;
 1/10=4,30=1,38=20,80=1/3;
 99/8=1100,10=1024/99;
 Leave Link    1 at Tue Jul 30 08:28:43 2013, MaxMem=  805306368 cpu:       0.2
 (Enter /share/apps/gaussian/gdvh12/gdv/l101.exe)
 --------------------------------
 CCS pre-optimized at apfd/ugbs1p
 --------------------------------
 Charge =  0 Multiplicity = 3
 Symbolic Z-Matrix:
 C                    -0.22894   0.        0. 
 C                     1.08331   0.        0. 
 S                     2.64563   0.        0. 
 
 NAtoms=      3 NQM=        0 NQMF=       0 NMMI=      3 NMMIF=      0
                NMic=       0 NMicF=      0.
                    Isotopes and Nuclear Properties:
 (Nuclear quadrupole moments (NQMom) in fm**2, nuclear magnetic moments (NMagM)
  in nuclear magnetons)

  Atom         1           2           3
 IAtWgt=          12          12          32
 AtmWgt=  12.0000000  12.0000000  31.9720718
 NucSpn=           0           0           0
 AtZEff=   0.0000000   0.0000000   0.0000000
 NQMom=    0.0000000   0.0000000   0.0000000
 NMagM=    0.0000000   0.0000000   0.0000000
 AtZNuc=   6.0000000   6.0000000  16.0000000
 Leave Link  101 at Tue Jul 30 08:28:43 2013, MaxMem=  805306368 cpu:       0.3
 (Enter /share/apps/gaussian/gdvh12/gdv/l106.exe)
 NDeriv=   3 NFrqRd=  0 LFDDif=       1
 Numerical evaluation of third derivatives.
 Nuclear step= 0.010000 Angstroms, electric field step= 0.000333 atomic units, NStep=1.
 Leave Link  106 at Tue Jul 30 08:28:43 2013, MaxMem=  805306368 cpu:       0.0
 (Enter /share/apps/gaussian/gdvh12/gdv/l103.exe)

 GradGradGradGradGradGradGradGradGradGradGradGradGradGradGradGradGradGrad
 Berny optimization.
 Initialization pass.
 Trust Radius=3.00D-01 FncErr=1.00D-07 GrdErr=1.00D-07
 Number of steps in this run=      2 maximum allowed number of steps=      2.
 GradGradGradGradGradGradGradGradGradGradGradGradGradGradGradGradGradGrad

 Leave Link  103 at Tue Jul 30 08:28:43 2013, MaxMem=  805306368 cpu:       0.1
 (Enter /share/apps/gaussian/gdvh12/gdv/l202.exe)
                          Input orientation:                          
 ---------------------------------------------------------------------
 Center     Atomic      Atomic             Coordinates (Angstroms)
 Number     Number       Type             X           Y           Z
 ---------------------------------------------------------------------
      1          6           0       -0.228942    0.000000    0.000000
      2          6           0        1.083312    0.000000    0.000000
      3         16           0        2.645630    0.000000    0.000000
 ---------------------------------------------------------------------
                    Distance matrix (angstroms):
                    1          2          3
     1  C    0.000000
     2  C    1.312254   0.000000
     3  S    2.874572   1.562317   0.000000
 Stoichiometry    C2S(3)
 Framework group  C*V[C*(CCS)]
 Deg. of freedom     2
 Full point group                 C*V     NOp   4
 Largest Abelian subgroup         C2V     NOp   4
 Largest concise Abelian subgroup C1      NOp   1
                         Standard orientation:                         
 ---------------------------------------------------------------------
 Center     Atomic      Atomic             Coordinates (Angstroms)
 Number     Number       Type             X           Y           Z
 ---------------------------------------------------------------------
      1          6           0        0.000000    0.000000   -1.923810
      2          6           0        0.000000    0.000000   -0.611555
      3         16           0        0.000000    0.000000    0.950762
 ---------------------------------------------------------------------
 Rotational constants (GHZ):      0.0000000      6.4957393      6.4957393
 Leave Link  202 at Tue Jul 30 08:28:43 2013, MaxMem=  805306368 cpu:       0.0
 (Enter /share/apps/gaussian/gdvh12/gdv/l301.exe)
 Standard basis: UGBS1P (5D, 7F)
 Ernie: Thresh=  0.10000D-02 Tol=  0.10000D-05 Strict=F.
 AO basis set in the form of general basis input (Overlap normalization):
      1 0
 S   1 1.00       0.000000000000
      0.2019953588D+06  0.1000000000D+01
 S   1 1.00       0.000000000000
      0.1031562389D+06  0.1000000000D+01
 S   1 1.00       0.000000000000
      0.5268046591D+05  0.1000000000D+01
 S   1 1.00       0.000000000000
      0.2690318607D+05  0.1000000000D+01
 S   1 1.00       0.000000000000
      0.1373908542D+05  0.1000000000D+01
 S   1 1.00       0.000000000000
      0.7016361094D+04  0.1000000000D+01
 S   1 1.00       0.000000000000
      0.3583158668D+04  0.1000000000D+01
 S   1 1.00       0.000000000000
      0.1829869625D+04  0.1000000000D+01
 S   1 1.00       0.000000000000
      0.9344891347D+03  0.1000000000D+01
 S   1 1.00       0.000000000000
      0.4772306896D+03  0.1000000000D+01
 S   1 1.00       0.000000000000
      0.2437151195D+03  0.1000000000D+01
 S   1 1.00       0.000000000000
      0.1244619442D+03  0.1000000000D+01
 S   1 1.00       0.000000000000
      0.6356099525D+02  0.1000000000D+01
 S   1 1.00       0.000000000000
      0.3245972208D+02  0.1000000000D+01
 S   1 1.00       0.000000000000
      0.1657673158D+02  0.1000000000D+01
 S   1 1.00       0.000000000000
      0.8465507783D+01  0.1000000000D+01
 S   1 1.00       0.000000000000
      0.4323217860D+01  0.1000000000D+01
 S   1 1.00       0.000000000000
      0.2207807629D+01  0.1000000000D+01
 S   1 1.00       0.000000000000
      0.1127496852D+01  0.1000000000D+01
 S   1 1.00       0.000000000000
      0.5757970639D+00  0.1000000000D+01
 S   1 1.00       0.000000000000
      0.2940516050D+00  0.1000000000D+01
 S   1 1.00       0.000000000000
      0.1501680918D+00  0.1000000000D+01
 S   1 1.00       0.000000000000
      0.7668876969D-01  0.1000000000D+01
 P   1 1.00       0.000000000000
      0.2019953588D+06  0.1000000000D+01
 P   1 1.00       0.000000000000
      0.1031562389D+06  0.1000000000D+01
 P   1 1.00       0.000000000000
      0.5268046591D+05  0.1000000000D+01
 P   1 1.00       0.000000000000
      0.2690318607D+05  0.1000000000D+01
 P   1 1.00       0.000000000000
      0.1373908542D+05  0.1000000000D+01
 P   1 1.00       0.000000000000
      0.7016361094D+04  0.1000000000D+01
 P   1 1.00       0.000000000000
      0.3583158668D+04  0.1000000000D+01
 P   1 1.00       0.000000000000
      0.1829869625D+04  0.1000000000D+01
 P   1 1.00       0.000000000000
      0.9344891347D+03  0.1000000000D+01
 P   1 1.00       0.000000000000
      0.4772306896D+03  0.1000000000D+01
 P   1 1.00       0.000000000000
      0.2437151195D+03  0.1000000000D+01
 P   1 1.00       0.000000000000
      0.1244619442D+03  0.1000000000D+01
 P   1 1.00       0.000000000000
      0.6356099525D+02  0.1000000000D+01
 P   1 1.00       0.000000000000
      0.3245972208D+02  0.1000000000D+01
 P   1 1.00       0.000000000000
      0.1657673158D+02  0.1000000000D+01
 P   1 1.00       0.000000000000
      0.8465507783D+01  0.1000000000D+01
 P   1 1.00       0.000000000000
      0.4323217860D+01  0.1000000000D+01
 P   1 1.00       0.000000000000
      0.2207807629D+01  0.1000000000D+01
 P   1 1.00       0.000000000000
      0.1127496852D+01  0.1000000000D+01
 P   1 1.00       0.000000000000
      0.5757970639D+00  0.1000000000D+01
 P   1 1.00       0.000000000000
      0.2940516050D+00  0.1000000000D+01
 P   1 1.00       0.000000000000
      0.1501680918D+00  0.1000000000D+01
 P   1 1.00       0.000000000000
      0.7668876969D-01  0.1000000000D+01
 P   1 1.00       0.000000000000
      0.3916389510D-01  0.1000000000D+01
 D   1 1.00       0.000000000000
      0.4772306896D+03  0.1000000000D+01
 D   1 1.00       0.000000000000
      0.2437151195D+03  0.1000000000D+01
 D   1 1.00       0.000000000000
      0.1244619442D+03  0.1000000000D+01
 D   1 1.00       0.000000000000
      0.6356099525D+02  0.1000000000D+01
 D   1 1.00       0.000000000000
      0.3245972208D+02  0.1000000000D+01
 D   1 1.00       0.000000000000
      0.1657673158D+02  0.1000000000D+01
 D   1 1.00       0.000000000000
      0.8465507783D+01  0.1000000000D+01
 D   1 1.00       0.000000000000
      0.4323217860D+01  0.1000000000D+01
 D   1 1.00       0.000000000000
      0.2207807629D+01  0.1000000000D+01
 D   1 1.00       0.000000000000
      0.1127496852D+01  0.1000000000D+01
 D   1 1.00       0.000000000000
      0.5757970639D+00  0.1000000000D+01
 D   1 1.00       0.000000000000
      0.2940516050D+00  0.1000000000D+01
 D   1 1.00       0.000000000000
      0.1501680918D+00  0.1000000000D+01
 D   1 1.00       0.000000000000
      0.7668876969D-01  0.1000000000D+01
 D   1 1.00       0.000000000000
      0.3916389510D-01  0.1000000000D+01
 ****
      2 0
 S   1 1.00       0.000000000000
      0.2019953588D+06  0.1000000000D+01
 S   1 1.00       0.000000000000
      0.1031562389D+06  0.1000000000D+01
 S   1 1.00       0.000000000000
      0.5268046591D+05  0.1000000000D+01
 S   1 1.00       0.000000000000
      0.2690318607D+05  0.1000000000D+01
 S   1 1.00       0.000000000000
      0.1373908542D+05  0.1000000000D+01
 S   1 1.00       0.000000000000
      0.7016361094D+04  0.1000000000D+01
 S   1 1.00       0.000000000000
      0.3583158668D+04  0.1000000000D+01
 S   1 1.00       0.000000000000
      0.1829869625D+04  0.1000000000D+01
 S   1 1.00       0.000000000000
      0.9344891347D+03  0.1000000000D+01
 S   1 1.00       0.000000000000
      0.4772306896D+03  0.1000000000D+01
 S   1 1.00       0.000000000000
      0.2437151195D+03  0.1000000000D+01
 S   1 1.00       0.000000000000
      0.1244619442D+03  0.1000000000D+01
 S   1 1.00       0.000000000000
      0.6356099525D+02  0.1000000000D+01
 S   1 1.00       0.000000000000
      0.3245972208D+02  0.1000000000D+01
 S   1 1.00       0.000000000000
      0.1657673158D+02  0.1000000000D+01
 S   1 1.00       0.000000000000
      0.8465507783D+01  0.1000000000D+01
 S   1 1.00       0.000000000000
      0.4323217860D+01  0.1000000000D+01
 S   1 1.00       0.000000000000
      0.2207807629D+01  0.1000000000D+01
 S   1 1.00       0.000000000000
      0.1127496852D+01  0.1000000000D+01
 S   1 1.00       0.000000000000
      0.5757970639D+00  0.1000000000D+01
 S   1 1.00       0.000000000000
      0.2940516050D+00  0.1000000000D+01
 S   1 1.00       0.000000000000
      0.1501680918D+00  0.1000000000D+01
 S   1 1.00       0.000000000000
      0.7668876969D-01  0.1000000000D+01
 P   1 1.00       0.000000000000
      0.2019953588D+06  0.1000000000D+01
 P   1 1.00       0.000000000000
      0.1031562389D+06  0.1000000000D+01
 P   1 1.00       0.000000000000
      0.5268046591D+05  0.1000000000D+01
 P   1 1.00       0.000000000000
      0.2690318607D+05  0.1000000000D+01
 P   1 1.00       0.000000000000
      0.1373908542D+05  0.1000000000D+01
 P   1 1.00       0.000000000000
      0.7016361094D+04  0.1000000000D+01
 P   1 1.00       0.000000000000
      0.3583158668D+04  0.1000000000D+01
 P   1 1.00       0.000000000000
      0.1829869625D+04  0.1000000000D+01
 P   1 1.00       0.000000000000
      0.9344891347D+03  0.1000000000D+01
 P   1 1.00       0.000000000000
      0.4772306896D+03  0.1000000000D+01
 P   1 1.00       0.000000000000
      0.2437151195D+03  0.1000000000D+01
 P   1 1.00       0.000000000000
      0.1244619442D+03  0.1000000000D+01
 P   1 1.00       0.000000000000
      0.6356099525D+02  0.1000000000D+01
 P   1 1.00       0.000000000000
      0.3245972208D+02  0.1000000000D+01
 P   1 1.00       0.000000000000
      0.1657673158D+02  0.1000000000D+01
 P   1 1.00       0.000000000000
      0.8465507783D+01  0.1000000000D+01
 P   1 1.00       0.000000000000
      0.4323217860D+01  0.1000000000D+01
 P   1 1.00       0.000000000000
      0.2207807629D+01  0.1000000000D+01
 P   1 1.00       0.000000000000
      0.1127496852D+01  0.1000000000D+01
 P   1 1.00       0.000000000000
      0.5757970639D+00  0.1000000000D+01
 P   1 1.00       0.000000000000
      0.2940516050D+00  0.1000000000D+01
 P   1 1.00       0.000000000000
      0.1501680918D+00  0.1000000000D+01
 P   1 1.00       0.000000000000
      0.7668876969D-01  0.1000000000D+01
 P   1 1.00       0.000000000000
      0.3916389510D-01  0.1000000000D+01
 D   1 1.00       0.000000000000
      0.4772306896D+03  0.1000000000D+01
 D   1 1.00       0.000000000000
      0.2437151195D+03  0.1000000000D+01
 D   1 1.00       0.000000000000
      0.1244619442D+03  0.1000000000D+01
 D   1 1.00       0.000000000000
      0.6356099525D+02  0.1000000000D+01
 D   1 1.00       0.000000000000
      0.3245972208D+02  0.1000000000D+01
 D   1 1.00       0.000000000000
      0.1657673158D+02  0.1000000000D+01
 D   1 1.00       0.000000000000
      0.8465507783D+01  0.1000000000D+01
 D   1 1.00       0.000000000000
      0.4323217860D+01  0.1000000000D+01
 D   1 1.00       0.000000000000
      0.2207807629D+01  0.1000000000D+01
 D   1 1.00       0.000000000000
      0.1127496852D+01  0.1000000000D+01
 D   1 1.00       0.000000000000
      0.5757970639D+00  0.1000000000D+01
 D   1 1.00       0.000000000000
      0.2940516050D+00  0.1000000000D+01
 D   1 1.00       0.000000000000
      0.1501680918D+00  0.1000000000D+01
 D   1 1.00       0.000000000000
      0.7668876969D-01  0.1000000000D+01
 D   1 1.00       0.000000000000
      0.3916389510D-01  0.1000000000D+01
 ****
      3 0
 S   1 1.00       0.000000000000
      0.2969784651D+07  0.1000000000D+01
 S   1 1.00       0.000000000000
      0.1516627989D+07  0.1000000000D+01
 S   1 1.00       0.000000000000
      0.7745209592D+06  0.1000000000D+01
 S   1 1.00       0.000000000000
      0.3955371526D+06  0.1000000000D+01
 S   1 1.00       0.000000000000
      0.2019953588D+06  0.1000000000D+01
 S   1 1.00       0.000000000000
      0.1031562389D+06  0.1000000000D+01
 S   1 1.00       0.000000000000
      0.5268046591D+05  0.1000000000D+01
 S   1 1.00       0.000000000000
      0.2690318607D+05  0.1000000000D+01
 S   1 1.00       0.000000000000
      0.1373908542D+05  0.1000000000D+01
 S   1 1.00       0.000000000000
      0.7016361094D+04  0.1000000000D+01
 S   1 1.00       0.000000000000
      0.3583158668D+04  0.1000000000D+01
 S   1 1.00       0.000000000000
      0.1829869625D+04  0.1000000000D+01
 S   1 1.00       0.000000000000
      0.9344891347D+03  0.1000000000D+01
 S   1 1.00       0.000000000000
      0.4772306896D+03  0.1000000000D+01
 S   1 1.00       0.000000000000
      0.2437151195D+03  0.1000000000D+01
 S   1 1.00       0.000000000000
      0.1244619442D+03  0.1000000000D+01
 S   1 1.00       0.000000000000
      0.6356099525D+02  0.1000000000D+01
 S   1 1.00       0.000000000000
      0.3245972208D+02  0.1000000000D+01
 S   1 1.00       0.000000000000
      0.1657673158D+02  0.1000000000D+01
 S   1 1.00       0.000000000000
      0.8465507783D+01  0.1000000000D+01
 S   1 1.00       0.000000000000
      0.4323217860D+01  0.1000000000D+01
 S   1 1.00       0.000000000000
      0.2207807629D+01  0.1000000000D+01
 S   1 1.00       0.000000000000
      0.1127496852D+01  0.1000000000D+01
 S   1 1.00       0.000000000000
      0.5757970639D+00  0.1000000000D+01
 S   1 1.00       0.000000000000
      0.2940516050D+00  0.1000000000D+01
 S   1 1.00       0.000000000000
      0.1501680918D+00  0.1000000000D+01
 S   1 1.00       0.000000000000
      0.7668876969D-01  0.1000000000D+01
 P   1 1.00       0.000000000000
      0.2969784651D+07  0.1000000000D+01
 P   1 1.00       0.000000000000
      0.1516627989D+07  0.1000000000D+01
 P   1 1.00       0.000000000000
      0.7745209592D+06  0.1000000000D+01
 P   1 1.00       0.000000000000
      0.3955371526D+06  0.1000000000D+01
 P   1 1.00       0.000000000000
      0.2019953588D+06  0.1000000000D+01
 P   1 1.00       0.000000000000
      0.1031562389D+06  0.1000000000D+01
 P   1 1.00       0.000000000000
      0.5268046591D+05  0.1000000000D+01
 P   1 1.00       0.000000000000
      0.2690318607D+05  0.1000000000D+01
 P   1 1.00       0.000000000000
      0.1373908542D+05  0.1000000000D+01
 P   1 1.00       0.000000000000
      0.7016361094D+04  0.1000000000D+01
 P   1 1.00       0.000000000000
      0.3583158668D+04  0.1000000000D+01
 P   1 1.00       0.000000000000
      0.1829869625D+04  0.1000000000D+01
 P   1 1.00       0.000000000000
      0.9344891347D+03  0.1000000000D+01
 P   1 1.00       0.000000000000
      0.4772306896D+03  0.1000000000D+01
 P   1 1.00       0.000000000000
      0.2437151195D+03  0.1000000000D+01
 P   1 1.00       0.000000000000
      0.1244619442D+03  0.1000000000D+01
 P   1 1.00       0.000000000000
      0.6356099525D+02  0.1000000000D+01
 P   1 1.00       0.000000000000
      0.3245972208D+02  0.1000000000D+01
 P   1 1.00       0.000000000000
      0.1657673158D+02  0.1000000000D+01
 P   1 1.00       0.000000000000
      0.8465507783D+01  0.1000000000D+01
 P   1 1.00       0.000000000000
      0.4323217860D+01  0.1000000000D+01
 P   1 1.00       0.000000000000
      0.2207807629D+01  0.1000000000D+01
 P   1 1.00       0.000000000000
      0.1127496852D+01  0.1000000000D+01
 P   1 1.00       0.000000000000
      0.5757970639D+00  0.1000000000D+01
 P   1 1.00       0.000000000000
      0.2940516050D+00  0.1000000000D+01
 P   1 1.00       0.000000000000
      0.1501680918D+00  0.1000000000D+01
 P   1 1.00       0.000000000000
      0.7668876969D-01  0.1000000000D+01
 P   1 1.00       0.000000000000
      0.3916389510D-01  0.1000000000D+01
 D   1 1.00       0.000000000000
      0.7016361094D+04  0.1000000000D+01
 D   1 1.00       0.000000000000
      0.3583158668D+04  0.1000000000D+01
 D   1 1.00       0.000000000000
      0.1829869625D+04  0.1000000000D+01
 D   1 1.00       0.000000000000
      0.9344891347D+03  0.1000000000D+01
 D   1 1.00       0.000000000000
      0.4772306896D+03  0.1000000000D+01
 D   1 1.00       0.000000000000
      0.2437151195D+03  0.1000000000D+01
 D   1 1.00       0.000000000000
      0.1244619442D+03  0.1000000000D+01
 D   1 1.00       0.000000000000
      0.6356099525D+02  0.1000000000D+01
 D   1 1.00       0.000000000000
      0.3245972208D+02  0.1000000000D+01
 D   1 1.00       0.000000000000
      0.1657673158D+02  0.1000000000D+01
 D   1 1.00       0.000000000000
      0.8465507783D+01  0.1000000000D+01
 D   1 1.00       0.000000000000
      0.4323217860D+01  0.1000000000D+01
 D   1 1.00       0.000000000000
      0.2207807629D+01  0.1000000000D+01
 D   1 1.00       0.000000000000
      0.1127496852D+01  0.1000000000D+01
 D   1 1.00       0.000000000000
      0.5757970639D+00  0.1000000000D+01
 D   1 1.00       0.000000000000
      0.2940516050D+00  0.1000000000D+01
 D   1 1.00       0.000000000000
      0.1501680918D+00  0.1000000000D+01
 D   1 1.00       0.000000000000
      0.7668876969D-01  0.1000000000D+01
 D   1 1.00       0.000000000000
      0.3916389510D-01  0.1000000000D+01
 ****

 AO basis set (Overlap normalization):
 Atom C1       Shell     1 S   1     bf    1 -     1          0.000000000000          0.000000000000         -3.635473547424
      0.2019953588D+06  0.1000000000D+01
 Atom C1       Shell     2 S   1     bf    2 -     2          0.000000000000          0.000000000000         -3.635473547424
      0.1031562389D+06  0.1000000000D+01
 Atom C1       Shell     3 S   1     bf    3 -     3          0.000000000000          0.000000000000         -3.635473547424
      0.5268046591D+05  0.1000000000D+01
 Atom C1       Shell     4 S   1     bf    4 -     4          0.000000000000          0.000000000000         -3.635473547424
      0.2690318607D+05  0.1000000000D+01
 Atom C1       Shell     5 S   1     bf    5 -     5          0.000000000000          0.000000000000         -3.635473547424
      0.1373908542D+05  0.1000000000D+01
 Atom C1       Shell     6 S   1     bf    6 -     6          0.000000000000          0.000000000000         -3.635473547424
      0.7016361094D+04  0.1000000000D+01
 Atom C1       Shell     7 S   1     bf    7 -     7          0.000000000000          0.000000000000         -3.635473547424
      0.3583158668D+04  0.1000000000D+01
 Atom C1       Shell     8 S   1     bf    8 -     8          0.000000000000          0.000000000000         -3.635473547424
      0.1829869625D+04  0.1000000000D+01
 Atom C1       Shell     9 S   1     bf    9 -     9          0.000000000000          0.000000000000         -3.635473547424
      0.9344891347D+03  0.1000000000D+01
 Atom C1       Shell    10 S   1     bf   10 -    10          0.000000000000          0.000000000000         -3.635473547424
      0.4772306896D+03  0.1000000000D+01
 Atom C1       Shell    11 S   1     bf   11 -    11          0.000000000000          0.000000000000         -3.635473547424
      0.2437151195D+03  0.1000000000D+01
 Atom C1       Shell    12 S   1     bf   12 -    12          0.000000000000          0.000000000000         -3.635473547424
      0.1244619442D+03  0.1000000000D+01
 Atom C1       Shell    13 S   1     bf   13 -    13          0.000000000000          0.000000000000         -3.635473547424
      0.6356099525D+02  0.1000000000D+01
 Atom C1       Shell    14 S   1     bf   14 -    14          0.000000000000          0.000000000000         -3.635473547424
      0.3245972208D+02  0.1000000000D+01
 Atom C1       Shell    15 S   1     bf   15 -    15          0.000000000000          0.000000000000         -3.635473547424
      0.1657673158D+02  0.1000000000D+01
 Atom C1       Shell    16 S   1     bf   16 -    16          0.000000000000          0.000000000000         -3.635473547424
      0.8465507783D+01  0.1000000000D+01
 Atom C1       Shell    17 S   1     bf   17 -    17          0.000000000000          0.000000000000         -3.635473547424
      0.4323217860D+01  0.1000000000D+01
 Atom C1       Shell    18 S   1     bf   18 -    18          0.000000000000          0.000000000000         -3.635473547424
      0.2207807629D+01  0.1000000000D+01
 Atom C1       Shell    19 S   1     bf   19 -    19          0.000000000000          0.000000000000         -3.635473547424
      0.1127496852D+01  0.1000000000D+01
 Atom C1       Shell    20 S   1     bf   20 -    20          0.000000000000          0.000000000000         -3.635473547424
      0.5757970639D+00  0.1000000000D+01
 Atom C1       Shell    21 S   1     bf   21 -    21          0.000000000000          0.000000000000         -3.635473547424
      0.2940516050D+00  0.1000000000D+01
 Atom C1       Shell    22 S   1     bf   22 -    22          0.000000000000          0.000000000000         -3.635473547424
      0.1501680918D+00  0.1000000000D+01
 Atom C1       Shell    23 S   1     bf   23 -    23          0.000000000000          0.000000000000         -3.635473547424
      0.7668876969D-01  0.1000000000D+01
 Atom C1       Shell    24 P   1     bf   24 -    26          0.000000000000          0.000000000000         -3.635473547424
      0.2019953588D+06  0.1000000000D+01
 Atom C1       Shell    25 P   1     bf   27 -    29          0.000000000000          0.000000000000         -3.635473547424
      0.1031562389D+06  0.1000000000D+01
 Atom C1       Shell    26 P   1     bf   30 -    32          0.000000000000          0.000000000000         -3.635473547424
      0.5268046591D+05  0.1000000000D+01
 Atom C1       Shell    27 P   1     bf   33 -    35          0.000000000000          0.000000000000         -3.635473547424
      0.2690318607D+05  0.1000000000D+01
 Atom C1       Shell    28 P   1     bf   36 -    38          0.000000000000          0.000000000000         -3.635473547424
      0.1373908542D+05  0.1000000000D+01
 Atom C1       Shell    29 P   1     bf   39 -    41          0.000000000000          0.000000000000         -3.635473547424
      0.7016361094D+04  0.1000000000D+01
 Atom C1       Shell    30 P   1     bf   42 -    44          0.000000000000          0.000000000000         -3.635473547424
      0.3583158668D+04  0.1000000000D+01
 Atom C1       Shell    31 P   1     bf   45 -    47          0.000000000000          0.000000000000         -3.635473547424
      0.1829869625D+04  0.1000000000D+01
 Atom C1       Shell    32 P   1     bf   48 -    50          0.000000000000          0.000000000000         -3.635473547424
      0.9344891347D+03  0.1000000000D+01
 Atom C1       Shell    33 P   1     bf   51 -    53          0.000000000000          0.000000000000         -3.635473547424
      0.4772306896D+03  0.1000000000D+01
 Atom C1       Shell    34 P   1     bf   54 -    56          0.000000000000          0.000000000000         -3.635473547424
      0.2437151195D+03  0.1000000000D+01
 Atom C1       Shell    35 P   1     bf   57 -    59          0.000000000000          0.000000000000         -3.635473547424
      0.1244619442D+03  0.1000000000D+01
 Atom C1       Shell    36 P   1     bf   60 -    62          0.000000000000          0.000000000000         -3.635473547424
      0.6356099525D+02  0.1000000000D+01
 Atom C1       Shell    37 P   1     bf   63 -    65          0.000000000000          0.000000000000         -3.635473547424
      0.3245972208D+02  0.1000000000D+01
 Atom C1       Shell    38 P   1     bf   66 -    68          0.000000000000          0.000000000000         -3.635473547424
      0.1657673158D+02  0.1000000000D+01
 Atom C1       Shell    39 P   1     bf   69 -    71          0.000000000000          0.000000000000         -3.635473547424
      0.8465507783D+01  0.1000000000D+01
 Atom C1       Shell    40 P   1     bf   72 -    74          0.000000000000          0.000000000000         -3.635473547424
      0.4323217860D+01  0.1000000000D+01
 Atom C1       Shell    41 P   1     bf   75 -    77          0.000000000000          0.000000000000         -3.635473547424
      0.2207807629D+01  0.1000000000D+01
 Atom C1       Shell    42 P   1     bf   78 -    80          0.000000000000          0.000000000000         -3.635473547424
      0.1127496852D+01  0.1000000000D+01
 Atom C1       Shell    43 P   1     bf   81 -    83          0.000000000000          0.000000000000         -3.635473547424
      0.5757970639D+00  0.1000000000D+01
 Atom C1       Shell    44 P   1     bf   84 -    86          0.000000000000          0.000000000000         -3.635473547424
      0.2940516050D+00  0.1000000000D+01
 Atom C1       Shell    45 P   1     bf   87 -    89          0.000000000000          0.000000000000         -3.635473547424
      0.1501680918D+00  0.1000000000D+01
 Atom C1       Shell    46 P   1     bf   90 -    92          0.000000000000          0.000000000000         -3.635473547424
      0.7668876969D-01  0.1000000000D+01
 Atom C1       Shell    47 P   1     bf   93 -    95          0.000000000000          0.000000000000         -3.635473547424
      0.3916389510D-01  0.1000000000D+01
 Atom C1       Shell    48 D   1     bf   96 -   100          0.000000000000          0.000000000000         -3.635473547424
      0.4772306896D+03  0.1000000000D+01
 Atom C1       Shell    49 D   1     bf  101 -   105          0.000000000000          0.000000000000         -3.635473547424
      0.2437151195D+03  0.1000000000D+01
 Atom C1       Shell    50 D   1     bf  106 -   110          0.000000000000          0.000000000000         -3.635473547424
      0.1244619442D+03  0.1000000000D+01
 Atom C1       Shell    51 D   1     bf  111 -   115          0.000000000000          0.000000000000         -3.635473547424
      0.6356099525D+02  0.1000000000D+01
 Atom C1       Shell    52 D   1     bf  116 -   120          0.000000000000          0.000000000000         -3.635473547424
      0.3245972208D+02  0.1000000000D+01
 Atom C1       Shell    53 D   1     bf  121 -   125          0.000000000000          0.000000000000         -3.635473547424
      0.1657673158D+02  0.1000000000D+01
 Atom C1       Shell    54 D   1     bf  126 -   130          0.000000000000          0.000000000000         -3.635473547424
      0.8465507783D+01  0.1000000000D+01
 Atom C1       Shell    55 D   1     bf  131 -   135          0.000000000000          0.000000000000         -3.635473547424
      0.4323217860D+01  0.1000000000D+01
 Atom C1       Shell    56 D   1     bf  136 -   140          0.000000000000          0.000000000000         -3.635473547424
      0.2207807629D+01  0.1000000000D+01
 Atom C1       Shell    57 D   1     bf  141 -   145          0.000000000000          0.000000000000         -3.635473547424
      0.1127496852D+01  0.1000000000D+01
 Atom C1       Shell    58 D   1     bf  146 -   150          0.000000000000          0.000000000000         -3.635473547424
      0.5757970639D+00  0.1000000000D+01
 Atom C1       Shell    59 D   1     bf  151 -   155          0.000000000000          0.000000000000         -3.635473547424
      0.2940516050D+00  0.1000000000D+01
 Atom C1       Shell    60 D   1     bf  156 -   160          0.000000000000          0.000000000000         -3.635473547424
      0.1501680918D+00  0.1000000000D+01
 Atom C1       Shell    61 D   1     bf  161 -   165          0.000000000000          0.000000000000         -3.635473547424
      0.7668876969D-01  0.1000000000D+01
 Atom C1       Shell    62 D   1     bf  166 -   170          0.000000000000          0.000000000000         -3.635473547424
      0.3916389510D-01  0.1000000000D+01
 Atom C2       Shell    63 S   1     bf  171 -   171          0.000000000000          0.000000000000         -1.155672299565
      0.2019953588D+06  0.1000000000D+01
 Atom C2       Shell    64 S   1     bf  172 -   172          0.000000000000          0.000000000000         -1.155672299565
      0.1031562389D+06  0.1000000000D+01
 Atom C2       Shell    65 S   1     bf  173 -   173          0.000000000000          0.000000000000         -1.155672299565
      0.5268046591D+05  0.1000000000D+01
 Atom C2       Shell    66 S   1     bf  174 -   174          0.000000000000          0.000000000000         -1.155672299565
      0.2690318607D+05  0.1000000000D+01
 Atom C2       Shell    67 S   1     bf  175 -   175          0.000000000000          0.000000000000         -1.155672299565
      0.1373908542D+05  0.1000000000D+01
 Atom C2       Shell    68 S   1     bf  176 -   176          0.000000000000          0.000000000000         -1.155672299565
      0.7016361094D+04  0.1000000000D+01
 Atom C2       Shell    69 S   1     bf  177 -   177          0.000000000000          0.000000000000         -1.155672299565
      0.3583158668D+04  0.1000000000D+01
 Atom C2       Shell    70 S   1     bf  178 -   178          0.000000000000          0.000000000000         -1.155672299565
      0.1829869625D+04  0.1000000000D+01
 Atom C2       Shell    71 S   1     bf  179 -   179          0.000000000000          0.000000000000         -1.155672299565
      0.9344891347D+03  0.1000000000D+01
 Atom C2       Shell    72 S   1     bf  180 -   180          0.000000000000          0.000000000000         -1.155672299565
      0.4772306896D+03  0.1000000000D+01
 Atom C2       Shell    73 S   1     bf  181 -   181          0.000000000000          0.000000000000         -1.155672299565
      0.2437151195D+03  0.1000000000D+01
 Atom C2       Shell    74 S   1     bf  182 -   182          0.000000000000          0.000000000000         -1.155672299565
      0.1244619442D+03  0.1000000000D+01
 Atom C2       Shell    75 S   1     bf  183 -   183          0.000000000000          0.000000000000         -1.155672299565
      0.6356099525D+02  0.1000000000D+01
 Atom C2       Shell    76 S   1     bf  184 -   184          0.000000000000          0.000000000000         -1.155672299565
      0.3245972208D+02  0.1000000000D+01
 Atom C2       Shell    77 S   1     bf  185 -   185          0.000000000000          0.000000000000         -1.155672299565
      0.1657673158D+02  0.1000000000D+01
 Atom C2       Shell    78 S   1     bf  186 -   186          0.000000000000          0.000000000000         -1.155672299565
      0.8465507783D+01  0.1000000000D+01
 Atom C2       Shell    79 S   1     bf  187 -   187          0.000000000000          0.000000000000         -1.155672299565
      0.4323217860D+01  0.1000000000D+01
 Atom C2       Shell    80 S   1     bf  188 -   188          0.000000000000          0.000000000000         -1.155672299565
      0.2207807629D+01  0.1000000000D+01
 Atom C2       Shell    81 S   1     bf  189 -   189          0.000000000000          0.000000000000         -1.155672299565
      0.1127496852D+01  0.1000000000D+01
 Atom C2       Shell    82 S   1     bf  190 -   190          0.000000000000          0.000000000000         -1.155672299565
      0.5757970639D+00  0.1000000000D+01
 Atom C2       Shell    83 S   1     bf  191 -   191          0.000000000000          0.000000000000         -1.155672299565
      0.2940516050D+00  0.1000000000D+01
 Atom C2       Shell    84 S   1     bf  192 -   192          0.000000000000          0.000000000000         -1.155672299565
      0.1501680918D+00  0.1000000000D+01
 Atom C2       Shell    85 S   1     bf  193 -   193          0.000000000000          0.000000000000         -1.155672299565
      0.7668876969D-01  0.1000000000D+01
 Atom C2       Shell    86 P   1     bf  194 -   196          0.000000000000          0.000000000000         -1.155672299565
      0.2019953588D+06  0.1000000000D+01
 Atom C2       Shell    87 P   1     bf  197 -   199          0.000000000000          0.000000000000         -1.155672299565
      0.1031562389D+06  0.1000000000D+01
 Atom C2       Shell    88 P   1     bf  200 -   202          0.000000000000          0.000000000000         -1.155672299565
      0.5268046591D+05  0.1000000000D+01
 Atom C2       Shell    89 P   1     bf  203 -   205          0.000000000000          0.000000000000         -1.155672299565
      0.2690318607D+05  0.1000000000D+01
 Atom C2       Shell    90 P   1     bf  206 -   208          0.000000000000          0.000000000000         -1.155672299565
      0.1373908542D+05  0.1000000000D+01
 Atom C2       Shell    91 P   1     bf  209 -   211          0.000000000000          0.000000000000         -1.155672299565
      0.7016361094D+04  0.1000000000D+01
 Atom C2       Shell    92 P   1     bf  212 -   214          0.000000000000          0.000000000000         -1.155672299565
      0.3583158668D+04  0.1000000000D+01
 Atom C2       Shell    93 P   1     bf  215 -   217          0.000000000000          0.000000000000         -1.155672299565
      0.1829869625D+04  0.1000000000D+01
 Atom C2       Shell    94 P   1     bf  218 -   220          0.000000000000          0.000000000000         -1.155672299565
      0.9344891347D+03  0.1000000000D+01
 Atom C2       Shell    95 P   1     bf  221 -   223          0.000000000000          0.000000000000         -1.155672299565
      0.4772306896D+03  0.1000000000D+01
 Atom C2       Shell    96 P   1     bf  224 -   226          0.000000000000          0.000000000000         -1.155672299565
      0.2437151195D+03  0.1000000000D+01
 Atom C2       Shell    97 P   1     bf  227 -   229          0.000000000000          0.000000000000         -1.155672299565
      0.1244619442D+03  0.1000000000D+01
 Atom C2       Shell    98 P   1     bf  230 -   232          0.000000000000          0.000000000000         -1.155672299565
      0.6356099525D+02  0.1000000000D+01
 Atom C2       Shell    99 P   1     bf  233 -   235          0.000000000000          0.000000000000         -1.155672299565
      0.3245972208D+02  0.1000000000D+01
 Atom C2       Shell   100 P   1     bf  236 -   238          0.000000000000          0.000000000000         -1.155672299565
      0.1657673158D+02  0.1000000000D+01
 Atom C2       Shell   101 P   1     bf  239 -   241          0.000000000000          0.000000000000         -1.155672299565
      0.8465507783D+01  0.1000000000D+01
 Atom C2       Shell   102 P   1     bf  242 -   244          0.000000000000          0.000000000000         -1.155672299565
      0.4323217860D+01  0.1000000000D+01
 Atom C2       Shell   103 P   1     bf  245 -   247          0.000000000000          0.000000000000         -1.155672299565
      0.2207807629D+01  0.1000000000D+01
 Atom C2       Shell   104 P   1     bf  248 -   250          0.000000000000          0.000000000000         -1.155672299565
      0.1127496852D+01  0.1000000000D+01
 Atom C2       Shell   105 P   1     bf  251 -   253          0.000000000000          0.000000000000         -1.155672299565
      0.5757970639D+00  0.1000000000D+01
 Atom C2       Shell   106 P   1     bf  254 -   256          0.000000000000          0.000000000000         -1.155672299565
      0.2940516050D+00  0.1000000000D+01
 Atom C2       Shell   107 P   1     bf  257 -   259          0.000000000000          0.000000000000         -1.155672299565
      0.1501680918D+00  0.1000000000D+01
 Atom C2       Shell   108 P   1     bf  260 -   262          0.000000000000          0.000000000000         -1.155672299565
      0.7668876969D-01  0.1000000000D+01
 Atom C2       Shell   109 P   1     bf  263 -   265          0.000000000000          0.000000000000         -1.155672299565
      0.3916389510D-01  0.1000000000D+01
 Atom C2       Shell   110 D   1     bf  266 -   270          0.000000000000          0.000000000000         -1.155672299565
      0.4772306896D+03  0.1000000000D+01
 Atom C2       Shell   111 D   1     bf  271 -   275          0.000000000000          0.000000000000         -1.155672299565
      0.2437151195D+03  0.1000000000D+01
 Atom C2       Shell   112 D   1     bf  276 -   280          0.000000000000          0.000000000000         -1.155672299565
      0.1244619442D+03  0.1000000000D+01
 Atom C2       Shell   113 D   1     bf  281 -   285          0.000000000000          0.000000000000         -1.155672299565
      0.6356099525D+02  0.1000000000D+01
 Atom C2       Shell   114 D   1     bf  286 -   290          0.000000000000          0.000000000000         -1.155672299565
      0.3245972208D+02  0.1000000000D+01
 Atom C2       Shell   115 D   1     bf  291 -   295          0.000000000000          0.000000000000         -1.155672299565
      0.1657673158D+02  0.1000000000D+01
 Atom C2       Shell   116 D   1     bf  296 -   300          0.000000000000          0.000000000000         -1.155672299565
      0.8465507783D+01  0.1000000000D+01
 Atom C2       Shell   117 D   1     bf  301 -   305          0.000000000000          0.000000000000         -1.155672299565
      0.4323217860D+01  0.1000000000D+01
 Atom C2       Shell   118 D   1     bf  306 -   310          0.000000000000          0.000000000000         -1.155672299565
      0.2207807629D+01  0.1000000000D+01
 Atom C2       Shell   119 D   1     bf  311 -   315          0.000000000000          0.000000000000         -1.155672299565
      0.1127496852D+01  0.1000000000D+01
 Atom C2       Shell   120 D   1     bf  316 -   320          0.000000000000          0.000000000000         -1.155672299565
      0.5757970639D+00  0.1000000000D+01
 Atom C2       Shell   121 D   1     bf  321 -   325          0.000000000000          0.000000000000         -1.155672299565
      0.2940516050D+00  0.1000000000D+01
 Atom C2       Shell   122 D   1     bf  326 -   330          0.000000000000          0.000000000000         -1.155672299565
      0.1501680918D+00  0.1000000000D+01
 Atom C2       Shell   123 D   1     bf  331 -   335          0.000000000000          0.000000000000         -1.155672299565
      0.7668876969D-01  0.1000000000D+01
 Atom C2       Shell   124 D   1     bf  336 -   340          0.000000000000          0.000000000000         -1.155672299565
      0.3916389510D-01  0.1000000000D+01
 Atom S3       Shell   125 S   1     bf  341 -   341          0.000000000000          0.000000000000          1.796679692621
      0.2969784651D+07  0.1000000000D+01
 Atom S3       Shell   126 S   1     bf  342 -   342          0.000000000000          0.000000000000          1.796679692621
      0.1516627989D+07  0.1000000000D+01
 Atom S3       Shell   127 S   1     bf  343 -   343          0.000000000000          0.000000000000          1.796679692621
      0.7745209592D+06  0.1000000000D+01
 Atom S3       Shell   128 S   1     bf  344 -   344          0.000000000000          0.000000000000          1.796679692621
      0.3955371526D+06  0.1000000000D+01
 Atom S3       Shell   129 S   1     bf  345 -   345          0.000000000000          0.000000000000          1.796679692621
      0.2019953588D+06  0.1000000000D+01
 Atom S3       Shell   130 S   1     bf  346 -   346          0.000000000000          0.000000000000          1.796679692621
      0.1031562389D+06  0.1000000000D+01
 Atom S3       Shell   131 S   1     bf  347 -   347          0.000000000000          0.000000000000          1.796679692621
      0.5268046591D+05  0.1000000000D+01
 Atom S3       Shell   132 S   1     bf  348 -   348          0.000000000000          0.000000000000          1.796679692621
      0.2690318607D+05  0.1000000000D+01
 Atom S3       Shell   133 S   1     bf  349 -   349          0.000000000000          0.000000000000          1.796679692621
      0.1373908542D+05  0.1000000000D+01
 Atom S3       Shell   134 S   1     bf  350 -   350          0.000000000000          0.000000000000          1.796679692621
      0.7016361094D+04  0.1000000000D+01
 Atom S3       Shell   135 S   1     bf  351 -   351          0.000000000000          0.000000000000          1.796679692621
      0.3583158668D+04  0.1000000000D+01
 Atom S3       Shell   136 S   1     bf  352 -   352          0.000000000000          0.000000000000          1.796679692621
      0.1829869625D+04  0.1000000000D+01
 Atom S3       Shell   137 S   1     bf  353 -   353          0.000000000000          0.000000000000          1.796679692621
      0.9344891347D+03  0.1000000000D+01
 Atom S3       Shell   138 S   1     bf  354 -   354          0.000000000000          0.000000000000          1.796679692621
      0.4772306896D+03  0.1000000000D+01
 Atom S3       Shell   139 S   1     bf  355 -   355          0.000000000000          0.000000000000          1.796679692621
      0.2437151195D+03  0.1000000000D+01
 Atom S3       Shell   140 S   1     bf  356 -   356          0.000000000000          0.000000000000          1.796679692621
      0.1244619442D+03  0.1000000000D+01
 Atom S3       Shell   141 S   1     bf  357 -   357          0.000000000000          0.000000000000          1.796679692621
      0.6356099525D+02  0.1000000000D+01
 Atom S3       Shell   142 S   1     bf  358 -   358          0.000000000000          0.000000000000          1.796679692621
      0.3245972208D+02  0.1000000000D+01
 Atom S3       Shell   143 S   1     bf  359 -   359          0.000000000000          0.000000000000          1.796679692621
      0.1657673158D+02  0.1000000000D+01
 Atom S3       Shell   144 S   1     bf  360 -   360          0.000000000000          0.000000000000          1.796679692621
      0.8465507783D+01  0.1000000000D+01
 Atom S3       Shell   145 S   1     bf  361 -   361          0.000000000000          0.000000000000          1.796679692621
      0.4323217860D+01  0.1000000000D+01
 Atom S3       Shell   146 S   1     bf  362 -   362          0.000000000000          0.000000000000          1.796679692621
      0.2207807629D+01  0.1000000000D+01
 Atom S3       Shell   147 S   1     bf  363 -   363          0.000000000000          0.000000000000          1.796679692621
      0.1127496852D+01  0.1000000000D+01
 Atom S3       Shell   148 S   1     bf  364 -   364          0.000000000000          0.000000000000          1.796679692621
      0.5757970639D+00  0.1000000000D+01
 Atom S3       Shell   149 S   1     bf  365 -   365          0.000000000000          0.000000000000          1.796679692621
      0.2940516050D+00  0.1000000000D+01
 Atom S3       Shell   150 S   1     bf  366 -   366          0.000000000000          0.000000000000          1.796679692621
      0.1501680918D+00  0.1000000000D+01
 Atom S3       Shell   151 S   1     bf  367 -   367          0.000000000000          0.000000000000          1.796679692621
      0.7668876969D-01  0.1000000000D+01
 Atom S3       Shell   152 P   1     bf  368 -   370          0.000000000000          0.000000000000          1.796679692621
      0.2969784651D+07  0.1000000000D+01
 Atom S3       Shell   153 P   1     bf  371 -   373          0.000000000000          0.000000000000          1.796679692621
      0.1516627989D+07  0.1000000000D+01
 Atom S3       Shell   154 P   1     bf  374 -   376          0.000000000000          0.000000000000          1.796679692621
      0.7745209592D+06  0.1000000000D+01
 Atom S3       Shell   155 P   1     bf  377 -   379          0.000000000000          0.000000000000          1.796679692621
      0.3955371526D+06  0.1000000000D+01
 Atom S3       Shell   156 P   1     bf  380 -   382          0.000000000000          0.000000000000          1.796679692621
      0.2019953588D+06  0.1000000000D+01
 Atom S3       Shell   157 P   1     bf  383 -   385          0.000000000000          0.000000000000          1.796679692621
      0.1031562389D+06  0.1000000000D+01
 Atom S3       Shell   158 P   1     bf  386 -   388          0.000000000000          0.000000000000          1.796679692621
      0.5268046591D+05  0.1000000000D+01
 Atom S3       Shell   159 P   1     bf  389 -   391          0.000000000000          0.000000000000          1.796679692621
      0.2690318607D+05  0.1000000000D+01
 Atom S3       Shell   160 P   1     bf  392 -   394          0.000000000000          0.000000000000          1.796679692621
      0.1373908542D+05  0.1000000000D+01
 Atom S3       Shell   161 P   1     bf  395 -   397          0.000000000000          0.000000000000          1.796679692621
      0.7016361094D+04  0.1000000000D+01
 Atom S3       Shell   162 P   1     bf  398 -   400          0.000000000000          0.000000000000          1.796679692621
      0.3583158668D+04  0.1000000000D+01
 Atom S3       Shell   163 P   1     bf  401 -   403          0.000000000000          0.000000000000          1.796679692621
      0.1829869625D+04  0.1000000000D+01
 Atom S3       Shell   164 P   1     bf  404 -   406          0.000000000000          0.000000000000          1.796679692621
      0.9344891347D+03  0.1000000000D+01
 Atom S3       Shell   165 P   1     bf  407 -   409          0.000000000000          0.000000000000          1.796679692621
      0.4772306896D+03  0.1000000000D+01
 Atom S3       Shell   166 P   1     bf  410 -   412          0.000000000000          0.000000000000          1.796679692621
      0.2437151195D+03  0.1000000000D+01
 Atom S3       Shell   167 P   1     bf  413 -   415          0.000000000000          0.000000000000          1.796679692621
      0.1244619442D+03  0.1000000000D+01
 Atom S3       Shell   168 P   1     bf  416 -   418          0.000000000000          0.000000000000          1.796679692621
      0.6356099525D+02  0.1000000000D+01
 Atom S3       Shell   169 P   1     bf  419 -   421          0.000000000000          0.000000000000          1.796679692621
      0.3245972208D+02  0.1000000000D+01
 Atom S3       Shell   170 P   1     bf  422 -   424          0.000000000000          0.000000000000          1.796679692621
      0.1657673158D+02  0.1000000000D+01
 Atom S3       Shell   171 P   1     bf  425 -   427          0.000000000000          0.000000000000          1.796679692621
      0.8465507783D+01  0.1000000000D+01
 Atom S3       Shell   172 P   1     bf  428 -   430          0.000000000000          0.000000000000          1.796679692621
      0.4323217860D+01  0.1000000000D+01
 Atom S3       Shell   173 P   1     bf  431 -   433          0.000000000000          0.000000000000          1.796679692621
      0.2207807629D+01  0.1000000000D+01
 Atom S3       Shell   174 P   1     bf  434 -   436          0.000000000000          0.000000000000          1.796679692621
      0.1127496852D+01  0.1000000000D+01
 Atom S3       Shell   175 P   1     bf  437 -   439          0.000000000000          0.000000000000          1.796679692621
      0.5757970639D+00  0.1000000000D+01
 Atom S3       Shell   176 P   1     bf  440 -   442          0.000000000000          0.000000000000          1.796679692621
      0.2940516050D+00  0.1000000000D+01
 Atom S3       Shell   177 P   1     bf  443 -   445          0.000000000000          0.000000000000          1.796679692621
      0.1501680918D+00  0.1000000000D+01
 Atom S3       Shell   178 P   1     bf  446 -   448          0.000000000000          0.000000000000          1.796679692621
      0.7668876969D-01  0.1000000000D+01
 Atom S3       Shell   179 P   1     bf  449 -   451          0.000000000000          0.000000000000          1.796679692621
      0.3916389510D-01  0.1000000000D+01
 Atom S3       Shell   180 D   1     bf  452 -   456          0.000000000000          0.000000000000          1.796679692621
      0.7016361094D+04  0.1000000000D+01
 Atom S3       Shell   181 D   1     bf  457 -   461          0.000000000000          0.000000000000          1.796679692621
      0.3583158668D+04  0.1000000000D+01
 Atom S3       Shell   182 D   1     bf  462 -   466          0.000000000000          0.000000000000          1.796679692621
      0.1829869625D+04  0.1000000000D+01
 Atom S3       Shell   183 D   1     bf  467 -   471          0.000000000000          0.000000000000          1.796679692621
      0.9344891347D+03  0.1000000000D+01
 Atom S3       Shell   184 D   1     bf  472 -   476          0.000000000000          0.000000000000          1.796679692621
      0.4772306896D+03  0.1000000000D+01
 Atom S3       Shell   185 D   1     bf  477 -   481          0.000000000000          0.000000000000          1.796679692621
      0.2437151195D+03  0.1000000000D+01
 Atom S3       Shell   186 D   1     bf  482 -   486          0.000000000000          0.000000000000          1.796679692621
      0.1244619442D+03  0.1000000000D+01
 Atom S3       Shell   187 D   1     bf  487 -   491          0.000000000000          0.000000000000          1.796679692621
      0.6356099525D+02  0.1000000000D+01
 Atom S3       Shell   188 D   1     bf  492 -   496          0.000000000000          0.000000000000          1.796679692621
      0.3245972208D+02  0.1000000000D+01
 Atom S3       Shell   189 D   1     bf  497 -   501          0.000000000000          0.000000000000          1.796679692621
      0.1657673158D+02  0.1000000000D+01
 Atom S3       Shell   190 D   1     bf  502 -   506          0.000000000000          0.000000000000          1.796679692621
      0.8465507783D+01  0.1000000000D+01
 Atom S3       Shell   191 D   1     bf  507 -   511          0.000000000000          0.000000000000          1.796679692621
      0.4323217860D+01  0.1000000000D+01
 Atom S3       Shell   192 D   1     bf  512 -   516          0.000000000000          0.000000000000          1.796679692621
      0.2207807629D+01  0.1000000000D+01
 Atom S3       Shell   193 D   1     bf  517 -   521          0.000000000000          0.000000000000          1.796679692621
      0.1127496852D+01  0.1000000000D+01
 Atom S3       Shell   194 D   1     bf  522 -   526          0.000000000000          0.000000000000          1.796679692621
      0.5757970639D+00  0.1000000000D+01
 Atom S3       Shell   195 D   1     bf  527 -   531          0.000000000000          0.000000000000          1.796679692621
      0.2940516050D+00  0.1000000000D+01
 Atom S3       Shell   196 D   1     bf  532 -   536          0.000000000000          0.000000000000          1.796679692621
      0.1501680918D+00  0.1000000000D+01
 Atom S3       Shell   197 D   1     bf  537 -   541          0.000000000000          0.000000000000          1.796679692621
      0.7668876969D-01  0.1000000000D+01
 Atom S3       Shell   198 D   1     bf  542 -   546          0.000000000000          0.000000000000          1.796679692621
      0.3916389510D-01  0.1000000000D+01
 There are   296 symmetry adapted cartesian basis functions of A1  symmetry.
 There are    49 symmetry adapted cartesian basis functions of A2  symmetry.
 There are   125 symmetry adapted cartesian basis functions of B1  symmetry.
 There are   125 symmetry adapted cartesian basis functions of B2  symmetry.
 There are   247 symmetry adapted basis functions of A1  symmetry.
 There are    49 symmetry adapted basis functions of A2  symmetry.
 There are   125 symmetry adapted basis functions of B1  symmetry.
 There are   125 symmetry adapted basis functions of B2  symmetry.
   546 basis functions,   595 primitive gaussians,   595 cartesian basis functions
    15 alpha electrons       13 beta electrons
       nuclear repulsion energy        64.7062905137 Hartrees.
 IExCor= 3731 DFT=T Ex+Corr=APFD ExCW=0 ScaHFX=  0.229450
 ScaDFX=  1.000000  1.000000  1.000000  1.000000 ScalE2=  1.000000  1.000000
 IRadAn= 299974 IRanWt=     -1 IRanGd=            0 ICorTp=0 IEmpDi=211
 NAtoms=    3 NActive=    3 NUniq=    3 SFac= 1.00D+00 NAtFMM=   60 NAOKFM=F Big=F
 Integral buffers will be    131072 words long.
 Raffenetti 2 integral format.
 Two-electron integral symmetry is turned on.
 R6Disp:  Petersson-Frisch Dispersion energy=       -0.0002217423 Hartrees.
 Nuclear repulsion after empirical dispersion term =       64.7060687714 Hartrees.
 Leave Link  301 at Tue Jul 30 08:28:43 2013, MaxMem=  805306368 cpu:       0.2
 (Enter /share/apps/gaussian/gdvh12/gdv/l302.exe)
 NPDir=0 NMtPBC=     1 NCelOv=     1 NCel=       1 NClECP=     1 NCelD=      1
         NCelK=      1 NCelE2=     1 NClLst=     1 CellRange=     0.0.
 One-electron integrals computed using PRISM.
 NBasis=   546 RedAO= T EigKep=  1.66D-06  NBF=   247    49   125   125
 NBsUse=   545 1.00D-06 EigRej=  3.75D-07 NBFU=   246    49   125   125
 Precomputing XC quadrature grid using
 IXCGrd= 2 IRadAn=      299974 IRanWt=          -1 IRanGd=           0 AccXCQ= 0.00D+00.
 NRdTot=     897 NPtTot=      727578 NUsed=      733909 NTot=      733941
 NSgBfM=   419   419   419   419   419 NAtAll=     3     3.
 Leave Link  302 at Tue Jul 30 08:28:44 2013, MaxMem=  805306368 cpu:       2.0
 (Enter /share/apps/gaussian/gdvh12/gdv/l303.exe)
 DipDrv:  MaxL=1.
 Leave Link  303 at Tue Jul 30 08:28:45 2013, MaxMem=  805306368 cpu:       0.3
 (Enter /share/apps/gaussian/gdvh12/gdv/l401.exe)
 ExpMin= 3.92D-02 ExpMax= 2.97D+06 ExpMxC= 2.97D+06 IAcc=4 IRadAn=    299974 AccDes= 0.00D+00
 Harris functional with IExCor= 3731 and IRadAn=  299974 diagonalized for initial guess.
 HarFok:  IExCor= 3731 AccDes= 0.00D+00 IRadAn=    299974 IDoV= 1 UseB2=F ITyADJ=14
 ICtDFT=  3500011 ScaDFX=  1.000000  1.000000  1.000000  1.000000
 FoFCou: FMM=F IPFlag=           0 FMFlag=      100000 FMFlg1=           0
         NFxFlg=           0 DoJE=T BraDBF=F KetDBF=T FulRan=T
         wScrn=  0.000000 ICntrl=     500 IOpCl=  0 I1Cent=   200000004 NGrid=           0
         NMat0=    1 NMatS0=      1 NMatT0=    0 NMatD0=    1 NMtDS0=    0 NMtDT0=    0
 Petite list used in FoFCou.
 Harris En= -466.119052218335    
 Initial guess orbital symmetries:
 Alpha Orbitals:
       Occupied  (SG) (SG) (SG) (SG) (SG) (PI) (PI) (SG) (SG) (SG)
                 (PI) (PI) (SG) (PI) (PI)
       Virtual   (SG) (PI) (PI) (SG) (SG) (PI) (PI) (DLTA) (DLTA)
                 (PI) (PI) (SG) (PI) (PI) (DLTA) (DLTA) (SG) (SG)
                 (PI) (PI) (DLTA) (DLTA) (SG) (SG) (DLTA) (DLTA)
                 (PI) (PI) (SG) (PI) (PI) (PI) (PI) (DLTA) (DLTA)
                 (SG) (PI) (PI) (SG) (PI) (PI) (SG) (DLTA) (DLTA)
                 (PI) (PI) (SG) (SG) (DLTA) (DLTA) (PI) (PI) (PI)
                 (PI) (SG) (DLTA) (DLTA) (SG) (SG) (PI) (PI) (PI)
                 (PI) (DLTA) (DLTA) (SG) (PI) (PI) (SG) (PI) (PI)
                 (SG) (SG) (PI) (PI) (DLTA) (DLTA) (SG) (PI) (PI)
                 (SG) (PI) (PI) (DLTA) (DLTA) (SG) (SG) (PI) (PI)
                 (SG) (DLTA) (DLTA) (SG) (PI) (PI) (PI) (PI) (SG)
                 (SG) (PI) (PI) (DLTA) (DLTA) (SG) (PI) (PI) (PI)
                 (PI) (SG) (SG) (SG) (DLTA) (DLTA) (PI) (PI) (DLTA)
                 (DLTA) (SG) (SG) (PI) (PI) (SG) (SG) (PI) (PI)
                 (PI) (PI) (SG) (DLTA) (DLTA) (PI) (PI) (SG) (SG)
                 (PI) (PI) (SG) (SG) (DLTA) (DLTA) (DLTA) (DLTA)
                 (PI) (PI) (SG) (PI) (PI) (SG) (SG) (SG) (SG) (PI)
                 (PI) (PI) (PI) (DLTA) (DLTA) (SG) (PI) (PI) (SG)
                 (SG) (DLTA) (DLTA) (PI) (PI) (DLTA) (DLTA) (SG)
                 (PI) (PI) (PI) (PI) (SG) (SG) (SG) (SG) (PI) (PI)
                 (PI) (PI) (SG) (SG) (DLTA) (DLTA) (PI) (PI) (SG)
                 (DLTA) (DLTA) (PI) (PI) (SG) (DLTA) (DLTA) (PI)
                 (PI) (SG) (PI) (PI) (SG) (SG) (SG) (SG) (PI) (PI)
                 (PI) (PI) (SG) (SG) (DLTA) (DLTA) (PI) (PI) (SG)
                 (DLTA) (DLTA) (DLTA) (DLTA) (PI) (PI) (PI) (PI)
                 (SG) (SG) (SG) (SG) (PI) (PI) (SG) (PI) (PI) (PI)
                 (PI) (SG) (SG) (DLTA) (DLTA) (PI) (PI) (SG) (SG)
                 (DLTA) (DLTA) (DLTA) (DLTA) (PI) (PI) (PI) (PI)
                 (SG) (SG) (SG) (SG) (PI) (PI) (SG) (PI) (PI) (PI)
                 (PI) (SG) (SG) (DLTA) (DLTA) (PI) (PI) (SG) (DLTA)
                 (DLTA) (DLTA) (DLTA) (PI) (PI) (PI) (PI) (SG)
                 (SG) (SG) (SG) (SG) (PI) (PI) (SG) (PI) (PI) (PI)
                 (PI) (SG) (SG) (DLTA) (DLTA) (PI) (PI) (SG) (DLTA)
                 (DLTA) (DLTA) (DLTA) (PI) (PI) (PI) (PI) (SG)
                 (SG) (SG) (SG) (SG) (PI) (PI) (SG) (PI) (PI) (PI)
                 (PI) (SG) (SG) (DLTA) (DLTA) (PI) (PI) (SG) (DLTA)
                 (DLTA) (DLTA) (DLTA) (PI) (PI) (PI) (PI) (SG)
                 (SG) (SG) (SG) (SG) (PI) (PI) (SG) (PI) (PI) (PI)
                 (PI) (SG) (SG) (DLTA) (DLTA) (PI) (PI) (SG) (DLTA)
                 (DLTA) (DLTA) (DLTA) (PI) (PI) (PI) (PI) (SG)
                 (SG) (SG) (SG) (SG) (PI) (PI) (SG) (PI) (PI) (PI)
                 (PI) (SG) (SG) (DLTA) (DLTA) (PI) (PI) (SG) (DLTA)
                 (DLTA) (DLTA) (DLTA) (PI) (PI) (PI) (PI) (SG)
                 (SG) (SG) (SG) (SG) (PI) (PI) (SG) (PI) (PI) (PI)
                 (PI) (SG) (SG) (DLTA) (DLTA) (PI) (PI) (SG) (SG)
                 (SG) (SG) (PI) (PI) (SG) (PI) (PI) (PI) (PI) (SG)
                 (SG) (DLTA) (DLTA) (PI) (PI) (SG) (SG) (SG) (SG)
                 (PI) (PI) (SG) (PI) (PI) (PI) (PI) (SG) (SG) (DLTA)
                 (DLTA) (PI) (PI) (SG) (SG) (SG) (SG) (PI) (PI)
                 (SG) (PI) (PI) (PI) (PI) (SG) (SG) (DLTA) (DLTA)
                 (PI) (PI) (SG) (SG) (SG) (SG) (PI) (PI) (SG) (PI)
                 (PI) (PI) (PI) (SG) (SG) (SG) (SG) (SG) (PI) (PI)
                 (SG) (PI) (PI) (PI) (PI) (SG) (SG) (SG) (SG) (SG)
                 (PI) (PI) (SG) (PI) (PI) (PI) (PI) (SG) (SG) (SG)
                 (SG) (SG) (PI) (PI) (SG) (PI) (PI) (PI) (PI) (SG)
                 (SG) (SG) (PI) (PI) (SG) (SG) (SG) (PI) (PI) (PI)
                 (PI) (SG) (SG) (SG) (PI) (PI) (SG) (SG) (PI) (PI)
                 (SG) (SG) (PI) (PI) (SG) (SG) (PI) (PI) (SG)
 Beta  Orbitals:
       Occupied  (SG) (SG) (SG) (SG) (SG) (PI) (PI) (SG) (SG) (SG)
                 (PI) (PI) (SG)
       Virtual   (PI) (PI) (SG) (PI) (PI) (SG) (SG) (PI) (PI) (DLTA)
                 (DLTA) (PI) (PI) (SG) (PI) (PI) (DLTA) (DLTA)
                 (SG) (SG) (PI) (PI) (DLTA) (DLTA) (SG) (SG) (DLTA)
                 (DLTA) (PI) (PI) (SG) (PI) (PI) (PI) (PI) (DLTA)
                 (DLTA) (SG) (PI) (PI) (SG) (PI) (PI) (SG) (DLTA)
                 (DLTA) (PI) (PI) (SG) (SG) (DLTA) (DLTA) (PI)
                 (PI) (PI) (PI) (SG) (DLTA) (DLTA) (SG) (SG) (PI)
                 (PI) (PI) (PI) (DLTA) (DLTA) (SG) (PI) (PI) (SG)
                 (PI) (PI) (SG) (SG) (PI) (PI) (DLTA) (DLTA) (SG)
                 (PI) (PI) (SG) (PI) (PI) (DLTA) (DLTA) (SG) (SG)
                 (PI) (PI) (SG) (DLTA) (DLTA) (SG) (PI) (PI) (PI)
                 (PI) (SG) (SG) (PI) (PI) (DLTA) (DLTA) (SG) (PI)
                 (PI) (PI) (PI) (SG) (SG) (SG) (DLTA) (DLTA) (PI)
                 (PI) (DLTA) (DLTA) (SG) (SG) (PI) (PI) (SG) (SG)
                 (PI) (PI) (PI) (PI) (SG) (DLTA) (DLTA) (PI) (PI)
                 (SG) (SG) (PI) (PI) (SG) (SG) (DLTA) (DLTA) (DLTA)
                 (DLTA) (PI) (PI) (SG) (PI) (PI) (SG) (SG) (SG)
                 (SG) (PI) (PI) (PI) (PI) (DLTA) (DLTA) (SG) (PI)
                 (PI) (SG) (SG) (DLTA) (DLTA) (PI) (PI) (DLTA)
                 (DLTA) (SG) (PI) (PI) (PI) (PI) (SG) (SG) (SG)
                 (SG) (PI) (PI) (PI) (PI) (SG) (SG) (DLTA) (DLTA)
                 (PI) (PI) (SG) (DLTA) (DLTA) (PI) (PI) (SG) (DLTA)
                 (DLTA) (PI) (PI) (SG) (PI) (PI) (SG) (SG) (SG)
                 (SG) (PI) (PI) (PI) (PI) (SG) (SG) (DLTA) (DLTA)
                 (PI) (PI) (SG) (DLTA) (DLTA) (DLTA) (DLTA) (PI)
                 (PI) (PI) (PI) (SG) (SG) (SG) (SG) (PI) (PI) (SG)
                 (PI) (PI) (PI) (PI) (SG) (SG) (DLTA) (DLTA) (PI)
                 (PI) (SG) (SG) (DLTA) (DLTA) (DLTA) (DLTA) (PI)
                 (PI) (PI) (PI) (SG) (SG) (SG) (SG) (PI) (PI) (SG)
                 (PI) (PI) (PI) (PI) (SG) (SG) (DLTA) (DLTA) (PI)
                 (PI) (SG) (DLTA) (DLTA) (DLTA) (DLTA) (PI) (PI)
                 (PI) (PI) (SG) (SG) (SG) (SG) (SG) (PI) (PI) (SG)
                 (PI) (PI) (PI) (PI) (SG) (SG) (DLTA) (DLTA) (PI)
                 (PI) (SG) (DLTA) (DLTA) (DLTA) (DLTA) (PI) (PI)
                 (PI) (PI) (SG) (SG) (SG) (SG) (SG) (PI) (PI) (SG)
                 (PI) (PI) (PI) (PI) (SG) (SG) (DLTA) (DLTA) (PI)
                 (PI) (SG) (DLTA) (DLTA) (DLTA) (DLTA) (PI) (PI)
                 (PI) (PI) (SG) (SG) (SG) (SG) (SG) (PI) (PI) (SG)
                 (PI) (PI) (PI) (PI) (SG) (SG) (DLTA) (DLTA) (PI)
                 (PI) (SG) (DLTA) (DLTA) (DLTA) (DLTA) (PI) (PI)
                 (PI) (PI) (SG) (SG) (SG) (SG) (SG) (PI) (PI) (SG)
                 (PI) (PI) (PI) (PI) (SG) (SG) (DLTA) (DLTA) (PI)
                 (PI) (SG) (DLTA) (DLTA) (DLTA) (DLTA) (PI) (PI)
                 (PI) (PI) (SG) (SG) (SG) (SG) (SG) (PI) (PI) (SG)
                 (PI) (PI) (PI) (PI) (SG) (SG) (DLTA) (DLTA) (PI)
                 (PI) (SG) (SG) (SG) (SG) (PI) (PI) (SG) (PI) (PI)
                 (PI) (PI) (SG) (SG) (DLTA) (DLTA) (PI) (PI) (SG)
                 (SG) (SG) (SG) (PI) (PI) (SG) (PI) (PI) (PI) (PI)
                 (SG) (SG) (DLTA) (DLTA) (PI) (PI) (SG) (SG) (SG)
                 (SG) (PI) (PI) (SG) (PI) (PI) (PI) (PI) (SG) (SG)
                 (DLTA) (DLTA) (PI) (PI) (SG) (SG) (SG) (SG) (PI)
                 (PI) (SG) (PI) (PI) (PI) (PI) (SG) (SG) (SG) (SG)
                 (SG) (PI) (PI) (SG) (PI) (PI) (PI) (PI) (SG) (SG)
                 (SG) (SG) (SG) (PI) (PI) (SG) (PI) (PI) (PI) (PI)
                 (SG) (SG) (SG) (SG) (SG) (PI) (PI) (SG) (PI) (PI)
                 (PI) (PI) (SG) (SG) (SG) (PI) (PI) (SG) (SG) (SG)
                 (PI) (PI) (PI) (PI) (SG) (SG) (SG) (PI) (PI) (SG)
                 (SG) (PI) (PI) (SG) (SG) (PI) (PI) (SG) (SG) (PI)
                 (PI) (SG)
 The electronic state of the initial guess is 3-SG.
 Initial guess <Sx>= 0.0000 <Sy>= 0.0000 <Sz>= 1.0000 <S**2>= 2.0000 S= 1.0000
 Leave Link  401 at Tue Jul 30 08:28:59 2013, MaxMem=  805306368 cpu:      27.2
 (Enter /share/apps/gaussian/gdvh12/gdv/l502.exe)
 UHF open shell SCF:
 Using DIIS extrapolation, IDIIS=  1040.
 Integral symmetry usage will be decided dynamically.
       733869 words used for storage of precomputed grid.
 IVT=     1822574 IEndB=     1822574 NGot=   805306368 MDV=   803855055
 LenX=   803855055 LenY=   803500435
 Requested convergence on RMS density matrix=1.00D-08 within 128 cycles.
 Requested convergence on MAX density matrix=1.00D-06.
 Requested convergence on             energy=1.00D-06.
 No special actions if energy rises.
 Fock matrices will be formed incrementally for  20 cycles.

 Cycle   1  Pass 1  IDiag  1:
 FoFJK:  IHMeth= 1 ICntrl=       0 DoSepK=F KAlg= 0 I1Cent=   0 FoldK=F
 IRaf=       0 NMat=   1 IRICut=       1 DoRegI=T DoRafI=F ISym2E= 1.
 FoFCou: FMM=F IPFlag=           0 FMFlag=      100000 FMFlg1=           0
         NFxFlg=           0 DoJE=F BraDBF=F KetDBF=F FulRan=T
         wScrn=  0.000000 ICntrl=       0 IOpCl=  1 I1Cent=           0 NGrid=           0
         NMat0=    1 NMatS0=      1 NMatT0=    0 NMatD0=    1 NMtDS0=    0 NMtDT0=    0
 Petite list used in FoFCou.
 E= -473.808309473373    
 DIIS: error= 9.13D-02 at cycle   1 NSaved=   1.
 NSaved= 1 IEnMin= 1 EnMin= -473.808309473373     IErMin= 1 ErrMin= 9.13D-02
 ErrMax= 9.13D-02  0.00D+00 EMaxC= 1.00D-01 BMatC= 9.88D+00 BMatP= 9.88D+00
 IDIUse=3 WtCom= 8.66D-02 WtEn= 9.13D-01
 Coeff-Com:  0.100D+01
 Coeff-En:   0.100D+01
 Coeff:      0.100D+01
 Gap=     0.188 Goal=   None    Shift=    0.000
 Gap=     0.000 Goal=   None    Shift=    0.000
 GapD=    0.000 DampG=0.250 DampE=0.500 DampFc=0.2500 IDamp=-1.
 Damping current iteration by 2.50D-01
 RMSDP=2.31D-03 MaxDP=2.19D-01              OVMax= 6.74D-01

 Cycle   2  Pass 1  IDiag  1:
 RMSU=  4.94D-04    CP:  9.42D-01
 E= -473.888545759492     Delta-E=       -0.080236286119 Rises=F Damp=T
 DIIS: error= 6.61D-02 at cycle   2 NSaved=   2.
 NSaved= 2 IEnMin= 2 EnMin= -473.888545759492     IErMin= 2 ErrMin= 6.61D-02
 ErrMax= 6.61D-02  0.00D+00 EMaxC= 1.00D-01 BMatC= 4.72D+00 BMatP= 9.88D+00
 IDIUse=3 WtCom= 3.39D-01 WtEn= 6.61D-01
 Coeff-Com: -0.151D+01 0.251D+01
 Coeff-En:   0.175D+00 0.825D+00
 Coeff:     -0.396D+00 0.140D+01
 Gap=     0.303 Goal=   None    Shift=    0.000
 Gap=     0.079 Goal=   None    Shift=    0.000
 RMSDP=1.37D-03 MaxDP=2.12D-01 DE=-8.02D-02 OVMax= 6.95D-01

 Cycle   3  Pass 1  IDiag  1:
 RMSU=  1.02D-03    CP:  7.72D-01  6.10D-01
 E= -473.819396991255     Delta-E=        0.069148768237 Rises=F Damp=F
 DIIS: error= 8.37D-02 at cycle   3 NSaved=   3.
 NSaved= 3 IEnMin= 2 EnMin= -473.888545759492     IErMin= 2 ErrMin= 6.61D-02
 ErrMax= 8.37D-02  0.00D+00 EMaxC= 1.00D-01 BMatC= 9.70D-01 BMatP= 4.72D+00
 IDIUse=3 WtCom= 1.63D-01 WtEn= 8.37D-01
 Coeff-Com: -0.767D+00 0.116D+01 0.606D+00
 Coeff-En:   0.000D+00 0.637D+00 0.363D+00
 Coeff:     -0.125D+00 0.722D+00 0.403D+00
 Gap=     0.296 Goal=   None    Shift=    0.000
 Gap=     0.028 Goal=   None    Shift=    0.000
 RMSDP=8.99D-04 MaxDP=9.04D-02 DE= 6.91D-02 OVMax= 4.63D-01

 Cycle   4  Pass 1  IDiag  1:
 RMSU=  6.34D-04    CP:  7.86D-01  1.56D+00  5.87D-01
 E= -473.984417529504     Delta-E=       -0.165020538249 Rises=F Damp=F
 DIIS: error= 3.50D-02 at cycle   4 NSaved=   4.
 NSaved= 4 IEnMin= 4 EnMin= -473.984417529504     IErMin= 4 ErrMin= 3.50D-02
 ErrMax= 3.50D-02  0.00D+00 EMaxC= 1.00D-01 BMatC= 4.57D-01 BMatP= 9.70D-01
 IDIUse=3 WtCom= 6.50D-01 WtEn= 3.50D-01
 Coeff-Com:  0.483D+00-0.598D+00 0.235D+00 0.880D+00
 Coeff-En:   0.000D+00 0.000D+00 0.351D+00 0.649D+00
 Coeff:      0.314D+00-0.389D+00 0.275D+00 0.799D+00
 Gap=     0.285 Goal=   None    Shift=    0.000
 Gap=     0.129 Goal=   None    Shift=    0.000
 RMSDP=7.18D-04 MaxDP=8.09D-02 DE=-1.65D-01 OVMax= 2.19D-01

 Cycle   5  Pass 1  IDiag  1:
 RMSU=  5.12D-04    CP:  7.41D-01  1.04D+00  8.05D-01  5.42D-01
 E= -474.104404185852     Delta-E=       -0.119986656348 Rises=F Damp=F
 DIIS: error= 8.23D-03 at cycle   5 NSaved=   5.
 NSaved= 5 IEnMin= 5 EnMin= -474.104404185852     IErMin= 5 ErrMin= 8.23D-03
 ErrMax= 8.23D-03  0.00D+00 EMaxC= 1.00D-01 BMatC= 4.70D-02 BMatP= 4.57D-01
 IDIUse=3 WtCom= 9.18D-01 WtEn= 8.23D-02
 Coeff-Com: -0.663D-01 0.102D+00 0.153D+00 0.181D+00 0.630D+00
 Coeff-En:   0.000D+00 0.000D+00 0.000D+00 0.000D+00 0.100D+01
 Coeff:     -0.609D-01 0.933D-01 0.141D+00 0.167D+00 0.660D+00
 Gap=     0.273 Goal=   None    Shift=    0.000
 Gap=     0.135 Goal=   None    Shift=    0.000
 RMSDP=3.13D-04 MaxDP=4.13D-02 DE=-1.20D-01 OVMax= 7.72D-02

 Cycle   6  Pass 1  IDiag  1:
 RMSU=  2.06D-04    CP:  7.06D-01  1.25D+00  8.47D-01  5.08D-01  8.21D-01
 E= -474.108806689375     Delta-E=       -0.004402503523 Rises=F Damp=F
 DIIS: error= 8.04D-03 at cycle   6 NSaved=   6.
 NSaved= 6 IEnMin= 6 EnMin= -474.108806689375     IErMin= 6 ErrMin= 8.04D-03
 ErrMax= 8.04D-03  0.00D+00 EMaxC= 1.00D-01 BMatC= 2.59D-02 BMatP= 4.70D-02
 IDIUse=3 WtCom= 9.20D-01 WtEn= 8.04D-02
 Coeff-Com: -0.494D-01 0.644D-01 0.354D-01 0.179D-01 0.453D+00 0.479D+00
 Coeff-En:   0.000D+00 0.000D+00 0.000D+00 0.000D+00 0.394D+00 0.606D+00
 Coeff:     -0.455D-01 0.592D-01 0.326D-01 0.165D-01 0.448D+00 0.489D+00
 Gap=     0.271 Goal=   None    Shift=    0.000
 Gap=     0.136 Goal=   None    Shift=    0.000
 RMSDP=1.51D-04 MaxDP=2.02D-02 DE=-4.40D-03 OVMax= 4.31D-02

 Cycle   7  Pass 1  IDiag  1:
 RMSU=  7.45D-05    CP:  7.22D-01  1.14D+00  8.39D-01  4.93D-01  9.35D-01
                    CP:  7.11D-01
 E= -474.115153291663     Delta-E=       -0.006346602288 Rises=F Damp=F
 DIIS: error= 2.18D-03 at cycle   7 NSaved=   7.
 NSaved= 7 IEnMin= 7 EnMin= -474.115153291663     IErMin= 7 ErrMin= 2.18D-03
 ErrMax= 2.18D-03  0.00D+00 EMaxC= 1.00D-01 BMatC= 7.40D-04 BMatP= 2.59D-02
 IDIUse=3 WtCom= 9.78D-01 WtEn= 2.18D-02
 Coeff-Com: -0.315D-01 0.415D-01-0.388D-02-0.116D-01 0.126D+00 0.167D+00
 Coeff-Com:  0.713D+00
 Coeff-En:   0.000D+00 0.000D+00 0.000D+00 0.000D+00 0.000D+00 0.000D+00
 Coeff-En:   0.100D+01
 Coeff:     -0.308D-01 0.406D-01-0.379D-02-0.114D-01 0.123D+00 0.163D+00
 Coeff:      0.719D+00
 Gap=     0.272 Goal=   None    Shift=    0.000
 Gap=     0.134 Goal=   None    Shift=    0.000
 RMSDP=5.32D-05 MaxDP=7.03D-03 DE=-6.35D-03 OVMax= 9.92D-03

 Cycle   8  Pass 1  IDiag  1:
 RMSU=  2.68D-05    CP:  7.16D-01  1.17D+00  8.28D-01  4.98D-01  9.76D-01
                    CP:  8.10D-01  9.88D-01
 E= -474.115417101565     Delta-E=       -0.000263809902 Rises=F Damp=F
 DIIS: error= 9.02D-04 at cycle   8 NSaved=   8.
 NSaved= 8 IEnMin= 8 EnMin= -474.115417101565     IErMin= 8 ErrMin= 9.02D-04
 ErrMax= 9.02D-04  0.00D+00 EMaxC= 1.00D-01 BMatC= 1.12D-04 BMatP= 7.40D-04
 IDIUse=3 WtCom= 9.91D-01 WtEn= 9.02D-03
 Coeff-Com: -0.301D-02 0.410D-02-0.742D-02-0.254D-02-0.219D-01-0.598D-01
 Coeff-Com: -0.396D-02 0.109D+01
 Coeff-En:   0.000D+00 0.000D+00 0.000D+00 0.000D+00 0.000D+00 0.000D+00
 Coeff-En:   0.000D+00 0.100D+01
 Coeff:     -0.299D-02 0.406D-02-0.735D-02-0.252D-02-0.217D-01-0.593D-01
 Coeff:     -0.392D-02 0.109D+01
 Gap=     0.273 Goal=   None    Shift=    0.000
 Gap=     0.134 Goal=   None    Shift=    0.000
 RMSDP=3.34D-05 MaxDP=4.05D-03 DE=-2.64D-04 OVMax= 7.09D-03

 Cycle   9  Pass 1  IDiag  1:
 RMSU=  9.80D-06    CP:  7.16D-01  1.18D+00  8.15D-01  4.98D-01  1.02D+00
                    CP:  8.51D-01  1.13D+00  1.45D+00
 E= -474.115470974373     Delta-E=       -0.000053872808 Rises=F Damp=F
 DIIS: error= 1.25D-04 at cycle   9 NSaved=   9.
 NSaved= 9 IEnMin= 9 EnMin= -474.115470974373     IErMin= 9 ErrMin= 1.25D-04
 ErrMax= 1.25D-04  0.00D+00 EMaxC= 1.00D-01 BMatC= 5.57D-06 BMatP= 1.12D-04
 IDIUse=3 WtCom= 9.99D-01 WtEn= 1.25D-03
 Coeff-Com:  0.262D-02-0.347D-02-0.431D-04-0.510D-03-0.140D-01-0.307D-01
 Coeff-Com: -0.886D-01 0.698D-01 0.106D+01
 Coeff-En:   0.000D+00 0.000D+00 0.000D+00 0.000D+00 0.000D+00 0.000D+00
 Coeff-En:   0.000D+00 0.000D+00 0.100D+01
 Coeff:      0.262D-02-0.347D-02-0.431D-04-0.509D-03-0.139D-01-0.307D-01
 Coeff:     -0.885D-01 0.698D-01 0.106D+01
 Gap=     0.274 Goal=   None    Shift=    0.000
 Gap=     0.134 Goal=   None    Shift=    0.000
 RMSDP=1.16D-05 MaxDP=1.30D-03 DE=-5.39D-05 OVMax= 1.98D-03

 Cycle  10  Pass 1  IDiag  1:
 RMSU=  1.76D-06    CP:  7.16D-01  1.18D+00  8.12D-01  4.97D-01  1.04D+00
                    CP:  8.65D-01  1.16D+00  1.63D+00  1.40D+00
 E= -474.115474290975     Delta-E=       -0.000003316602 Rises=F Damp=F
 DIIS: error= 5.27D-05 at cycle  10 NSaved=  10.
 NSaved=10 IEnMin=10 EnMin= -474.115474290975     IErMin=10 ErrMin= 5.27D-05
 ErrMax= 5.27D-05  0.00D+00 EMaxC= 1.00D-01 BMatC= 3.26D-07 BMatP= 5.57D-06
 IDIUse=1 WtCom= 1.00D+00 WtEn= 0.00D+00
 Coeff-Com:  0.362D-03-0.477D-03 0.319D-03 0.156D-03-0.129D-02-0.381D-03
 Coeff-Com:  0.400D-02-0.599D-02-0.465D-01 0.105D+01
 Coeff:      0.362D-03-0.477D-03 0.319D-03 0.156D-03-0.129D-02-0.381D-03
 Coeff:      0.400D-02-0.599D-02-0.465D-01 0.105D+01
 Gap=     0.274 Goal=   None    Shift=    0.000
 Gap=     0.134 Goal=   None    Shift=    0.000
 RMSDP=2.13D-06 MaxDP=2.54D-04 DE=-3.32D-06 OVMax= 4.24D-04

 Cycle  11  Pass 1  IDiag  1:
 RMSU=  6.34D-07    CP:  7.16D-01  1.18D+00  8.12D-01  4.97D-01  1.03D+00
                    CP:  8.63D-01  1.16D+00  1.63D+00  1.42D+00  1.28D+00
 E= -474.115474503654     Delta-E=       -0.000000212679 Rises=F Damp=F
 DIIS: error= 1.08D-05 at cycle  11 NSaved=  11.
 NSaved=11 IEnMin=11 EnMin= -474.115474503654     IErMin=11 ErrMin= 1.08D-05
 ErrMax= 1.08D-05  0.00D+00 EMaxC= 1.00D-01 BMatC= 2.03D-08 BMatP= 3.26D-07
 IDIUse=1 WtCom= 1.00D+00 WtEn= 0.00D+00
 Coeff-Com:  0.576D-05-0.124D-04-0.131D-03 0.214D-03 0.126D-02 0.257D-02
 Coeff-Com:  0.678D-02-0.685D-03-0.926D-01-0.152D+00 0.123D+01
 Coeff:      0.576D-05-0.124D-04-0.131D-03 0.214D-03 0.126D-02 0.257D-02
 Coeff:      0.678D-02-0.685D-03-0.926D-01-0.152D+00 0.123D+01
 Gap=     0.274 Goal=   None    Shift=    0.000
 Gap=     0.134 Goal=   None    Shift=    0.000
 RMSDP=1.02D-06 MaxDP=1.24D-04 DE=-2.13D-07 OVMax= 2.31D-04

 Cycle  12  Pass 1  IDiag  1:
 RMSU=  3.48D-07    CP:  7.16D-01  1.18D+00  8.12D-01  4.98D-01  1.03D+00
                    CP:  8.61D-01  1.16D+00  1.63D+00  1.40D+00  1.42D+00
                    CP:  1.22D+00
 E= -474.115474533640     Delta-E=       -0.000000029985 Rises=F Damp=F
 DIIS: error= 4.37D-06 at cycle  12 NSaved=  12.
 NSaved=12 IEnMin=12 EnMin= -474.115474533640     IErMin=12 ErrMin= 4.37D-06
 ErrMax= 4.37D-06  0.00D+00 EMaxC= 1.00D-01 BMatC= 1.91D-09 BMatP= 2.03D-08
 IDIUse=1 WtCom= 1.00D+00 WtEn= 0.00D+00
 Coeff-Com: -0.343D-04 0.464D-04-0.159D-05-0.256D-04-0.151D-03-0.417D-03
 Coeff-Com: -0.153D-02-0.673D-03 0.211D-01-0.734D-01-0.210D+00 0.127D+01
 Coeff:     -0.343D-04 0.464D-04-0.159D-05-0.256D-04-0.151D-03-0.417D-03
 Coeff:     -0.153D-02-0.673D-03 0.211D-01-0.734D-01-0.210D+00 0.127D+01
 Gap=     0.274 Goal=   None    Shift=    0.000
 Gap=     0.134 Goal=   None    Shift=    0.000
 RMSDP=3.32D-07 MaxDP=4.29D-05 DE=-3.00D-08 OVMax= 1.00D-04

 Cycle  13  Pass 1  IDiag  1:
 RMSU=  8.27D-08    CP:  7.16D-01  1.18D+00  8.12D-01  4.98D-01  1.03D+00
                    CP:  8.61D-01  1.16D+00  1.63D+00  1.39D+00  1.44D+00
                    CP:  1.33D+00  1.37D+00
 E= -474.115474537216     Delta-E=       -0.000000003576 Rises=F Damp=F
 DIIS: error= 1.03D-06 at cycle  13 NSaved=  13.
 NSaved=13 IEnMin=13 EnMin= -474.115474537216     IErMin=13 ErrMin= 1.03D-06
 ErrMax= 1.03D-06  0.00D+00 EMaxC= 1.00D-01 BMatC= 1.42D-10 BMatP= 1.91D-09
 IDIUse=1 WtCom= 1.00D+00 WtEn= 0.00D+00
 Coeff-Com: -0.579D-05 0.777D-05 0.122D-04-0.266D-04-0.228D-04-0.233D-04
 Coeff-Com: -0.839D-04-0.126D-03 0.129D-02 0.287D-01-0.429D-01-0.274D+00
 Coeff-Com:  0.129D+01
 Coeff:     -0.579D-05 0.777D-05 0.122D-04-0.266D-04-0.228D-04-0.233D-04
 Coeff:     -0.839D-04-0.126D-03 0.129D-02 0.287D-01-0.429D-01-0.274D+00
 Coeff:      0.129D+01
 Gap=     0.274 Goal=   None    Shift=    0.000
 Gap=     0.134 Goal=   None    Shift=    0.000
 RMSDP=5.77D-08 MaxDP=7.30D-06 DE=-3.58D-09 OVMax= 2.74D-05

 Cycle  14  Pass 1  IDiag  1:
 RMSU=  2.35D-08    CP:  7.16D-01  1.18D+00  8.12D-01  4.98D-01  1.03D+00
                    CP:  8.61D-01  1.16D+00  1.63D+00  1.39D+00  1.43D+00
[...]
 Rotational constants (MHZ):
      0.0000000   6495.7393082   6495.7393082
 electron spin - nuclear spin (dipole-dipole) [T] (MHz):
  1  C12   
   aa=     0.0000   ba=     0.0000   ca=     0.0000
   ab=     0.0000   bb=     0.0000   cb=     0.0000
   ac=     0.0000   bc=     0.0000   cc=     0.0000
  2  C12   
   aa=     0.0000   ba=     0.0000   ca=     0.0000
   ab=     0.0000   bb=     0.0000   cb=     0.0000
   ac=     0.0000   bc=     0.0000   cc=     0.0000
  3  S32   
   aa=     0.0000   ba=     0.0000   ca=     0.0000
   ab=     0.0000   bb=     0.0000   cb=     0.0000
   ac=     0.0000   bc=     0.0000   cc=     0.0000
 Isotropic Fermi Contact Couplings [a_f](MHz):
  1  C12        0.0000
  2  C12        0.0000
  3  S32        0.0000
 Nuclear quadrupole coupling constants [Chi] (MHz):
  1  C(12) 
   aa=     0.0000   ba=     0.0000   ca=     0.0000
   ab=     0.0000   bb=     0.0000   cb=     0.0000
   ac=     0.0000   bc=     0.0000   cc=     0.0000
  2  C(12) 
   aa=     0.0000   ba=     0.0000   ca=     0.0000
   ab=     0.0000   bb=     0.0000   cb=     0.0000
   ac=     0.0000   bc=     0.0000   cc=     0.0000
  3  S(32) 
   aa=     0.0000   ba=     0.0000   ca=     0.0000
   ab=     0.0000   bb=     0.0000   cb=     0.0000
   ac=     0.0000   bc=     0.0000   cc=     0.0000
 Dipole moment (Debye):
      0.0000000      3.0676698      0.0000000  Tot=      3.0676698
 Quartic Centrifugal Distortion Constants (MHz)
    (Asymmetrically reduced)          (Symmetrically reduced)
    DELTA N  =    0.000000000         D N  =    0.000000000
    DELTA K  =    0.000000000         D K  =    0.000000000
    DELTA NK =    0.000000000         D NK =    0.000000000
    delta N  =    0.000000000         d 1  =    0.000000000
    delta K  =    0.000000000         d 2  =    0.000000000

 Atoms with significant hyperfine tensors: 

--------------------------------------------------------------------------------
 CCS pre-optimized at apfd/ugbs1p                        
   99  1000  50  0.1760E-11  0.1000E+07  0.1000E+01 1.0000000000
a 3  1  0  0  0  1  1   1  0  1  0
     10000   0.00000000E+00    0.0000E+00   /  A  /
     20000   0.64957393E+04    0.0000E+00   /  B  /
     30000   0.64957393E+04    0.0000E+00   /  C  /
       200   0.00000000E+00    0.0000E+00   /  -DELTA N  /
      2000   0.00000000E+00    0.0000E+00   /  -DELTA K  /
      1100   0.00000000E+00    0.0000E+00   /  -DELTA NK  /
     40100   0.00000000E+00    0.0000E+00   /  -delta N  /
     41000   0.00000000E+00    0.0000E+00   /  -delta K  /
--------------------------------------------------------------------------------

 Operation on file out of range.
 FileIO: IOper= 2 IFilNo(1)=  -524 Len=      297570 IPos=           0 Q=   46912497276320


 dumping /fiocom/, unit = 1 NFiles =   105 SizExt =    524288 WInBlk =       512
                   defal = T LstWrd =    49270784 FType=2 FMxFil=10000

 Number              0             0             0             0             0             0
 Base          3045966       5733874      14946290       3048960       2893824       6038528
 End           3046400       5733888      14946304       3050496       2895360       6041600
 End1          3046400       5733888      14946304       3050496       2895360       6041600
 Wr Pntr       3045966       5733874      14946290       3048960       2893824       6038528
 Rd Pntr       3045966       5733874      14946290       3048960       2893824       6038528
 Length            434            14            14          1536          1536          3072

 Number              0             0             0             0             0             0
 Base           181760        213504        207872       6033920         72192        201728
 End            182272        214528        209920       6034432         73728        206848
 End1           182272        214528        209920       6034432         73728        206848
 Wr Pntr        181760        213504        207872       6033920         72192        201728
 Rd Pntr        181760        213504        207872       6033920         72192        201728
 Length            512          1024          2048           512          1536          5120

 Number              0             0             0             0             0             0
 Base         22164480       7076352       3645440       3045888       4241408       6049280
 End          22461952      14050304       3790848       3045921       4538880       6330368
 End1         22461952      14050304       3790848       3045921       4538880       6330368
 Wr Pntr      22164480       7076352       3645440       3045888       4241408       6049280
 Rd Pntr      22164480       7076352       3645440       3045888       4241408       6049280
 Length         297472       6973952        145408            33        297472        281088

 Number              0             0             0             0             0           501
 Base         27088384       1705984         75776        180736      35905024         43520
 End          35305984       1708032         76800        181248      49270784         44520
 End1         35305984       1708032         76800        181248      49270784         44544
 Wr Pntr      27088384       1705984         75776        180736      35905024         43520
 Rd Pntr      27088384       1705984         75776        180736      35905024         44520
 Length        8217600          2048          1024           512      13365760          1000

 Number            502           503           508           511           514           515
 Base           196608        180224        214528        182784       1260544        663040
 End            201532        180240        214558        182841       1409875       1260364
 End1           201728        180736        215040        183296       1410048       1260544
 Wr Pntr        196608        180224        214528        182784       1260544        663040
 Rd Pntr        201532        180240        214558        182841       1260544        663040
 Length           4924            16            30            57        149331        597324

 Number            516           517           518           520           521           522
 Base           215040       2890240       2442240        212992        192512       6041600
 End            663033       2891878       2890233        213002        192547       6042688
 End1           663040       2892288       2890240        213504        193024       6043136
 Wr Pntr        215040       2890240       2442240        212992        192512       6041600
 Rd Pntr        215040       2890240       2442240        213002        192547       6042688
 Length         447993          1638        447993            10            35          1088

 Number            523           524           526           528           530           532
 Base          2892288       3050496       3347968       3790848       3940352       4091904
 End           2893378       3347520       3644992       3940179       4089683       4241235
 End1          2893824       3347968       3645440       3940352       4089856       4241408
 Wr Pntr       2892288       3050496       3347968       3790848       3940352       4091904
 Rd Pntr       2892288       3050496       3644992       3790848       3940352       4091904
 Length           1090        297024        297024        149331        149331        149331

 Number            534           536           538           540           545           547
 Base          2895360       4538880       4688384       5733888       3045376       6046208
 End           3044691       4688211       4837715       6029824       3045404       6047296
 End1          3044864       4688384       4837888       6029824       3045888       6047744
 Wr Pntr       2895360       4538880       4688384       5733888       3045376       6046208
 Rd Pntr       2895360       4688211       4837715       5733888       3045404       6046208
 Length         149331        149331        149331        295936            28          1088

 Number            548           549           551           552           559           561
 Base         22461952       1410048        190464        189440        206848        190976
 End          23056000       1705984        190502        189466        206850        190977
 End1         23056384       1705984        190976        189952        207360        191488
 Wr Pntr      22461952       1410048        190464        189440        206848        190976
 Rd Pntr      23056000       1410048        190502        189466        206848        190977
 Length         594048        295936            38            26             2             1

 Number            562           563           564           565           569           571
 Base           183296       4089856       4090880        210432       3044864       6330368
 End            189386       4090402       4091426        211224       3044866       6479699
 End1           189440       4090880       4091904        211456       3045376       6479872
 Wr Pntr        183296       4089856       4090880        210432       3044864       6330368
 Rd Pntr        189386       4089856       4090880        210432       3044866       6330368
 Length           6090           546           546           792             2        149331

 Number            575           577           579           580           581           582
 Base           182272        209920        189952       6035456       6036992         73728
 End            182561        209972        189964       6036597       6038205         75366
 End1           182784        210432        190464       6036992       6038528         75776
 Wr Pntr        182272        209920        189952       6035456       6036992         73728
 Rd Pntr        182561        209920        189952       6035456       6036992         73728
 Length            289            52            12          1141          1213          1638

 Number            583           584           585           586           588           590
 Base           207360        211456       3045921      14946304      23056384      23504384
 End            207364        211474       3045966      22164139      23504377      27088328
 End1           207872        211968       3045966      22164480      23504384      27088384
 Wr Pntr        207360        211456       3045921      14946304      23056384      23504384
 Rd Pntr        207360        211465       3045966      14946304      23056384      23504384
 Length              4            18            45       7217835        447993       3583944

 Number            592           593           598           603           605           606
 Base          4837888      14050304         76800       6777344       3046912       6043136
 End           5733874      14946290         76802       7076007       3046916       6044224
 End1          5733874      14946290         77312       7076352       3047424       6044672
 Wr Pntr       4837888      14050304         76800       6777344       3046912       6043136
 Rd Pntr       4837888      14050304         76802       7076007       3046916       6043136
 Length         895986        895986             2        298663             4          1088

 Number            607           618           619           634           670           674
 Base          6044672       3046400        211968      35305984        193024        181248
 End           6045760       3046760        212453      35904562        196322        181307
 End1          6046208       3046912        212480      35905024        196608        181760
 Wr Pntr       6044672       3046400        211968      35305984        193024        181248
 Rd Pntr       6045760       3046760        211972      35305984        196322        181307
 Length           1088           360           485        598578          3298            59

 Number            685           694           695           698           703           719
 Base          6479872       6047744        212480        192000       6034944       3047936
 End           6776896       6048832        212601        192018       6034969       3048671
 End1          6777344       6049280        212992        192512       6035456       3048960
 Wr Pntr       6479872       6047744        212480        192000       6034944       3047936
 Rd Pntr       6479872       6048832        212601        192018       6034969       3047936
 Length         297024          1088           121            18            25           735

 Number            742           761           765           776           777           989
 Base          1708032        191488       3047424       6034432       6029824         44544
 End           2441973        191489       3047522       6034473       6033698         64544
 End1          2442240        192000       3047936       6034944       6033920         65024
 Wr Pntr       1708032        191488       3047424       6034432       6029824         44544
 Rd Pntr       1708032        191488       3047522       6034473       6033698         64544
 Length         733941             1            98            41          3874         20000

 Number            991           992           993           994           995           996
 Base            65536         65024         43008         40448         42496         41472
 End             72098         65033         43208         40478         42516         41672
 End1            72192         65536         43520         40960         43008         41984
 Wr Pntr         65536         65024         43208         40448         42496         41472
 Rd Pntr         72098         65033         43208         40478         42516         41672
 Length           6562             9           200            30            20           200

 Number            997           998           999
 Base            41984         40960         77312
 End             42112         41160        179816
 End1            42496         41472        180224
 Wr Pntr         42112         41160         77312
 Rd Pntr         42112         41160         79816
 Length            128           200        102504


 dumping /fiocom/, unit = 2 NFiles =    47 SizExt =         0 WInBlk =       512
                   defal = F LstWrd =    10296320 FType=2 FMxFil=10000

 Number              0             0             0             0             0             0
 Base           641432       2166127       2466010        949349       2468231         41766
 End            641440       2166765       2468190        949397       3072015        640344
 End1           641440       2166765       2468190        949397       3072015        640344
 Wr Pntr        641432       2166127       2467151        949349       2468231         41766
 Rd Pntr        641432       2166127       2467151        949349       2468231         41766
 Length              8           638          2180            48        603784        598578

 Number              0           501           502           503           508           511
 Base          3075889        940127        941127       2465976         40448        949397
 End          10296320        941127        946051       2465992         40478        949454
 End1         10296320        941127        946051       2465992         40478        949454
 Wr Pntr       3075889        941127        946051       2465992         40478        949454
 Rd Pntr       3075889        940127        941127       2465976         40448        949397
 Length        7220431          1000          4924            16            30            57

 Number            520           521           522           524           526           536
 Base           976057        976422         40678        976485       1273509        641440
 End            976067        976457         41766       1273509       1570533        790771
 End1           976067        976457         41766       1273509       1570533        790771
 Wr Pntr        976067        976457         41766       1273509       1570533        790771
 Rd Pntr        976057        976422         40678        976485       1273509        641440
 Length             10            35          1088        297024        297024        149331

 Number            538           545           548           551           552           561
 Base           790771        976457       1570533        976093        976067        969966
 End            940102        976485       2164581        976131        976093        969967
 End1           940102        976485       2164581        976131        976093        969967
 Wr Pntr        940102        976485       2164581        976131        976093        969967
 Rd Pntr        790771        976457       1570533        976093        976067        969966
 Length         149331            28        594048            38            26             1

 Number            562           569           575           584           585           603
 Base           969967        976131        976133        949454        949472       2167254
 End            976057        976133        976422        949472        949517       2465917
 End1           976057        976133        976422        949472        949517       2465917
 Wr Pntr        976057        976133        976422        949472        949517       2465917
 Rd Pntr        969967        976131        976133        949454        949472       2167254
 Length           6090             2           289            18            45        298663

 Number            605           607           618           619           670           674
 Base          2167250        640344       2165669       2166765        946051       2465917
 End           2167254        641432       2166029       2167250        949349       2465976
 End1          2167254        641432       2166029       2167250        949349       2465976
 Wr Pntr       2167254        641432       2166029       2167250        949349       2465976
 Rd Pntr       2167250        640344       2165669       2166765        946051       2465917
 Length              4          1088           360           485          3298            59

 Number            694           695           698           703           765           776
 Base          2164581        949517       2465992        940102       2166029       2468190
 End           2165669        949638       2466010        940127       2166127       2468231
 End1          2165669        949638       2466010        940127       2166127       2468231
 Wr Pntr       2165669        949638       2466010        940127       2166127       2468231
 Rd Pntr       2164581        949517       2465992        940102       2166029       2468190
 Length           1088           121            18            25            98            41

 Number            777           989           993           997           998
 Base          3072015        949638        969638        969838         40478
 End           3075889        969638        969838        969966         40678
 End1          3075889        969638        969838        969966         40678
 Wr Pntr       3075889        969638        969838        969966         40678
 Rd Pntr       3072015        949638        969638        969838         40478
 Length           3874         20000           200           128           200


 dumping /fiocom/, unit = 3 NFiles =     1 SizExt =    524288 WInBlk =       512
                   defal = T LstWrd =       65536 FType=2 FMxFil=10000

 Number              0
 Base            40448
 End             65536
 End1            65536
 Wr Pntr         40448
 Rd Pntr         40448
 Length          25088
 Error termination in NtrErr:
 NtrErr Called from FileIO.
