 Entering Gaussian System, Link 0=g09
 AtFile(1): 7ZaPa-NR.gbs
 Initial command:
 /share/apps/gaussian/g09root/g09/l1.exe /localscratch/72596/Gau-14580.inp -scrdir=/localscratch/72596/
 Entering Link 1 = /share/apps/gaussian/g09root/g09/l1.exe PID=     14581.
  
 Copyright (c) 1988,1990,1992,1993,1995,1998,2003,2009, Gaussian, Inc.
                  All Rights Reserved.
  
 This is part of the Gaussian(R) 09 program.  It is based on
 the Gaussian(R) 03 system (copyright 2003, Gaussian, Inc.),
 the Gaussian(R) 98 system (copyright 1998, Gaussian, Inc.),
 the Gaussian(R) 94 system (copyright 1995, Gaussian, Inc.),
 the Gaussian 92(TM) system (copyright 1992, Gaussian, Inc.),
 the Gaussian 90(TM) system (copyright 1990, Gaussian, Inc.),
 the Gaussian 88(TM) system (copyright 1988, Gaussian, Inc.),
 the Gaussian 86(TM) system (copyright 1986, Carnegie Mellon
 University), and the Gaussian 82(TM) system (copyright 1983,
 Carnegie Mellon University). Gaussian is a federally registered
 trademark of Gaussian, Inc.
  
 This software contains proprietary and confidential information,
 including trade secrets, belonging to Gaussian, Inc.
  
 This software is provided under written license and may be
 used, copied, transmitted, or stored only in accord with that
 written license.
  
 The following legend is applicable only to US Government
 contracts under FAR:
  
                    RESTRICTED RIGHTS LEGEND
  
 Use, reproduction and disclosure by the US Government is
 subject to restrictions as set forth in subparagraphs (a)
 and (c) of the Commercial Computer Software - Restricted
 Rights clause in FAR 52.227-19.
  
 Gaussian, Inc.
 340 Quinnipiac St., Bldg. 40, Wallingford CT 06492
  
  
 ---------------------------------------------------------------
 Warning -- This program may not be used in any manner that
 competes with the business of Gaussian, Inc. or will provide
 assistance to any competitor of Gaussian, Inc.  The licensee
 of this program is prohibited from giving any competitor of
 Gaussian, Inc. access to this program.  By using this program,
 the user acknowledges that Gaussian, Inc. is engaged in the
 business of creating and licensing software in the field of
 computational chemistry and represents and warrants to the
 licensee that it is not a competitor of Gaussian, Inc. and that
 it will not use this program in any manner prohibited above.
 ---------------------------------------------------------------
  

 Cite this work as:
 Gaussian 09, Revision A.02,
 M. J. Frisch, G. W. Trucks, H. B. Schlegel, G. E. Scuseria, 
 M. A. Robb, J. R. Cheeseman, G. Scalmani, V. Barone, B. Mennucci, 
 G. A. Petersson, H. Nakatsuji, M. Caricato, X. Li, H. P. Hratchian, 
 A. F. Izmaylov, J. Bloino, G. Zheng, J. L. Sonnenberg, M. Hada, 
 M. Ehara, K. Toyota, R. Fukuda, J. Hasegawa, M. Ishida, T. Nakajima, 
 Y. Honda, O. Kitao, H. Nakai, T. Vreven, J. A. Montgomery, Jr., 
 J. E. Peralta, F. Ogliaro, M. Bearpark, J. J. Heyd, E. Brothers, 
 K. N. Kudin, V. N. Staroverov, R. Kobayashi, J. Normand, 
 K. Raghavachari, A. Rendell, J. C. Burant, S. S. Iyengar, J. Tomasi, 
 M. Cossi, N. Rega, J. M. Millam, M. Klene, J. E. Knox, J. B. Cross, 
 V. Bakken, C. Adamo, J. Jaramillo, R. Gomperts, R. E. Stratmann, 
 O. Yazyev, A. J. Austin, R. Cammi, C. Pomelli, J. W. Ochterski, 
 R. L. Martin, K. Morokuma, V. G. Zakrzewski, G. A. Voth, 
 P. Salvador, J. J. Dannenberg, S. Dapprich, A. D. Daniels, 
 O. Farkas, J. B. Foresman, J. V. Ortiz, J. Cioslowski, 
 and D. J. Fox, Gaussian, Inc., Wallingford CT, 2009.
 
 ******************************************
 Gaussian 09:  EM64L-G09RevA.02 11-Jun-2009
                12-Dec-2013 
 ******************************************
 % Mem=64GB
 % Nproc=16
 Will use up to   16 processors via shared memory.
 % Chk=CoO+_5Delta.chk
 ----------------------------------------------------------------------
 # ROMP2 Gen GFinput Int=NoBasisTransform SCF=Symm IOP(3/32=2,5/6=8,9/3
 3=1) Int(Grid=Ultrafine) CBSextrapolate(Nmin=25,MinPop) Guess=Read
 ----------------------------------------------------------------------
 1/38=1/1;
 2/12=2,17=6,18=5,40=1/2;
 3/5=7,11=2,16=1,24=10,25=1,30=1,32=2,60=-1,75=-5,116=101/1,2,3;
 4/5=1,9=4/1;
 5/5=2,6=8,15=2,38=6/2;
 8/5=-1,10=1/1;
 9/16=-3,33=1,75=2,81=25,83=4/6,4;
 6/7=2,8=2,9=2,10=2/1;
 99/5=1,9=1/99;
 --------
 CoO+ 5/\
 --------
 Symbolic Z-matrix:
 Charge =  1 Multiplicity = 5
 Co
 O                    1    R
       Variables:
  R                     1.632                    
 
                          Input orientation:                          
 ---------------------------------------------------------------------
 Center     Atomic      Atomic             Coordinates (Angstroms)
 Number     Number       Type             X           Y           Z
 ---------------------------------------------------------------------
      1         27           0        0.000000    0.000000    0.000000
      2          8           0        0.000000    0.000000    1.632000
 ---------------------------------------------------------------------
 Stoichiometry    CoO(1+,5)
 Framework group  C*V[C*(OCo)]
 Deg. of freedom     1
 Full point group                 C*V     NOp   4
 Largest Abelian subgroup         C2V     NOp   4
 Largest concise Abelian subgroup C1      NOp   1
                         Standard orientation:                         
 ---------------------------------------------------------------------
 Center     Atomic      Atomic             Coordinates (Angstroms)
 Number     Number       Type             X           Y           Z
 ---------------------------------------------------------------------
      1         27           0        0.000000    0.000000    0.373029
      2          8           0        0.000000    0.000000   -1.258971
 ---------------------------------------------------------------------
 Rotational constants (GHZ):      0.0000000     15.0827227     15.0827227
 General basis read from cards:  (5D, 7F)
 AO basis set in the form of general basis input (Overlap normalization):
      1 0
 S  18 1.00       0.000000000000
      0.4495614070D+08  0.4488200405D-06
      0.8558178660D+07  0.2751873153D-05
      0.1960655530D+07  0.1578253840D-04
      0.5264767680D+06  0.7275304373D-04
      0.1618003930D+06  0.2863159476D-03
      0.5571071220D+05  0.9824668118D-03
      0.2108640350D+05  0.3013325145D-02
      0.8627085680D+04  0.8405638482D-02
      0.3759253350D+04  0.2157103125D-01
      0.1722327390D+04  0.5093854919D-01
      0.8204791490D+03  0.1089658972D+00
      0.4025467070D+03  0.2024461857D+00
      0.2017701030D+03  0.2991155345D+00
      0.1026260340D+03  0.2932703355D+00
      0.5267420800D+02  0.1398555271D+00
      0.2715855300D+02  0.1963710841D-01
      0.1401517100D+02  0.1310472454D-02
      0.7217928000D+01 -0.5619254961D-06
 S  16 1.00       0.000000000000
      0.5571071220D+05 -0.3507844807D-06
      0.2108640350D+05 -0.3079786286D-05
      0.8627085680D+04 -0.2223545171D-04
      0.3759253350D+04 -0.1343594696D-03
      0.1722327390D+04 -0.6999104424D-03
      0.8204791490D+03 -0.3196441226D-02
      0.4025467070D+03 -0.1245284939D-01
      0.2017701030D+03 -0.3945729300D-01
      0.1026260340D+03 -0.8326928475D-01
      0.5267420800D+02 -0.5643109525D-01
      0.2715855300D+02  0.1919156070D+00
      0.1401517100D+02  0.5133363994D+00
      0.7217928000D+01  0.3688272266D+00
      0.3701266000D+01  0.6317262205D-01
      0.1886308000D+01  0.3286077241D-02
      0.9539760000D+00 -0.1835823135D-02
 P  17 1.00       0.000000000000
      0.1114342130D+06  0.1877650493D-05
      0.2648164840D+05  0.1756948013D-04
      0.8306216960D+04  0.1097707973D-03
      0.3159766870D+04  0.4998734549D-03
      0.1367471620D+04  0.1869582542D-02
      0.6429362610D+03  0.6102220553D-02
      0.3183728100D+03  0.1792736742D-01
      0.1629718070D+03  0.4733555013D-01
      0.8545664800D+02  0.1088210107D+00
      0.4579767500D+02  0.2026777508D+00
      0.2512881500D+02  0.2887759474D+00
      0.1415984200D+02  0.2853637170D+00
      0.8207103000D+01  0.1675277217D+00
      0.4879945000D+01  0.5402095259D-01
      0.2948108000D+01  0.8787845932D-02
      0.1774792000D+01  0.1093100987D-02
      0.1031244000D+01  0.7670035794D-05
 S  11 1.00       0.000000000000
      0.2017701030D+03  0.2167522011D-03
      0.1026260340D+03  0.1718749411D-02
      0.5267420800D+02  0.2436585373D-02
      0.2715855300D+02 -0.1069585345D-01
      0.1401517100D+02 -0.1206649913D+00
      0.7217928000D+01 -0.1962449295D+00
      0.3701266000D+01  0.1527506707D+00
      0.1886308000D+01  0.5475410348D+00
      0.9539760000D+00  0.4310951808D+00
      0.4781220000D+00  0.8628082524D-01
      0.2371600000D+00  0.2228069243D-02
 P  13 1.00       0.000000000000
      0.3183728100D+03  0.9028706211D-04
      0.1629718070D+03  0.4567718733D-03
      0.8545664800D+02  0.2211232660D-02
      0.4579767500D+02  0.6752388945D-02
      0.2512881500D+02  0.1482749266D-01
      0.1415984200D+02  0.1818471924D-01
      0.8207103000D+01 -0.3062909367D-01
      0.4879945000D+01 -0.1444203591D+00
      0.2948108000D+01 -0.2591161725D+00
      0.1774792000D+01 -0.3070004152D+00
      0.1031244000D+01 -0.2661596044D+00
      0.5516760000D+00 -0.1169453905D+00
      0.2545520000D+00 -0.1274044568D-01
 D  16 1.00       0.000000000000
      0.2920676070D+04  0.3761752289D-05
      0.9130011660D+03  0.3889466519D-04
      0.3494109600D+03  0.2640311349D-03
      0.1545328270D+03  0.1272104230D-02
      0.7550254000D+02  0.4805463938D-02
      0.3938731500D+02  0.1445145680D-01
      0.2140062800D+02  0.3559422339D-01
      0.1190368100D+02  0.7691111837D-01
      0.6701656000D+01  0.1405795310D+00
      0.3791460000D+01  0.2039088039D+00
      0.2145419000D+01  0.2394788379D+00
      0.1209487000D+01  0.2379099199D+00
      0.6760580000D+00  0.2003868899D+00
      0.3719150000D+00  0.1342487500D+00
      0.1990210000D+00  0.5718018828D-01
      0.1017820000D+00  0.8648433937D-02
 D   1 1.00       0.000000000000
      0.7107764434D-01  0.1000000000D+01
 D   1 1.00       0.000000000000
      0.2034100000D-01  0.1000000000D+01
 S  10 1.00       0.000000000000
      0.2715855300D+02 -0.5071434693D-05
      0.1401517100D+02  0.1575823675D-02
      0.7217928000D+01  0.4121569409D-02
      0.3701266000D+01 -0.7493998091D-02
      0.1886308000D+01 -0.3998091727D-01
      0.9539760000D+00 -0.1230952203D+00
      0.4781220000D+00 -0.1263279285D+00
      0.2371600000D+00  0.2419982032D+00
      0.1162580000D+00  0.6553445906D+00
      0.5622800000D-01  0.2910369314D+00
 S   1 1.00       0.000000000000
      0.4753025279D-01  0.1000000000D+01
 S   1 1.00       0.000000000000
      0.1732900000D-01  0.1000000000D+01
 S   1 1.00       0.000000000000
      0.4892000000D-02  0.1000000000D+01
 P  10 1.00       0.000000000000
      0.2512881500D+02  0.1485557405D-02
      0.1415984200D+02 -0.3175358145D-02
      0.8207103000D+01  0.8578319695D-02
      0.4879945000D+01 -0.3246560216D-01
      0.2948108000D+01  0.2289291496D-01
      0.1774792000D+01 -0.8444524284D-01
      0.1031244000D+01  0.4074610143D-01
      0.5516760000D+00 -0.3016558609D-01
      0.2545520000D+00  0.5071167622D+00
      0.9177657290D-01  0.5894174229D+00
 P   1 1.00       0.000000000000
      0.1317265368D+00  0.1000000000D+01
 P   1 1.00       0.000000000000
      0.5203700000D-01  0.1000000000D+01
 S   1 1.00       0.000000000000
      0.9471928000D+01  0.1000000000D+01
 S   1 1.00       0.000000000000
      0.4686355000D+01  0.1000000000D+01
 S   1 1.00       0.000000000000
      0.2318633000D+01  0.1000000000D+01
 S   1 1.00       0.000000000000
      0.1147173000D+01  0.1000000000D+01
 S   1 1.00       0.000000000000
      0.5675780000D+00  0.1000000000D+01
 S   1 1.00       0.000000000000
      0.2808160000D+00  0.1000000000D+01
 P   1 1.00       0.000000000000
      0.3258975000D+01  0.1000000000D+01
 P   1 1.00       0.000000000000
      0.1961923000D+01  0.1000000000D+01
 P   1 1.00       0.000000000000
      0.1181090000D+01  0.1000000000D+01
 P   1 1.00       0.000000000000
      0.7110240000D+00  0.1000000000D+01
 P   1 1.00       0.000000000000
      0.4280410000D+00  0.1000000000D+01
 P   1 1.00       0.000000000000
      0.2576830000D+00  0.1000000000D+01
 D   1 1.00       0.000000000000
      0.7734232000D+01  0.1000000000D+01
 D   1 1.00       0.000000000000
      0.3615824000D+01  0.1000000000D+01
 D   1 1.00       0.000000000000
      0.1690431000D+01  0.1000000000D+01
 D   1 1.00       0.000000000000
      0.7902920000D+00  0.1000000000D+01
 D   1 1.00       0.000000000000
      0.3694690000D+00  0.1000000000D+01
 D   1 1.00       0.000000000000
      0.1727300000D+00  0.1000000000D+01
 F   1 1.00       0.000000000000
      0.1628823600D+02  0.1000000000D+01
 F   1 1.00       0.000000000000
      0.7536234000D+01  0.1000000000D+01
 F   1 1.00       0.000000000000
      0.3486862000D+01  0.1000000000D+01
 F   1 1.00       0.000000000000
      0.1613300000D+01  0.1000000000D+01
 F   1 1.00       0.000000000000
      0.7464410000D+00  0.1000000000D+01
 F   1 1.00       0.000000000000
      0.3453630000D+00  0.1000000000D+01
 F   1 1.00       0.000000000000
      0.1597920000D+00  0.1000000000D+01
 G   1 1.00       0.000000000000
      0.1221388900D+02  0.1000000000D+01
 G   1 1.00       0.000000000000
      0.5635064000D+01  0.1000000000D+01
 G   1 1.00       0.000000000000
      0.2599823000D+01  0.1000000000D+01
 G   1 1.00       0.000000000000
      0.1199468000D+01  0.1000000000D+01
 G   1 1.00       0.000000000000
      0.5533930000D+00  0.1000000000D+01
 G   1 1.00       0.000000000000
      0.2553160000D+00  0.1000000000D+01
 H   1 1.00       0.000000000000
      0.1073697700D+02  0.1000000000D+01
 H   1 1.00       0.000000000000
      0.4722475000D+01  0.1000000000D+01
 H   1 1.00       0.000000000000
      0.2077100000D+01  0.1000000000D+01
 H   1 1.00       0.000000000000
      0.9135770000D+00  0.1000000000D+01
 H   1 1.00       0.000000000000
      0.4018210000D+00  0.1000000000D+01
 I   1 1.00       0.000000000000
      0.8841462000D+01  0.1000000000D+01
 I   1 1.00       0.000000000000
      0.3652520000D+01  0.1000000000D+01
 I   1 1.00       0.000000000000
      0.1508902000D+01  0.1000000000D+01
 I   1 1.00       0.000000000000
      0.6233460000D+00  0.1000000000D+01
 J   1 1.00       0.000000000000
      0.7027877000D+01  0.1000000000D+01
 J   1 1.00       0.000000000000
      0.2632307000D+01  0.1000000000D+01
 J   1 1.00       0.000000000000
      0.9859360000D+00  0.1000000000D+01
 K   1 1.00       0.000000000000
      0.4974012302D+01  0.1000000000D+01
 ****
      2 0
 S  16 1.00       0.000000000000
      0.1411246410D+07  0.1627429822D-05
      0.2499102240D+06  0.1092621996D-04
      0.5603410580D+05  0.6238741867D-04
      0.1521153640D+05  0.2783303491D-03
      0.4812287750D+04  0.1040541872D-02
      0.1717755460D+04  0.3380392793D-02
      0.6733958240D+03  0.9828484765D-02
      0.2835101840D+03  0.2605310129D-01
      0.1258620070D+03  0.6280818057D-01
      0.5804472200D+02  0.1348202075D+00
      0.2747198500D+02  0.2435563460D+00
      0.1321062900D+02  0.3323287378D+00
      0.6399806000D+01  0.2607930483D+00
      0.3099614000D+01  0.7430834326D-01
      0.1489856000D+01  0.4189538074D-02
      0.7052010000D+00  0.8706455725D-03
 S  11 1.00       0.000000000000
      0.2835101840D+03 -0.1122588094D-03
      0.1258620070D+03 -0.5559335617D-03
      0.5804472200D+02 -0.2851687904D-02
      0.2747198500D+02 -0.1133494995D-01
      0.1321062900D+02 -0.3657977704D-01
      0.6399806000D+01 -0.7288994197D-01
      0.3099614000D+01 -0.1062032356D-01
      0.1489856000D+01  0.2196705572D+00
      0.7052010000D+00  0.4294832072D+00
      0.3258480000D+00  0.3775832849D+00
      0.1454600000D+00  0.9640261255D-01
 S   1 1.00       0.000000000000
      0.5814297870D-01  0.1000000000D+01
 P  13 1.00       0.000000000000
      0.2085279200D+04  0.1447911740D-04
      0.5101470830D+03  0.1283233588D-03
      0.1616811510D+03  0.7792790007D-03
      0.6114945200D+02  0.3400506049D-02
      0.2597660200D+02  0.1157685214D-01
      0.1187542600D+02  0.3269740339D-01
      0.5677133000D+01  0.8011404242D-01
      0.2786475000D+01  0.1605265057D+00
      0.1387844000D+01  0.2460495026D+00
      0.6952810000D+00  0.2898982926D+00
      0.3470020000D+00  0.2606799382D+00
      0.1700990000D+00  0.1479363112D+00
      0.8008000000D-01  0.2980261453D-01
 P   1 1.00       0.000000000000
      0.4261436033D-01  0.1000000000D+01
 S   1 1.00       0.000000000000
      0.4249866000D+01  0.1000000000D+01
 S   1 1.00       0.000000000000
      0.2167470000D+01  0.1000000000D+01
 S   1 1.00       0.000000000000
      0.1105429000D+01  0.1000000000D+01
 S   1 1.00       0.000000000000
      0.5637790000D+00  0.1000000000D+01
 S   1 1.00       0.000000000000
      0.2875320000D+00  0.1000000000D+01
 S   1 1.00       0.000000000000
      0.1466440000D+00  0.1000000000D+01
 P   1 1.00       0.000000000000
      0.5659724000D+01  0.1000000000D+01
 P   1 1.00       0.000000000000
      0.2575878000D+01  0.1000000000D+01
 P   1 1.00       0.000000000000
      0.1172344000D+01  0.1000000000D+01
 P   1 1.00       0.000000000000
      0.5335620000D+00  0.1000000000D+01
 P   1 1.00       0.000000000000
      0.2428370000D+00  0.1000000000D+01
 P   1 1.00       0.000000000000
      0.1105210000D+00  0.1000000000D+01
 D   1 1.00       0.000000000000
      0.9464211000D+01  0.1000000000D+01
 D   1 1.00       0.000000000000
      0.4752286000D+01  0.1000000000D+01
 D   1 1.00       0.000000000000
      0.2386276000D+01  0.1000000000D+01
 D   1 1.00       0.000000000000
      0.1198226000D+01  0.1000000000D+01
 D   1 1.00       0.000000000000
      0.6016680000D+00  0.1000000000D+01
 D   1 1.00       0.000000000000
      0.3021170000D+00  0.1000000000D+01
 D   1 1.00       0.000000000000
      0.1517020000D+00  0.1000000000D+01
 F   1 1.00       0.000000000000
      0.7001836000D+01  0.1000000000D+01
 F   1 1.00       0.000000000000
      0.3552509000D+01  0.1000000000D+01
 F   1 1.00       0.000000000000
      0.1802430000D+01  0.1000000000D+01
 F   1 1.00       0.000000000000
      0.9144960000D+00  0.1000000000D+01
 F   1 1.00       0.000000000000
      0.4639860000D+00  0.1000000000D+01
 F   1 1.00       0.000000000000
      0.2354110000D+00  0.1000000000D+01
 G   1 1.00       0.000000000000
      0.6472481000D+01  0.1000000000D+01
 G   1 1.00       0.000000000000
      0.3119071000D+01  0.1000000000D+01
 G   1 1.00       0.000000000000
      0.1503072000D+01  0.1000000000D+01
 G   1 1.00       0.000000000000
      0.7243260000D+00  0.1000000000D+01
 G   1 1.00       0.000000000000
      0.3490500000D+00  0.1000000000D+01
 H   1 1.00       0.000000000000
      0.5355083000D+01  0.1000000000D+01
 H   1 1.00       0.000000000000
      0.2414696000D+01  0.1000000000D+01
 H   1 1.00       0.000000000000
      0.1088827000D+01  0.1000000000D+01
 H   1 1.00       0.000000000000
      0.4909703000D+00  0.1000000000D+01
 I   1 1.00       0.000000000000
      0.4322113000D+01  0.1000000000D+01
 I   1 1.00       0.000000000000
      0.1716263000D+01  0.1000000000D+01
 I   1 1.00       0.000000000000
      0.6815089000D+00  0.1000000000D+01
 J   1 1.00       0.000000000000
      0.3060973723D+01  0.1000000000D+01
 ****

 There are   208 symmetry adapted basis functions of A1  symmetry.
 There are   106 symmetry adapted basis functions of A2  symmetry.
 There are   151 symmetry adapted basis functions of B1  symmetry.
 There are   151 symmetry adapted basis functions of B2  symmetry.
 Integral buffers will be    131072 words long.
 Raffenetti 2 integral format.
 Two-electron integral symmetry is turned on.
   616 basis functions,  1357 primitive gaussians,  1044 cartesian basis functions
    19 alpha electrons       15 beta electrons
       nuclear repulsion energy        70.0381599604 Hartrees.
 NAtoms=    2 NActive=    2 NUniq=    2 SFac= 7.50D-01 NAtFMM=   80 NAOKFM=F Big=F
 One-electron integrals computed using PRISM.
 NBasis=   616 RedAO= F  NBF=   208   106   151   151
 NBsUse=   616 1.00D-04 NBFU=   208   106   151   151
 Initial guess read from the checkpoint file:  CoO+_5Delta.chk
 B after Tr=     0.000000    0.000000    0.000000
         Rot=    1.000000    0.000000    0.000000    0.000000 Ang=   0.00 deg.
 Initial guess orbital symmetries:
       Occupied  (SG) (SG) (SG) (PI) (PI) (SG) (SG) (SG) (PI) (PI)
                 (SG) (SG) (DLTA) (PI) (PI) (PI) (PI) (DLTA) (SG)
       Virtual   (SG) (PI) (PI) (SG) (SG) (DLTA) (DLTA) (PI) (PI)
                 (SG) (SG) (PI) (PI) (SG) (PI) (PI) (SG) (SG) (DLTA)
                 (DLTA) (PI) (PI) (SG) (PI) (PI) (SG) (PI) (PI)
                 (SG) (SG) (SG) (PI) (PI) (DLTA) (DLTA) (SG) (SG)
                 (PI) (PI) (DLTA) (DLTA) (PI) (PI) (SG) (SG) (DLTA)
                 (DLTA) (?A) (?A) (?A) (?A) (SG) (SG) (SG) (PI)
                 (PI) (SG) (SG) (PI) (PI) (DLTA) (DLTA) (SG) (PI)
                 (PI) (DLTA) (DLTA) (SG) (PI) (PI) (DLTA) (DLTA)
                 (SG) (SG) (SG) (PI) (PI) (SG) (PI) (PI) (SG) (PI)
                 (PI) (SG) (SG) (SG) (SG) (SG) (SG) (SG) (PI) (PI)
                 (SG) (PI) (PI) (SG) (PI) (PI) (SG) (PI) (PI) (SG)
                 (PI) (PI) (SG) (PI) (PI) (SG) (SG) (PI) (PI) (DLTA)
                 (DLTA) (SG) (PI) (PI) (DLTA) (DLTA) (SG) (PI)
                 (PI) (DLTA) (DLTA) (SG) (PI) (PI) (DLTA) (DLTA)
                 (PI) (PI) (DLTA) (DLTA) (SG) (PI) (PI) (DLTA)
                 (DLTA) (SG) (PI) (PI) (DLTA) (DLTA) (PHI) (PHI)
                 (SG) (PI) (PI) (DLTA) (DLTA) (PHI) (PHI) (SG)
                 (PI) (PI) (DLTA) (DLTA) (PHI) (PHI) (SG) (PI)
                 (PI) (DLTA) (DLTA) (PHI) (PHI) (SG) (PI) (PI)
                 (DLTA) (DLTA) (PHI) (PHI) (SG) (PI) (PI) (DLTA)
                 (DLTA) (PHI) (PHI) (SG) (PI) (PI) (DLTA) (DLTA)
                 (PHI) (PHI) (SG) (PI) (PI) (DLTA) (DLTA) (PHI)
                 (PHI) (?B) (?B) (SG) (PI) (PI) (DLTA) (DLTA) (PHI)
                 (PHI) (?B) (?B) (SG) (PI) (PI) (DLTA) (DLTA) (PHI)
                 (PHI) (?B) (?B) (SG) (PI) (PI) (DLTA) (DLTA) (PHI)
                 (PHI) (?B) (?B) (SG) (PI) (PI) (DLTA) (DLTA) (PHI)
                 (PHI) (?B) (?B) (SG) (PI) (PI) (DLTA) (DLTA) (PHI)
                 (PHI) (?B) (?B) (SG) (PI) (PI) (DLTA) (DLTA) (PHI)
                 (PHI) (?B) (?B) (?C) (?C) (SG) (PI) (PI) (DLTA)
                 (DLTA) (PHI) (PHI) (?B) (?B) (?C) (?C) (SG) (PI)
                 (PI) (DLTA) (DLTA) (PHI) (PHI) (?B) (?B) (?C)
                 (?C) (SG) (PI) (PI) (DLTA) (DLTA) (PHI) (PHI)
                 (?B) (?B) (?C) (?C) (SG) (PI) (PI) (DLTA) (DLTA)
                 (PHI) (PHI) (?B) (?B) (?C) (?C) (SG) (PI) (PI)
                 (DLTA) (DLTA) (PHI) (PHI) (?B) (?B) (?C) (?C)
                 (SG) (SG) (SG) (PI) (PI) (DLTA) (DLTA) (PHI) (PHI)
                 (?B) (?B) (?C) (?C) (SG) (SG) (SG) (PI) (PI) (DLTA)
                 (DLTA) (PHI) (PHI) (?B) (?B) (?C) (?C) (SG) (SG)
                 (SG) (PI) (PI) (DLTA) (DLTA) (PHI) (PHI) (?B)
                 (?B) (?C) (?C) (SG) (SG) (SG) (PI) (PI) (DLTA)
                 (DLTA) (PHI) (PHI) (?B) (?B) (?C) (?C) (SG) (SG)
                 (?D) (?D) (SG) (PI) (PI) (DLTA) (DLTA) (PHI) (PHI)
                 (?B) (?B) (?C) (?C) (SG) (SG) (?D) (?D) (SG) (PI)
                 (PI) (DLTA) (DLTA) (PHI) (PHI) (?B) (?B) (?C)
                 (?C) (SG) (SG) (?D) (?D) (SG) (PI) (PI) (DLTA)
                 (DLTA) (PHI) (PHI) (?B) (?B) (?C) (?C) (SG) (SG)
                 (?D) (?D) (?E) (?E) (SG) (SG) (PI) (PI) (SG) (SG)
                 (SG) (SG) (PI) (PI) (SG) (PI) (PI) (SG) (PI) (PI)
                 (SG) (PI) (PI) (SG) (PI) (PI) (DLTA) (DLTA) (SG)
                 (PI) (PI) (DLTA) (DLTA) (SG) (PI) (PI) (DLTA)
                 (DLTA) (PI) (PI) (DLTA) (DLTA) (DLTA) (DLTA) (DLTA)
                 (DLTA) (DLTA) (DLTA) (SG) (PI) (PI) (DLTA) (DLTA)
                 (PHI) (PHI) (SG) (PI) (PI) (DLTA) (DLTA) (PHI)
                 (PHI) (SG) (PI) (PI) (DLTA) (DLTA) (PHI) (PHI)
                 (SG) (PI) (PI) (DLTA) (DLTA) (PHI) (PHI) (PI)
                 (PI) (DLTA) (DLTA) (PHI) (PHI) (PHI) (PHI) (SG)
                 (PI) (PI) (DLTA) (DLTA) (PHI) (PHI) (?B) (?B)
                 (SG) (PI) (PI) (DLTA) (DLTA) (PHI) (PHI) (?B)
                 (?B) (PI) (PI) (DLTA) (DLTA) (PHI) (PHI) (?B)
                 (?B) (DLTA) (DLTA) (PHI) (PHI) (?B) (?B) (PHI)
                 (PHI) (?B) (?B) (SG) (PI) (PI) (DLTA) (DLTA) (PHI)
                 (PHI) (?B) (?B) (?C) (?C) (SG) (DLTA) (DLTA) (PHI)
                 (PHI) (?B) (?B) (?C) (?C) (PI) (PI) (PHI) (PHI)
                 (?B) (?B) (?C) (?C) (PHI) (PHI) (?B) (?B) (?C)
                 (?C) (PI) (PI) (DLTA) (DLTA) (PHI) (PHI) (?B)
                 (?B) (?C) (?C) (SG) (SG) (DLTA) (DLTA) (PHI) (PHI)
                 (?B) (?B) (?C) (?C) (SG) (SG) (?B) (?B) (?C) (?C)
                 (SG) (SG) (PHI) (PHI) (?B) (?B) (?C) (?C) (SG)
                 (SG) (?D) (?D)
 Requested convergence on RMS density matrix=1.00D-08 within 128 cycles.
 Requested convergence on MAX density matrix=1.00D-06.
 Requested convergence on             energy=1.00D-06.
 No special actions if energy rises.
 EnCoef did     6 forward-backward iterations
 EnCoef did     4 forward-backward iterations
 EnCoef did     7 forward-backward iterations
 EnCoef did    12 forward-backward iterations
 Rare condition: small coef for last iteration:  0.222D-15
 EnCoef did    49 forward-backward iterations
 EnCoef did   100 forward-backward iterations
 EnCoef did   100 forward-backward iterations
 Rare condition: small coef for last iteration:  0.175D-15
 EnCoef did   100 forward-backward iterations
 EnCoef did   100 forward-backward iterations
 EnCoef did   100 forward-backward iterations
 EnCoef did   100 forward-backward iterations
 Restarting incremental Fock formation.
 SCF Done:  E(ROHF) =  -1455.92101750     A.U. after   27 cycles
             Convg  =    0.9624D-09             -V/T =  1.9998
 <Sx>= 0.0000 <Sy>= 0.0000 <Sz>= 2.0000 <S**2>= 6.0000 S= 2.0000
 <L.S>= 0.000000000000E+00
 Annihilation of the first spin contaminant:
 S**2 before annihilation     6.0000,   after     6.0000
 DiagDN has N=   616 LTot=  1880 but NE2=     3 cannot use DSYEVD.
 GenMOA:  NOpAll=  4 NOp2=4 NOpUse=  4 JSym2X=1
 <Sx>= 0.0000 <Sy>= 0.0000 <Sz>= 2.0000 <S**2>= 6.0000 S= 2.0000
 ExpMin= 4.89D-03 ExpMax= 4.50D+07 ExpMxC= 3.76D+03 IAcc=3 IRadAn=         5 AccDes= 0.00D+00
 HarFok:  IExCor=  205 AccDes= 0.00D+00 IRadAn=         5 IDoV=-2
 ScaDFX=  1.000000  1.000000  1.000000  1.000000
 Range of M.O.s used for correlation:    11   616
 NBasis=   616 NAE=    19 NBE=    15 NFC=    10 NFV=     0
 NROrb=    606 NOA=     9 NOB=     5 NVA=   597 NVB=   601

 **** Warning!!: The largest alpha MO coefficient is  0.31183534D+03


 **** Warning!!: The largest beta MO coefficient is  0.31183480D+03

 Singles contribution to E2=   -0.1126669461D-01
 Disk-based method using OVN memory for  9 occupieds at a time.
 Permanent disk used for amplitudes and <ij||ab> integrals=    48706962 words.
 Estimated scratch disk usage=  9037622281 words.
 IUseRI=2 ITolRI= 6 IR12RI=0
 Actual    scratch disk usage=  8977465669 words.
 GetIJB would need an additional  5039803891 words of memory to use all  16 processors.
 JobTyp=2 Pass  1:  I=   1 to   9 NPSUse= 10 ParTrn=T ParDer=T DoDerP=F.
 T,EIJ(AA): I=   1 J=   2      0.3435795E-03     -0.2230911E-02
 T,EIJ(AA): I=   1 J=   3      0.3435795E-03     -0.2230911E-02
 T,EIJ(AA): I=   1 J=   4      0.2968409E-03     -0.1862117E-02
 T,EIJ(AA): I=   1 J=   5      0.3523122E-04     -0.2244954E-03
 T,EIJ(AA): I=   1 J=   6      0.3797283E-04     -0.2336044E-03
 T,EIJ(AA): I=   1 J=   7      0.1475135E-03     -0.8806197E-03
 T,EIJ(AA): I=   1 J=   8      0.1475135E-03     -0.8806197E-03
 T,EIJ(AA): I=   1 J=   9      0.1810345E-03     -0.1072353E-02
 T,EIJ(AA): I=   2 J=   3      0.1197929E-02     -0.6317106E-02
 T,EIJ(AA): I=   2 J=   4      0.9857259E-03     -0.5341378E-02
 T,EIJ(AA): I=   2 J=   5      0.1675763E-03     -0.1012948E-02
 T,EIJ(AA): I=   2 J=   6      0.1791258E-03     -0.1034680E-02
 T,EIJ(AA): I=   2 J=   7      0.7270791E-04     -0.3392781E-03
 T,EIJ(AA): I=   2 J=   8      0.3783609E-03     -0.2109775E-02
 T,EIJ(AA): I=   2 J=   9      0.6600295E-03     -0.3259452E-02
 T,EIJ(AA): I=   3 J=   4      0.9857259E-03     -0.5341378E-02
 T,EIJ(AA): I=   3 J=   5      0.1675763E-03     -0.1012948E-02
 T,EIJ(AA): I=   3 J=   6      0.1791258E-03     -0.1034680E-02
 T,EIJ(AA): I=   3 J=   7      0.3783609E-03     -0.2109775E-02
 T,EIJ(AA): I=   3 J=   8      0.7270791E-04     -0.3392781E-03
 T,EIJ(AA): I=   3 J=   9      0.6600295E-03     -0.3259452E-02
 T,EIJ(AA): I=   4 J=   5      0.4368573E-03     -0.2419027E-02
 T,EIJ(AA): I=   4 J=   6      0.4728801E-03     -0.2487589E-02
 T,EIJ(AA): I=   4 J=   7      0.9328021E-03     -0.4885813E-02
 T,EIJ(AA): I=   4 J=   8      0.9328021E-03     -0.4885813E-02
 T,EIJ(AA): I=   4 J=   9      0.2066845E-03     -0.9678320E-03
 T,EIJ(AA): I=   5 J=   6      0.1884861E-02     -0.1248996E-01
 T,EIJ(AA): I=   5 J=   7      0.1171685E-02     -0.7301227E-02
 T,EIJ(AA): I=   5 J=   8      0.1171685E-02     -0.7301227E-02
 T,EIJ(AA): I=   5 J=   9      0.9029999E-03     -0.4997274E-02
 T,EIJ(AA): I=   6 J=   7      0.1245887E-02     -0.7416616E-02
 T,EIJ(AA): I=   6 J=   8      0.1245887E-02     -0.7416616E-02
 T,EIJ(AA): I=   6 J=   9      0.9700169E-03     -0.5110095E-02
 T,EIJ(AA): I=   7 J=   8      0.1252407E-02     -0.7118542E-02
 T,EIJ(AA): I=   7 J=   9      0.1337570E-02     -0.7707026E-02
 T,EIJ(AA): I=   8 J=   9      0.1337570E-02     -0.7707026E-02
 T,EIJ(AB): I=   1 J=   1      0.1729461E-02     -0.1276159E-01
 T,EIJ(AB): I=   1 J=   2      0.1639942E-02     -0.1122517E-01
 T,EIJ(AB): I=   1 J=   3      0.4402554E-04     -0.2957481E-03
 T,EIJ(AB): I=   1 J=   4      0.6340761E-03     -0.2833690E-02
 T,EIJ(AB): I=   1 J=   5      0.6340761E-03     -0.2833690E-02
 T,EIJ(AB): I=   2 J=   1      0.2674288E-02     -0.1490391E-01
 T,EIJ(AB): I=   2 J=   2      0.1977127E-02     -0.1069356E-01
 T,EIJ(AB): I=   2 J=   3      0.2456634E-03     -0.1439733E-02
 T,EIJ(AB): I=   2 J=   4      0.1442968E-02     -0.6111558E-02
 T,EIJ(AB): I=   2 J=   5      0.8828051E-03     -0.3441410E-02
 T,EIJ(AB): I=   3 J=   1      0.2674288E-02     -0.1490391E-01
 T,EIJ(AB): I=   3 J=   2      0.1977127E-02     -0.1069356E-01
 T,EIJ(AB): I=   3 J=   3      0.2456634E-03     -0.1439733E-02
 T,EIJ(AB): I=   3 J=   4      0.8828051E-03     -0.3441410E-02
 T,EIJ(AB): I=   3 J=   5      0.1442968E-02     -0.6111558E-02
 T,EIJ(AB): I=   4 J=   1      0.2002884E-02     -0.1147363E-01
 T,EIJ(AB): I=   4 J=   2      0.3371905E-02     -0.1818133E-01
 T,EIJ(AB): I=   4 J=   3      0.6868630E-03     -0.3919564E-02
 T,EIJ(AB): I=   4 J=   4      0.2597674E-02     -0.7999188E-02
 T,EIJ(AB): I=   4 J=   5      0.2597674E-02     -0.7999188E-02
 T,EIJ(AB): I=   5 J=   1      0.9177454E-04     -0.4743579E-03
 T,EIJ(AB): I=   5 J=   2      0.2690848E-03     -0.1161356E-02
 T,EIJ(AB): I=   5 J=   3      0.2044414E-02     -0.1317085E-01
 T,EIJ(AB): I=   5 J=   4      0.2641300E-02     -0.1217229E-01
 T,EIJ(AB): I=   5 J=   5      0.2641300E-02     -0.1217229E-01
 T,EIJ(AB): I=   6 J=   1      0.9925268E-04     -0.4917004E-03
 T,EIJ(AB): I=   6 J=   2      0.2903924E-03     -0.1201591E-02
 T,EIJ(AB): I=   6 J=   3      0.3307754E-02     -0.2085080E-01
 T,EIJ(AB): I=   6 J=   4      0.2883727E-02     -0.1247163E-01
 T,EIJ(AB): I=   6 J=   5      0.2883727E-02     -0.1247163E-01
 T,EIJ(AB): I=   7 J=   1      0.6786884E-03     -0.3574364E-02
 T,EIJ(AB): I=   7 J=   2      0.8375634E-03     -0.3783210E-02
 T,EIJ(AB): I=   7 J=   3      0.1684591E-02     -0.1025661E-01
 T,EIJ(AB): I=   7 J=   4      0.4738609E-02     -0.2063889E-01
 T,EIJ(AB): I=   7 J=   5      0.3181662E-02     -0.1254414E-01
 T,EIJ(AB): I=   8 J=   1      0.6786884E-03     -0.3574364E-02
 T,EIJ(AB): I=   8 J=   2      0.8375634E-03     -0.3783210E-02
 T,EIJ(AB): I=   8 J=   3      0.1684591E-02     -0.1025661E-01
 T,EIJ(AB): I=   8 J=   4      0.3181662E-02     -0.1254414E-01
 T,EIJ(AB): I=   8 J=   5      0.4738609E-02     -0.2063889E-01
 T,EIJ(AB): I=   9 J=   1      0.1056111E-02     -0.5549260E-02
 T,EIJ(AB): I=   9 J=   2      0.1677054E-02     -0.8442923E-02
 T,EIJ(AB): I=   9 J=   3      0.1699190E-02     -0.8515301E-02
 T,EIJ(AB): I=   9 J=   4      0.2566534E-02     -0.1083995E-01
 T,EIJ(AB): I=   9 J=   5      0.2566534E-02     -0.1083995E-01
 Actual    scratch disk usage=  9037616137 words.
 GetIJB would need an additional  5039741251 words of memory to use all  16 processors.
 JobTyp=3 Pass  1:  I=   1 to   5 NPSUse= 10 ParTrn=T ParDer=T DoDerP=F.
 T,EIJ(BB): I=   1 J=   2      0.8961890E-03     -0.4415213E-02
 T,EIJ(BB): I=   1 J=   3      0.8991356E-04     -0.4179984E-03
 T,EIJ(BB): I=   1 J=   4      0.7221573E-03     -0.2379614E-02
 T,EIJ(BB): I=   1 J=   5      0.7221573E-03     -0.2379614E-02
 T,EIJ(BB): I=   2 J=   3      0.2294923E-03     -0.9188034E-03
 T,EIJ(BB): I=   2 J=   4      0.2149288E-02     -0.5181030E-02
 T,EIJ(BB): I=   2 J=   5      0.2149288E-02     -0.5181030E-02
 T,EIJ(BB): I=   3 J=   4      0.2449296E-02     -0.9677432E-02
 T,EIJ(BB): I=   3 J=   5      0.2449296E-02     -0.9677432E-02
 T,EIJ(BB): I=   4 J=   5      0.1081308E-01     -0.1857265E-01
 Spin components of T(2) and E(2):
     alpha-alpha T2 =       0.2312084110D-01 E2=     -0.1323394379D+00
     alpha-beta  T2 =       0.7934466395D-01 E2=     -0.3851234560D+00
     beta-beta   T2 =       0.2267015332D-01 E2=     -0.5880081140D-01
 ANorm=    0.1064226925D+01
 E2 =    -0.5875303999D+00 EUMP2 =    -0.14565085479001D+04

 Complete Basis Set (CBS) Extrapolation:
 M. R. Nyden and G. A. Petersson, JCP 75, 1843 (1981)
 G. A. Petersson and M. A. Al-Laham, JCP 94, 6081 (1991)
 G. A. Petersson, T. Tensfeldt, and J. A. Montgomery, JCP 94, 6091 (1991)
 J. A. Montgomery, J. W. Ochterski, and G. A. Petersson, JCP 101, 5900 (1994)
 
 Minimum Number of PNO for Extrapolation =  25
 Absolute Overlaps: IRadAn =         5
 LocTrn: ILocal=3 LocCor=F DoCore=F.
 Entering OneElI...
 Overlap between basis sets.
 Requested accuracy = 0.1000D-12
 PrsmSu:  NPrtUS=   1 ThrOK=F IAlg=1
 PRISM was handed  8588073556 working-precision words and    47 shell-pairs
 IPart=  0 NShTot=          47 NBatch=          11 AvBLen=         4.3
 CnvPC2: ToCart=F DoDens=F IPureD=0 IPureF=0.
 Transformed matrix in CnvPC2: 
                 1             2             3             4             5 
      1   0.100000D+01  0.389679D+00  0.000000D+00  0.000000D+00  0.000000D+00
      2   0.389679D+00  0.100000D+01  0.000000D+00  0.000000D+00  0.000000D+00
      3   0.000000D+00  0.000000D+00  0.100000D+01  0.000000D+00  0.000000D+00
      4   0.000000D+00  0.000000D+00  0.000000D+00  0.100000D+01  0.000000D+00
      5   0.000000D+00  0.000000D+00  0.000000D+00  0.000000D+00  0.100000D+01
      6   0.261173D-01  0.323296D+00  0.000000D+00  0.000000D+00  0.000000D+00
      7   0.000000D+00  0.000000D+00  0.336239D+00  0.000000D+00  0.000000D+00
      8   0.000000D+00  0.000000D+00  0.000000D+00  0.336239D+00  0.000000D+00
      9   0.000000D+00  0.000000D+00  0.000000D+00  0.000000D+00  0.336239D+00
     10   0.000000D+00  0.000000D+00  0.000000D+00  0.000000D+00  0.000000D+00
     11   0.000000D+00  0.000000D+00  0.000000D+00  0.000000D+00  0.000000D+00
     12   0.000000D+00  0.000000D+00  0.000000D+00  0.000000D+00  0.000000D+00
     13   0.000000D+00  0.000000D+00  0.000000D+00  0.000000D+00  0.000000D+00
     14   0.000000D+00  0.000000D+00  0.000000D+00  0.000000D+00  0.000000D+00
     15  -0.350952D-03  0.330494D-02  0.000000D+00  0.000000D+00  0.000000D+00
     16   0.000000D+00  0.000000D+00  0.105584D-01  0.000000D+00  0.000000D+00
     17   0.000000D+00  0.000000D+00  0.000000D+00  0.105584D-01  0.000000D+00
     18   0.000000D+00  0.000000D+00  0.000000D+00  0.000000D+00  0.105584D-01
     19   0.000000D+00  0.000000D+00  0.000000D+00  0.000000D+00  0.000000D+00
     20   0.662406D-03  0.450277D-02  0.000000D+00  0.000000D+00 -0.214363D-02
     21   0.000000D+00  0.000000D+00  0.632622D-03  0.000000D+00  0.000000D+00
     22   0.000000D+00  0.000000D+00  0.000000D+00  0.632622D-03  0.000000D+00
     23   0.140973D-02  0.930937D-02  0.000000D+00  0.000000D+00 -0.385940D-02
                 6             7             8             9            10 
      1   0.261173D-01  0.000000D+00  0.000000D+00  0.000000D+00  0.000000D+00
      2   0.323296D+00  0.000000D+00  0.000000D+00  0.000000D+00  0.000000D+00
      3   0.000000D+00  0.336239D+00  0.000000D+00  0.000000D+00  0.000000D+00
      4   0.000000D+00  0.000000D+00  0.336239D+00  0.000000D+00  0.000000D+00
      5   0.000000D+00  0.000000D+00  0.000000D+00  0.336239D+00  0.000000D+00
      6   0.100000D+01  0.000000D+00  0.000000D+00  0.000000D+00  0.000000D+00
      7   0.000000D+00  0.100000D+01  0.000000D+00  0.000000D+00  0.000000D+00
      8   0.000000D+00  0.000000D+00  0.100000D+01  0.000000D+00  0.000000D+00
      9   0.000000D+00  0.000000D+00  0.000000D+00  0.100000D+01  0.000000D+00
     10   0.000000D+00  0.000000D+00  0.000000D+00  0.000000D+00  0.100000D+01
     11   0.000000D+00  0.000000D+00  0.000000D+00  0.000000D+00  0.000000D+00
     12   0.000000D+00  0.000000D+00  0.000000D+00  0.000000D+00  0.000000D+00
     13   0.000000D+00  0.000000D+00  0.000000D+00  0.000000D+00  0.000000D+00
     14   0.000000D+00  0.000000D+00  0.000000D+00  0.000000D+00  0.000000D+00
     15   0.170029D+00  0.000000D+00  0.000000D+00  0.000000D+00  0.000000D+00
     16   0.000000D+00  0.186983D+00  0.000000D+00  0.000000D+00  0.000000D+00
     17   0.000000D+00  0.000000D+00  0.186983D+00  0.000000D+00  0.000000D+00
     18   0.000000D+00  0.000000D+00  0.000000D+00  0.186983D+00  0.000000D+00
     19   0.341596D-04  0.000000D+00  0.000000D+00 -0.102282D-03  0.735456D-03
     20   0.387525D-01  0.000000D+00  0.000000D+00 -0.441322D-01  0.426406D-01
     21   0.000000D+00  0.134970D-01  0.000000D+00  0.000000D+00  0.000000D+00
     22   0.000000D+00  0.000000D+00  0.134970D-01  0.000000D+00  0.000000D+00
     23   0.675367D-01  0.000000D+00  0.000000D+00 -0.705480D-01  0.623989D-01
                11            12            13            14            15 
      1   0.000000D+00  0.000000D+00  0.000000D+00  0.000000D+00 -0.350952D-03
      2   0.000000D+00  0.000000D+00  0.000000D+00  0.000000D+00  0.330494D-02
      3   0.000000D+00  0.000000D+00  0.000000D+00  0.000000D+00  0.000000D+00
      4   0.000000D+00  0.000000D+00  0.000000D+00  0.000000D+00  0.000000D+00
      5   0.000000D+00  0.000000D+00  0.000000D+00  0.000000D+00  0.000000D+00
      6   0.000000D+00  0.000000D+00  0.000000D+00  0.000000D+00  0.170029D+00
      7   0.000000D+00  0.000000D+00  0.000000D+00  0.000000D+00  0.000000D+00
      8   0.000000D+00  0.000000D+00  0.000000D+00  0.000000D+00  0.000000D+00
      9   0.000000D+00  0.000000D+00  0.000000D+00  0.000000D+00  0.000000D+00
     10   0.000000D+00  0.000000D+00  0.000000D+00  0.000000D+00  0.000000D+00
     11   0.100000D+01  0.000000D+00  0.000000D+00  0.000000D+00  0.000000D+00
     12   0.000000D+00  0.100000D+01  0.000000D+00  0.000000D+00  0.000000D+00
     13   0.000000D+00  0.000000D+00  0.100000D+01  0.000000D+00  0.000000D+00
     14   0.000000D+00  0.000000D+00  0.000000D+00  0.100000D+01  0.000000D+00
     15   0.000000D+00  0.000000D+00  0.000000D+00  0.000000D+00  0.100000D+01
     16   0.000000D+00  0.000000D+00  0.000000D+00  0.000000D+00  0.000000D+00
     17   0.000000D+00  0.000000D+00  0.000000D+00  0.000000D+00  0.000000D+00
     18   0.000000D+00  0.000000D+00  0.000000D+00  0.000000D+00  0.000000D+00
     19   0.000000D+00  0.000000D+00  0.000000D+00  0.000000D+00  0.358677D-01
     20   0.000000D+00  0.000000D+00  0.000000D+00  0.000000D+00  0.321193D+00
     21  -0.237020D-01  0.000000D+00  0.000000D+00  0.000000D+00  0.000000D+00
     22   0.000000D+00 -0.237020D-01  0.000000D+00  0.000000D+00  0.000000D+00
     23   0.000000D+00  0.000000D+00  0.000000D+00  0.000000D+00  0.143538D+00
                16            17            18            19            20 
      1   0.000000D+00  0.000000D+00  0.000000D+00  0.000000D+00  0.662406D-03
      2   0.000000D+00  0.000000D+00  0.000000D+00  0.000000D+00  0.450277D-02
      3   0.105584D-01  0.000000D+00  0.000000D+00  0.000000D+00  0.000000D+00
      4   0.000000D+00  0.105584D-01  0.000000D+00  0.000000D+00  0.000000D+00
      5   0.000000D+00  0.000000D+00  0.105584D-01  0.000000D+00 -0.214363D-02
      6   0.000000D+00  0.000000D+00  0.000000D+00  0.341596D-04  0.387525D-01
      7   0.186983D+00  0.000000D+00  0.000000D+00  0.000000D+00  0.000000D+00
      8   0.000000D+00  0.186983D+00  0.000000D+00  0.000000D+00  0.000000D+00
      9   0.000000D+00  0.000000D+00  0.186983D+00 -0.102282D-03 -0.441322D-01
     10   0.000000D+00  0.000000D+00  0.000000D+00  0.735456D-03  0.426406D-01
     11   0.000000D+00  0.000000D+00  0.000000D+00  0.000000D+00  0.000000D+00
     12   0.000000D+00  0.000000D+00  0.000000D+00  0.000000D+00  0.000000D+00
     13   0.000000D+00  0.000000D+00  0.000000D+00  0.000000D+00  0.000000D+00
     14   0.000000D+00  0.000000D+00  0.000000D+00  0.000000D+00  0.000000D+00
     15   0.000000D+00  0.000000D+00  0.000000D+00  0.358677D-01  0.321193D+00
     16   0.100000D+01  0.000000D+00  0.000000D+00  0.000000D+00  0.000000D+00
     17   0.000000D+00  0.100000D+01  0.000000D+00  0.000000D+00  0.000000D+00
     18   0.000000D+00  0.000000D+00  0.100000D+01 -0.624806D-01 -0.481556D+00
     19   0.000000D+00  0.000000D+00 -0.624806D-01  0.100000D+01  0.236704D+00
     20   0.000000D+00  0.000000D+00 -0.481556D+00  0.236704D+00  0.100000D+01
     21   0.167122D+00  0.000000D+00  0.000000D+00  0.000000D+00  0.000000D+00
     22   0.000000D+00  0.167122D+00  0.000000D+00  0.000000D+00  0.000000D+00
     23   0.000000D+00  0.000000D+00 -0.183515D+00  0.000000D+00  0.000000D+00
                21            22            23 
      1   0.000000D+00  0.000000D+00  0.140973D-02
      2   0.000000D+00  0.000000D+00  0.930937D-02
      3   0.632622D-03  0.000000D+00  0.000000D+00
      4   0.000000D+00  0.632622D-03  0.000000D+00
      5   0.000000D+00  0.000000D+00 -0.385940D-02
      6   0.000000D+00  0.000000D+00  0.675367D-01
      7   0.134970D-01  0.000000D+00  0.000000D+00
      8   0.000000D+00  0.134970D-01  0.000000D+00
      9   0.000000D+00  0.000000D+00 -0.705480D-01
     10   0.000000D+00  0.000000D+00  0.623989D-01
     11  -0.237020D-01  0.000000D+00  0.000000D+00
     12   0.000000D+00 -0.237020D-01  0.000000D+00
     13   0.000000D+00  0.000000D+00  0.000000D+00
     14   0.000000D+00  0.000000D+00  0.000000D+00
     15   0.000000D+00  0.000000D+00  0.143538D+00
     16   0.167122D+00  0.000000D+00  0.000000D+00
     17   0.000000D+00  0.167122D+00  0.000000D+00
     18   0.000000D+00  0.000000D+00 -0.183515D+00
     19   0.000000D+00  0.000000D+00  0.000000D+00
     20   0.000000D+00  0.000000D+00  0.000000D+00
     21   0.100000D+01  0.000000D+00  0.000000D+00
     22   0.000000D+00  0.100000D+01  0.000000D+00
     23   0.000000D+00  0.000000D+00  0.100000D+01
 Entering OneElI...
 Overlap between basis sets.
 Requested accuracy = 0.1000D-12
 PrsmSu:  NPrtUS=   1 ThrOK=F IAlg=1
 PRISM was handed  8586724304 working-precision words and   711 shell-pairs
 IPart=  0 NShTot=         711 NBatch=          87 AvBLen=         8.2
 CnvPC2: ToCart=F DoDens=F IPureD=0 IPureF=0.
 Transformed matrix in CnvPC2: 
                 1             2             3             4             5 
      1   0.999785D+00  0.398948D+00  0.000000D+00  0.000000D+00  0.000000D+00
      2   0.282303D+00  0.989985D+00  0.000000D+00  0.000000D+00  0.000000D+00
      3   0.000000D+00  0.000000D+00  0.999117D+00  0.000000D+00  0.000000D+00
      4   0.000000D+00  0.000000D+00  0.000000D+00  0.999117D+00  0.000000D+00
      5   0.000000D+00  0.000000D+00  0.000000D+00  0.000000D+00  0.999117D+00
      6   0.115247D-01  0.312821D+00  0.000000D+00  0.000000D+00  0.000000D+00
      7   0.000000D+00  0.000000D+00 -0.325798D+00  0.000000D+00  0.000000D+00
      8   0.000000D+00  0.000000D+00  0.000000D+00 -0.325798D+00  0.000000D+00
      9   0.000000D+00  0.000000D+00  0.000000D+00  0.000000D+00 -0.325798D+00
     10   0.000000D+00  0.000000D+00  0.000000D+00  0.000000D+00  0.000000D+00
     11   0.000000D+00  0.000000D+00  0.000000D+00  0.000000D+00  0.000000D+00
     12   0.000000D+00  0.000000D+00  0.000000D+00  0.000000D+00  0.000000D+00
     13   0.000000D+00  0.000000D+00  0.000000D+00  0.000000D+00  0.000000D+00
     14   0.000000D+00  0.000000D+00  0.000000D+00  0.000000D+00  0.000000D+00
     15   0.000000D+00  0.000000D+00  0.000000D+00  0.000000D+00  0.000000D+00
     16   0.000000D+00  0.000000D+00  0.000000D+00  0.000000D+00  0.000000D+00
     17   0.000000D+00  0.000000D+00  0.000000D+00  0.000000D+00  0.000000D+00
     18   0.000000D+00  0.000000D+00  0.000000D+00  0.000000D+00  0.000000D+00
     19   0.000000D+00  0.000000D+00  0.000000D+00  0.000000D+00  0.000000D+00
     20   0.000000D+00  0.000000D+00  0.000000D+00  0.000000D+00  0.000000D+00
     21   0.000000D+00  0.000000D+00  0.000000D+00  0.000000D+00  0.000000D+00
     22   0.000000D+00  0.000000D+00  0.000000D+00  0.000000D+00  0.000000D+00
     23   0.000000D+00  0.000000D+00  0.000000D+00  0.000000D+00  0.000000D+00
     24   0.000000D+00  0.000000D+00  0.000000D+00  0.000000D+00  0.000000D+00
     25   0.534568D-04  0.808020D-02  0.000000D+00  0.000000D+00  0.000000D+00
     26   0.734007D-02  0.464056D-01  0.000000D+00  0.000000D+00  0.000000D+00
     27   0.344545D-02  0.218674D-01  0.000000D+00  0.000000D+00  0.000000D+00
     28   0.133463D-02  0.848407D-02  0.000000D+00  0.000000D+00  0.000000D+00
     29   0.000000D+00  0.000000D+00 -0.179976D-02  0.000000D+00  0.000000D+00
     30   0.000000D+00  0.000000D+00  0.000000D+00 -0.179976D-02  0.000000D+00
     31   0.000000D+00  0.000000D+00  0.000000D+00  0.000000D+00 -0.179976D-02
     32   0.000000D+00  0.000000D+00  0.148888D-01  0.000000D+00  0.000000D+00
     33   0.000000D+00  0.000000D+00  0.000000D+00  0.148888D-01  0.000000D+00
     34   0.000000D+00  0.000000D+00  0.000000D+00  0.000000D+00  0.148888D-01
     35   0.000000D+00  0.000000D+00  0.474391D-02  0.000000D+00  0.000000D+00
     36   0.000000D+00  0.000000D+00  0.000000D+00  0.474391D-02  0.000000D+00
     37   0.000000D+00  0.000000D+00  0.000000D+00  0.000000D+00  0.474391D-02
     38   0.341892D+00  0.985224D+00  0.000000D+00  0.000000D+00  0.000000D+00
     39   0.214974D+00  0.853579D+00  0.000000D+00  0.000000D+00  0.000000D+00
     40   0.131098D+00  0.642230D+00  0.000000D+00  0.000000D+00  0.000000D+00
     41   0.786519D-01  0.435922D+00  0.000000D+00  0.000000D+00  0.000000D+00
     42   0.467922D-01  0.277379D+00  0.000000D+00  0.000000D+00  0.000000D+00
     43   0.277203D-01  0.170177D+00  0.000000D+00  0.000000D+00  0.000000D+00
     44   0.000000D+00  0.000000D+00  0.468236D+00  0.000000D+00  0.000000D+00
     45   0.000000D+00  0.000000D+00  0.000000D+00  0.468236D+00  0.000000D+00
     46   0.000000D+00  0.000000D+00  0.000000D+00  0.000000D+00  0.468236D+00
     47   0.000000D+00  0.000000D+00  0.306273D+00  0.000000D+00  0.000000D+00
     48   0.000000D+00  0.000000D+00  0.000000D+00  0.306273D+00  0.000000D+00
     49   0.000000D+00  0.000000D+00  0.000000D+00  0.000000D+00  0.306273D+00
     50   0.000000D+00  0.000000D+00  0.187009D+00  0.000000D+00  0.000000D+00
     51   0.000000D+00  0.000000D+00  0.000000D+00  0.187009D+00  0.000000D+00
     52   0.000000D+00  0.000000D+00  0.000000D+00  0.000000D+00  0.187009D+00
     53   0.000000D+00  0.000000D+00  0.108643D+00  0.000000D+00  0.000000D+00
     54   0.000000D+00  0.000000D+00  0.000000D+00  0.108643D+00  0.000000D+00
     55   0.000000D+00  0.000000D+00  0.000000D+00  0.000000D+00  0.108643D+00
     56   0.000000D+00  0.000000D+00  0.610219D-01  0.000000D+00  0.000000D+00
     57   0.000000D+00  0.000000D+00  0.000000D+00  0.610219D-01  0.000000D+00
     58   0.000000D+00  0.000000D+00  0.000000D+00  0.000000D+00  0.610219D-01
     59   0.000000D+00  0.000000D+00  0.335322D-01  0.000000D+00  0.000000D+00
     60   0.000000D+00  0.000000D+00  0.000000D+00  0.335322D-01  0.000000D+00
     61   0.000000D+00  0.000000D+00  0.000000D+00  0.000000D+00  0.335322D-01
     62   0.000000D+00  0.000000D+00  0.000000D+00  0.000000D+00  0.000000D+00
     63   0.000000D+00  0.000000D+00  0.000000D+00  0.000000D+00  0.000000D+00
     64   0.000000D+00  0.000000D+00  0.000000D+00  0.000000D+00  0.000000D+00
     65   0.000000D+00  0.000000D+00  0.000000D+00  0.000000D+00  0.000000D+00
     66   0.000000D+00  0.000000D+00  0.000000D+00  0.000000D+00  0.000000D+00
     67   0.000000D+00  0.000000D+00  0.000000D+00  0.000000D+00  0.000000D+00
     68   0.000000D+00  0.000000D+00  0.000000D+00  0.000000D+00  0.000000D+00
     69   0.000000D+00  0.000000D+00  0.000000D+00  0.000000D+00  0.000000D+00
     70   0.000000D+00  0.000000D+00  0.000000D+00  0.000000D+00  0.000000D+00
     71   0.000000D+00  0.000000D+00  0.000000D+00  0.000000D+00  0.000000D+00
     72   0.000000D+00  0.000000D+00  0.000000D+00  0.000000D+00  0.000000D+00
     73   0.000000D+00  0.000000D+00  0.000000D+00  0.000000D+00  0.000000D+00
     74   0.000000D+00  0.000000D+00  0.000000D+00  0.000000D+00  0.000000D+00
     75   0.000000D+00  0.000000D+00  0.000000D+00  0.000000D+00  0.000000D+00
     76   0.000000D+00  0.000000D+00  0.000000D+00  0.000000D+00  0.000000D+00
     77   0.000000D+00  0.000000D+00  0.000000D+00  0.000000D+00  0.000000D+00
     78   0.000000D+00  0.000000D+00  0.000000D+00  0.000000D+00  0.000000D+00
     79   0.000000D+00  0.000000D+00  0.000000D+00  0.000000D+00  0.000000D+00
     80   0.000000D+00  0.000000D+00  0.000000D+00  0.000000D+00  0.000000D+00
     81   0.000000D+00  0.000000D+00  0.000000D+00  0.000000D+00  0.000000D+00
     82   0.000000D+00  0.000000D+00  0.000000D+00  0.000000D+00  0.000000D+00
     83   0.000000D+00  0.000000D+00  0.000000D+00  0.000000D+00  0.000000D+00
     84   0.000000D+00  0.000000D+00  0.000000D+00  0.000000D+00  0.000000D+00
     85   0.000000D+00  0.000000D+00  0.000000D+00  0.000000D+00  0.000000D+00
     86   0.000000D+00  0.000000D+00  0.000000D+00  0.000000D+00  0.000000D+00
     87   0.000000D+00  0.000000D+00  0.000000D+00  0.000000D+00  0.000000D+00
     88   0.000000D+00  0.000000D+00  0.000000D+00  0.000000D+00  0.000000D+00
     89   0.000000D+00  0.000000D+00  0.000000D+00  0.000000D+00  0.000000D+00
     90   0.000000D+00  0.000000D+00  0.000000D+00  0.000000D+00  0.000000D+00
     91   0.000000D+00  0.000000D+00  0.000000D+00  0.000000D+00  0.000000D+00
     92   0.000000D+00  0.000000D+00  0.000000D+00  0.000000D+00  0.000000D+00
     93   0.000000D+00  0.000000D+00  0.000000D+00  0.000000D+00  0.000000D+00
     94   0.000000D+00  0.000000D+00  0.000000D+00  0.000000D+00  0.000000D+00
     95   0.000000D+00  0.000000D+00  0.000000D+00  0.000000D+00  0.000000D+00
     96   0.000000D+00  0.000000D+00  0.000000D+00  0.000000D+00  0.000000D+00
     97   0.000000D+00  0.000000D+00  0.000000D+00  0.000000D+00  0.000000D+00
     98   0.000000D+00  0.000000D+00  0.000000D+00  0.000000D+00  0.000000D+00
     99   0.000000D+00  0.000000D+00  0.000000D+00  0.000000D+00  0.000000D+00
    100   0.000000D+00  0.000000D+00  0.000000D+00  0.000000D+00  0.000000D+00
    101   0.000000D+00  0.000000D+00  0.000000D+00  0.000000D+00  0.000000D+00
    102   0.000000D+00  0.000000D+00  0.000000D+00  0.000000D+00  0.000000D+00
    103   0.000000D+00  0.000000D+00  0.000000D+00  0.000000D+00  0.000000D+00
    104   0.000000D+00  0.000000D+00  0.000000D+00  0.000000D+00  0.000000D+00
    105   0.000000D+00  0.000000D+00  0.000000D+00  0.000000D+00  0.000000D+00
    106   0.000000D+00  0.000000D+00  0.000000D+00  0.000000D+00  0.000000D+00
    107   0.000000D+00  0.000000D+00  0.000000D+00  0.000000D+00  0.000000D+00
    108   0.000000D+00  0.000000D+00  0.000000D+00  0.000000D+00  0.000000D+00
    109   0.000000D+00  0.000000D+00  0.000000D+00  0.000000D+00  0.000000D+00
    110   0.000000D+00  0.000000D+00  0.000000D+00  0.000000D+00  0.000000D+00
    111   0.000000D+00  0.000000D+00  0.000000D+00  0.000000D+00  0.000000D+00
    112   0.000000D+00  0.000000D+00  0.000000D+00  0.000000D+00  0.000000D+00
    113   0.000000D+00  0.000000D+00  0.000000D+00  0.000000D+00  0.000000D+00
    114   0.000000D+00  0.000000D+00  0.000000D+00  0.000000D+00  0.000000D+00
    115   0.000000D+00  0.000000D+00  0.000000D+00  0.000000D+00  0.000000D+00
    116   0.000000D+00  0.000000D+00  0.000000D+00  0.000000D+00  0.000000D+00
    117   0.000000D+00  0.000000D+00  0.000000D+00  0.000000D+00  0.000000D+00
    118   0.000000D+00  0.000000D+00  0.000000D+00  0.000000D+00  0.000000D+00
    119   0.000000D+00  0.000000D+00  0.000000D+00  0.000000D+00  0.000000D+00
    120   0.000000D+00  0.000000D+00  0.000000D+00  0.000000D+00  0.000000D+00
    121   0.000000D+00  0.000000D+00  0.000000D+00  0.000000D+00  0.000000D+00
    122   0.000000D+00  0.000000D+00  0.000000D+00  0.000000D+00  0.000000D+00
    123   0.000000D+00  0.000000D+00  0.000000D+00  0.000000D+00  0.000000D+00
    124   0.000000D+00  0.000000D+00  0.000000D+00  0.000000D+00  0.000000D+00
    125   0.000000D+00  0.000000D+00  0.000000D+00  0.000000D+00  0.000000D+00
    126   0.000000D+00  0.000000D+00  0.000000D+00  0.000000D+00  0.000000D+00
    127   0.000000D+00  0.000000D+00  0.000000D+00  0.000000D+00  0.000000D+00
    128   0.000000D+00  0.000000D+00  0.000000D+00  0.000000D+00  0.000000D+00
    129   0.000000D+00  0.000000D+00  0.000000D+00  0.000000D+00  0.000000D+00
    130   0.000000D+00  0.000000D+00  0.000000D+00  0.000000D+00  0.000000D+00
    131   0.000000D+00  0.000000D+00  0.000000D+00  0.000000D+00  0.000000D+00
    132   0.000000D+00  0.000000D+00  0.000000D+00  0.000000D+00  0.000000D+00
    133   0.000000D+00  0.000000D+00  0.000000D+00  0.000000D+00  0.000000D+00
    134   0.000000D+00  0.000000D+00  0.000000D+00  0.000000D+00  0.000000D+00
    135   0.000000D+00  0.000000D+00  0.000000D+00  0.000000D+00  0.000000D+00
    136   0.000000D+00  0.000000D+00  0.000000D+00  0.000000D+00  0.000000D+00
    137   0.000000D+00  0.000000D+00  0.000000D+00  0.000000D+00  0.000000D+00
    138   0.000000D+00  0.000000D+00  0.000000D+00  0.000000D+00  0.000000D+00
    139   0.000000D+00  0.000000D+00  0.000000D+00  0.000000D+00  0.000000D+00
    140   0.000000D+00  0.000000D+00  0.000000D+00  0.000000D+00  0.000000D+00
    141   0.000000D+00  0.000000D+00  0.000000D+00  0.000000D+00  0.000000D+00
    142   0.000000D+00  0.000000D+00  0.000000D+00  0.000000D+00  0.000000D+00
    143   0.000000D+00  0.000000D+00  0.000000D+00  0.000000D+00  0.000000D+00
    144   0.000000D+00  0.000000D+00  0.000000D+00  0.000000D+00  0.000000D+00
    145   0.000000D+00  0.000000D+00  0.000000D+00  0.000000D+00  0.000000D+00
    146   0.000000D+00  0.000000D+00  0.000000D+00  0.000000D+00  0.000000D+00
    147   0.000000D+00  0.000000D+00  0.000000D+00  0.000000D+00  0.000000D+00
    148   0.000000D+00  0.000000D+00  0.000000D+00  0.000000D+00  0.000000D+00
    149   0.000000D+00  0.000000D+00  0.000000D+00  0.000000D+00  0.000000D+00
    150   0.000000D+00  0.000000D+00  0.000000D+00  0.000000D+00  0.000000D+00
    151   0.000000D+00  0.000000D+00  0.000000D+00  0.000000D+00  0.000000D+00
    152   0.000000D+00  0.000000D+00  0.000000D+00  0.000000D+00  0.000000D+00
    153   0.000000D+00  0.000000D+00  0.000000D+00  0.000000D+00  0.000000D+00
    154   0.000000D+00  0.000000D+00  0.000000D+00  0.000000D+00  0.000000D+00
    155   0.000000D+00  0.000000D+00  0.000000D+00  0.000000D+00  0.000000D+00
    156   0.000000D+00  0.000000D+00  0.000000D+00  0.000000D+00  0.000000D+00
    157   0.000000D+00  0.000000D+00  0.000000D+00  0.000000D+00  0.000000D+00
    158   0.000000D+00  0.000000D+00  0.000000D+00  0.000000D+00  0.000000D+00
    159   0.000000D+00  0.000000D+00  0.000000D+00  0.000000D+00  0.000000D+00
    160   0.000000D+00  0.000000D+00  0.000000D+00  0.000000D+00  0.000000D+00
    161   0.000000D+00  0.000000D+00  0.000000D+00  0.000000D+00  0.000000D+00
    162   0.000000D+00  0.000000D+00  0.000000D+00  0.000000D+00  0.000000D+00
    163   0.000000D+00  0.000000D+00  0.000000D+00  0.000000D+00  0.000000D+00
    164   0.000000D+00  0.000000D+00  0.000000D+00  0.000000D+00  0.000000D+00
    165   0.000000D+00  0.000000D+00  0.000000D+00  0.000000D+00  0.000000D+00
    166   0.000000D+00  0.000000D+00  0.000000D+00  0.000000D+00  0.000000D+00
    167   0.000000D+00  0.000000D+00  0.000000D+00  0.000000D+00  0.000000D+00
    168   0.000000D+00  0.000000D+00  0.000000D+00  0.000000D+00  0.000000D+00
    169   0.000000D+00  0.000000D+00  0.000000D+00  0.000000D+00  0.000000D+00
    170   0.000000D+00  0.000000D+00  0.000000D+00  0.000000D+00  0.000000D+00
    171   0.000000D+00  0.000000D+00  0.000000D+00  0.000000D+00  0.000000D+00
    172   0.000000D+00  0.000000D+00  0.000000D+00  0.000000D+00  0.000000D+00
    173   0.000000D+00  0.000000D+00  0.000000D+00  0.000000D+00  0.000000D+00
    174   0.000000D+00  0.000000D+00  0.000000D+00  0.000000D+00  0.000000D+00
    175   0.000000D+00  0.000000D+00  0.000000D+00  0.000000D+00  0.000000D+00
    176   0.000000D+00  0.000000D+00  0.000000D+00  0.000000D+00  0.000000D+00
    177   0.000000D+00  0.000000D+00  0.000000D+00  0.000000D+00  0.000000D+00
    178   0.000000D+00  0.000000D+00  0.000000D+00  0.000000D+00  0.000000D+00
    179   0.000000D+00  0.000000D+00  0.000000D+00  0.000000D+00  0.000000D+00
    180   0.000000D+00  0.000000D+00  0.000000D+00  0.000000D+00  0.000000D+00
    181   0.000000D+00  0.000000D+00  0.000000D+00  0.000000D+00  0.000000D+00
    182   0.000000D+00  0.000000D+00  0.000000D+00  0.000000D+00  0.000000D+00
    183   0.000000D+00  0.000000D+00  0.000000D+00  0.000000D+00  0.000000D+00
    184   0.000000D+00  0.000000D+00  0.000000D+00  0.000000D+00  0.000000D+00
    185   0.000000D+00  0.000000D+00  0.000000D+00  0.000000D+00  0.000000D+00
    186   0.000000D+00  0.000000D+00  0.000000D+00  0.000000D+00  0.000000D+00
    187   0.000000D+00  0.000000D+00  0.000000D+00  0.000000D+00  0.000000D+00
    188   0.000000D+00  0.000000D+00  0.000000D+00  0.000000D+00  0.000000D+00
    189   0.000000D+00  0.000000D+00  0.000000D+00  0.000000D+00  0.000000D+00
    190   0.000000D+00  0.000000D+00  0.000000D+00  0.000000D+00  0.000000D+00
    191   0.000000D+00  0.000000D+00  0.000000D+00  0.000000D+00  0.000000D+00
    192   0.000000D+00  0.000000D+00  0.000000D+00  0.000000D+00  0.000000D+00
    193   0.000000D+00  0.000000D+00  0.000000D+00  0.000000D+00  0.000000D+00
    194   0.000000D+00  0.000000D+00  0.000000D+00  0.000000D+00  0.000000D+00
    195   0.000000D+00  0.000000D+00  0.000000D+00  0.000000D+00  0.000000D+00
    196   0.000000D+00  0.000000D+00  0.000000D+00  0.000000D+00  0.000000D+00
    197   0.000000D+00  0.000000D+00  0.000000D+00  0.000000D+00  0.000000D+00
    198   0.000000D+00  0.000000D+00  0.000000D+00  0.000000D+00  0.000000D+00
    199   0.000000D+00  0.000000D+00  0.000000D+00  0.000000D+00  0.000000D+00
    200   0.000000D+00  0.000000D+00  0.000000D+00  0.000000D+00  0.000000D+00
    201   0.000000D+00  0.000000D+00  0.000000D+00  0.000000D+00  0.000000D+00
    202   0.000000D+00  0.000000D+00  0.000000D+00  0.000000D+00  0.000000D+00
    203   0.000000D+00  0.000000D+00  0.000000D+00  0.000000D+00  0.000000D+00
    204   0.000000D+00  0.000000D+00  0.000000D+00  0.000000D+00  0.000000D+00
    205   0.000000D+00  0.000000D+00  0.000000D+00  0.000000D+00  0.000000D+00
    206   0.000000D+00  0.000000D+00  0.000000D+00  0.000000D+00  0.000000D+00
    207   0.000000D+00  0.000000D+00  0.000000D+00  0.000000D+00  0.000000D+00
    208   0.000000D+00  0.000000D+00  0.000000D+00  0.000000D+00  0.000000D+00
    209   0.000000D+00  0.000000D+00  0.000000D+00  0.000000D+00  0.000000D+00
    210   0.000000D+00  0.000000D+00  0.000000D+00  0.000000D+00  0.000000D+00
    211   0.000000D+00  0.000000D+00  0.000000D+00  0.000000D+00  0.000000D+00
    212   0.000000D+00  0.000000D+00  0.000000D+00  0.000000D+00  0.000000D+00
    213   0.000000D+00  0.000000D+00  0.000000D+00  0.000000D+00  0.000000D+00
    214   0.000000D+00  0.000000D+00  0.000000D+00  0.000000D+00  0.000000D+00
    215   0.000000D+00  0.000000D+00  0.000000D+00  0.000000D+00  0.000000D+00
    216   0.000000D+00  0.000000D+00  0.000000D+00  0.000000D+00  0.000000D+00
    217   0.000000D+00  0.000000D+00  0.000000D+00  0.000000D+00  0.000000D+00
    218   0.000000D+00  0.000000D+00  0.000000D+00  0.000000D+00  0.000000D+00
    219   0.000000D+00  0.000000D+00  0.000000D+00  0.000000D+00  0.000000D+00
    220   0.000000D+00  0.000000D+00  0.000000D+00  0.000000D+00  0.000000D+00
    221   0.000000D+00  0.000000D+00  0.000000D+00  0.000000D+00  0.000000D+00
    222   0.000000D+00  0.000000D+00  0.000000D+00  0.000000D+00  0.000000D+00
    223   0.000000D+00  0.000000D+00  0.000000D+00  0.000000D+00  0.000000D+00
    224   0.000000D+00  0.000000D+00  0.000000D+00  0.000000D+00  0.000000D+00
    225   0.000000D+00  0.000000D+00  0.000000D+00  0.000000D+00  0.000000D+00
    226   0.000000D+00  0.000000D+00  0.000000D+00  0.000000D+00  0.000000D+00
    227   0.000000D+00  0.000000D+00  0.000000D+00  0.000000D+00  0.000000D+00
    228   0.000000D+00  0.000000D+00  0.000000D+00  0.000000D+00  0.000000D+00
    229   0.000000D+00  0.000000D+00  0.000000D+00  0.000000D+00  0.000000D+00
    230   0.000000D+00  0.000000D+00  0.000000D+00  0.000000D+00  0.000000D+00
    231   0.000000D+00  0.000000D+00  0.000000D+00  0.000000D+00  0.000000D+00
    232   0.000000D+00  0.000000D+00  0.000000D+00  0.000000D+00  0.000000D+00
    233   0.000000D+00  0.000000D+00  0.000000D+00  0.000000D+00  0.000000D+00
    234   0.000000D+00  0.000000D+00  0.000000D+00  0.000000D+00  0.000000D+00
    235   0.000000D+00  0.000000D+00  0.000000D+00  0.000000D+00  0.000000D+00
    236   0.000000D+00  0.000000D+00  0.000000D+00  0.000000D+00  0.000000D+00
    237   0.000000D+00  0.000000D+00  0.000000D+00  0.000000D+00  0.000000D+00
    238   0.000000D+00  0.000000D+00  0.000000D+00  0.000000D+00  0.000000D+00
    239   0.000000D+00  0.000000D+00  0.000000D+00  0.000000D+00  0.000000D+00
    240   0.000000D+00  0.000000D+00  0.000000D+00  0.000000D+00  0.000000D+00
    241   0.000000D+00  0.000000D+00  0.000000D+00  0.000000D+00  0.000000D+00
    242   0.000000D+00  0.000000D+00  0.000000D+00  0.000000D+00  0.000000D+00
    243   0.000000D+00  0.000000D+00  0.000000D+00  0.000000D+00  0.000000D+00
    244   0.000000D+00  0.000000D+00  0.000000D+00  0.000000D+00  0.000000D+00
    245   0.000000D+00  0.000000D+00  0.000000D+00  0.000000D+00  0.000000D+00
    246   0.000000D+00  0.000000D+00  0.000000D+00  0.000000D+00  0.000000D+00
    247   0.000000D+00  0.000000D+00  0.000000D+00  0.000000D+00  0.000000D+00
    248   0.000000D+00  0.000000D+00  0.000000D+00  0.000000D+00  0.000000D+00
    249   0.000000D+00  0.000000D+00  0.000000D+00  0.000000D+00  0.000000D+00
    250   0.000000D+00  0.000000D+00  0.000000D+00  0.000000D+00  0.000000D+00
    251   0.000000D+00  0.000000D+00  0.000000D+00  0.000000D+00  0.000000D+00
    252   0.000000D+00  0.000000D+00  0.000000D+00  0.000000D+00  0.000000D+00
    253   0.000000D+00  0.000000D+00  0.000000D+00  0.000000D+00  0.000000D+00
    254   0.000000D+00  0.000000D+00  0.000000D+00  0.000000D+00  0.000000D+00
    255   0.000000D+00  0.000000D+00  0.000000D+00  0.000000D+00  0.000000D+00
    256   0.000000D+00  0.000000D+00  0.000000D+00  0.000000D+00  0.000000D+00
    257   0.000000D+00  0.000000D+00  0.000000D+00  0.000000D+00  0.000000D+00
    258   0.000000D+00  0.000000D+00  0.000000D+00  0.000000D+00  0.000000D+00
    259   0.000000D+00  0.000000D+00  0.000000D+00  0.000000D+00  0.000000D+00
    260   0.000000D+00  0.000000D+00  0.000000D+00  0.000000D+00  0.000000D+00
    261   0.000000D+00  0.000000D+00  0.000000D+00  0.000000D+00  0.000000D+00
    262   0.000000D+00  0.000000D+00  0.000000D+00  0.000000D+00  0.000000D+00
    263   0.000000D+00  0.000000D+00  0.000000D+00  0.000000D+00  0.000000D+00
    264   0.000000D+00  0.000000D+00  0.000000D+00  0.000000D+00  0.000000D+00
    265   0.000000D+00  0.000000D+00  0.000000D+00  0.000000D+00  0.000000D+00
    266   0.000000D+00  0.000000D+00  0.000000D+00  0.000000D+00  0.000000D+00
    267   0.000000D+00  0.000000D+00  0.000000D+00  0.000000D+00  0.000000D+00
    268   0.000000D+00  0.000000D+00  0.000000D+00  0.000000D+00  0.000000D+00
    269   0.000000D+00  0.000000D+00  0.000000D+00  0.000000D+00  0.000000D+00
    270   0.000000D+00  0.000000D+00  0.000000D+00  0.000000D+00  0.000000D+00
    271   0.000000D+00  0.000000D+00  0.000000D+00  0.000000D+00  0.000000D+00
    272   0.000000D+00  0.000000D+00  0.000000D+00  0.000000D+00  0.000000D+00
    273   0.000000D+00  0.000000D+00  0.000000D+00  0.000000D+00  0.000000D+00
    274   0.000000D+00  0.000000D+00  0.000000D+00  0.000000D+00  0.000000D+00
    275   0.000000D+00  0.000000D+00  0.000000D+00  0.000000D+00  0.000000D+00
    276   0.000000D+00  0.000000D+00  0.000000D+00  0.000000D+00  0.000000D+00
    277   0.000000D+00  0.000000D+00  0.000000D+00  0.000000D+00  0.000000D+00
    278   0.000000D+00  0.000000D+00  0.000000D+00  0.000000D+00  0.000000D+00
    279   0.000000D+00  0.000000D+00  0.000000D+00  0.000000D+00  0.000000D+00
    280   0.000000D+00  0.000000D+00  0.000000D+00  0.000000D+00  0.000000D+00
    281   0.000000D+00  0.000000D+00  0.000000D+00  0.000000D+00  0.000000D+00
    282   0.000000D+00  0.000000D+00  0.000000D+00  0.000000D+00  0.000000D+00
    283   0.000000D+00  0.000000D+00  0.000000D+00  0.000000D+00  0.000000D+00
    284   0.000000D+00  0.000000D+00  0.000000D+00  0.000000D+00  0.000000D+00
    285   0.000000D+00  0.000000D+00  0.000000D+00  0.000000D+00  0.000000D+00
    286   0.000000D+00  0.000000D+00  0.000000D+00  0.000000D+00  0.000000D+00
    287   0.000000D+00  0.000000D+00  0.000000D+00  0.000000D+00  0.000000D+00
    288   0.000000D+00  0.000000D+00  0.000000D+00  0.000000D+00  0.000000D+00
    289   0.000000D+00  0.000000D+00  0.000000D+00  0.000000D+00  0.000000D+00
    290   0.000000D+00  0.000000D+00  0.000000D+00  0.000000D+00  0.000000D+00
    291   0.000000D+00  0.000000D+00  0.000000D+00  0.000000D+00  0.000000D+00
    292   0.000000D+00  0.000000D+00  0.000000D+00  0.000000D+00  0.000000D+00
    293   0.000000D+00  0.000000D+00  0.000000D+00  0.000000D+00  0.000000D+00
    294   0.000000D+00  0.000000D+00  0.000000D+00  0.000000D+00  0.000000D+00
    295   0.000000D+00  0.000000D+00  0.000000D+00  0.000000D+00  0.000000D+00
    296   0.000000D+00  0.000000D+00  0.000000D+00  0.000000D+00  0.000000D+00
    297   0.000000D+00  0.000000D+00  0.000000D+00  0.000000D+00  0.000000D+00
    298   0.000000D+00  0.000000D+00  0.000000D+00  0.000000D+00  0.000000D+00
    299   0.000000D+00  0.000000D+00  0.000000D+00  0.000000D+00  0.000000D+00
    300   0.000000D+00  0.000000D+00  0.000000D+00  0.000000D+00  0.000000D+00
    301   0.000000D+00  0.000000D+00  0.000000D+00  0.000000D+00  0.000000D+00
    302   0.000000D+00  0.000000D+00  0.000000D+00  0.000000D+00  0.000000D+00
    303   0.000000D+00  0.000000D+00  0.000000D+00  0.000000D+00  0.000000D+00
    304   0.000000D+00  0.000000D+00  0.000000D+00  0.000000D+00  0.000000D+00
    305   0.000000D+00  0.000000D+00  0.000000D+00  0.000000D+00  0.000000D+00
    306   0.000000D+00  0.000000D+00  0.000000D+00  0.000000D+00  0.000000D+00
    307   0.000000D+00  0.000000D+00  0.000000D+00  0.000000D+00  0.000000D+00
    308   0.000000D+00  0.000000D+00  0.000000D+00  0.000000D+00  0.000000D+00
    309   0.000000D+00  0.000000D+00  0.000000D+00  0.000000D+00  0.000000D+00
    310   0.000000D+00  0.000000D+00  0.000000D+00  0.000000D+00  0.000000D+00
    311   0.000000D+00  0.000000D+00  0.000000D+00  0.000000D+00  0.000000D+00
    312   0.000000D+00  0.000000D+00  0.000000D+00  0.000000D+00  0.000000D+00
    313   0.000000D+00  0.000000D+00  0.000000D+00  0.000000D+00  0.000000D+00
    314   0.000000D+00  0.000000D+00  0.000000D+00  0.000000D+00  0.000000D+00
    315   0.000000D+00  0.000000D+00  0.000000D+00  0.000000D+00  0.000000D+00
    316   0.000000D+00  0.000000D+00  0.000000D+00  0.000000D+00  0.000000D+00
    317   0.000000D+00  0.000000D+00  0.000000D+00  0.000000D+00  0.000000D+00
    318   0.000000D+00  0.000000D+00  0.000000D+00  0.000000D+00  0.000000D+00
    319   0.000000D+00  0.000000D+00  0.000000D+00  0.000000D+00  0.000000D+00
    320   0.000000D+00  0.000000D+00  0.000000D+00  0.000000D+00  0.000000D+00
    321   0.000000D+00  0.000000D+00  0.000000D+00  0.000000D+00  0.000000D+00
    322   0.000000D+00  0.000000D+00  0.000000D+00  0.000000D+00  0.000000D+00
    323   0.000000D+00  0.000000D+00  0.000000D+00  0.000000D+00  0.000000D+00
    324   0.000000D+00  0.000000D+00  0.000000D+00  0.000000D+00  0.000000D+00
    325   0.000000D+00  0.000000D+00  0.000000D+00  0.000000D+00  0.000000D+00
    326   0.000000D+00  0.000000D+00  0.000000D+00  0.000000D+00  0.000000D+00
    327   0.000000D+00  0.000000D+00  0.000000D+00  0.000000D+00  0.000000D+00
    328   0.000000D+00  0.000000D+00  0.000000D+00  0.000000D+00  0.000000D+00
    329   0.000000D+00  0.000000D+00  0.000000D+00  0.000000D+00  0.000000D+00
    330   0.000000D+00  0.000000D+00  0.000000D+00  0.000000D+00  0.000000D+00
    331   0.000000D+00  0.000000D+00  0.000000D+00  0.000000D+00  0.000000D+00
    332   0.000000D+00  0.000000D+00  0.000000D+00  0.000000D+00  0.000000D+00
    333   0.000000D+00  0.000000D+00  0.000000D+00  0.000000D+00  0.000000D+00
    334   0.000000D+00  0.000000D+00  0.000000D+00  0.000000D+00  0.000000D+00
    335   0.000000D+00  0.000000D+00  0.000000D+00  0.000000D+00  0.000000D+00
    336   0.000000D+00  0.000000D+00  0.000000D+00  0.000000D+00  0.000000D+00
    337   0.000000D+00  0.000000D+00  0.000000D+00  0.000000D+00  0.000000D+00
    338   0.000000D+00  0.000000D+00  0.000000D+00  0.000000D+00  0.000000D+00
    339   0.000000D+00  0.000000D+00  0.000000D+00  0.000000D+00  0.000000D+00
    340   0.000000D+00  0.000000D+00  0.000000D+00  0.000000D+00  0.000000D+00
    341   0.000000D+00  0.000000D+00  0.000000D+00  0.000000D+00  0.000000D+00
    342   0.000000D+00  0.000000D+00  0.000000D+00  0.000000D+00  0.000000D+00
    343   0.000000D+00  0.000000D+00  0.000000D+00  0.000000D+00  0.000000D+00
    344   0.000000D+00  0.000000D+00  0.000000D+00  0.000000D+00  0.000000D+00
    345   0.000000D+00  0.000000D+00  0.000000D+00  0.000000D+00  0.000000D+00
    346   0.000000D+00  0.000000D+00  0.000000D+00  0.000000D+00  0.000000D+00
    347   0.000000D+00  0.000000D+00  0.000000D+00  0.000000D+00  0.000000D+00
    348   0.000000D+00  0.000000D+00  0.000000D+00  0.000000D+00  0.000000D+00
    349   0.000000D+00  0.000000D+00  0.000000D+00  0.000000D+00  0.000000D+00
    350   0.000000D+00  0.000000D+00  0.000000D+00  0.000000D+00  0.000000D+00
    351   0.000000D+00  0.000000D+00  0.000000D+00  0.000000D+00  0.000000D+00
    352   0.000000D+00  0.000000D+00  0.000000D+00  0.000000D+00  0.000000D+00
    353   0.000000D+00  0.000000D+00  0.000000D+00  0.000000D+00  0.000000D+00
    354   0.000000D+00  0.000000D+00  0.000000D+00  0.000000D+00  0.000000D+00
    355   0.000000D+00  0.000000D+00  0.000000D+00  0.000000D+00  0.000000D+00
    356   0.000000D+00  0.000000D+00  0.000000D+00  0.000000D+00  0.000000D+00
    357   0.000000D+00  0.000000D+00  0.000000D+00  0.000000D+00  0.000000D+00
    358   0.000000D+00  0.000000D+00  0.000000D+00  0.000000D+00  0.000000D+00
    359   0.000000D+00  0.000000D+00  0.000000D+00  0.000000D+00  0.000000D+00
    360   0.000000D+00  0.000000D+00  0.000000D+00  0.000000D+00  0.000000D+00
    361   0.000000D+00  0.000000D+00  0.000000D+00  0.000000D+00  0.000000D+00
    362   0.000000D+00  0.000000D+00  0.000000D+00  0.000000D+00  0.000000D+00
    363   0.000000D+00  0.000000D+00  0.000000D+00  0.000000D+00  0.000000D+00
    364   0.000000D+00  0.000000D+00  0.000000D+00  0.000000D+00  0.000000D+00
    365   0.973365D-03  0.639957D-02  0.000000D+00  0.000000D+00 -0.214907D-02
    366   0.491184D-02  0.310967D-01  0.000000D+00  0.000000D+00 -0.233454D-02
    367   0.000000D+00  0.000000D+00  0.128955D-02  0.000000D+00  0.000000D+00
    368   0.000000D+00  0.000000D+00  0.000000D+00  0.128955D-02  0.000000D+00
    369   0.294351D-02  0.189303D-01  0.000000D+00  0.000000D+00 -0.482507D-02
    370   0.000000D+00  0.000000D+00  0.247290D-02  0.000000D+00  0.000000D+00
    371   0.000000D+00  0.000000D+00  0.000000D+00  0.247290D-02  0.000000D+00
    372   0.574068D-02  0.362380D-01  0.000000D+00  0.000000D+00  0.475720D-03
    373   0.000000D+00  0.000000D+00  0.000000D+00  0.000000D+00  0.000000D+00
    374   0.000000D+00  0.000000D+00  0.000000D+00  0.000000D+00  0.000000D+00
    375   0.232890D-05  0.320844D-04  0.000000D+00  0.000000D+00 -0.393872D-04
    376   0.224939D-03  0.170381D-02  0.000000D+00  0.000000D+00 -0.116835D-02
    377   0.184542D-02  0.120832D-01  0.000000D+00  0.000000D+00 -0.438431D-02
    378   0.423807D-02  0.269186D-01  0.000000D+00  0.000000D+00 -0.505650D-02
    379   0.000000D+00  0.000000D+00  0.000000D+00  0.000000D+00  0.000000D+00
    380   0.000000D+00  0.000000D+00  0.000000D+00  0.000000D+00  0.000000D+00
    381   0.000000D+00  0.000000D+00  0.000000D+00  0.000000D+00  0.000000D+00
    382   0.000000D+00  0.000000D+00  0.000000D+00  0.000000D+00  0.000000D+00
    383   0.000000D+00  0.000000D+00  0.000000D+00  0.000000D+00  0.000000D+00
    384   0.000000D+00  0.000000D+00  0.000000D+00  0.000000D+00  0.000000D+00
    385   0.000000D+00  0.000000D+00  0.766658D-05  0.000000D+00  0.000000D+00
    386   0.000000D+00  0.000000D+00  0.000000D+00  0.766658D-05  0.000000D+00
    387   0.861494D-05  0.118857D-03  0.000000D+00  0.000000D+00 -0.146211D-03
    388   0.000000D+00  0.000000D+00  0.615647D-03  0.000000D+00  0.000000D+00
    389   0.000000D+00  0.000000D+00  0.000000D+00  0.615647D-03  0.000000D+00
    390   0.128604D-02  0.911640D-02  0.000000D+00  0.000000D+00 -0.535187D-02
    391   0.000000D+00  0.000000D+00  0.325272D-02  0.000000D+00  0.000000D+00
    392   0.000000D+00  0.000000D+00  0.000000D+00  0.325272D-02  0.000000D+00
    393   0.752983D-02  0.476789D-01  0.000000D+00  0.000000D+00 -0.114614D-01
    394   0.000000D+00  0.000000D+00  0.424015D-02  0.000000D+00  0.000000D+00
    395   0.000000D+00  0.000000D+00  0.000000D+00  0.424015D-02  0.000000D+00
    396   0.989738D-02  0.620996D-01  0.000000D+00  0.000000D+00 -0.458922D-02
    397   0.000000D+00  0.000000D+00  0.000000D+00  0.000000D+00  0.000000D+00
    398   0.000000D+00  0.000000D+00  0.000000D+00  0.000000D+00  0.000000D+00
    399   0.000000D+00  0.000000D+00  0.000000D+00  0.000000D+00  0.000000D+00
    400   0.000000D+00  0.000000D+00  0.000000D+00  0.000000D+00  0.000000D+00
    401   0.000000D+00  0.000000D+00  0.000000D+00  0.000000D+00  0.000000D+00
    402   0.000000D+00  0.000000D+00  0.000000D+00  0.000000D+00  0.000000D+00
    403   0.000000D+00  0.000000D+00  0.000000D+00  0.000000D+00  0.000000D+00
    404   0.000000D+00  0.000000D+00  0.000000D+00  0.000000D+00  0.000000D+00
    405   0.000000D+00  0.000000D+00  0.000000D+00  0.000000D+00  0.000000D+00
    406   0.000000D+00  0.000000D+00  0.000000D+00  0.000000D+00  0.000000D+00
    407   0.000000D+00  0.000000D+00  0.000000D+00  0.000000D+00  0.000000D+00
    408   0.000000D+00  0.000000D+00  0.000000D+00  0.000000D+00  0.000000D+00
    409   0.000000D+00  0.000000D+00  0.000000D+00  0.000000D+00  0.000000D+00
    410   0.000000D+00  0.000000D+00  0.000000D+00  0.000000D+00  0.000000D+00
    411   0.000000D+00  0.000000D+00  0.000000D+00  0.000000D+00  0.000000D+00
    412   0.267966D-04  0.347088D-03  0.000000D+00  0.000000D+00 -0.415298D-03
    413   0.000000D+00  0.000000D+00  0.389184D-04  0.000000D+00  0.000000D+00
    414   0.000000D+00  0.000000D+00  0.000000D+00  0.389184D-04  0.000000D+00
    415   0.000000D+00  0.000000D+00  0.000000D+00  0.000000D+00  0.000000D+00
    416   0.000000D+00  0.000000D+00  0.000000D+00  0.000000D+00  0.000000D+00
    417   0.215892D-02  0.152083D-01  0.000000D+00  0.000000D+00 -0.911425D-02
    418   0.000000D+00  0.000000D+00  0.177996D-02  0.000000D+00  0.000000D+00
    419   0.000000D+00  0.000000D+00  0.000000D+00  0.177996D-02  0.000000D+00
    420   0.000000D+00  0.000000D+00  0.000000D+00  0.000000D+00  0.000000D+00
    421   0.000000D+00  0.000000D+00  0.000000D+00  0.000000D+00  0.000000D+00
    422   0.110041D-01  0.688046D-01  0.000000D+00  0.000000D+00 -0.169184D-01
    423   0.000000D+00  0.000000D+00  0.813995D-02  0.000000D+00  0.000000D+00
    424   0.000000D+00  0.000000D+00  0.000000D+00  0.813995D-02  0.000000D+00
    425   0.000000D+00  0.000000D+00  0.000000D+00  0.000000D+00  0.000000D+00
    426   0.000000D+00  0.000000D+00  0.000000D+00  0.000000D+00  0.000000D+00
    427   0.137652D-01  0.852558D-01  0.000000D+00  0.000000D+00 -0.494360D-02
    428   0.000000D+00  0.000000D+00  0.100952D-01  0.000000D+00  0.000000D+00
    429   0.000000D+00  0.000000D+00  0.000000D+00  0.100952D-01  0.000000D+00
    430   0.000000D+00  0.000000D+00  0.000000D+00  0.000000D+00  0.000000D+00
    431   0.000000D+00  0.000000D+00  0.000000D+00  0.000000D+00  0.000000D+00
    432   0.000000D+00  0.000000D+00  0.000000D+00  0.000000D+00  0.000000D+00
    433   0.000000D+00  0.000000D+00  0.000000D+00  0.000000D+00  0.000000D+00
    434   0.000000D+00  0.000000D+00  0.000000D+00  0.000000D+00  0.000000D+00
    435   0.000000D+00  0.000000D+00  0.000000D+00  0.000000D+00  0.000000D+00
    436   0.000000D+00  0.000000D+00  0.000000D+00  0.000000D+00  0.000000D+00
    437   0.000000D+00  0.000000D+00  0.000000D+00  0.000000D+00  0.000000D+00
    438   0.000000D+00  0.000000D+00  0.000000D+00  0.000000D+00  0.000000D+00
    439   0.000000D+00  0.000000D+00  0.000000D+00  0.000000D+00  0.000000D+00
    440   0.000000D+00  0.000000D+00  0.000000D+00  0.000000D+00  0.000000D+00
    441   0.000000D+00  0.000000D+00  0.000000D+00  0.000000D+00  0.000000D+00
    442   0.000000D+00  0.000000D+00  0.000000D+00  0.000000D+00  0.000000D+00
    443   0.000000D+00  0.000000D+00  0.000000D+00  0.000000D+00  0.000000D+00
    444   0.000000D+00  0.000000D+00  0.000000D+00  0.000000D+00  0.000000D+00
    445   0.000000D+00  0.000000D+00  0.000000D+00  0.000000D+00  0.000000D+00
    446   0.000000D+00  0.242067D-04  0.000000D+00  0.000000D+00 -0.392712D-04
    447   0.000000D+00  0.000000D+00  0.369496D-05  0.000000D+00  0.000000D+00
    448   0.000000D+00  0.000000D+00  0.000000D+00  0.369496D-05  0.000000D+00
    449   0.000000D+00  0.000000D+00  0.000000D+00  0.000000D+00  0.000000D+00
    450   0.000000D+00  0.000000D+00  0.000000D+00  0.000000D+00  0.000000D+00
    451   0.000000D+00  0.000000D+00  0.000000D+00  0.000000D+00  0.000000D+00
    452   0.000000D+00  0.000000D+00  0.000000D+00  0.000000D+00  0.000000D+00
    453   0.619494D-03  0.524062D-02  0.000000D+00  0.000000D+00 -0.456181D-02
    454   0.000000D+00  0.000000D+00  0.854728D-03  0.000000D+00  0.000000D+00
    455   0.000000D+00  0.000000D+00  0.000000D+00  0.854728D-03  0.000000D+00
    456   0.000000D+00  0.000000D+00  0.000000D+00  0.000000D+00  0.000000D+00
    457   0.000000D+00  0.000000D+00  0.000000D+00  0.000000D+00  0.000000D+00
    458   0.000000D+00  0.000000D+00  0.000000D+00  0.000000D+00  0.000000D+00
[...]
           Sum of interorbital pair energies =    -0.469076 A.U.
                                                  ----------
                         Total pair energies =    -0.579276 A.U.

                         Single Excitations  =    -0.011267 A.U.

                          Total second order =    -0.590542 A.U.

                         E2(CBS) - E2(Dir) =      -0.004745 A.U.

 E2(CBS)=      -0.592275 CBS-Int=       0.001733 OIii=       2.529956

 **********************************************************************

            Population analysis using the SCF density.

 **********************************************************************

 Orbital symmetries:
       Occupied  (SG) (SG) (SG) (PI) (PI) (SG) (SG) (SG) (PI) (PI)
                 (SG) (SG) (DLTA) (PI) (PI) (PI) (PI) (DLTA) (SG)
       Virtual   (SG) (PI) (PI) (SG) (SG) (DLTA) (DLTA) (PI) (PI)
                 (SG) (SG) (PI) (PI) (SG) (DLTA) (DLTA) (SG) (PI)
                 (PI) (SG) (PI) (PI) (SG) (SG) (PI) (PI) (DLTA)
                 (DLTA) (SG) (?A) (?A) (?A) (?A) (SG) (SG) (PI)
                 (PI) (?B) (?B) (PI) (PI) (?B) (?B) (SG) (SG) (PI)
                 (PI) (SG) (PHI) (PHI) (SG) (PI) (PI) (DLTA) (DLTA)
                 (DLTA) (DLTA) (?C) (?C) (PI) (PI) (SG) (SG) (PI)
                 (PI) (PHI) (PHI) (SG) (DLTA) (DLTA) (PI) (PI)
                 (SG) (PHI) (PHI) (PI) (PI) (SG) (PI) (PI) (?B)
                 (?B) (?B) (?B) (?C) (?C) (SG) (PHI) (PHI) (SG)
                 (PI) (PI) (SG) (PI) (PI) (PHI) (PHI) (?D) (?D)
                 (DLTA) (DLTA) (SG) (SG) (DLTA) (DLTA) (?C) (?C)
                 (PI) (PI) (PI) (PI) (DLTA) (DLTA) (SG) (PHI) (PHI)
                 (DLTA) (DLTA) (SG) (PI) (PI) (?D) (?D) (PHI) (PHI)
                 (?C) (?C) (PI) (PI) (SG) (DLTA) (DLTA) (PI) (PI)
                 (?C) (?C) (PHI) (PHI) (SG) (SG) (PI) (PI) (SG)
                 (DLTA) (DLTA) (?A) (?A) (?A) (?A) (DLTA) (DLTA)
                 (SG) (PI) (PI) (SG) (SG) (?C) (?C) (?D) (?D) (SG)
                 (PHI) (PHI) (DLTA) (DLTA) (SG) (PI) (PI) (DLTA)
                 (DLTA) (?C) (?C) (PI) (PI) (PHI) (PHI) (SG) (SG)
                 (SG) (PI) (PI) (SG) (DLTA) (DLTA) (?D) (?D) (PI)
                 (PI) (SG) (DLTA) (DLTA) (PHI) (PHI) (SG) (DLTA)
                 (DLTA) (PHI) (PHI) (?C) (?C) (PI) (PI) (?D) (?D)
                 (?E) (PI) (PI) (?E) (?E) (DLTA) (DLTA) (SG) (SG)
                 (DLTA) (DLTA) (?A) (?A) (?A) (?A) (?C) (?C) (PI)
                 (PI) (PHI) (PHI) (SG) (?A) (?A) (?A) (?A) (?D)
                 (?D) (?C) (?C) (PI) (PI) (DLTA) (DLTA) (SG) (PHI)
                 (PHI) (DLTA) (DLTA) (?F) (?F) (SG) (SG) (?D) (?D)
                 (DLTA) (DLTA) (SG) (SG) (PI) (PI) (?G) (?G) (?G)
                 (PI) (PI) (PI) (PI) (SG) (SG) (?C) (?C) (PHI)
                 (PHI) (DLTA) (DLTA) (PI) (PI) (DLTA) (DLTA) (PHI)
                 (PHI) (SG) (PHI) (PHI) (PI) (PI) (DLTA) (DLTA)
                 (SG) (SG) (DLTA) (DLTA) (PI) (PI) (DLTA) (DLTA)
                 (SG) (SG) (?H) (?I) (?I) (?I) (?I) (?H) (?H) (DLTA)
                 (DLTA) (PHI) (PHI) (SG) (PI) (PI) (PI) (PI) (SG)
                 (SG) (SG) (?D) (?D) (?C) (?C) (?D) (?D) (?C) (?C)
                 (PHI) (PHI) (SG) (DLTA) (DLTA) (?J) (?J) (PI)
                 (PI) (?K) (?K) (?K) (?J) (?J) (?J) (?J) (DLTA)
                 (DLTA) (PHI) (PHI) (SG) (DLTA) (DLTA) (DLTA) (PI)
                 (PI) (DLTA) (SG) (PI) (PI) (SG) (?D) (?D) (?C)
                 (?C) (PI) (PI) (SG) (PHI) (PHI) (PI) (PI) (DLTA)
                 (DLTA) (SG) (PI) (PI) (?C) (?C) (PHI) (PHI) (PHI)
                 (PHI) (SG) (DLTA) (DLTA) (PI) (PI) (SG) (DLTA)
                 (DLTA) (PI) (PI) (SG) (?F) (?F) (SG) (SG) (?D)
                 (?D) (?L) (?L) (?B) (?L) (?B) (?A) (?A) (?L) (?B)
                 (?B) (DLTA) (DLTA) (?A) (?A) (PI) (PI) (PI) (PI)
                 (SG) (SG) (?F) (?F) (SG) (SG) (?D) (?D) (?C) (?C)
                 (PHI) (PHI) (DLTA) (DLTA) (SG) (PI) (PI) (SG)
                 (SG) (?D) (?D) (?L) (?L) (PHI) (PHI) (?L) (DLTA)
                 (DLTA) (PI) (PI) (SG) (?D) (?D) (?L) (?L) (?C)
                 (?C) (?L) (?L) (DLTA) (?L) (?L) (DLTA) (?L) (?L)
                 (?L) (DLTA) (DLTA) (PI) (PI) (PHI) (PHI) (DLTA)
                 (DLTA) (SG) (PI) (PI) (SG) (SG) (SG) (?D) (?D)
                 (?C) (?C) (PHI) (PHI) (DLTA) (DLTA) (SG) (PI)
                 (PI) (?D) (?D) (?C) (?C) (PHI) (PHI) (PI) (PI)
                 (DLTA) (DLTA) (PI) (PI) (SG) (SG) (PHI) (PHI)
                 (DLTA) (DLTA) (PI) (PI) (SG) (?C) (?C) (PHI) (PHI)
                 (DLTA) (DLTA) (PI) (PI) (SG) (?L) (?L) (?L) (?L)
                 (?L) (?L) (?L) (?L) (?L) (?L) (?L) (?L) (?L) (?L)
                 (?L) (?L) (?L) (DLTA) (DLTA) (PI) (PI) (SG) (PI)
                 (PI) (SG) (?L) (?L) (?L) (?L) (?L) (?L) (?L) (?L)
                 (?L) (?L) (?L) (?L) (?L) (?L) (?L) (DLTA) (DLTA)
                 (PI) (PI) (SG) (SG) (?L) (?L) (?L) (?L) (?L) (?L)
                 (?L) (?L) (?L) (?L) (?L) (?L) (?L) (?C) (?C) (PHI)
                 (PHI) (DLTA) (DLTA) (PI) (PI) (SG) (?D) (?D) (?L)
                 (?L) (?A) (?A) (DLTA) (DLTA) (?A) (?A) (?L) (PHI)
                 (PHI) (DLTA) (DLTA) (PI) (PI) (SG) (SG) (SG)
 Unable to determine electronic state:  partially filled degenerate orbitals.
 Alpha  occ. eigenvalues -- -283.20249 -35.02302 -30.27891 -30.27758 -30.27758
 Alpha  occ. eigenvalues --  -20.95632  -4.75146  -3.28164  -3.26250  -3.26250
 Alpha  occ. eigenvalues --   -1.67935  -0.97755  -0.97755  -0.96043  -0.84768
 Alpha  occ. eigenvalues --   -0.80083  -0.77725  -0.77725  -0.75377
 Alpha virt. eigenvalues --   -0.20446  -0.11488  -0.11488  -0.08719  -0.07048
 Alpha virt. eigenvalues --   -0.05169  -0.05142  -0.04865  -0.04865  -0.04300
 Alpha virt. eigenvalues --   -0.03524   0.00746   0.00746   0.01403   0.06383
 Alpha virt. eigenvalues --    0.06547   0.06944   0.06944   0.06968   0.08168
 Alpha virt. eigenvalues --    0.08556   0.08556   0.11087   0.19942   0.23993
 Alpha virt. eigenvalues --    0.23993   0.25831   0.25873   0.28943   0.35946
 Alpha virt. eigenvalues --    0.35946   0.36881   0.36881   0.37516   0.40375
 Alpha virt. eigenvalues --    0.41553   0.41553   0.44228   0.44601   0.44805
 Alpha virt. eigenvalues --    0.44805   0.46335   0.46647   0.50409   0.54995
 Alpha virt. eigenvalues --    0.62648   0.62648   0.70255   0.72159   0.72159
 Alpha virt. eigenvalues --    0.81168   0.87037   0.87037   0.88314   0.88414
 Alpha virt. eigenvalues --    0.94429   0.94456   0.95245   0.95245   0.95826
 Alpha virt. eigenvalues --    0.95826   0.95998   1.05892   1.05962   1.05962
 Alpha virt. eigenvalues --    1.08089   1.08089   1.10824   1.13625   1.13842
 Alpha virt. eigenvalues --    1.22680   1.22680   1.23406   1.25975   1.25975
 Alpha virt. eigenvalues --    1.30070   1.30070   1.39118   1.40822   1.41657
 Alpha virt. eigenvalues --    1.41657   1.42032   1.46440   1.46845   1.51130
 Alpha virt. eigenvalues --    1.51130   1.55172   1.77528   1.77528   1.85152
 Alpha virt. eigenvalues --    1.93528   1.93528   1.96397   1.97198   1.97198
 Alpha virt. eigenvalues --    2.05389   2.05389   2.06684   2.06684   2.06913
 Alpha virt. eigenvalues --    2.07089   2.07712   2.14607   2.14648   2.14738
 Alpha virt. eigenvalues --    2.17882   2.17883   2.20208   2.20208   2.33219
 Alpha virt. eigenvalues --    2.33219   2.40514   2.40793   2.43995   2.49202
 Alpha virt. eigenvalues --    2.49202   2.49639   2.49925   2.50121   2.53879
 Alpha virt. eigenvalues --    2.53879   2.73448   2.73448   2.74065   2.74065
 Alpha virt. eigenvalues --    2.77538   2.77539   2.82550   2.82550   2.94819
 Alpha virt. eigenvalues --    2.97938   2.98712   3.01055   3.01055   3.02855
 Alpha virt. eigenvalues --    3.02855   3.08076   3.08076   3.18332   3.22588
 Alpha virt. eigenvalues --    3.30413   3.30413   3.35362   3.42046   3.43156
 Alpha virt. eigenvalues --    3.60182   3.60182   3.62992   3.62992   3.74787
 Alpha virt. eigenvalues --    3.75757   3.85946   3.92211   3.92211   4.02236
 Alpha virt. eigenvalues --    4.02236   4.02251   4.02251   4.03140   4.03140
 Alpha virt. eigenvalues --    4.06032   4.10584   4.11482   4.11482   4.11611
 Alpha virt. eigenvalues --    4.22221   4.33173   4.33173   4.36341   4.36728
 Alpha virt. eigenvalues --    4.40672   4.40673   4.56466   4.56466   4.63826
 Alpha virt. eigenvalues --    4.63826   4.65863   4.65863   4.70521   4.75013
 Alpha virt. eigenvalues --    4.75013   4.75122   4.85175   4.85381   4.91387
 Alpha virt. eigenvalues --    4.91387   4.92809   4.92809   4.96763   5.05288
 Alpha virt. eigenvalues --    5.05803   5.07256   5.07256   5.07413   5.16941
 Alpha virt. eigenvalues --    5.17194   5.30633   5.30633   5.37636   5.37637
 Alpha virt. eigenvalues --    5.50531   5.50531   5.66139   5.66139   5.72100
 Alpha virt. eigenvalues --    5.78638   5.78638   5.85390   5.85396   5.90362
 Alpha virt. eigenvalues --    5.90916   6.02404   6.23646   6.28261   6.29631
 Alpha virt. eigenvalues --    6.33409   6.33409   6.34603   6.34603   6.51285
 Alpha virt. eigenvalues --    6.51288   6.53609   6.53609   6.67818   6.67818
 Alpha virt. eigenvalues --    6.91237   7.05864   7.05864   7.12023   7.12023
 Alpha virt. eigenvalues --    7.18681   7.18681   7.26217   7.26218   7.26840
 Alpha virt. eigenvalues --    7.26840   7.33541   7.34699   7.35151   7.46732
 Alpha virt. eigenvalues --    7.46732   7.53084   7.54001   7.60878   7.60878
 Alpha virt. eigenvalues --    7.63047   7.63047   7.82933   7.82933   8.04908
 Alpha virt. eigenvalues --    8.05479   8.08198   8.18513   8.19789   8.19789
 Alpha virt. eigenvalues --    8.39355   8.41414   8.41424   8.51371   8.51371
 Alpha virt. eigenvalues --    8.76115   8.76115   8.82046   9.01218   9.07991
 Alpha virt. eigenvalues --    9.07991   9.10782   9.10782   9.19706   9.21229
 Alpha virt. eigenvalues --    9.21535   9.21535   9.41396   9.43815   9.45723
 Alpha virt. eigenvalues --    9.45723   9.54647   9.67124   9.67124   9.77335
 Alpha virt. eigenvalues --    9.77335   9.85243   9.85516  10.11999  10.37520
 Alpha virt. eigenvalues --   10.42019  10.42112  10.64649  10.64649  10.73059
 Alpha virt. eigenvalues --   10.73267  10.89306  10.89306  10.89965  10.94280
 Alpha virt. eigenvalues --   10.94280  10.94747  10.94747  11.12754  11.12764
 Alpha virt. eigenvalues --   11.23128  11.24143  11.29405  11.29405  11.32984
 Alpha virt. eigenvalues --   11.69414  11.69414  12.01186  12.01186  12.15435
 Alpha virt. eigenvalues --   12.91021  12.91021  12.97440  12.97440  13.13324
 Alpha virt. eigenvalues --   13.13324  13.24111  13.24111  13.30815  13.30826
 Alpha virt. eigenvalues --   13.40059  13.40059  13.49850  13.55829  13.57333
 Alpha virt. eigenvalues --   13.74771  13.74771  13.87029  13.87029  13.98433
 Alpha virt. eigenvalues --   13.98961  13.99650  14.08684  14.08684  14.15312
 Alpha virt. eigenvalues --   14.15312  14.19156  14.20980  14.32744  14.32744
 Alpha virt. eigenvalues --   14.50536  14.77245  14.79240  15.49506  15.49713
 Alpha virt. eigenvalues --   15.49713  15.51034  16.02581  16.38317  16.38317
 Alpha virt. eigenvalues --   16.39025  16.65593  16.65593  16.77457  16.77457
 Alpha virt. eigenvalues --   16.77707  16.77707  16.97666  17.10507  17.10507
 Alpha virt. eigenvalues --   17.52716  17.52716  17.62575  17.62699  17.94204
 Alpha virt. eigenvalues --   18.59123  18.59123  19.38788  19.38788  19.55926
 Alpha virt. eigenvalues --   19.55926  19.71244  19.71244  19.75455  19.85016
 Alpha virt. eigenvalues --   19.85050  20.16712  20.16712  20.37655  20.38746
 Alpha virt. eigenvalues --   20.38814  21.26179  21.26179  21.31499  21.44263
 Alpha virt. eigenvalues --   21.44263  21.46092  21.46093  21.51018  21.51018
 Alpha virt. eigenvalues --   21.65475  21.65522  21.73682  21.73902  21.74675
 Alpha virt. eigenvalues --   21.84846  21.84892  21.84892  21.85325  21.87427
 Alpha virt. eigenvalues --   21.94953  21.98319  22.23683  22.23683  22.61509
 Alpha virt. eigenvalues --   22.61509  23.03937  23.03937  23.27512  24.68517
 Alpha virt. eigenvalues --   24.88832  24.88832  24.90298  24.90298  24.92350
 Alpha virt. eigenvalues --   24.92350  25.00685  25.00685  25.17053  25.17053
 Alpha virt. eigenvalues --   25.22701  25.23025  25.42675  25.64511  25.64511
 Alpha virt. eigenvalues --   26.46369  26.46369  26.50418  26.50418  26.59330
 Alpha virt. eigenvalues --   26.59352  26.72396  26.72396  26.96583  27.05649
 Alpha virt. eigenvalues --   27.07666  27.40699  27.40699  27.53883  29.68931
 Alpha virt. eigenvalues --   29.68931  29.74296  29.74330  29.88888  29.88888
 Alpha virt. eigenvalues --   29.90195  29.90195  30.12435  30.15199  30.15199
 Alpha virt. eigenvalues --   30.15306  30.25339  30.25339  30.33988  30.54987
 Alpha virt. eigenvalues --   30.57807  30.98873  30.98873  31.09072  31.09072
 Alpha virt. eigenvalues --   31.68081  31.69455  31.70601  32.65948  32.65948
 Alpha virt. eigenvalues --   32.78799  33.48484  33.48484  33.52980  33.52980
 Alpha virt. eigenvalues --   33.61414  33.61414  33.76874  33.76874  34.10910
 Alpha virt. eigenvalues --   34.10953  34.57756  34.58685  34.58685  38.45425
 Alpha virt. eigenvalues --   38.45425  38.53809  38.53809  38.73228  38.73228
 Alpha virt. eigenvalues --   38.97467  38.97467  39.00869  39.00879  39.11681
 Alpha virt. eigenvalues --   39.11681  39.17082  39.78260  41.15510  41.15510
 Alpha virt. eigenvalues --   41.51104  41.51112  42.04651  42.04651  42.19609
 Alpha virt. eigenvalues --   42.31712  42.31712  42.47056  42.47056  42.84022
 Alpha virt. eigenvalues --   42.84041  43.42965  43.42965  43.52081  43.89187
 Alpha virt. eigenvalues --   43.89190  43.90456  43.90456  43.90931  43.91175
 Alpha virt. eigenvalues --   43.91333  43.91476  43.91476  43.91678  43.91678
 Alpha virt. eigenvalues --   43.91694  43.92800  43.94849  43.99213  44.05955
 Alpha virt. eigenvalues --   44.05955  46.27844  46.27846  46.81300  46.81300
 Alpha virt. eigenvalues --   47.47242  52.36943  52.36943  54.57337  57.05143
 Alpha virt. eigenvalues --   57.05143  57.07534  57.07541  57.09559  57.09559
 Alpha virt. eigenvalues --   57.14001  57.14230  57.19335  57.19975  57.19975
 Alpha virt. eigenvalues --   57.22043  57.25784  57.27545  57.27545  57.76126
 Alpha virt. eigenvalues --   57.78931  58.60827  58.60827  59.14845  62.01471
 Alpha virt. eigenvalues --   64.01192  64.01193  64.04528  64.04528  64.08795
 Alpha virt. eigenvalues --   64.08885  64.13390  64.13390  64.19846  64.22574
 Alpha virt. eigenvalues --   64.33734  64.36664  64.36664  66.17700  66.17701
 Alpha virt. eigenvalues --   66.31356  66.31356  66.52142  66.54527  66.90131
 Alpha virt. eigenvalues --   66.90131  67.25755  68.08771  68.08771  68.12747
 Alpha virt. eigenvalues --   68.12783  68.25262  68.25262  68.49026  68.51704
 Alpha virt. eigenvalues --   68.54517  68.54517  68.62327  70.39880  70.39880
 Alpha virt. eigenvalues --   70.73377  70.75476  71.45838  71.45838  71.76498
 Alpha virt. eigenvalues --  107.83833 743.07847
          Condensed to atoms (all electrons):
              1          2
     1  Co  25.803659   0.000458
     2  O    0.000458   8.195426
 Mulliken atomic charges:
              1
     1  Co   1.195883
     2  O   -0.195883
 Sum of Mulliken atomic charges =   1.00000
 Mulliken charges with hydrogens summed into heavy atoms:
              1
     1  Co   1.195883
     2  O   -0.195883
 Sum of Mulliken charges with hydrogens summed into heavy atoms =   1.00000
          Atomic-Atomic Spin Densities.
              1          2
     1  Co   2.287397  -0.090362
     2  O   -0.090362   1.893327
 Mulliken atomic spin densities:
              1
     1  Co   2.197035
     2  O    1.802965
 Sum of Mulliken atomic spin densities =   4.00000
 Electronic spatial extent (au):  <R**2>=             88.6107
 Charge=              1.0000 electrons
 Dipole moment (field-independent basis, Debye):
    X=              0.0000    Y=              0.0000    Z=              2.5780  Tot=              2.5780
 Quadrupole moment (field-independent basis, Debye-Ang):
   XX=            -13.6269   YY=            -13.6269   ZZ=            -12.9796
   XY=              0.0000   XZ=              0.0000   YZ=              0.0000
 Traceless Quadrupole moment (field-independent basis, Debye-Ang):
   XX=             -0.2158   YY=             -0.2158   ZZ=              0.4316
   XY=              0.0000   XZ=              0.0000   YZ=              0.0000
 Octapole moment (field-independent basis, Debye-Ang**2):
  XXX=              0.0000  YYY=              0.0000  ZZZ=             10.8474  XYY=              0.0000
  XXY=              0.0000  XXZ=              2.6804  XZZ=              0.0000  YZZ=              0.0000
  YYZ=              2.6804  XYZ=              0.0000
 Hexadecapole moment (field-independent basis, Debye-Ang**3):
 XXXX=             -8.3454 YYYY=             -8.3454 ZZZZ=            -64.4183 XXXY=              0.0000
 XXXZ=              0.0000 YYYX=              0.0000 YYYZ=              0.0000 ZZZX=              0.0000
 ZZZY=              0.0000 XXYY=             -2.6017 XXZZ=            -11.1999 YYZZ=            -11.1999
 XXYZ=              0.0000 YYXZ=              0.0000 ZZXY=              0.0000
 N-N= 7.003815996044D+01 E-N=-5.353967563341D+03  KE= 2.173053985938D+03
                          Isotropic Fermi Contact Couplings
        Atom                 a.u.       MegaHertz       Gauss      10(-4) cm-1
     1  Co(59)             0.50178     132.71132      47.35470      44.26773
     2  O(17)              0.02251      -3.41194      -1.21747      -1.13810
 --------------------------------------------------------
       Center         ----  Spin Dipole Couplings  ----
                      3XX-RR        3YY-RR        3ZZ-RR
 --------------------------------------------------------
     1   Atom       -0.237596     -0.237596      0.475191
     2   Atom        1.747227      1.747227     -3.494454
 --------------------------------------------------------
                        XY            XZ            YZ
 --------------------------------------------------------
     1   Atom        0.000000      0.000000      0.000000
     2   Atom        0.000000      0.000000      0.000000
 --------------------------------------------------------


 ---------------------------------------------------------------------------------
              Anisotropic Spin Dipole Couplings in Principal Axis System
 ---------------------------------------------------------------------------------

       Atom             a.u.   MegaHertz   Gauss  10(-4) cm-1        Axes

              Baa    -0.2376   -30.003   -10.706   -10.008  1.0000  0.0000  0.0000
     1 Co(59) Bbb    -0.2376   -30.003   -10.706   -10.008  0.0000  1.0000  0.0000
              Bcc     0.4752    60.007    21.412    20.016  0.0000  0.0000  1.0000
 
              Baa    -3.4945   252.856    90.225    84.344  0.0000  0.0000  1.0000
     2 O(17)  Bbb     1.7472  -126.428   -45.113   -42.172  0.0000  1.0000  0.0000
              Bcc     1.7472  -126.428   -45.113   -42.172  1.0000  0.0000  0.0000
 

 ---------------------------------------------------------------------------------


 Test job not archived.
 1\1\GINC-N35\SP\ROMP2-FC\Gen\Co1O1(1+,5)\GPETERSSON\12-Dec-2013\0\\# R
 OMP2 Gen GFinput Int=NoBasisTransform SCF=Symm IOP(3/32=2,5/6=8,9/33=1
 ) Int(Grid=Ultrafine) CBSextrapolate(Nmin=25,MinPop) Guess=Read\\CoO+ 
 5/\\1,5\Co\O,1,1.632\\Version=EM64L-G09RevA.02\HF=-1455.9210175\MP2=-1
 456.5085479\E2(CBS)=-0.5922755\CBS-Int=-0.5905422\OIii=2.5299561\RMSD=
 9.624e-10\PG=C*V [C*(O1Co1)]\\@


 LEARN FROM YESTERDAY,
 LIVE FOR TODAY,
 LOOK TO TOMORROW,
 REST THIS AFTERNOON.

           -- SNOOPY
 Job cpu time:  6 days 22 hours 58 minutes 28.4 seconds.
 File lengths (MBytes):  RWF=  69406 Int=      0 D2E=      0 Chk=     31 Scr=      1
 Normal termination of Gaussian 09 at Thu Dec 12 22:17:08 2013.
