 Entering Gaussian System, Link 0=g09
 AtFile(1): 7ZaPa-NR.gbs
 Initial command:
 /share/apps/gaussian/g09root/g09/l1.exe /localscratch/72917/Gau-483.inp -scrdir=/localscratch/72917/
 Entering Link 1 = /share/apps/gaussian/g09root/g09/l1.exe PID=       484.
  
 Copyright (c) 1988,1990,1992,1993,1995,1998,2003,2009, Gaussian, Inc.
                  All Rights Reserved.
  
 This is part of the Gaussian(R) 09 program.  It is based on
 the Gaussian(R) 03 system (copyright 2003, Gaussian, Inc.),
 the Gaussian(R) 98 system (copyright 1998, Gaussian, Inc.),
 the Gaussian(R) 94 system (copyright 1995, Gaussian, Inc.),
 the Gaussian 92(TM) system (copyright 1992, Gaussian, Inc.),
 the Gaussian 90(TM) system (copyright 1990, Gaussian, Inc.),
 the Gaussian 88(TM) system (copyright 1988, Gaussian, Inc.),
 the Gaussian 86(TM) system (copyright 1986, Carnegie Mellon
 University), and the Gaussian 82(TM) system (copyright 1983,
 Carnegie Mellon University). Gaussian is a federally registered
 trademark of Gaussian, Inc.
  
 This software contains proprietary and confidential information,
 including trade secrets, belonging to Gaussian, Inc.
  
 This software is provided under written license and may be
 used, copied, transmitted, or stored only in accord with that
 written license.
  
 The following legend is applicable only to US Government
 contracts under FAR:
  
                    RESTRICTED RIGHTS LEGEND
  
 Use, reproduction and disclosure by the US Government is
 subject to restrictions as set forth in subparagraphs (a)
 and (c) of the Commercial Computer Software - Restricted
 Rights clause in FAR 52.227-19.
  
 Gaussian, Inc.
 340 Quinnipiac St., Bldg. 40, Wallingford CT 06492
  
  
 ---------------------------------------------------------------
 Warning -- This program may not be used in any manner that
 competes with the business of Gaussian, Inc. or will provide
 assistance to any competitor of Gaussian, Inc.  The licensee
 of this program is prohibited from giving any competitor of
 Gaussian, Inc. access to this program.  By using this program,
 the user acknowledges that Gaussian, Inc. is engaged in the
 business of creating and licensing software in the field of
 computational chemistry and represents and warrants to the
 licensee that it is not a competitor of Gaussian, Inc. and that
 it will not use this program in any manner prohibited above.
 ---------------------------------------------------------------
  

 Cite this work as:
 Gaussian 09, Revision A.02,
 M. J. Frisch, G. W. Trucks, H. B. Schlegel, G. E. Scuseria, 
 M. A. Robb, J. R. Cheeseman, G. Scalmani, V. Barone, B. Mennucci, 
 G. A. Petersson, H. Nakatsuji, M. Caricato, X. Li, H. P. Hratchian, 
 A. F. Izmaylov, J. Bloino, G. Zheng, J. L. Sonnenberg, M. Hada, 
 M. Ehara, K. Toyota, R. Fukuda, J. Hasegawa, M. Ishida, T. Nakajima, 
 Y. Honda, O. Kitao, H. Nakai, T. Vreven, J. A. Montgomery, Jr., 
 J. E. Peralta, F. Ogliaro, M. Bearpark, J. J. Heyd, E. Brothers, 
 K. N. Kudin, V. N. Staroverov, R. Kobayashi, J. Normand, 
 K. Raghavachari, A. Rendell, J. C. Burant, S. S. Iyengar, J. Tomasi, 
 M. Cossi, N. Rega, J. M. Millam, M. Klene, J. E. Knox, J. B. Cross, 
 V. Bakken, C. Adamo, J. Jaramillo, R. Gomperts, R. E. Stratmann, 
 O. Yazyev, A. J. Austin, R. Cammi, C. Pomelli, J. W. Ochterski, 
 R. L. Martin, K. Morokuma, V. G. Zakrzewski, G. A. Voth, 
 P. Salvador, J. J. Dannenberg, S. Dapprich, A. D. Daniels, 
 O. Farkas, J. B. Foresman, J. V. Ortiz, J. Cioslowski, 
 and D. J. Fox, Gaussian, Inc., Wallingford CT, 2009.
 
 ******************************************
 Gaussian 09:  EM64L-G09RevA.02 11-Jun-2009
                12-Dec-2013 
 ******************************************
 % Mem=128GB
 % Nproc=16
 Will use up to   16 processors via shared memory.
 % Chk=CoO-_3Sg.chk
 ----------------------------------------------------------------------
 # ROMP2 Gen GFinput Int=NoBasisTransform Guess=Read SCF=Symm IOP(3/32=
 2,5/6=8,9/33=1) Int(Grid=Ultrafine) CBSextrapolate(Nmin=25,MinPop)
 ----------------------------------------------------------------------
 1/38=1/1;
 2/12=2,17=6,18=5,40=1/2;
 3/5=7,11=2,16=1,24=10,25=1,30=1,32=2,60=-1,75=-5,116=101/1,2,3;
 4/5=1,9=4/1;
 5/5=2,6=8,15=2,38=6/2;
 8/5=-1,10=1/1;
 9/16=-3,33=1,75=2,81=25,83=4/6,4;
 6/7=2,8=2,9=2,10=2/1;
 99/5=1,9=1/99;
 --------
 CoO- 3Sg
 --------
 Symbolic Z-matrix:
 Charge = -1 Multiplicity = 3
 Co
 O                    1    R
       Variables:
  R                     1.616                    
 
                          Input orientation:                          
 ---------------------------------------------------------------------
 Center     Atomic      Atomic             Coordinates (Angstroms)
 Number     Number       Type             X           Y           Z
 ---------------------------------------------------------------------
      1         27           0        0.000000    0.000000    0.000000
      2          8           0        0.000000    0.000000    1.616000
 ---------------------------------------------------------------------
 Stoichiometry    CoO(1-,3)
 Framework group  C*V[C*(OCo)]
 Deg. of freedom     1
 Full point group                 C*V     NOp   4
 Largest Abelian subgroup         C2V     NOp   4
 Largest concise Abelian subgroup C1      NOp   1
                         Standard orientation:                         
 ---------------------------------------------------------------------
 Center     Atomic      Atomic             Coordinates (Angstroms)
 Number     Number       Type             X           Y           Z
 ---------------------------------------------------------------------
      1         27           0        0.000000    0.000000    0.369371
      2          8           0        0.000000    0.000000   -1.246629
 ---------------------------------------------------------------------
 Rotational constants (GHZ):      0.0000000     15.3828690     15.3828690
 General basis read from cards:  (5D, 7F)
 AO basis set in the form of general basis input (Overlap normalization):
      1 0
 S  18 1.00       0.000000000000
      0.4495614070D+08  0.4488200405D-06
      0.8558178660D+07  0.2751873153D-05
      0.1960655530D+07  0.1578253840D-04
      0.5264767680D+06  0.7275304373D-04
      0.1618003930D+06  0.2863159476D-03
      0.5571071220D+05  0.9824668118D-03
      0.2108640350D+05  0.3013325145D-02
      0.8627085680D+04  0.8405638482D-02
      0.3759253350D+04  0.2157103125D-01
      0.1722327390D+04  0.5093854919D-01
      0.8204791490D+03  0.1089658972D+00
      0.4025467070D+03  0.2024461857D+00
      0.2017701030D+03  0.2991155345D+00
      0.1026260340D+03  0.2932703355D+00
      0.5267420800D+02  0.1398555271D+00
      0.2715855300D+02  0.1963710841D-01
      0.1401517100D+02  0.1310472454D-02
      0.7217928000D+01 -0.5619254961D-06
 S  16 1.00       0.000000000000
      0.5571071220D+05 -0.3507844807D-06
      0.2108640350D+05 -0.3079786286D-05
      0.8627085680D+04 -0.2223545171D-04
      0.3759253350D+04 -0.1343594696D-03
      0.1722327390D+04 -0.6999104424D-03
      0.8204791490D+03 -0.3196441226D-02
      0.4025467070D+03 -0.1245284939D-01
      0.2017701030D+03 -0.3945729300D-01
      0.1026260340D+03 -0.8326928475D-01
      0.5267420800D+02 -0.5643109525D-01
      0.2715855300D+02  0.1919156070D+00
      0.1401517100D+02  0.5133363994D+00
      0.7217928000D+01  0.3688272266D+00
      0.3701266000D+01  0.6317262205D-01
      0.1886308000D+01  0.3286077241D-02
      0.9539760000D+00 -0.1835823135D-02
 P  17 1.00       0.000000000000
      0.1114342130D+06  0.1877650493D-05
      0.2648164840D+05  0.1756948013D-04
      0.8306216960D+04  0.1097707973D-03
      0.3159766870D+04  0.4998734549D-03
      0.1367471620D+04  0.1869582542D-02
      0.6429362610D+03  0.6102220553D-02
      0.3183728100D+03  0.1792736742D-01
      0.1629718070D+03  0.4733555013D-01
      0.8545664800D+02  0.1088210107D+00
      0.4579767500D+02  0.2026777508D+00
      0.2512881500D+02  0.2887759474D+00
      0.1415984200D+02  0.2853637170D+00
      0.8207103000D+01  0.1675277217D+00
      0.4879945000D+01  0.5402095259D-01
      0.2948108000D+01  0.8787845932D-02
      0.1774792000D+01  0.1093100987D-02
      0.1031244000D+01  0.7670035794D-05
 S  11 1.00       0.000000000000
      0.2017701030D+03  0.2167522011D-03
      0.1026260340D+03  0.1718749411D-02
      0.5267420800D+02  0.2436585373D-02
      0.2715855300D+02 -0.1069585345D-01
      0.1401517100D+02 -0.1206649913D+00
      0.7217928000D+01 -0.1962449295D+00
      0.3701266000D+01  0.1527506707D+00
      0.1886308000D+01  0.5475410348D+00
      0.9539760000D+00  0.4310951808D+00
      0.4781220000D+00  0.8628082524D-01
      0.2371600000D+00  0.2228069243D-02
 P  13 1.00       0.000000000000
      0.3183728100D+03  0.9028706211D-04
      0.1629718070D+03  0.4567718733D-03
      0.8545664800D+02  0.2211232660D-02
      0.4579767500D+02  0.6752388945D-02
      0.2512881500D+02  0.1482749266D-01
      0.1415984200D+02  0.1818471924D-01
      0.8207103000D+01 -0.3062909367D-01
      0.4879945000D+01 -0.1444203591D+00
      0.2948108000D+01 -0.2591161725D+00
      0.1774792000D+01 -0.3070004152D+00
      0.1031244000D+01 -0.2661596044D+00
      0.5516760000D+00 -0.1169453905D+00
      0.2545520000D+00 -0.1274044568D-01
 D  16 1.00       0.000000000000
      0.2920676070D+04  0.3761752289D-05
      0.9130011660D+03  0.3889466519D-04
      0.3494109600D+03  0.2640311349D-03
      0.1545328270D+03  0.1272104230D-02
      0.7550254000D+02  0.4805463938D-02
      0.3938731500D+02  0.1445145680D-01
      0.2140062800D+02  0.3559422339D-01
      0.1190368100D+02  0.7691111837D-01
      0.6701656000D+01  0.1405795310D+00
      0.3791460000D+01  0.2039088039D+00
      0.2145419000D+01  0.2394788379D+00
      0.1209487000D+01  0.2379099199D+00
      0.6760580000D+00  0.2003868899D+00
      0.3719150000D+00  0.1342487500D+00
      0.1990210000D+00  0.5718018828D-01
      0.1017820000D+00  0.8648433937D-02
 D   1 1.00       0.000000000000
      0.7107764434D-01  0.1000000000D+01
 D   1 1.00       0.000000000000
      0.2034100000D-01  0.1000000000D+01
 S  10 1.00       0.000000000000
      0.2715855300D+02 -0.5071434693D-05
      0.1401517100D+02  0.1575823675D-02
      0.7217928000D+01  0.4121569409D-02
      0.3701266000D+01 -0.7493998091D-02
      0.1886308000D+01 -0.3998091727D-01
      0.9539760000D+00 -0.1230952203D+00
      0.4781220000D+00 -0.1263279285D+00
      0.2371600000D+00  0.2419982032D+00
      0.1162580000D+00  0.6553445906D+00
      0.5622800000D-01  0.2910369314D+00
 S   1 1.00       0.000000000000
      0.4753025279D-01  0.1000000000D+01
 S   1 1.00       0.000000000000
      0.1732900000D-01  0.1000000000D+01
 S   1 1.00       0.000000000000
      0.4892000000D-02  0.1000000000D+01
 P  10 1.00       0.000000000000
      0.2512881500D+02  0.1485557405D-02
      0.1415984200D+02 -0.3175358145D-02
      0.8207103000D+01  0.8578319695D-02
      0.4879945000D+01 -0.3246560216D-01
      0.2948108000D+01  0.2289291496D-01
      0.1774792000D+01 -0.8444524284D-01
      0.1031244000D+01  0.4074610143D-01
      0.5516760000D+00 -0.3016558609D-01
      0.2545520000D+00  0.5071167622D+00
      0.9177657290D-01  0.5894174229D+00
 P   1 1.00       0.000000000000
      0.1317265368D+00  0.1000000000D+01
 P   1 1.00       0.000000000000
      0.5203700000D-01  0.1000000000D+01
 S   1 1.00       0.000000000000
      0.9471928000D+01  0.1000000000D+01
 S   1 1.00       0.000000000000
      0.4686355000D+01  0.1000000000D+01
 S   1 1.00       0.000000000000
      0.2318633000D+01  0.1000000000D+01
 S   1 1.00       0.000000000000
      0.1147173000D+01  0.1000000000D+01
 S   1 1.00       0.000000000000
      0.5675780000D+00  0.1000000000D+01
 S   1 1.00       0.000000000000
      0.2808160000D+00  0.1000000000D+01
 P   1 1.00       0.000000000000
      0.3258975000D+01  0.1000000000D+01
 P   1 1.00       0.000000000000
      0.1961923000D+01  0.1000000000D+01
 P   1 1.00       0.000000000000
      0.1181090000D+01  0.1000000000D+01
 P   1 1.00       0.000000000000
      0.7110240000D+00  0.1000000000D+01
 P   1 1.00       0.000000000000
      0.4280410000D+00  0.1000000000D+01
 P   1 1.00       0.000000000000
      0.2576830000D+00  0.1000000000D+01
 D   1 1.00       0.000000000000
      0.7734232000D+01  0.1000000000D+01
 D   1 1.00       0.000000000000
      0.3615824000D+01  0.1000000000D+01
 D   1 1.00       0.000000000000
      0.1690431000D+01  0.1000000000D+01
 D   1 1.00       0.000000000000
      0.7902920000D+00  0.1000000000D+01
 D   1 1.00       0.000000000000
      0.3694690000D+00  0.1000000000D+01
 D   1 1.00       0.000000000000
      0.1727300000D+00  0.1000000000D+01
 F   1 1.00       0.000000000000
      0.1628823600D+02  0.1000000000D+01
 F   1 1.00       0.000000000000
      0.7536234000D+01  0.1000000000D+01
 F   1 1.00       0.000000000000
      0.3486862000D+01  0.1000000000D+01
 F   1 1.00       0.000000000000
      0.1613300000D+01  0.1000000000D+01
 F   1 1.00       0.000000000000
      0.7464410000D+00  0.1000000000D+01
 F   1 1.00       0.000000000000
      0.3453630000D+00  0.1000000000D+01
 F   1 1.00       0.000000000000
      0.1597920000D+00  0.1000000000D+01
 G   1 1.00       0.000000000000
      0.1221388900D+02  0.1000000000D+01
 G   1 1.00       0.000000000000
      0.5635064000D+01  0.1000000000D+01
 G   1 1.00       0.000000000000
      0.2599823000D+01  0.1000000000D+01
 G   1 1.00       0.000000000000
      0.1199468000D+01  0.1000000000D+01
 G   1 1.00       0.000000000000
      0.5533930000D+00  0.1000000000D+01
 G   1 1.00       0.000000000000
      0.2553160000D+00  0.1000000000D+01
 H   1 1.00       0.000000000000
      0.1073697700D+02  0.1000000000D+01
 H   1 1.00       0.000000000000
      0.4722475000D+01  0.1000000000D+01
 H   1 1.00       0.000000000000
      0.2077100000D+01  0.1000000000D+01
 H   1 1.00       0.000000000000
      0.9135770000D+00  0.1000000000D+01
 H   1 1.00       0.000000000000
      0.4018210000D+00  0.1000000000D+01
 I   1 1.00       0.000000000000
      0.8841462000D+01  0.1000000000D+01
 I   1 1.00       0.000000000000
      0.3652520000D+01  0.1000000000D+01
 I   1 1.00       0.000000000000
      0.1508902000D+01  0.1000000000D+01
 I   1 1.00       0.000000000000
      0.6233460000D+00  0.1000000000D+01
 J   1 1.00       0.000000000000
      0.7027877000D+01  0.1000000000D+01
 J   1 1.00       0.000000000000
      0.2632307000D+01  0.1000000000D+01
 J   1 1.00       0.000000000000
      0.9859360000D+00  0.1000000000D+01
 K   1 1.00       0.000000000000
      0.4974012302D+01  0.1000000000D+01
 ****
      2 0
 S  16 1.00       0.000000000000
      0.1411246410D+07  0.1627429822D-05
      0.2499102240D+06  0.1092621996D-04
      0.5603410580D+05  0.6238741867D-04
      0.1521153640D+05  0.2783303491D-03
      0.4812287750D+04  0.1040541872D-02
      0.1717755460D+04  0.3380392793D-02
      0.6733958240D+03  0.9828484765D-02
      0.2835101840D+03  0.2605310129D-01
      0.1258620070D+03  0.6280818057D-01
      0.5804472200D+02  0.1348202075D+00
      0.2747198500D+02  0.2435563460D+00
      0.1321062900D+02  0.3323287378D+00
      0.6399806000D+01  0.2607930483D+00
      0.3099614000D+01  0.7430834326D-01
      0.1489856000D+01  0.4189538074D-02
      0.7052010000D+00  0.8706455725D-03
 S  11 1.00       0.000000000000
      0.2835101840D+03 -0.1122588094D-03
      0.1258620070D+03 -0.5559335617D-03
      0.5804472200D+02 -0.2851687904D-02
      0.2747198500D+02 -0.1133494995D-01
      0.1321062900D+02 -0.3657977704D-01
      0.6399806000D+01 -0.7288994197D-01
      0.3099614000D+01 -0.1062032356D-01
      0.1489856000D+01  0.2196705572D+00
      0.7052010000D+00  0.4294832072D+00
      0.3258480000D+00  0.3775832849D+00
      0.1454600000D+00  0.9640261255D-01
 S   1 1.00       0.000000000000
      0.5814297870D-01  0.1000000000D+01
 P  13 1.00       0.000000000000
      0.2085279200D+04  0.1447911740D-04
      0.5101470830D+03  0.1283233588D-03
      0.1616811510D+03  0.7792790007D-03
      0.6114945200D+02  0.3400506049D-02
      0.2597660200D+02  0.1157685214D-01
      0.1187542600D+02  0.3269740339D-01
      0.5677133000D+01  0.8011404242D-01
      0.2786475000D+01  0.1605265057D+00
      0.1387844000D+01  0.2460495026D+00
      0.6952810000D+00  0.2898982926D+00
      0.3470020000D+00  0.2606799382D+00
      0.1700990000D+00  0.1479363112D+00
      0.8008000000D-01  0.2980261453D-01
 P   1 1.00       0.000000000000
      0.4261436033D-01  0.1000000000D+01
 S   1 1.00       0.000000000000
      0.4249866000D+01  0.1000000000D+01
 S   1 1.00       0.000000000000
      0.2167470000D+01  0.1000000000D+01
 S   1 1.00       0.000000000000
      0.1105429000D+01  0.1000000000D+01
 S   1 1.00       0.000000000000
      0.5637790000D+00  0.1000000000D+01
 S   1 1.00       0.000000000000
      0.2875320000D+00  0.1000000000D+01
 S   1 1.00       0.000000000000
      0.1466440000D+00  0.1000000000D+01
 P   1 1.00       0.000000000000
      0.5659724000D+01  0.1000000000D+01
 P   1 1.00       0.000000000000
      0.2575878000D+01  0.1000000000D+01
 P   1 1.00       0.000000000000
      0.1172344000D+01  0.1000000000D+01
 P   1 1.00       0.000000000000
      0.5335620000D+00  0.1000000000D+01
 P   1 1.00       0.000000000000
      0.2428370000D+00  0.1000000000D+01
 P   1 1.00       0.000000000000
      0.1105210000D+00  0.1000000000D+01
 D   1 1.00       0.000000000000
      0.9464211000D+01  0.1000000000D+01
 D   1 1.00       0.000000000000
      0.4752286000D+01  0.1000000000D+01
 D   1 1.00       0.000000000000
      0.2386276000D+01  0.1000000000D+01
 D   1 1.00       0.000000000000
      0.1198226000D+01  0.1000000000D+01
 D   1 1.00       0.000000000000
      0.6016680000D+00  0.1000000000D+01
 D   1 1.00       0.000000000000
      0.3021170000D+00  0.1000000000D+01
 D   1 1.00       0.000000000000
      0.1517020000D+00  0.1000000000D+01
 F   1 1.00       0.000000000000
      0.7001836000D+01  0.1000000000D+01
 F   1 1.00       0.000000000000
      0.3552509000D+01  0.1000000000D+01
 F   1 1.00       0.000000000000
      0.1802430000D+01  0.1000000000D+01
 F   1 1.00       0.000000000000
      0.9144960000D+00  0.1000000000D+01
 F   1 1.00       0.000000000000
      0.4639860000D+00  0.1000000000D+01
 F   1 1.00       0.000000000000
      0.2354110000D+00  0.1000000000D+01
 G   1 1.00       0.000000000000
      0.6472481000D+01  0.1000000000D+01
 G   1 1.00       0.000000000000
      0.3119071000D+01  0.1000000000D+01
 G   1 1.00       0.000000000000
      0.1503072000D+01  0.1000000000D+01
 G   1 1.00       0.000000000000
      0.7243260000D+00  0.1000000000D+01
 G   1 1.00       0.000000000000
      0.3490500000D+00  0.1000000000D+01
 H   1 1.00       0.000000000000
      0.5355083000D+01  0.1000000000D+01
 H   1 1.00       0.000000000000
      0.2414696000D+01  0.1000000000D+01
 H   1 1.00       0.000000000000
      0.1088827000D+01  0.1000000000D+01
 H   1 1.00       0.000000000000
      0.4909703000D+00  0.1000000000D+01
 I   1 1.00       0.000000000000
      0.4322113000D+01  0.1000000000D+01
 I   1 1.00       0.000000000000
      0.1716263000D+01  0.1000000000D+01
 I   1 1.00       0.000000000000
      0.6815089000D+00  0.1000000000D+01
 J   1 1.00       0.000000000000
      0.3060973723D+01  0.1000000000D+01
 ****

 There are   208 symmetry adapted basis functions of A1  symmetry.
 There are   106 symmetry adapted basis functions of A2  symmetry.
 There are   151 symmetry adapted basis functions of B1  symmetry.
 There are   151 symmetry adapted basis functions of B2  symmetry.
 Integral buffers will be    131072 words long.
 Raffenetti 2 integral format.
 Two-electron integral symmetry is turned on.
   616 basis functions,  1357 primitive gaussians,  1044 cartesian basis functions
    19 alpha electrons       17 beta electrons
       nuclear repulsion energy        70.7316070888 Hartrees.
 NAtoms=    2 NActive=    2 NUniq=    2 SFac= 7.50D-01 NAtFMM=   80 NAOKFM=F Big=F
 One-electron integrals computed using PRISM.
 NBasis=   616 RedAO= F  NBF=   208   106   151   151
 NBsUse=   616 1.00D-04 NBFU=   208   106   151   151
 Initial guess read from the checkpoint file:  CoO-_3Sg.chk
 B after Tr=     0.000000    0.000000    0.000000
         Rot=    1.000000    0.000000    0.000000    0.000000 Ang=   0.00 deg.
 Initial guess orbital symmetries:
       Occupied  (SG) (SG) (SG) (PI) (PI) (SG) (SG) (PI) (SG) (PI)
                 (SG) (?A) (?B) (?B) (?B) (?A) (?A) (?B) (?A)
       Virtual   (SG) (PI) (?B) (PI) (?B) (?B) (?B) (PI) (PI) (?B)
                 (?B) (PI) (PI) (?B) (PI) (PI) (?B) (?B) (?B) (?B)
                 (PI) (PI) (SG) (PI) (PI) (SG) (PI) (PI) (SG) (?C)
                 (PI) (PI) (?C) (?C) (?C) (?C) (SG) (PI) (PI) (DLTA)
                 (DLTA) (PI) (PI) (SG) (SG) (DLTA) (DLTA) (?D)
                 (?D) (?D) (?D) (SG) (SG) (SG) (PI) (PI) (SG) (SG)
                 (PI) (PI) (DLTA) (DLTA) (SG) (PI) (PI) (DLTA)
                 (DLTA) (SG) (PI) (PI) (DLTA) (DLTA) (SG) (SG)
                 (SG) (PI) (PI) (SG) (PI) (PI) (SG) (PI) (PI) (SG)
                 (SG) (SG) (SG) (SG) (SG) (SG) (PI) (PI) (SG) (PI)
                 (PI) (SG) (PI) (PI) (SG) (PI) (PI) (SG) (PI) (PI)
                 (SG) (PI) (PI) (SG) (SG) (PI) (PI) (DLTA) (DLTA)
                 (SG) (PI) (PI) (DLTA) (DLTA) (SG) (PI) (PI) (DLTA)
                 (DLTA) (SG) (PI) (PI) (DLTA) (DLTA) (SG) (PI)
                 (PI) (DLTA) (DLTA) (SG) (PI) (PI) (DLTA) (DLTA)
                 (SG) (PI) (PI) (DLTA) (DLTA) (PHI) (PHI) (SG)
                 (PI) (PI) (DLTA) (DLTA) (PHI) (PHI) (SG) (PI)
                 (PI) (DLTA) (DLTA) (PHI) (PHI) (SG) (PI) (PI)
                 (DLTA) (DLTA) (PHI) (PHI) (SG) (PI) (PI) (DLTA)
                 (DLTA) (PHI) (PHI) (SG) (PI) (PI) (DLTA) (DLTA)
                 (PHI) (PHI) (SG) (PI) (PI) (DLTA) (DLTA) (PHI)
                 (PHI) (SG) (PI) (PI) (DLTA) (DLTA) (PHI) (PHI)
                 (?E) (?E) (SG) (PI) (PI) (DLTA) (DLTA) (PHI) (PHI)
                 (?E) (?E) (SG) (PI) (PI) (DLTA) (DLTA) (PHI) (PHI)
                 (?E) (?E) (SG) (PI) (PI) (DLTA) (DLTA) (PHI) (PHI)
                 (?E) (?E) (SG) (PI) (PI) (DLTA) (DLTA) (PHI) (PHI)
                 (?E) (?E) (SG) (PI) (PI) (DLTA) (DLTA) (PHI) (PHI)
                 (?E) (?E) (SG) (PI) (PI) (DLTA) (DLTA) (PHI) (PHI)
                 (?E) (?E) (?F) (?F) (SG) (PI) (PI) (DLTA) (DLTA)
                 (PHI) (PHI) (?E) (?E) (?F) (?F) (SG) (PI) (PI)
                 (DLTA) (DLTA) (PHI) (PHI) (?E) (?E) (?F) (?F)
                 (SG) (PI) (PI) (DLTA) (DLTA) (PHI) (PHI) (?E)
                 (?E) (?F) (?F) (SG) (PI) (PI) (DLTA) (DLTA) (PHI)
                 (PHI) (?E) (?E) (?F) (?F) (SG) (PI) (PI) (DLTA)
                 (DLTA) (PHI) (PHI) (?E) (?E) (?F) (?F) (SG) (SG)
                 (SG) (PI) (PI) (DLTA) (DLTA) (PHI) (PHI) (?E)
                 (?E) (?F) (?F) (SG) (SG) (SG) (PI) (PI) (DLTA)
                 (DLTA) (PHI) (PHI) (?E) (?E) (?F) (?F) (SG) (SG)
                 (SG) (PI) (PI) (DLTA) (DLTA) (PHI) (PHI) (?E)
                 (?E) (?F) (?F) (SG) (SG) (SG) (PI) (PI) (DLTA)
                 (DLTA) (PHI) (PHI) (?E) (?E) (?F) (?F) (SG) (SG)
                 (?G) (?G) (SG) (PI) (PI) (DLTA) (DLTA) (PHI) (PHI)
                 (?E) (?E) (?F) (?F) (SG) (SG) (?G) (?G) (SG) (PI)
                 (PI) (DLTA) (DLTA) (PHI) (PHI) (?E) (?E) (?F)
                 (?F) (SG) (SG) (?G) (?G) (SG) (PI) (PI) (DLTA)
                 (DLTA) (PHI) (PHI) (?E) (?E) (?F) (?F) (SG) (SG)
                 (?G) (?G) (?H) (?H) (SG) (SG) (PI) (PI) (SG) (SG)
                 (SG) (SG) (PI) (PI) (SG) (PI) (PI) (SG) (PI) (PI)
                 (PI) (PI) (SG) (PI) (PI) (DLTA) (DLTA) (SG) (PI)
                 (PI) (DLTA) (DLTA) (SG) (PI) (PI) (DLTA) (DLTA)
                 (PI) (PI) (DLTA) (DLTA) (DLTA) (DLTA) (DLTA) (DLTA)
                 (DLTA) (DLTA) (SG) (PI) (PI) (DLTA) (DLTA) (PHI)
                 (PHI) (SG) (PI) (PI) (DLTA) (DLTA) (PHI) (PHI)
                 (SG) (PI) (PI) (DLTA) (DLTA) (PHI) (PHI) (SG)
                 (PI) (PI) (DLTA) (DLTA) (PHI) (PHI) (PI) (PI)
                 (DLTA) (DLTA) (PHI) (PHI) (PHI) (PHI) (SG) (PI)
                 (PI) (DLTA) (DLTA) (PHI) (PHI) (?E) (?E) (SG)
                 (PI) (PI) (DLTA) (DLTA) (PHI) (PHI) (?E) (?E)
                 (PI) (PI) (DLTA) (DLTA) (PHI) (PHI) (?E) (?E)
                 (SG) (PI) (PI) (DLTA) (DLTA) (PHI) (PHI) (?E)
                 (?E) (PHI) (PHI) (?E) (?E) (SG) (PI) (PI) (DLTA)
                 (DLTA) (PHI) (PHI) (?E) (?E) (?F) (?F) (DLTA)
                 (DLTA) (PHI) (PHI) (?E) (?E) (?F) (?F) (PHI) (PHI)
                 (?E) (?E) (?F) (?F) (PHI) (PHI) (?E) (?E) (?F)
                 (?F) (PI) (PI) (DLTA) (DLTA) (PHI) (PHI) (?E)
                 (?E) (?F) (?F) (SG) (SG) (DLTA) (DLTA) (PHI) (PHI)
                 (?E) (?E) (?F) (?F) (SG) (SG) (?E) (?E) (?F) (?F)
                 (SG) (SG) (PHI) (PHI) (?E) (?E) (?F) (?F) (SG)
                 (SG) (?G) (?G)
 Requested convergence on RMS density matrix=1.00D-08 within 128 cycles.
 Requested convergence on MAX density matrix=1.00D-06.
 Requested convergence on             energy=1.00D-06.
 No special actions if energy rises.
 Restarting incremental Fock formation.
 SCF Done:  E(ROHF) =  -1456.14566208     A.U. after   25 cycles
             Convg  =    0.4884D-08             -V/T =  1.9999
 <Sx>= 0.0000 <Sy>= 0.0000 <Sz>= 1.0000 <S**2>= 2.0000 S= 1.0000
 <L.S>= 0.000000000000E+00
 Annihilation of the first spin contaminant:
 S**2 before annihilation     2.0000,   after     2.0000
 DiagDN has N=   616 LTot=  1880 but NE2=     3 cannot use DSYEVD.
 GenMOA:  NOpAll=  4 NOp2=4 NOpUse=  4 JSym2X=1
 <Sx>= 0.0000 <Sy>= 0.0000 <Sz>= 1.0000 <S**2>= 2.0000 S= 1.0000
 ExpMin= 4.89D-03 ExpMax= 4.50D+07 ExpMxC= 3.76D+03 IAcc=3 IRadAn=         5 AccDes= 0.00D+00
 HarFok:  IExCor=  205 AccDes= 0.00D+00 IRadAn=         5 IDoV=-2
 ScaDFX=  1.000000  1.000000  1.000000  1.000000
 Range of M.O.s used for correlation:    11   616
 NBasis=   616 NAE=    19 NBE=    17 NFC=    10 NFV=     0
 NROrb=    606 NOA=     9 NOB=     7 NVA=   597 NVB=   599

 **** Warning!!: The largest alpha MO coefficient is  0.31181967D+03


 **** Warning!!: The largest beta MO coefficient is  0.31181949D+03

 Singles contribution to E2=   -0.1612549758D-02
 Disk-based method using OVN memory for  9 occupieds at a time.
 Permanent disk used for amplitudes and <ij||ab> integrals=    65389452 words.
 Estimated scratch disk usage=  9007546791 words.
 IUseRI=2 ITolRI= 6 IR12RI=0
 Actual    scratch disk usage=  8977465669 words.
 JobTyp=2 Pass  1:  I=   1 to   9 NPSUse= 16 ParTrn=T ParDer=T DoDerP=F.
 (rs|ai) integrals will be sorted in core.
 T,EIJ(AA): I=   1 J=   2      0.1355235E-03     -0.7342206E-03
 T,EIJ(AA): I=   1 J=   3      0.1447944E-03     -0.7831527E-03
 T,EIJ(AA): I=   1 J=   4      0.1444738E-03     -0.7283304E-03
 T,EIJ(AA): I=   1 J=   5      0.6979068E-04     -0.3852252E-03
 T,EIJ(AA): I=   1 J=   6      0.6391834E-03     -0.2839132E-02
 T,EIJ(AA): I=   1 J=   7      0.8009967E-03     -0.3356061E-02
 T,EIJ(AA): I=   1 J=   8      0.8139227E-03     -0.3376236E-02
 T,EIJ(AA): I=   1 J=   9      0.6435702E-04     -0.2412535E-03
 T,EIJ(AA): I=   2 J=   3      0.1077623E-02     -0.6998354E-02
 T,EIJ(AA): I=   2 J=   4      0.1015895E-02     -0.5880068E-02
 T,EIJ(AA): I=   2 J=   5      0.1186337E-02     -0.7546999E-02
 T,EIJ(AA): I=   2 J=   6      0.8367654E-03     -0.3255921E-02
 T,EIJ(AA): I=   2 J=   7      0.3355157E-03     -0.1382194E-02
 T,EIJ(AA): I=   2 J=   8      0.1545467E-03     -0.5409903E-03
 T,EIJ(AA): I=   2 J=   9      0.7213193E-03     -0.1997833E-02
 T,EIJ(AA): I=   3 J=   4      0.1583641E-02     -0.9931018E-02
 T,EIJ(AA): I=   3 J=   5      0.1209501E-02     -0.7623667E-02
 T,EIJ(AA): I=   3 J=   6      0.7529402E-03     -0.2849734E-02
 T,EIJ(AA): I=   3 J=   7      0.1506643E-03     -0.5373640E-03
 T,EIJ(AA): I=   3 J=   8      0.3408988E-03     -0.1351938E-02
 T,EIJ(AA): I=   3 J=   9      0.6246648E-03     -0.1739523E-02
 T,EIJ(AA): I=   4 J=   5      0.1608616E-02     -0.9902268E-02
 T,EIJ(AA): I=   4 J=   6      0.7125137E-03     -0.2237221E-02
 T,EIJ(AA): I=   4 J=   7      0.5486584E-03     -0.2130486E-02
 T,EIJ(AA): I=   4 J=   8      0.5101260E-03     -0.1794244E-02
 T,EIJ(AA): I=   4 J=   9      0.7159019E-03     -0.1814759E-02
 T,EIJ(AA): I=   5 J=   6      0.8263321E-03     -0.3413829E-02
 T,EIJ(AA): I=   5 J=   7      0.2323291E-03     -0.1044659E-02
 T,EIJ(AA): I=   5 J=   8      0.2222577E-03     -0.9670552E-03
 T,EIJ(AA): I=   5 J=   9      0.7461695E-03     -0.2013444E-02
 T,EIJ(AA): I=   6 J=   7      0.3204988E-02     -0.8829738E-02
 T,EIJ(AA): I=   6 J=   8      0.3287577E-02     -0.8816401E-02
 T,EIJ(AA): I=   6 J=   9      0.7323723E-03     -0.1172656E-02
 T,EIJ(AA): I=   7 J=   8      0.4410880E-02     -0.1013218E-01
 T,EIJ(AA): I=   7 J=   9      0.7862484E-03     -0.1264423E-02
 T,EIJ(AA): I=   8 J=   9      0.9084984E-03     -0.1354242E-02
 T,EIJ(AB): I=   1 J=   1      0.1944677E-02     -0.1279615E-01
 T,EIJ(AB): I=   1 J=   2      0.2666879E-03     -0.1540090E-02
 T,EIJ(AB): I=   1 J=   3      0.4030877E-03     -0.2280679E-02
 T,EIJ(AB): I=   1 J=   4      0.9112048E-04     -0.5195814E-03
 T,EIJ(AB): I=   1 J=   5      0.1855418E-02     -0.9861542E-02
 T,EIJ(AB): I=   1 J=   6      0.2297815E-02     -0.1152151E-01
 T,EIJ(AB): I=   1 J=   7      0.2118680E-02     -0.1077421E-01
 T,EIJ(AB): I=   2 J=   1      0.2284285E-03     -0.1334586E-02
 T,EIJ(AB): I=   2 J=   2      0.2492079E-02     -0.1743833E-01
 T,EIJ(AB): I=   2 J=   3      0.1433518E-02     -0.8977034E-02
 T,EIJ(AB): I=   2 J=   4      0.1589184E-02     -0.1048243E-01
 T,EIJ(AB): I=   2 J=   5      0.1046128E-02     -0.4390084E-02
 T,EIJ(AB): I=   2 J=   6      0.6257123E-03     -0.2017594E-02
 T,EIJ(AB): I=   2 J=   7      0.7392036E-03     -0.3351474E-02
 T,EIJ(AB): I=   3 J=   1      0.2313493E-03     -0.1373133E-02
 T,EIJ(AB): I=   3 J=   2      0.1414068E-02     -0.9566280E-02
 T,EIJ(AB): I=   3 J=   3      0.1780927E-02     -0.1085673E-01
 T,EIJ(AB): I=   3 J=   4      0.1614735E-02     -0.1051916E-01
 T,EIJ(AB): I=   3 J=   5      0.1139652E-02     -0.4542652E-02
 T,EIJ(AB): I=   3 J=   6      0.1004041E-02     -0.3448104E-02
 T,EIJ(AB): I=   3 J=   7      0.4499903E-03     -0.1945512E-02
 T,EIJ(AB): I=   4 J=   1      0.3299741E-03     -0.1911458E-02
 T,EIJ(AB): I=   4 J=   2      0.1422274E-02     -0.9082475E-02
 T,EIJ(AB): I=   4 J=   3      0.3536936E-02     -0.1859275E-01
 T,EIJ(AB): I=   4 J=   4      0.1890123E-02     -0.1151449E-01
 T,EIJ(AB): I=   4 J=   5      0.1787842E-02     -0.7084234E-02
 T,EIJ(AB): I=   4 J=   6      0.1073362E-02     -0.3201327E-02
 T,EIJ(AB): I=   4 J=   7      0.6640475E-03     -0.2624830E-02
 T,EIJ(AB): I=   5 J=   1      0.8886169E-04     -0.5168777E-03
 T,EIJ(AB): I=   5 J=   2      0.1606266E-02     -0.1035048E-01
 T,EIJ(AB): I=   5 J=   3      0.1879327E-02     -0.1124482E-01
 T,EIJ(AB): I=   5 J=   4      0.3557686E-02     -0.2144922E-01
 T,EIJ(AB): I=   5 J=   5      0.1137585E-02     -0.4514190E-02
 T,EIJ(AB): I=   5 J=   6      0.5001810E-03     -0.1556946E-02
 T,EIJ(AB): I=   5 J=   7      0.3540506E-03     -0.1548601E-02
 T,EIJ(AB): I=   6 J=   1      0.1850373E-02     -0.9932472E-02
 T,EIJ(AB): I=   6 J=   2      0.1024431E-02     -0.4205408E-02
 T,EIJ(AB): I=   6 J=   3      0.1980931E-02     -0.7248957E-02
 T,EIJ(AB): I=   6 J=   4      0.1079312E-02     -0.4121808E-02
 T,EIJ(AB): I=   6 J=   5      0.7445202E-02     -0.2218555E-01
 T,EIJ(AB): I=   6 J=   6      0.4976888E-02     -0.1339369E-01
 T,EIJ(AB): I=   6 J=   7      0.3937830E-02     -0.1147482E-01
 T,EIJ(AB): I=   7 J=   1      0.2207098E-02     -0.1115579E-01
 T,EIJ(AB): I=   7 J=   2      0.4919907E-03     -0.1999753E-02
 T,EIJ(AB): I=   7 J=   3      0.8318152E-03     -0.3141376E-02
 T,EIJ(AB): I=   7 J=   4      0.3004432E-03     -0.1354347E-02
 T,EIJ(AB): I=   7 J=   5      0.4414976E-02     -0.1214673E-01
 T,EIJ(AB): I=   7 J=   6      0.9269996E-02     -0.2542991E-01
 T,EIJ(AB): I=   7 J=   7      0.5570786E-02     -0.1356327E-01
 T,EIJ(AB): I=   8 J=   1      0.2229717E-02     -0.1117853E-01
 T,EIJ(AB): I=   8 J=   2      0.8201478E-03     -0.3396954E-02
 T,EIJ(AB): I=   8 J=   3      0.7930391E-03     -0.2851368E-02
 T,EIJ(AB): I=   8 J=   4      0.2965182E-03     -0.1273087E-02
 T,EIJ(AB): I=   8 J=   5      0.4376577E-02     -0.1196659E-01
 T,EIJ(AB): I=   8 J=   6      0.5806210E-02     -0.1432900E-01
 T,EIJ(AB): I=   8 J=   7      0.9575853E-02     -0.2472952E-01
 T,EIJ(AB): I=   9 J=   1      0.1840638E-03     -0.8002026E-03
 T,EIJ(AB): I=   9 J=   2      0.9312173E-03     -0.2573519E-02
 T,EIJ(AB): I=   9 J=   3      0.1105642E-02     -0.2683489E-02
 T,EIJ(AB): I=   9 J=   4      0.1048879E-02     -0.2669196E-02
 T,EIJ(AB): I=   9 J=   5      0.1742701E-02     -0.3058147E-02
 T,EIJ(AB): I=   9 J=   6      0.1135736E-02     -0.1836039E-02
 T,EIJ(AB): I=   9 J=   7      0.1533187E-02     -0.2199357E-02
 Actual    scratch disk usage=  9007541159 words.
 JobTyp=3 Pass  1:  I=   1 to   7 NPSUse= 16 ParTrn=T ParDer=T DoDerP=F.
 (rs|ai) integrals will be sorted in core.
 T,EIJ(BB): I=   1 J=   2      0.1537059E-03     -0.8080623E-03
 T,EIJ(BB): I=   1 J=   3      0.1786853E-03     -0.8664670E-03
 T,EIJ(BB): I=   1 J=   4      0.7222248E-04     -0.3994991E-03
 T,EIJ(BB): I=   1 J=   5      0.6874747E-03     -0.2968681E-02
 T,EIJ(BB): I=   1 J=   6      0.9306960E-03     -0.3735100E-02
 T,EIJ(BB): I=   1 J=   7      0.8293701E-03     -0.3393295E-02
 T,EIJ(BB): I=   2 J=   3      0.1015546E-02     -0.5761797E-02
 T,EIJ(BB): I=   2 J=   4      0.1255498E-02     -0.7648599E-02
 T,EIJ(BB): I=   2 J=   5      0.9241373E-03     -0.3604824E-02
 T,EIJ(BB): I=   2 J=   6      0.5714630E-03     -0.1778584E-02
 T,EIJ(BB): I=   2 J=   7      0.1616283E-03     -0.5580325E-03
 T,EIJ(BB): I=   3 J=   4      0.1611662E-02     -0.9653921E-02
 T,EIJ(BB): I=   3 J=   5      0.7966046E-03     -0.2402040E-02
 T,EIJ(BB): I=   3 J=   6      0.1162004E-02     -0.3130458E-02
 T,EIJ(BB): I=   3 J=   7      0.6563880E-03     -0.2255651E-02
 T,EIJ(BB): I=   4 J=   5      0.9313722E-03     -0.3900162E-02
 T,EIJ(BB): I=   4 J=   6      0.4484855E-03     -0.1327183E-02
 T,EIJ(BB): I=   4 J=   7      0.2770190E-03     -0.1198611E-02
 T,EIJ(BB): I=   5 J=   6      0.4145258E-02     -0.1012188E-01
 T,EIJ(BB): I=   5 J=   7      0.3478826E-02     -0.9006619E-02
 T,EIJ(BB): I=   6 J=   7      0.4392676E-02     -0.1043680E-01
 Spin components of T(2) and E(2):
     alpha-alpha T2 =       0.3225682316D-01 E2=     -0.1209668188D+00
     alpha-beta  T2 =       0.1215565793D+00 E2=     -0.4716284285D+00
     beta-beta   T2 =       0.2468072299D-01 E2=     -0.8495626780D-01
 ANorm=    0.1086483268D+01
 E2 =    -0.6791640648D+00 EUMP2 =    -0.14568248261489D+04

 Complete Basis Set (CBS) Extrapolation:
 M. R. Nyden and G. A. Petersson, JCP 75, 1843 (1981)
 G. A. Petersson and M. A. Al-Laham, JCP 94, 6081 (1991)
 G. A. Petersson, T. Tensfeldt, and J. A. Montgomery, JCP 94, 6091 (1991)
 J. A. Montgomery, J. W. Ochterski, and G. A. Petersson, JCP 101, 5900 (1994)
 
 Minimum Number of PNO for Extrapolation =  25
 Absolute Overlaps: IRadAn =         5
 LocTrn: ILocal=3 LocCor=F DoCore=F.
 Entering OneElI...
 Overlap between basis sets.
 Requested accuracy = 0.1000D-12
 PrsmSu:  NPrtUS=   1 ThrOK=F IAlg=1
 PRISM was handed 17178007996 working-precision words and    47 shell-pairs
 IPart=  0 NShTot=          47 NBatch=          11 AvBLen=         4.3
 CnvPC2: ToCart=F DoDens=F IPureD=0 IPureF=0.
 Transformed matrix in CnvPC2: 
                 1             2             3             4             5 
      1   0.100000D+01  0.389679D+00  0.000000D+00  0.000000D+00  0.000000D+00
      2   0.389679D+00  0.100000D+01  0.000000D+00  0.000000D+00  0.000000D+00
      3   0.000000D+00  0.000000D+00  0.100000D+01  0.000000D+00  0.000000D+00
      4   0.000000D+00  0.000000D+00  0.000000D+00  0.100000D+01  0.000000D+00
      5   0.000000D+00  0.000000D+00  0.000000D+00  0.000000D+00  0.100000D+01
      6   0.261173D-01  0.323296D+00  0.000000D+00  0.000000D+00  0.000000D+00
      7   0.000000D+00  0.000000D+00  0.336239D+00  0.000000D+00  0.000000D+00
      8   0.000000D+00  0.000000D+00  0.000000D+00  0.336239D+00  0.000000D+00
      9   0.000000D+00  0.000000D+00  0.000000D+00  0.000000D+00  0.336239D+00
     10   0.000000D+00  0.000000D+00  0.000000D+00  0.000000D+00  0.000000D+00
     11   0.000000D+00  0.000000D+00  0.000000D+00  0.000000D+00  0.000000D+00
     12   0.000000D+00  0.000000D+00  0.000000D+00  0.000000D+00  0.000000D+00
     13   0.000000D+00  0.000000D+00  0.000000D+00  0.000000D+00  0.000000D+00
     14   0.000000D+00  0.000000D+00  0.000000D+00  0.000000D+00  0.000000D+00
     15  -0.350952D-03  0.330494D-02  0.000000D+00  0.000000D+00  0.000000D+00
     16   0.000000D+00  0.000000D+00  0.105584D-01  0.000000D+00  0.000000D+00
     17   0.000000D+00  0.000000D+00  0.000000D+00  0.105584D-01  0.000000D+00
     18   0.000000D+00  0.000000D+00  0.000000D+00  0.000000D+00  0.105584D-01
     19   0.000000D+00  0.000000D+00  0.000000D+00  0.000000D+00  0.000000D+00
     20   0.710759D-03  0.482130D-02  0.000000D+00  0.000000D+00 -0.227420D-02
     21   0.000000D+00  0.000000D+00  0.678042D-03  0.000000D+00  0.000000D+00
     22   0.000000D+00  0.000000D+00  0.000000D+00  0.678042D-03  0.000000D+00
     23   0.149850D-02  0.987838D-02  0.000000D+00  0.000000D+00 -0.405135D-02
                 6             7             8             9            10 
      1   0.261173D-01  0.000000D+00  0.000000D+00  0.000000D+00  0.000000D+00
      2   0.323296D+00  0.000000D+00  0.000000D+00  0.000000D+00  0.000000D+00
      3   0.000000D+00  0.336239D+00  0.000000D+00  0.000000D+00  0.000000D+00
      4   0.000000D+00  0.000000D+00  0.336239D+00  0.000000D+00  0.000000D+00
      5   0.000000D+00  0.000000D+00  0.000000D+00  0.336239D+00  0.000000D+00
      6   0.100000D+01  0.000000D+00  0.000000D+00  0.000000D+00  0.000000D+00
      7   0.000000D+00  0.100000D+01  0.000000D+00  0.000000D+00  0.000000D+00
      8   0.000000D+00  0.000000D+00  0.100000D+01  0.000000D+00  0.000000D+00
      9   0.000000D+00  0.000000D+00  0.000000D+00  0.100000D+01  0.000000D+00
     10   0.000000D+00  0.000000D+00  0.000000D+00  0.000000D+00  0.100000D+01
     11   0.000000D+00  0.000000D+00  0.000000D+00  0.000000D+00  0.000000D+00
     12   0.000000D+00  0.000000D+00  0.000000D+00  0.000000D+00  0.000000D+00
     13   0.000000D+00  0.000000D+00  0.000000D+00  0.000000D+00  0.000000D+00
     14   0.000000D+00  0.000000D+00  0.000000D+00  0.000000D+00  0.000000D+00
     15   0.170029D+00  0.000000D+00  0.000000D+00  0.000000D+00  0.000000D+00
     16   0.000000D+00  0.186983D+00  0.000000D+00  0.000000D+00  0.000000D+00
     17   0.000000D+00  0.000000D+00  0.186983D+00  0.000000D+00  0.000000D+00
     18   0.000000D+00  0.000000D+00  0.000000D+00  0.186983D+00  0.000000D+00
     19   0.408971D-04  0.000000D+00  0.000000D+00 -0.121300D-03  0.838297D-03
     20   0.409551D-01  0.000000D+00  0.000000D+00 -0.463499D-01  0.444172D-01
     21   0.000000D+00  0.143446D-01  0.000000D+00  0.000000D+00  0.000000D+00
     22   0.000000D+00  0.000000D+00  0.143446D-01  0.000000D+00  0.000000D+00
     23   0.709904D-01  0.000000D+00  0.000000D+00 -0.736946D-01  0.647561D-01
                11            12            13            14            15 
      1   0.000000D+00  0.000000D+00  0.000000D+00  0.000000D+00 -0.350952D-03
      2   0.000000D+00  0.000000D+00  0.000000D+00  0.000000D+00  0.330494D-02
      3   0.000000D+00  0.000000D+00  0.000000D+00  0.000000D+00  0.000000D+00
      4   0.000000D+00  0.000000D+00  0.000000D+00  0.000000D+00  0.000000D+00
      5   0.000000D+00  0.000000D+00  0.000000D+00  0.000000D+00  0.000000D+00
      6   0.000000D+00  0.000000D+00  0.000000D+00  0.000000D+00  0.170029D+00
      7   0.000000D+00  0.000000D+00  0.000000D+00  0.000000D+00  0.000000D+00
      8   0.000000D+00  0.000000D+00  0.000000D+00  0.000000D+00  0.000000D+00
      9   0.000000D+00  0.000000D+00  0.000000D+00  0.000000D+00  0.000000D+00
     10   0.000000D+00  0.000000D+00  0.000000D+00  0.000000D+00  0.000000D+00
     11   0.100000D+01  0.000000D+00  0.000000D+00  0.000000D+00  0.000000D+00
     12   0.000000D+00  0.100000D+01  0.000000D+00  0.000000D+00  0.000000D+00
     13   0.000000D+00  0.000000D+00  0.100000D+01  0.000000D+00  0.000000D+00
     14   0.000000D+00  0.000000D+00  0.000000D+00  0.100000D+01  0.000000D+00
     15   0.000000D+00  0.000000D+00  0.000000D+00  0.000000D+00  0.100000D+01
     16   0.000000D+00  0.000000D+00  0.000000D+00  0.000000D+00  0.000000D+00
     17   0.000000D+00  0.000000D+00  0.000000D+00  0.000000D+00  0.000000D+00
     18   0.000000D+00  0.000000D+00  0.000000D+00  0.000000D+00  0.000000D+00
     19   0.000000D+00  0.000000D+00  0.000000D+00  0.000000D+00  0.364761D-01
     20   0.000000D+00  0.000000D+00  0.000000D+00  0.000000D+00  0.325183D+00
     21  -0.250269D-01  0.000000D+00  0.000000D+00  0.000000D+00  0.000000D+00
     22   0.000000D+00 -0.250269D-01  0.000000D+00  0.000000D+00  0.000000D+00
     23   0.000000D+00  0.000000D+00  0.000000D+00  0.000000D+00  0.142925D+00
                16            17            18            19            20 
      1   0.000000D+00  0.000000D+00  0.000000D+00  0.000000D+00  0.710759D-03
      2   0.000000D+00  0.000000D+00  0.000000D+00  0.000000D+00  0.482130D-02
      3   0.105584D-01  0.000000D+00  0.000000D+00  0.000000D+00  0.000000D+00
      4   0.000000D+00  0.105584D-01  0.000000D+00  0.000000D+00  0.000000D+00
      5   0.000000D+00  0.000000D+00  0.105584D-01  0.000000D+00 -0.227420D-02
      6   0.000000D+00  0.000000D+00  0.000000D+00  0.408971D-04  0.409551D-01
      7   0.186983D+00  0.000000D+00  0.000000D+00  0.000000D+00  0.000000D+00
      8   0.000000D+00  0.186983D+00  0.000000D+00  0.000000D+00  0.000000D+00
      9   0.000000D+00  0.000000D+00  0.186983D+00 -0.121300D-03 -0.463499D-01
     10   0.000000D+00  0.000000D+00  0.000000D+00  0.838297D-03  0.444172D-01
     11   0.000000D+00  0.000000D+00  0.000000D+00  0.000000D+00  0.000000D+00
     12   0.000000D+00  0.000000D+00  0.000000D+00  0.000000D+00  0.000000D+00
     13   0.000000D+00  0.000000D+00  0.000000D+00  0.000000D+00  0.000000D+00
     14   0.000000D+00  0.000000D+00  0.000000D+00  0.000000D+00  0.000000D+00
     15   0.000000D+00  0.000000D+00  0.000000D+00  0.364761D-01  0.325183D+00
     16   0.100000D+01  0.000000D+00  0.000000D+00  0.000000D+00  0.000000D+00
     17   0.000000D+00  0.100000D+01  0.000000D+00  0.000000D+00  0.000000D+00
     18   0.000000D+00  0.000000D+00  0.100000D+01 -0.635742D-01 -0.486356D+00
     19   0.000000D+00  0.000000D+00 -0.635742D-01  0.100000D+01  0.236704D+00
     20   0.000000D+00  0.000000D+00 -0.486356D+00  0.236704D+00  0.100000D+01
     21   0.170580D+00  0.000000D+00  0.000000D+00  0.000000D+00  0.000000D+00
     22   0.000000D+00  0.170580D+00  0.000000D+00  0.000000D+00  0.000000D+00
     23   0.000000D+00  0.000000D+00 -0.180613D+00  0.000000D+00  0.000000D+00
                21            22            23 
      1   0.000000D+00  0.000000D+00  0.149850D-02
      2   0.000000D+00  0.000000D+00  0.987838D-02
      3   0.678042D-03  0.000000D+00  0.000000D+00
      4   0.000000D+00  0.678042D-03  0.000000D+00
      5   0.000000D+00  0.000000D+00 -0.405135D-02
      6   0.000000D+00  0.000000D+00  0.709904D-01
      7   0.143446D-01  0.000000D+00  0.000000D+00
      8   0.000000D+00  0.143446D-01  0.000000D+00
      9   0.000000D+00  0.000000D+00 -0.736946D-01
     10   0.000000D+00  0.000000D+00  0.647561D-01
     11  -0.250269D-01  0.000000D+00  0.000000D+00
     12   0.000000D+00 -0.250269D-01  0.000000D+00
     13   0.000000D+00  0.000000D+00  0.000000D+00
     14   0.000000D+00  0.000000D+00  0.000000D+00
     15   0.000000D+00  0.000000D+00  0.142925D+00
     16   0.170580D+00  0.000000D+00  0.000000D+00
     17   0.000000D+00  0.170580D+00  0.000000D+00
     18   0.000000D+00  0.000000D+00 -0.180613D+00
     19   0.000000D+00  0.000000D+00  0.000000D+00
     20   0.000000D+00  0.000000D+00  0.000000D+00
     21   0.100000D+01  0.000000D+00  0.000000D+00
     22   0.000000D+00  0.100000D+01  0.000000D+00
     23   0.000000D+00  0.000000D+00  0.100000D+01
 Entering OneElI...
 Overlap between basis sets.
 Requested accuracy = 0.1000D-12
 PrsmSu:  NPrtUS=   1 ThrOK=F IAlg=1
 PRISM was handed 17176658626 working-precision words and   711 shell-pairs
 IPart=  0 NShTot=         711 NBatch=          88 AvBLen=         8.1
 CnvPC2: ToCart=F DoDens=F IPureD=0 IPureF=0.
 Transformed matrix in CnvPC2: 
                 1             2             3             4             5 
      1   0.999785D+00  0.398948D+00  0.000000D+00  0.000000D+00  0.000000D+00
      2   0.282303D+00  0.989985D+00  0.000000D+00  0.000000D+00  0.000000D+00
      3   0.000000D+00  0.000000D+00  0.999117D+00  0.000000D+00  0.000000D+00
      4   0.000000D+00  0.000000D+00  0.000000D+00  0.999117D+00  0.000000D+00
      5   0.000000D+00  0.000000D+00  0.000000D+00  0.000000D+00  0.999117D+00
      6   0.115247D-01  0.312821D+00  0.000000D+00  0.000000D+00  0.000000D+00
      7   0.000000D+00  0.000000D+00 -0.325798D+00  0.000000D+00  0.000000D+00
      8   0.000000D+00  0.000000D+00  0.000000D+00 -0.325798D+00  0.000000D+00
      9   0.000000D+00  0.000000D+00  0.000000D+00  0.000000D+00 -0.325798D+00
     10   0.000000D+00  0.000000D+00  0.000000D+00  0.000000D+00  0.000000D+00
     11   0.000000D+00  0.000000D+00  0.000000D+00  0.000000D+00  0.000000D+00
     12   0.000000D+00  0.000000D+00  0.000000D+00  0.000000D+00  0.000000D+00
     13   0.000000D+00  0.000000D+00  0.000000D+00  0.000000D+00  0.000000D+00
     14   0.000000D+00  0.000000D+00  0.000000D+00  0.000000D+00  0.000000D+00
     15   0.000000D+00  0.000000D+00  0.000000D+00  0.000000D+00  0.000000D+00
     16   0.000000D+00  0.000000D+00  0.000000D+00  0.000000D+00  0.000000D+00
     17   0.000000D+00  0.000000D+00  0.000000D+00  0.000000D+00  0.000000D+00
     18   0.000000D+00  0.000000D+00  0.000000D+00  0.000000D+00  0.000000D+00
     19   0.000000D+00  0.000000D+00  0.000000D+00  0.000000D+00  0.000000D+00
     20   0.000000D+00  0.000000D+00  0.000000D+00  0.000000D+00  0.000000D+00
     21   0.000000D+00  0.000000D+00  0.000000D+00  0.000000D+00  0.000000D+00
     22   0.000000D+00  0.000000D+00  0.000000D+00  0.000000D+00  0.000000D+00
     23   0.000000D+00  0.000000D+00  0.000000D+00  0.000000D+00  0.000000D+00
     24   0.000000D+00  0.000000D+00  0.000000D+00  0.000000D+00  0.000000D+00
     25   0.534568D-04  0.808020D-02  0.000000D+00  0.000000D+00  0.000000D+00
     26   0.734007D-02  0.464056D-01  0.000000D+00  0.000000D+00  0.000000D+00
     27   0.344545D-02  0.218674D-01  0.000000D+00  0.000000D+00  0.000000D+00
     28   0.133463D-02  0.848407D-02  0.000000D+00  0.000000D+00  0.000000D+00
     29   0.000000D+00  0.000000D+00 -0.179976D-02  0.000000D+00  0.000000D+00
     30   0.000000D+00  0.000000D+00  0.000000D+00 -0.179976D-02  0.000000D+00
     31   0.000000D+00  0.000000D+00  0.000000D+00  0.000000D+00 -0.179976D-02
     32   0.000000D+00  0.000000D+00  0.148888D-01  0.000000D+00  0.000000D+00
     33   0.000000D+00  0.000000D+00  0.000000D+00  0.148888D-01  0.000000D+00
     34   0.000000D+00  0.000000D+00  0.000000D+00  0.000000D+00  0.148888D-01
     35   0.000000D+00  0.000000D+00  0.474391D-02  0.000000D+00  0.000000D+00
     36   0.000000D+00  0.000000D+00  0.000000D+00  0.474391D-02  0.000000D+00
     37   0.000000D+00  0.000000D+00  0.000000D+00  0.000000D+00  0.474391D-02
     38   0.341892D+00  0.985224D+00  0.000000D+00  0.000000D+00  0.000000D+00
     39   0.214974D+00  0.853579D+00  0.000000D+00  0.000000D+00  0.000000D+00
     40   0.131098D+00  0.642230D+00  0.000000D+00  0.000000D+00  0.000000D+00
     41   0.786519D-01  0.435922D+00  0.000000D+00  0.000000D+00  0.000000D+00
     42   0.467922D-01  0.277379D+00  0.000000D+00  0.000000D+00  0.000000D+00
     43   0.277203D-01  0.170177D+00  0.000000D+00  0.000000D+00  0.000000D+00
     44   0.000000D+00  0.000000D+00  0.468236D+00  0.000000D+00  0.000000D+00
     45   0.000000D+00  0.000000D+00  0.000000D+00  0.468236D+00  0.000000D+00
     46   0.000000D+00  0.000000D+00  0.000000D+00  0.000000D+00  0.468236D+00
     47   0.000000D+00  0.000000D+00  0.306273D+00  0.000000D+00  0.000000D+00
     48   0.000000D+00  0.000000D+00  0.000000D+00  0.306273D+00  0.000000D+00
     49   0.000000D+00  0.000000D+00  0.000000D+00  0.000000D+00  0.306273D+00
     50   0.000000D+00  0.000000D+00  0.187009D+00  0.000000D+00  0.000000D+00
     51   0.000000D+00  0.000000D+00  0.000000D+00  0.187009D+00  0.000000D+00
     52   0.000000D+00  0.000000D+00  0.000000D+00  0.000000D+00  0.187009D+00
     53   0.000000D+00  0.000000D+00  0.108643D+00  0.000000D+00  0.000000D+00
     54   0.000000D+00  0.000000D+00  0.000000D+00  0.108643D+00  0.000000D+00
     55   0.000000D+00  0.000000D+00  0.000000D+00  0.000000D+00  0.108643D+00
     56   0.000000D+00  0.000000D+00  0.610219D-01  0.000000D+00  0.000000D+00
     57   0.000000D+00  0.000000D+00  0.000000D+00  0.610219D-01  0.000000D+00
     58   0.000000D+00  0.000000D+00  0.000000D+00  0.000000D+00  0.610219D-01
     59   0.000000D+00  0.000000D+00  0.335322D-01  0.000000D+00  0.000000D+00
     60   0.000000D+00  0.000000D+00  0.000000D+00  0.335322D-01  0.000000D+00
     61   0.000000D+00  0.000000D+00  0.000000D+00  0.000000D+00  0.335322D-01
     62   0.000000D+00  0.000000D+00  0.000000D+00  0.000000D+00  0.000000D+00
     63   0.000000D+00  0.000000D+00  0.000000D+00  0.000000D+00  0.000000D+00
     64   0.000000D+00  0.000000D+00  0.000000D+00  0.000000D+00  0.000000D+00
     65   0.000000D+00  0.000000D+00  0.000000D+00  0.000000D+00  0.000000D+00
     66   0.000000D+00  0.000000D+00  0.000000D+00  0.000000D+00  0.000000D+00
     67   0.000000D+00  0.000000D+00  0.000000D+00  0.000000D+00  0.000000D+00
     68   0.000000D+00  0.000000D+00  0.000000D+00  0.000000D+00  0.000000D+00
     69   0.000000D+00  0.000000D+00  0.000000D+00  0.000000D+00  0.000000D+00
     70   0.000000D+00  0.000000D+00  0.000000D+00  0.000000D+00  0.000000D+00
     71   0.000000D+00  0.000000D+00  0.000000D+00  0.000000D+00  0.000000D+00
     72   0.000000D+00  0.000000D+00  0.000000D+00  0.000000D+00  0.000000D+00
     73   0.000000D+00  0.000000D+00  0.000000D+00  0.000000D+00  0.000000D+00
     74   0.000000D+00  0.000000D+00  0.000000D+00  0.000000D+00  0.000000D+00
     75   0.000000D+00  0.000000D+00  0.000000D+00  0.000000D+00  0.000000D+00
     76   0.000000D+00  0.000000D+00  0.000000D+00  0.000000D+00  0.000000D+00
     77   0.000000D+00  0.000000D+00  0.000000D+00  0.000000D+00  0.000000D+00
     78   0.000000D+00  0.000000D+00  0.000000D+00  0.000000D+00  0.000000D+00
     79   0.000000D+00  0.000000D+00  0.000000D+00  0.000000D+00  0.000000D+00
     80   0.000000D+00  0.000000D+00  0.000000D+00  0.000000D+00  0.000000D+00
     81   0.000000D+00  0.000000D+00  0.000000D+00  0.000000D+00  0.000000D+00
     82   0.000000D+00  0.000000D+00  0.000000D+00  0.000000D+00  0.000000D+00
     83   0.000000D+00  0.000000D+00  0.000000D+00  0.000000D+00  0.000000D+00
     84   0.000000D+00  0.000000D+00  0.000000D+00  0.000000D+00  0.000000D+00
     85   0.000000D+00  0.000000D+00  0.000000D+00  0.000000D+00  0.000000D+00
     86   0.000000D+00  0.000000D+00  0.000000D+00  0.000000D+00  0.000000D+00
     87   0.000000D+00  0.000000D+00  0.000000D+00  0.000000D+00  0.000000D+00
     88   0.000000D+00  0.000000D+00  0.000000D+00  0.000000D+00  0.000000D+00
     89   0.000000D+00  0.000000D+00  0.000000D+00  0.000000D+00  0.000000D+00
     90   0.000000D+00  0.000000D+00  0.000000D+00  0.000000D+00  0.000000D+00
     91   0.000000D+00  0.000000D+00  0.000000D+00  0.000000D+00  0.000000D+00
     92   0.000000D+00  0.000000D+00  0.000000D+00  0.000000D+00  0.000000D+00
     93   0.000000D+00  0.000000D+00  0.000000D+00  0.000000D+00  0.000000D+00
     94   0.000000D+00  0.000000D+00  0.000000D+00  0.000000D+00  0.000000D+00
     95   0.000000D+00  0.000000D+00  0.000000D+00  0.000000D+00  0.000000D+00
     96   0.000000D+00  0.000000D+00  0.000000D+00  0.000000D+00  0.000000D+00
     97   0.000000D+00  0.000000D+00  0.000000D+00  0.000000D+00  0.000000D+00
     98   0.000000D+00  0.000000D+00  0.000000D+00  0.000000D+00  0.000000D+00
     99   0.000000D+00  0.000000D+00  0.000000D+00  0.000000D+00  0.000000D+00
    100   0.000000D+00  0.000000D+00  0.000000D+00  0.000000D+00  0.000000D+00
    101   0.000000D+00  0.000000D+00  0.000000D+00  0.000000D+00  0.000000D+00
    102   0.000000D+00  0.000000D+00  0.000000D+00  0.000000D+00  0.000000D+00
    103   0.000000D+00  0.000000D+00  0.000000D+00  0.000000D+00  0.000000D+00
    104   0.000000D+00  0.000000D+00  0.000000D+00  0.000000D+00  0.000000D+00
    105   0.000000D+00  0.000000D+00  0.000000D+00  0.000000D+00  0.000000D+00
    106   0.000000D+00  0.000000D+00  0.000000D+00  0.000000D+00  0.000000D+00
    107   0.000000D+00  0.000000D+00  0.000000D+00  0.000000D+00  0.000000D+00
    108   0.000000D+00  0.000000D+00  0.000000D+00  0.000000D+00  0.000000D+00
    109   0.000000D+00  0.000000D+00  0.000000D+00  0.000000D+00  0.000000D+00
    110   0.000000D+00  0.000000D+00  0.000000D+00  0.000000D+00  0.000000D+00
    111   0.000000D+00  0.000000D+00  0.000000D+00  0.000000D+00  0.000000D+00
    112   0.000000D+00  0.000000D+00  0.000000D+00  0.000000D+00  0.000000D+00
    113   0.000000D+00  0.000000D+00  0.000000D+00  0.000000D+00  0.000000D+00
    114   0.000000D+00  0.000000D+00  0.000000D+00  0.000000D+00  0.000000D+00
    115   0.000000D+00  0.000000D+00  0.000000D+00  0.000000D+00  0.000000D+00
    116   0.000000D+00  0.000000D+00  0.000000D+00  0.000000D+00  0.000000D+00
    117   0.000000D+00  0.000000D+00  0.000000D+00  0.000000D+00  0.000000D+00
    118   0.000000D+00  0.000000D+00  0.000000D+00  0.000000D+00  0.000000D+00
    119   0.000000D+00  0.000000D+00  0.000000D+00  0.000000D+00  0.000000D+00
    120   0.000000D+00  0.000000D+00  0.000000D+00  0.000000D+00  0.000000D+00
    121   0.000000D+00  0.000000D+00  0.000000D+00  0.000000D+00  0.000000D+00
    122   0.000000D+00  0.000000D+00  0.000000D+00  0.000000D+00  0.000000D+00
    123   0.000000D+00  0.000000D+00  0.000000D+00  0.000000D+00  0.000000D+00
    124   0.000000D+00  0.000000D+00  0.000000D+00  0.000000D+00  0.000000D+00
    125   0.000000D+00  0.000000D+00  0.000000D+00  0.000000D+00  0.000000D+00
    126   0.000000D+00  0.000000D+00  0.000000D+00  0.000000D+00  0.000000D+00
    127   0.000000D+00  0.000000D+00  0.000000D+00  0.000000D+00  0.000000D+00
    128   0.000000D+00  0.000000D+00  0.000000D+00  0.000000D+00  0.000000D+00
    129   0.000000D+00  0.000000D+00  0.000000D+00  0.000000D+00  0.000000D+00
    130   0.000000D+00  0.000000D+00  0.000000D+00  0.000000D+00  0.000000D+00
    131   0.000000D+00  0.000000D+00  0.000000D+00  0.000000D+00  0.000000D+00
    132   0.000000D+00  0.000000D+00  0.000000D+00  0.000000D+00  0.000000D+00
    133   0.000000D+00  0.000000D+00  0.000000D+00  0.000000D+00  0.000000D+00
    134   0.000000D+00  0.000000D+00  0.000000D+00  0.000000D+00  0.000000D+00
    135   0.000000D+00  0.000000D+00  0.000000D+00  0.000000D+00  0.000000D+00
    136   0.000000D+00  0.000000D+00  0.000000D+00  0.000000D+00  0.000000D+00
    137   0.000000D+00  0.000000D+00  0.000000D+00  0.000000D+00  0.000000D+00
    138   0.000000D+00  0.000000D+00  0.000000D+00  0.000000D+00  0.000000D+00
    139   0.000000D+00  0.000000D+00  0.000000D+00  0.000000D+00  0.000000D+00
    140   0.000000D+00  0.000000D+00  0.000000D+00  0.000000D+00  0.000000D+00
    141   0.000000D+00  0.000000D+00  0.000000D+00  0.000000D+00  0.000000D+00
    142   0.000000D+00  0.000000D+00  0.000000D+00  0.000000D+00  0.000000D+00
    143   0.000000D+00  0.000000D+00  0.000000D+00  0.000000D+00  0.000000D+00
    144   0.000000D+00  0.000000D+00  0.000000D+00  0.000000D+00  0.000000D+00
    145   0.000000D+00  0.000000D+00  0.000000D+00  0.000000D+00  0.000000D+00
    146   0.000000D+00  0.000000D+00  0.000000D+00  0.000000D+00  0.000000D+00
    147   0.000000D+00  0.000000D+00  0.000000D+00  0.000000D+00  0.000000D+00
    148   0.000000D+00  0.000000D+00  0.000000D+00  0.000000D+00  0.000000D+00
    149   0.000000D+00  0.000000D+00  0.000000D+00  0.000000D+00  0.000000D+00
    150   0.000000D+00  0.000000D+00  0.000000D+00  0.000000D+00  0.000000D+00
    151   0.000000D+00  0.000000D+00  0.000000D+00  0.000000D+00  0.000000D+00
    152   0.000000D+00  0.000000D+00  0.000000D+00  0.000000D+00  0.000000D+00
    153   0.000000D+00  0.000000D+00  0.000000D+00  0.000000D+00  0.000000D+00
    154   0.000000D+00  0.000000D+00  0.000000D+00  0.000000D+00  0.000000D+00
    155   0.000000D+00  0.000000D+00  0.000000D+00  0.000000D+00  0.000000D+00
    156   0.000000D+00  0.000000D+00  0.000000D+00  0.000000D+00  0.000000D+00
    157   0.000000D+00  0.000000D+00  0.000000D+00  0.000000D+00  0.000000D+00
    158   0.000000D+00  0.000000D+00  0.000000D+00  0.000000D+00  0.000000D+00
    159   0.000000D+00  0.000000D+00  0.000000D+00  0.000000D+00  0.000000D+00
    160   0.000000D+00  0.000000D+00  0.000000D+00  0.000000D+00  0.000000D+00
    161   0.000000D+00  0.000000D+00  0.000000D+00  0.000000D+00  0.000000D+00
    162   0.000000D+00  0.000000D+00  0.000000D+00  0.000000D+00  0.000000D+00
    163   0.000000D+00  0.000000D+00  0.000000D+00  0.000000D+00  0.000000D+00
    164   0.000000D+00  0.000000D+00  0.000000D+00  0.000000D+00  0.000000D+00
    165   0.000000D+00  0.000000D+00  0.000000D+00  0.000000D+00  0.000000D+00
    166   0.000000D+00  0.000000D+00  0.000000D+00  0.000000D+00  0.000000D+00
    167   0.000000D+00  0.000000D+00  0.000000D+00  0.000000D+00  0.000000D+00
    168   0.000000D+00  0.000000D+00  0.000000D+00  0.000000D+00  0.000000D+00
    169   0.000000D+00  0.000000D+00  0.000000D+00  0.000000D+00  0.000000D+00
    170   0.000000D+00  0.000000D+00  0.000000D+00  0.000000D+00  0.000000D+00
    171   0.000000D+00  0.000000D+00  0.000000D+00  0.000000D+00  0.000000D+00
    172   0.000000D+00  0.000000D+00  0.000000D+00  0.000000D+00  0.000000D+00
    173   0.000000D+00  0.000000D+00  0.000000D+00  0.000000D+00  0.000000D+00
    174   0.000000D+00  0.000000D+00  0.000000D+00  0.000000D+00  0.000000D+00
    175   0.000000D+00  0.000000D+00  0.000000D+00  0.000000D+00  0.000000D+00
    176   0.000000D+00  0.000000D+00  0.000000D+00  0.000000D+00  0.000000D+00
    177   0.000000D+00  0.000000D+00  0.000000D+00  0.000000D+00  0.000000D+00
    178   0.000000D+00  0.000000D+00  0.000000D+00  0.000000D+00  0.000000D+00
    179   0.000000D+00  0.000000D+00  0.000000D+00  0.000000D+00  0.000000D+00
    180   0.000000D+00  0.000000D+00  0.000000D+00  0.000000D+00  0.000000D+00
    181   0.000000D+00  0.000000D+00  0.000000D+00  0.000000D+00  0.000000D+00
    182   0.000000D+00  0.000000D+00  0.000000D+00  0.000000D+00  0.000000D+00
    183   0.000000D+00  0.000000D+00  0.000000D+00  0.000000D+00  0.000000D+00
    184   0.000000D+00  0.000000D+00  0.000000D+00  0.000000D+00  0.000000D+00
    185   0.000000D+00  0.000000D+00  0.000000D+00  0.000000D+00  0.000000D+00
    186   0.000000D+00  0.000000D+00  0.000000D+00  0.000000D+00  0.000000D+00
    187   0.000000D+00  0.000000D+00  0.000000D+00  0.000000D+00  0.000000D+00
    188   0.000000D+00  0.000000D+00  0.000000D+00  0.000000D+00  0.000000D+00
    189   0.000000D+00  0.000000D+00  0.000000D+00  0.000000D+00  0.000000D+00
    190   0.000000D+00  0.000000D+00  0.000000D+00  0.000000D+00  0.000000D+00
    191   0.000000D+00  0.000000D+00  0.000000D+00  0.000000D+00  0.000000D+00
    192   0.000000D+00  0.000000D+00  0.000000D+00  0.000000D+00  0.000000D+00
    193   0.000000D+00  0.000000D+00  0.000000D+00  0.000000D+00  0.000000D+00
    194   0.000000D+00  0.000000D+00  0.000000D+00  0.000000D+00  0.000000D+00
    195   0.000000D+00  0.000000D+00  0.000000D+00  0.000000D+00  0.000000D+00
    196   0.000000D+00  0.000000D+00  0.000000D+00  0.000000D+00  0.000000D+00
    197   0.000000D+00  0.000000D+00  0.000000D+00  0.000000D+00  0.000000D+00
    198   0.000000D+00  0.000000D+00  0.000000D+00  0.000000D+00  0.000000D+00
    199   0.000000D+00  0.000000D+00  0.000000D+00  0.000000D+00  0.000000D+00
    200   0.000000D+00  0.000000D+00  0.000000D+00  0.000000D+00  0.000000D+00
    201   0.000000D+00  0.000000D+00  0.000000D+00  0.000000D+00  0.000000D+00
    202   0.000000D+00  0.000000D+00  0.000000D+00  0.000000D+00  0.000000D+00
    203   0.000000D+00  0.000000D+00  0.000000D+00  0.000000D+00  0.000000D+00
    204   0.000000D+00  0.000000D+00  0.000000D+00  0.000000D+00  0.000000D+00
    205   0.000000D+00  0.000000D+00  0.000000D+00  0.000000D+00  0.000000D+00
    206   0.000000D+00  0.000000D+00  0.000000D+00  0.000000D+00  0.000000D+00
    207   0.000000D+00  0.000000D+00  0.000000D+00  0.000000D+00  0.000000D+00
    208   0.000000D+00  0.000000D+00  0.000000D+00  0.000000D+00  0.000000D+00
    209   0.000000D+00  0.000000D+00  0.000000D+00  0.000000D+00  0.000000D+00
    210   0.000000D+00  0.000000D+00  0.000000D+00  0.000000D+00  0.000000D+00
    211   0.000000D+00  0.000000D+00  0.000000D+00  0.000000D+00  0.000000D+00
    212   0.000000D+00  0.000000D+00  0.000000D+00  0.000000D+00  0.000000D+00
    213   0.000000D+00  0.000000D+00  0.000000D+00  0.000000D+00  0.000000D+00
    214   0.000000D+00  0.000000D+00  0.000000D+00  0.000000D+00  0.000000D+00
    215   0.000000D+00  0.000000D+00  0.000000D+00  0.000000D+00  0.000000D+00
    216   0.000000D+00  0.000000D+00  0.000000D+00  0.000000D+00  0.000000D+00
    217   0.000000D+00  0.000000D+00  0.000000D+00  0.000000D+00  0.000000D+00
    218   0.000000D+00  0.000000D+00  0.000000D+00  0.000000D+00  0.000000D+00
    219   0.000000D+00  0.000000D+00  0.000000D+00  0.000000D+00  0.000000D+00
    220   0.000000D+00  0.000000D+00  0.000000D+00  0.000000D+00  0.000000D+00
    221   0.000000D+00  0.000000D+00  0.000000D+00  0.000000D+00  0.000000D+00
    222   0.000000D+00  0.000000D+00  0.000000D+00  0.000000D+00  0.000000D+00
    223   0.000000D+00  0.000000D+00  0.000000D+00  0.000000D+00  0.000000D+00
    224   0.000000D+00  0.000000D+00  0.000000D+00  0.000000D+00  0.000000D+00
    225   0.000000D+00  0.000000D+00  0.000000D+00  0.000000D+00  0.000000D+00
    226   0.000000D+00  0.000000D+00  0.000000D+00  0.000000D+00  0.000000D+00
    227   0.000000D+00  0.000000D+00  0.000000D+00  0.000000D+00  0.000000D+00
    228   0.000000D+00  0.000000D+00  0.000000D+00  0.000000D+00  0.000000D+00
    229   0.000000D+00  0.000000D+00  0.000000D+00  0.000000D+00  0.000000D+00
    230   0.000000D+00  0.000000D+00  0.000000D+00  0.000000D+00  0.000000D+00
    231   0.000000D+00  0.000000D+00  0.000000D+00  0.000000D+00  0.000000D+00
    232   0.000000D+00  0.000000D+00  0.000000D+00  0.000000D+00  0.000000D+00
    233   0.000000D+00  0.000000D+00  0.000000D+00  0.000000D+00  0.000000D+00
    234   0.000000D+00  0.000000D+00  0.000000D+00  0.000000D+00  0.000000D+00
    235   0.000000D+00  0.000000D+00  0.000000D+00  0.000000D+00  0.000000D+00
    236   0.000000D+00  0.000000D+00  0.000000D+00  0.000000D+00  0.000000D+00
    237   0.000000D+00  0.000000D+00  0.000000D+00  0.000000D+00  0.000000D+00
    238   0.000000D+00  0.000000D+00  0.000000D+00  0.000000D+00  0.000000D+00
    239   0.000000D+00  0.000000D+00  0.000000D+00  0.000000D+00  0.000000D+00
    240   0.000000D+00  0.000000D+00  0.000000D+00  0.000000D+00  0.000000D+00
    241   0.000000D+00  0.000000D+00  0.000000D+00  0.000000D+00  0.000000D+00
    242   0.000000D+00  0.000000D+00  0.000000D+00  0.000000D+00  0.000000D+00
    243   0.000000D+00  0.000000D+00  0.000000D+00  0.000000D+00  0.000000D+00
    244   0.000000D+00  0.000000D+00  0.000000D+00  0.000000D+00  0.000000D+00
    245   0.000000D+00  0.000000D+00  0.000000D+00  0.000000D+00  0.000000D+00
    246   0.000000D+00  0.000000D+00  0.000000D+00  0.000000D+00  0.000000D+00
    247   0.000000D+00  0.000000D+00  0.000000D+00  0.000000D+00  0.000000D+00
    248   0.000000D+00  0.000000D+00  0.000000D+00  0.000000D+00  0.000000D+00
    249   0.000000D+00  0.000000D+00  0.000000D+00  0.000000D+00  0.000000D+00
    250   0.000000D+00  0.000000D+00  0.000000D+00  0.000000D+00  0.000000D+00
    251   0.000000D+00  0.000000D+00  0.000000D+00  0.000000D+00  0.000000D+00
    252   0.000000D+00  0.000000D+00  0.000000D+00  0.000000D+00  0.000000D+00
    253   0.000000D+00  0.000000D+00  0.000000D+00  0.000000D+00  0.000000D+00
    254   0.000000D+00  0.000000D+00  0.000000D+00  0.000000D+00  0.000000D+00
    255   0.000000D+00  0.000000D+00  0.000000D+00  0.000000D+00  0.000000D+00
    256   0.000000D+00  0.000000D+00  0.000000D+00  0.000000D+00  0.000000D+00
    257   0.000000D+00  0.000000D+00  0.000000D+00  0.000000D+00  0.000000D+00
    258   0.000000D+00  0.000000D+00  0.000000D+00  0.000000D+00  0.000000D+00
    259   0.000000D+00  0.000000D+00  0.000000D+00  0.000000D+00  0.000000D+00
    260   0.000000D+00  0.000000D+00  0.000000D+00  0.000000D+00  0.000000D+00
    261   0.000000D+00  0.000000D+00  0.000000D+00  0.000000D+00  0.000000D+00
    262   0.000000D+00  0.000000D+00  0.000000D+00  0.000000D+00  0.000000D+00
    263   0.000000D+00  0.000000D+00  0.000000D+00  0.000000D+00  0.000000D+00
    264   0.000000D+00  0.000000D+00  0.000000D+00  0.000000D+00  0.000000D+00
    265   0.000000D+00  0.000000D+00  0.000000D+00  0.000000D+00  0.000000D+00
    266   0.000000D+00  0.000000D+00  0.000000D+00  0.000000D+00  0.000000D+00
    267   0.000000D+00  0.000000D+00  0.000000D+00  0.000000D+00  0.000000D+00
    268   0.000000D+00  0.000000D+00  0.000000D+00  0.000000D+00  0.000000D+00
    269   0.000000D+00  0.000000D+00  0.000000D+00  0.000000D+00  0.000000D+00
    270   0.000000D+00  0.000000D+00  0.000000D+00  0.000000D+00  0.000000D+00
    271   0.000000D+00  0.000000D+00  0.000000D+00  0.000000D+00  0.000000D+00
    272   0.000000D+00  0.000000D+00  0.000000D+00  0.000000D+00  0.000000D+00
    273   0.000000D+00  0.000000D+00  0.000000D+00  0.000000D+00  0.000000D+00
    274   0.000000D+00  0.000000D+00  0.000000D+00  0.000000D+00  0.000000D+00
    275   0.000000D+00  0.000000D+00  0.000000D+00  0.000000D+00  0.000000D+00
    276   0.000000D+00  0.000000D+00  0.000000D+00  0.000000D+00  0.000000D+00
    277   0.000000D+00  0.000000D+00  0.000000D+00  0.000000D+00  0.000000D+00
    278   0.000000D+00  0.000000D+00  0.000000D+00  0.000000D+00  0.000000D+00
    279   0.000000D+00  0.000000D+00  0.000000D+00  0.000000D+00  0.000000D+00
    280   0.000000D+00  0.000000D+00  0.000000D+00  0.000000D+00  0.000000D+00
    281   0.000000D+00  0.000000D+00  0.000000D+00  0.000000D+00  0.000000D+00
    282   0.000000D+00  0.000000D+00  0.000000D+00  0.000000D+00  0.000000D+00
    283   0.000000D+00  0.000000D+00  0.000000D+00  0.000000D+00  0.000000D+00
    284   0.000000D+00  0.000000D+00  0.000000D+00  0.000000D+00  0.000000D+00
    285   0.000000D+00  0.000000D+00  0.000000D+00  0.000000D+00  0.000000D+00
    286   0.000000D+00  0.000000D+00  0.000000D+00  0.000000D+00  0.000000D+00
    287   0.000000D+00  0.000000D+00  0.000000D+00  0.000000D+00  0.000000D+00
    288   0.000000D+00  0.000000D+00  0.000000D+00  0.000000D+00  0.000000D+00
    289   0.000000D+00  0.000000D+00  0.000000D+00  0.000000D+00  0.000000D+00
    290   0.000000D+00  0.000000D+00  0.000000D+00  0.000000D+00  0.000000D+00
    291   0.000000D+00  0.000000D+00  0.000000D+00  0.000000D+00  0.000000D+00
    292   0.000000D+00  0.000000D+00  0.000000D+00  0.000000D+00  0.000000D+00
    293   0.000000D+00  0.000000D+00  0.000000D+00  0.000000D+00  0.000000D+00
    294   0.000000D+00  0.000000D+00  0.000000D+00  0.000000D+00  0.000000D+00
    295   0.000000D+00  0.000000D+00  0.000000D+00  0.000000D+00  0.000000D+00
    296   0.000000D+00  0.000000D+00  0.000000D+00  0.000000D+00  0.000000D+00
    297   0.000000D+00  0.000000D+00  0.000000D+00  0.000000D+00  0.000000D+00
    298   0.000000D+00  0.000000D+00  0.000000D+00  0.000000D+00  0.000000D+00
    299   0.000000D+00  0.000000D+00  0.000000D+00  0.000000D+00  0.000000D+00
    300   0.000000D+00  0.000000D+00  0.000000D+00  0.000000D+00  0.000000D+00
    301   0.000000D+00  0.000000D+00  0.000000D+00  0.000000D+00  0.000000D+00
    302   0.000000D+00  0.000000D+00  0.000000D+00  0.000000D+00  0.000000D+00
    303   0.000000D+00  0.000000D+00  0.000000D+00  0.000000D+00  0.000000D+00
    304   0.000000D+00  0.000000D+00  0.000000D+00  0.000000D+00  0.000000D+00
    305   0.000000D+00  0.000000D+00  0.000000D+00  0.000000D+00  0.000000D+00
    306   0.000000D+00  0.000000D+00  0.000000D+00  0.000000D+00  0.000000D+00
    307   0.000000D+00  0.000000D+00  0.000000D+00  0.000000D+00  0.000000D+00
    308   0.000000D+00  0.000000D+00  0.000000D+00  0.000000D+00  0.000000D+00
    309   0.000000D+00  0.000000D+00  0.000000D+00  0.000000D+00  0.000000D+00
    310   0.000000D+00  0.000000D+00  0.000000D+00  0.000000D+00  0.000000D+00
    311   0.000000D+00  0.000000D+00  0.000000D+00  0.000000D+00  0.000000D+00
    312   0.000000D+00  0.000000D+00  0.000000D+00  0.000000D+00  0.000000D+00
    313   0.000000D+00  0.000000D+00  0.000000D+00  0.000000D+00  0.000000D+00
    314   0.000000D+00  0.000000D+00  0.000000D+00  0.000000D+00  0.000000D+00
    315   0.000000D+00  0.000000D+00  0.000000D+00  0.000000D+00  0.000000D+00
    316   0.000000D+00  0.000000D+00  0.000000D+00  0.000000D+00  0.000000D+00
    317   0.000000D+00  0.000000D+00  0.000000D+00  0.000000D+00  0.000000D+00
    318   0.000000D+00  0.000000D+00  0.000000D+00  0.000000D+00  0.000000D+00
    319   0.000000D+00  0.000000D+00  0.000000D+00  0.000000D+00  0.000000D+00
    320   0.000000D+00  0.000000D+00  0.000000D+00  0.000000D+00  0.000000D+00
    321   0.000000D+00  0.000000D+00  0.000000D+00  0.000000D+00  0.000000D+00
    322   0.000000D+00  0.000000D+00  0.000000D+00  0.000000D+00  0.000000D+00
    323   0.000000D+00  0.000000D+00  0.000000D+00  0.000000D+00  0.000000D+00
    324   0.000000D+00  0.000000D+00  0.000000D+00  0.000000D+00  0.000000D+00
    325   0.000000D+00  0.000000D+00  0.000000D+00  0.000000D+00  0.000000D+00
    326   0.000000D+00  0.000000D+00  0.000000D+00  0.000000D+00  0.000000D+00
    327   0.000000D+00  0.000000D+00  0.000000D+00  0.000000D+00  0.000000D+00
    328   0.000000D+00  0.000000D+00  0.000000D+00  0.000000D+00  0.000000D+00
    329   0.000000D+00  0.000000D+00  0.000000D+00  0.000000D+00  0.000000D+00
    330   0.000000D+00  0.000000D+00  0.000000D+00  0.000000D+00  0.000000D+00
    331   0.000000D+00  0.000000D+00  0.000000D+00  0.000000D+00  0.000000D+00
    332   0.000000D+00  0.000000D+00  0.000000D+00  0.000000D+00  0.000000D+00
    333   0.000000D+00  0.000000D+00  0.000000D+00  0.000000D+00  0.000000D+00
    334   0.000000D+00  0.000000D+00  0.000000D+00  0.000000D+00  0.000000D+00
    335   0.000000D+00  0.000000D+00  0.000000D+00  0.000000D+00  0.000000D+00
    336   0.000000D+00  0.000000D+00  0.000000D+00  0.000000D+00  0.000000D+00
    337   0.000000D+00  0.000000D+00  0.000000D+00  0.000000D+00  0.000000D+00
    338   0.000000D+00  0.000000D+00  0.000000D+00  0.000000D+00  0.000000D+00
    339   0.000000D+00  0.000000D+00  0.000000D+00  0.000000D+00  0.000000D+00
    340   0.000000D+00  0.000000D+00  0.000000D+00  0.000000D+00  0.000000D+00
    341   0.000000D+00  0.000000D+00  0.000000D+00  0.000000D+00  0.000000D+00
    342   0.000000D+00  0.000000D+00  0.000000D+00  0.000000D+00  0.000000D+00
    343   0.000000D+00  0.000000D+00  0.000000D+00  0.000000D+00  0.000000D+00
    344   0.000000D+00  0.000000D+00  0.000000D+00  0.000000D+00  0.000000D+00
    345   0.000000D+00  0.000000D+00  0.000000D+00  0.000000D+00  0.000000D+00
    346   0.000000D+00  0.000000D+00  0.000000D+00  0.000000D+00  0.000000D+00
    347   0.000000D+00  0.000000D+00  0.000000D+00  0.000000D+00  0.000000D+00
    348   0.000000D+00  0.000000D+00  0.000000D+00  0.000000D+00  0.000000D+00
    349   0.000000D+00  0.000000D+00  0.000000D+00  0.000000D+00  0.000000D+00
    350   0.000000D+00  0.000000D+00  0.000000D+00  0.000000D+00  0.000000D+00
    351   0.000000D+00  0.000000D+00  0.000000D+00  0.000000D+00  0.000000D+00
    352   0.000000D+00  0.000000D+00  0.000000D+00  0.000000D+00  0.000000D+00
    353   0.000000D+00  0.000000D+00  0.000000D+00  0.000000D+00  0.000000D+00
    354   0.000000D+00  0.000000D+00  0.000000D+00  0.000000D+00  0.000000D+00
    355   0.000000D+00  0.000000D+00  0.000000D+00  0.000000D+00  0.000000D+00
    356   0.000000D+00  0.000000D+00  0.000000D+00  0.000000D+00  0.000000D+00
    357   0.000000D+00  0.000000D+00  0.000000D+00  0.000000D+00  0.000000D+00
    358   0.000000D+00  0.000000D+00  0.000000D+00  0.000000D+00  0.000000D+00
    359   0.000000D+00  0.000000D+00  0.000000D+00  0.000000D+00  0.000000D+00
    360   0.000000D+00  0.000000D+00  0.000000D+00  0.000000D+00  0.000000D+00
    361   0.000000D+00  0.000000D+00  0.000000D+00  0.000000D+00  0.000000D+00
    362   0.000000D+00  0.000000D+00  0.000000D+00  0.000000D+00  0.000000D+00
    363   0.000000D+00  0.000000D+00  0.000000D+00  0.000000D+00  0.000000D+00
    364   0.000000D+00  0.000000D+00  0.000000D+00  0.000000D+00  0.000000D+00
    365   0.102187D-02  0.671701D-02  0.000000D+00  0.000000D+00 -0.225593D-02
    366   0.496510D-02  0.314322D-01  0.000000D+00  0.000000D+00 -0.233660D-02
    367   0.000000D+00  0.000000D+00  0.135100D-02  0.000000D+00  0.000000D+00
    368   0.000000D+00  0.000000D+00  0.000000D+00  0.135100D-02  0.000000D+00
    369   0.305410D-02  0.196375D-01  0.000000D+00  0.000000D+00 -0.500937D-02
    370   0.000000D+00  0.000000D+00  0.249246D-02  0.000000D+00  0.000000D+00
    371   0.000000D+00  0.000000D+00  0.000000D+00  0.249246D-02  0.000000D+00
    372   0.572951D-02  0.361664D-01  0.000000D+00  0.000000D+00  0.518760D-03
    373   0.000000D+00  0.000000D+00  0.000000D+00  0.000000D+00  0.000000D+00
    374   0.000000D+00  0.000000D+00  0.000000D+00  0.000000D+00  0.000000D+00
    375   0.285279D-05  0.385927D-04  0.000000D+00  0.000000D+00 -0.469672D-04
    376   0.249605D-03  0.188154D-02  0.000000D+00  0.000000D+00 -0.127813D-02
    377   0.194628D-02  0.127273D-01  0.000000D+00  0.000000D+00 -0.457330D-02
    378   0.435482D-02  0.276509D-01  0.000000D+00  0.000000D+00 -0.514329D-02
    379   0.000000D+00  0.000000D+00  0.000000D+00  0.000000D+00  0.000000D+00
    380   0.000000D+00  0.000000D+00  0.000000D+00  0.000000D+00  0.000000D+00
    381   0.000000D+00  0.000000D+00  0.000000D+00  0.000000D+00  0.000000D+00
    382   0.000000D+00  0.000000D+00  0.000000D+00  0.000000D+00  0.000000D+00
    383   0.000000D+00  0.000000D+00  0.000000D+00  0.000000D+00  0.000000D+00
    384   0.000000D+00  0.000000D+00  0.000000D+00  0.000000D+00  0.000000D+00
    385   0.000000D+00  0.000000D+00  0.932503D-05  0.000000D+00  0.000000D+00
    386   0.000000D+00  0.000000D+00  0.000000D+00  0.932503D-05  0.000000D+00
    387   0.105770D-04  0.142990D-03  0.000000D+00  0.000000D+00 -0.174223D-03
    388   0.000000D+00  0.000000D+00  0.676708D-03  0.000000D+00  0.000000D+00
    389   0.000000D+00  0.000000D+00  0.000000D+00  0.676708D-03  0.000000D+00
    390   0.140525D-02  0.991861D-02  0.000000D+00  0.000000D+00 -0.575486D-02
    391   0.000000D+00  0.000000D+00  0.339948D-02  0.000000D+00  0.000000D+00
    392   0.000000D+00  0.000000D+00  0.000000D+00  0.339948D-02  0.000000D+00
    393   0.779887D-02  0.493374D-01  0.000000D+00  0.000000D+00 -0.116785D-01
    394   0.000000D+00  0.000000D+00  0.432717D-02  0.000000D+00  0.000000D+00
    395   0.000000D+00  0.000000D+00  0.000000D+00  0.432717D-02  0.000000D+00
    396   0.100032D-01  0.627516D-01  0.000000D+00  0.000000D+00 -0.450759D-02
    397   0.000000D+00  0.000000D+00  0.000000D+00  0.000000D+00  0.000000D+00
    398   0.000000D+00  0.000000D+00  0.000000D+00  0.000000D+00  0.000000D+00
    399   0.000000D+00  0.000000D+00  0.000000D+00  0.000000D+00  0.000000D+00
    400   0.000000D+00  0.000000D+00  0.000000D+00  0.000000D+00  0.000000D+00
    401   0.000000D+00  0.000000D+00  0.000000D+00  0.000000D+00  0.000000D+00
    402   0.000000D+00  0.000000D+00  0.000000D+00  0.000000D+00  0.000000D+00
    403   0.000000D+00  0.000000D+00  0.000000D+00  0.000000D+00  0.000000D+00
    404   0.000000D+00  0.000000D+00  0.000000D+00  0.000000D+00  0.000000D+00
    405   0.000000D+00  0.000000D+00  0.000000D+00  0.000000D+00  0.000000D+00
    406   0.000000D+00  0.000000D+00  0.000000D+00  0.000000D+00  0.000000D+00
    407   0.000000D+00  0.000000D+00  0.000000D+00  0.000000D+00  0.000000D+00
    408   0.000000D+00  0.000000D+00  0.000000D+00  0.000000D+00  0.000000D+00
    409   0.000000D+00  0.000000D+00  0.000000D+00  0.000000D+00  0.000000D+00
    410   0.000000D+00  0.000000D+00  0.000000D+00  0.000000D+00  0.000000D+00
    411   0.000000D+00  0.000000D+00  0.000000D+00  0.000000D+00  0.000000D+00
    412   0.327305D-04  0.415094D-03  0.000000D+00  0.000000D+00 -0.491454D-03
    413   0.000000D+00  0.000000D+00  0.470618D-04  0.000000D+00  0.000000D+00
    414   0.000000D+00  0.000000D+00  0.000000D+00  0.470618D-04  0.000000D+00
    415   0.000000D+00  0.000000D+00  0.000000D+00  0.000000D+00  0.000000D+00
    416   0.000000D+00  0.000000D+00  0.000000D+00  0.000000D+00  0.000000D+00
    417   0.236529D-02  0.165718D-01  0.000000D+00  0.000000D+00 -0.979499D-02
    418   0.000000D+00  0.000000D+00  0.195967D-02  0.000000D+00  0.000000D+00
    419   0.000000D+00  0.000000D+00  0.000000D+00  0.195967D-02  0.000000D+00
    420   0.000000D+00  0.000000D+00  0.000000D+00  0.000000D+00  0.000000D+00
    421   0.000000D+00  0.000000D+00  0.000000D+00  0.000000D+00  0.000000D+00
    422   0.114098D-01  0.712408D-01  0.000000D+00  0.000000D+00 -0.171564D-01
    423   0.000000D+00  0.000000D+00  0.851275D-02  0.000000D+00  0.000000D+00
    424   0.000000D+00  0.000000D+00  0.000000D+00  0.851275D-02  0.000000D+00
    425   0.000000D+00  0.000000D+00  0.000000D+00  0.000000D+00  0.000000D+00
    426   0.000000D+00  0.000000D+00  0.000000D+00  0.000000D+00  0.000000D+00
    427   0.138814D-01  0.859446D-01  0.000000D+00  0.000000D+00 -0.470330D-02
    428   0.000000D+00  0.000000D+00  0.102779D-01  0.000000D+00  0.000000D+00
    429   0.000000D+00  0.000000D+00  0.000000D+00  0.102779D-01  0.000000D+00
    430   0.000000D+00  0.000000D+00  0.000000D+00  0.000000D+00  0.000000D+00
    431   0.000000D+00  0.000000D+00  0.000000D+00  0.000000D+00  0.000000D+00
    432   0.000000D+00  0.000000D+00  0.000000D+00  0.000000D+00  0.000000D+00
    433   0.000000D+00  0.000000D+00  0.000000D+00  0.000000D+00  0.000000D+00
    434   0.000000D+00  0.000000D+00  0.000000D+00  0.000000D+00  0.000000D+00
    435   0.000000D+00  0.000000D+00  0.000000D+00  0.000000D+00  0.000000D+00
    436   0.000000D+00  0.000000D+00  0.000000D+00  0.000000D+00  0.000000D+00
    437   0.000000D+00  0.000000D+00  0.000000D+00  0.000000D+00  0.000000D+00
    438   0.000000D+00  0.000000D+00  0.000000D+00  0.000000D+00  0.000000D+00
    439   0.000000D+00  0.000000D+00  0.000000D+00  0.000000D+00  0.000000D+00
    440   0.000000D+00  0.000000D+00  0.000000D+00  0.000000D+00  0.000000D+00
    441   0.000000D+00  0.000000D+00  0.000000D+00  0.000000D+00  0.000000D+00
    442   0.000000D+00  0.000000D+00  0.000000D+00  0.000000D+00  0.000000D+00
    443   0.000000D+00  0.000000D+00  0.000000D+00  0.000000D+00  0.000000D+00
    444   0.000000D+00  0.000000D+00  0.000000D+00  0.000000D+00  0.000000D+00
[...]

           Sum of intraorbital pair energies =    -0.167411 A.U.
           Sum of interorbital pair energies =    -0.513546 A.U.
                                                  ----------
                         Total pair energies =    -0.680957 A.U.

                         Single Excitations  =    -0.001613 A.U.

                          Total second order =    -0.682570 A.U.

                         E2(CBS) - E2(Dir) =      -0.005754 A.U.

 E2(CBS)=      -0.684918 CBS-Int=       0.002349 OIii=       3.163712

 **********************************************************************

            Population analysis using the SCF density.

 **********************************************************************

 Orbital symmetries:
       Occupied  (SG) (SG) (SG) (PI) (PI) (SG) (SG) (PI) (SG) (PI)
                 (SG) (?A) (?B) (?B) (?B) (?A) (?A) (?B) (?A)
       Virtual   (SG) (PI) (PI) (?B) (?B) (?B) (?B) (?B) (PI) (PI)
                 (?B) (PI) (PI) (?B) (?B) (?B) (?A) (?B) (?A) (?B)
                 (?A) (?A) (?B) (?B) (PI) (PI) (?B) (DLTA) (DLTA)
                 (?B) (?C) (?C) (?C) (?C) (?B) (?A) (?A) (?B) (?B)
                 (?A) (?A) (?B) (?B) (?B) (?B) (PI) (PI) (SG) (PHI)
                 (PHI) (SG) (PI) (PI) (?D) (?D) (?D) (?E) (?E)
                 (PI) (PI) (DLTA) (DLTA) (?C) (?C) (?C) (?F) (?C)
                 (?F) (?F) (?F) (PI) (SG) (PI) (PHI) (PHI) (?A)
                 (?A) (?G) (?A) (?G) (?G) (?A) (?G) (?G) (?E) (?E)
                 (?G) (PHI) (PHI) (SG) (SG) (?A) (?A) (?A) (?A)
                 (?H) (?H) (?I) (?I) (?I) (PHI) (PHI) (?J) (?J)
                 (PI) (?J) (PI) (?J) (?J) (?C) (?C) (?F) (?F) (?F)
                 (?C) (?C) (?F) (DLTA) (DLTA) (PI) (PI) (?E) (PHI)
                 (?E) (PHI) (?H) (?H) (PI) (PI) (PI) (PI) (?K)
                 (?K) (?K) (PHI) (PHI) (?E) (?E) (SG) (SG) (PI)
                 (PI) (?L) (?L) (?L) (?C) (?C) (?C) (?C) (DLTA)
                 (DLTA) (SG) (PI) (PI) (SG) (SG) (?H) (?H) (?L)
                 (?L) (?L) (?L) (?L) (PHI) (PHI) (SG) (PI) (PI)
                 (?L) (?L) (?L) (?L) (PI) (PI) (SG) (SG) (SG) (PI)
                 (PI) (SG) (PHI) (PHI) (DLTA) (DLTA) (PI) (PI)
                 (?H) (?H) (SG) (PHI) (PHI) (?L) (?L) (?L) (DLTA)
                 (DLTA) (PHI) (PHI) (?E) (?E) (PI) (PI) (?H) (?H)
                 (PI) (PI) (?L) (?L) (?L) (?L) (?L) (SG) (?L) (?L)
                 (?L) (?C) (?C) (?C) (?C) (?E) (?E) (PI) (PI) (PHI)
                 (PHI) (SG) (?C) (?C) (?C) (?C) (?L) (?L) (PI)
                 (PI) (?H) (?H) (?L) (?E) (?E) (DLTA) (DLTA) (PHI)
                 (PHI) (?L) (?L) (SG) (SG) (?H) (?H) (SG) (?L)
                 (?L) (?L) (?A) (?A) (SG) (?A) (?E) (?E) (?A) (SG)
                 (PI) (PI) (SG) (?C) (?C) (DLTA) (DLTA) (?C) (?C)
                 (?E) (?E) (DLTA) (DLTA) (PHI) (PHI) (SG) (PI)
                 (PI) (PHI) (PHI) (DLTA) (DLTA) (SG) (SG) (DLTA)
                 (DLTA) (PI) (PI) (?L) (?L) (?L) (?L) (DLTA) (DLTA)
                 (?L) (?L) (?L) (?L) (?L) (?L) (?L) (?L) (?L) (SG)
                 (PI) (PI) (PI) (PI) (SG) (SG) (SG) (?H) (?H) (?L)
                 (?L) (?L) (?L) (?E) (?E) (?L) (?L) (?L) (?L) (?L)
                 (?L) (?L) (?L) (?L) (?E) (?E) (SG) (?L) (?L) (?L)
                 (?L) (DLTA) (DLTA) (PHI) (PHI) (SG) (DLTA) (DLTA)
                 (DLTA) (DLTA) (PI) (PI) (SG) (?A) (?A) (SG) (?A)
                 (?A) (?H) (?H) (SG) (?E) (?E) (PHI) (PHI) (PI)
                 (PI) (DLTA) (DLTA) (SG) (PI) (PI) (?E) (?E) (PHI)
                 (PHI) (PHI) (PHI) (SG) (DLTA) (DLTA) (PI) (PI)
                 (SG) (DLTA) (DLTA) (?L) (PI) (PI) (?L) (?L) (?L)
                 (?L) (?L) (?L) (?L) (?L) (?L) (?L) (?L) (?L) (?L)
                 (?L) (?L) (?L) (DLTA) (DLTA) (PI) (PI) (PI) (PI)
                 (PI) (PI) (SG) (SG) (SG) (SG) (PI) (PI) (PI) (PI)
                 (?E) (?E) (PHI) (PHI) (DLTA) (DLTA) (SG) (PI)
                 (PI) (?L) (?L) (?L) (?L) (?L) (?L) (?L) (?L) (?L)
                 (?L) (?L) (PI) (PI) (SG) (?L) (?L) (?L) (?L) (?L)
                 (?L) (?L) (?L) (?L) (?L) (?L) (?L) (?L) (?L) (?L)
                 (DLTA) (DLTA) (PI) (PI) (PHI) (PHI) (?L) (?L)
                 (?L) (PI) (PI) (SG) (SG) (SG) (?H) (?H) (?E) (?E)
                 (PHI) (PHI) (DLTA) (DLTA) (SG) (PI) (PI) (?H)
                 (?H) (?E) (?E) (PI) (PI) (PHI) (PHI) (DLTA) (DLTA)
                 (PI) (PI) (SG) (SG) (PHI) (PHI) (DLTA) (DLTA)
                 (PI) (PI) (SG) (?E) (?E) (PHI) (PHI) (DLTA) (DLTA)
                 (?L) (?L) (?L) (?L) (?L) (?L) (?L) (?L) (?L) (?L)
                 (?L) (?L) (?L) (?L) (?L) (?L) (?L) (?L) (?L) (?L)
                 (DLTA) (DLTA) (PI) (PI) (SG) (PI) (PI) (SG) (?L)
                 (?L) (?L) (?L) (?L) (?L) (?L) (?L) (?L) (?L) (?L)
                 (?L) (?L) (?L) (?L) (DLTA) (DLTA) (PI) (PI) (SG)
                 (SG) (?L) (?L) (?L) (?L) (?L) (?L) (?L) (?L) (?L)
                 (?L) (?L) (?L) (?L) (?L) (?L) (?C) (?C) (?L) (?L)
                 (?C) (?C) (SG) (?L) (?L) (?L) (?L) (?L) (?L) (?L)
                 (?L) (?L) (?L) (?L) (PHI) (PHI) (DLTA) (DLTA)
                 (PI) (PI) (SG) (SG) (SG)
 Unable to determine electronic state:  an orbital has unidentified symmetry.
 Alpha  occ. eigenvalues -- -282.81069 -34.63051 -29.90633 -29.87550 -29.86758
 Alpha  occ. eigenvalues --  -20.21972  -4.31010  -2.83717  -2.81578  -2.76786
 Alpha  occ. eigenvalues --   -0.91530  -0.44563  -0.44174  -0.35952  -0.35881
 Alpha  occ. eigenvalues --   -0.20694  -0.13949  -0.13804  -0.07368
 Alpha virt. eigenvalues --    0.07686   0.15230   0.15283   0.15408   0.16863
 Alpha virt. eigenvalues --    0.16873   0.16888   0.20582   0.21232   0.21544
 Alpha virt. eigenvalues --    0.27445   0.29106   0.29266   0.35129   0.36818
 Alpha virt. eigenvalues --    0.38492   0.38527   0.38752   0.38853   0.40283
 Alpha virt. eigenvalues --    0.41661   0.42089   0.43604   0.58247   0.61653
 Alpha virt. eigenvalues --    0.61822   0.65150   0.68202   0.68203   0.73247
 Alpha virt. eigenvalues --    0.75115   0.75529   0.75795   0.75823   0.79384
 Alpha virt. eigenvalues --    0.79468   0.79620   0.82115   0.82612   0.82860
 Alpha virt. eigenvalues --    0.83121   0.86822   0.87488   0.89230   0.95907
 Alpha virt. eigenvalues --    1.03714   1.04143   1.12367   1.18015   1.18016
 Alpha virt. eigenvalues --    1.22996   1.31605   1.32017   1.36462   1.36467
 Alpha virt. eigenvalues --    1.38524   1.38624   1.38624   1.39308   1.39726
 Alpha virt. eigenvalues --    1.43526   1.43532   1.51305   1.51308   1.52646
 Alpha virt. eigenvalues --    1.52741   1.52986   1.54084   1.55034   1.55065
 Alpha virt. eigenvalues --    1.65204   1.65360   1.65414   1.71189   1.71191
 Alpha virt. eigenvalues --    1.79749   1.80078   1.83985   1.84898   1.85181
 Alpha virt. eigenvalues --    1.85675   1.85774   1.95977   1.96128   2.01489
 Alpha virt. eigenvalues --    2.01489   2.04565   2.27398   2.27398   2.38722
 Alpha virt. eigenvalues --    2.40902   2.42538   2.43085   2.45685   2.45826
 Alpha virt. eigenvalues --    2.51937   2.51937   2.55082   2.56007   2.56083
 Alpha virt. eigenvalues --    2.61409   2.61409   2.65022   2.65023   2.65094
 Alpha virt. eigenvalues --    2.65627   2.66319   2.71572   2.71592   2.85197
 Alpha virt. eigenvalues --    2.85914   2.91955   2.92040   2.93140   2.93964
 Alpha virt. eigenvalues --    2.93966   2.98046   3.00990   3.01006   3.03257
 Alpha virt. eigenvalues --    3.03756   3.23915   3.23916   3.23930   3.23930
 Alpha virt. eigenvalues --    3.27853   3.27853   3.39861   3.40243   3.47329
 Alpha virt. eigenvalues --    3.47510   3.47994   3.48054   3.48352   3.55322
 Alpha virt. eigenvalues --    3.55327   3.56151   3.56151   3.69118   3.74860
 Alpha virt. eigenvalues --    3.83014   3.83187   3.85644   3.88904   3.89236
 Alpha virt. eigenvalues --    4.14339   4.14666   4.16129   4.16134   4.26329
 Alpha virt. eigenvalues --    4.26622   4.39862   4.45187   4.45203   4.48839
 Alpha virt. eigenvalues --    4.48839   4.52429   4.52429   4.58099   4.61703
 Alpha virt. eigenvalues --    4.61950   4.63097   4.63098   4.69279   4.69280
 Alpha virt. eigenvalues --    4.69315   4.77644   4.79935   4.93837   4.93846
 Alpha virt. eigenvalues --    4.94853   4.94894   5.11725   5.12344   5.22365
 Alpha virt. eigenvalues --    5.24333   5.24333   5.24605   5.25177   5.28261
 Alpha virt. eigenvalues --    5.29177   5.29177   5.40547   5.40617   5.45372
 Alpha virt. eigenvalues --    5.45718   5.48251   5.48251   5.54285   5.58445
 Alpha virt. eigenvalues --    5.58448   5.63620   5.64202   5.64221   5.76848
 Alpha virt. eigenvalues --    5.76881   5.81134   5.81136   5.88607   5.88607
 Alpha virt. eigenvalues --    6.10412   6.10971   6.12809   6.12809   6.28396
 Alpha virt. eigenvalues --    6.28609   6.30842   6.37028   6.37030   6.49210
 Alpha virt. eigenvalues --    6.49327   6.64203   6.71300   6.73851   6.73882
 Alpha virt. eigenvalues --    6.83951   6.83968   6.88412   6.89036   6.98154
 Alpha virt. eigenvalues --    6.98154   7.07973   7.08337   7.15524   7.15529
 Alpha virt. eigenvalues --    7.45581   7.58440   7.58448   7.69750   7.70076
 Alpha virt. eigenvalues --    7.82962   7.83068   7.83398   7.83747   7.85067
 Alpha virt. eigenvalues --    7.85067   7.85313   7.88553   7.88553   8.04863
 Alpha virt. eigenvalues --    8.04956   8.06599   8.06601   8.07789   8.07789
 Alpha virt. eigenvalues --    8.10518   8.10518   8.32625   8.32625   8.58479
 Alpha virt. eigenvalues --    8.65828   8.66029   8.73271   8.77443   8.77478
 Alpha virt. eigenvalues --    8.85887   8.95973   8.96073   8.96073   8.98647
 Alpha virt. eigenvalues --    9.30149   9.31394   9.32088   9.66022   9.71853
 Alpha virt. eigenvalues --    9.71853   9.72133   9.72192   9.72594   9.73013
 Alpha virt. eigenvalues --    9.78691   9.78691   9.87302   9.87321  10.08961
 Alpha virt. eigenvalues --   10.08961  10.11142  10.36255  10.36269  10.39609
 Alpha virt. eigenvalues --   10.39610  10.54009  10.54040  10.76711  11.04644
 Alpha virt. eigenvalues --   11.12128  11.12146  11.21183  11.21528  11.35627
 Alpha virt. eigenvalues --   11.35627  11.40174  11.40174  11.41164  11.41220
 Alpha virt. eigenvalues --   11.45527  11.49400  11.49682  11.58134  11.58136
 Alpha virt. eigenvalues --   11.73215  11.73223  11.73580  11.73890  11.86765
 Alpha virt. eigenvalues --   12.32724  12.32825  12.62610  12.63141  12.72385
 Alpha virt. eigenvalues --   13.61991  13.61991  13.65622  13.65622  13.70632
 Alpha virt. eigenvalues --   13.70632  13.74712  13.74714  13.80623  13.80623
 Alpha virt. eigenvalues --   13.95451  13.95461  14.08020  14.08507  14.13344
 Alpha virt. eigenvalues --   14.33176  14.33200  14.40597  14.40968  14.45455
 Alpha virt. eigenvalues --   14.45455  14.51940  14.54055  14.54379  14.61984
 Alpha virt. eigenvalues --   14.61989  14.69125  14.69304  14.77673  14.77676
 Alpha virt. eigenvalues --   15.02843  15.26078  15.26500  16.04983  16.05202
 Alpha virt. eigenvalues --   16.05653  16.06584  16.45671  16.87579  16.88710
 Alpha virt. eigenvalues --   16.96177  17.23594  17.24849  17.39928  17.39928
 Alpha virt. eigenvalues --   17.45918  17.49202  17.49202  17.80622  17.80622
 Alpha virt. eigenvalues --   18.19205  18.19441  18.29318  18.29346  18.55882
 Alpha virt. eigenvalues --   19.31041  19.31293  20.14617  20.14617  20.28915
 Alpha virt. eigenvalues --   20.28915  20.46936  20.46936  20.49366  20.55896
 Alpha virt. eigenvalues --   20.55903  20.84958  20.85063  21.05446  21.12552
 Alpha virt. eigenvalues --   21.12570  21.79969  21.84675  21.84750  21.89396
 Alpha virt. eigenvalues --   21.89396  21.89881  21.89881  21.94792  21.94792
 Alpha virt. eigenvalues --   22.08938  22.08947  22.20843  22.25518  22.26094
 Alpha virt. eigenvalues --   22.27450  22.27454  22.39141  22.39479  22.50826
 Alpha virt. eigenvalues --   22.52830  22.52876  22.72787  22.72844  23.34611
 Alpha virt. eigenvalues --   23.34667  23.54990  23.55533  23.85392  25.35845
 Alpha virt. eigenvalues --   25.63243  25.63243  25.63442  25.63442  25.64098
 Alpha virt. eigenvalues --   25.64098  25.70740  25.70740  25.84772  25.84773
 Alpha virt. eigenvalues --   25.88436  25.88587  26.14309  26.32963  26.32986
 Alpha virt. eigenvalues --   26.91527  26.91527  26.92881  26.92882  27.00958
 Alpha virt. eigenvalues --   27.00960  27.14422  27.14434  27.54550  27.55276
 Alpha virt. eigenvalues --   27.55951  27.87077  27.87331  28.01263  30.14451
 Alpha virt. eigenvalues --   30.14453  30.15923  30.15929  30.31568  30.31613
 Alpha virt. eigenvalues --   30.34468  30.34470  30.54597  30.55450  30.56530
 Alpha virt. eigenvalues --   30.56564  30.64486  30.64753  30.74958  30.94166
 Alpha virt. eigenvalues --   30.94935  31.46036  31.47606  31.53991  31.53993
 Alpha virt. eigenvalues --   32.11768  32.12247  32.16072  33.06460  33.08424
 Alpha virt. eigenvalues --   33.24025  34.25322  34.25322  34.27117  34.27117
 Alpha virt. eigenvalues --   34.33466  34.33466  34.48208  34.48208  34.82848
 Alpha virt. eigenvalues --   34.82862  35.27218  35.29028  35.29282  39.22569
 Alpha virt. eigenvalues --   39.22569  39.28048  39.28048  39.40372  39.43749
 Alpha virt. eigenvalues --   39.45524  39.45524  39.71148  39.71153  39.78353
 Alpha virt. eigenvalues --   39.78473  39.84925  40.19365  41.91789  41.91789
 Alpha virt. eigenvalues --   42.24224  42.24227  42.75354  42.75539  42.90654
 Alpha virt. eigenvalues --   43.08574  43.08574  43.20854  43.20854  43.56501
 Alpha virt. eigenvalues --   43.56519  44.04116  44.04198  44.16015  44.27696
 Alpha virt. eigenvalues --   44.27697  44.28032  44.28085  44.31157  44.31158
 Alpha virt. eigenvalues --   44.32150  44.32521  44.33090  44.33614  44.35857
 Alpha virt. eigenvalues --   44.35857  44.36519  44.36520  44.46574  44.56845
 Alpha virt. eigenvalues --   44.56875  47.03008  47.03009  47.53964  47.54130
 Alpha virt. eigenvalues --   48.22346  53.13637  53.13803  55.35249  57.47187
 Alpha virt. eigenvalues --   57.47195  57.48002  57.48020  57.52548  57.52559
 Alpha virt. eigenvalues --   57.53963  57.54091  57.57001  57.57875  57.57966
 Alpha virt. eigenvalues --   57.57980  57.62645  57.64033  57.64861  58.19142
 Alpha virt. eigenvalues --   58.19774  59.02910  59.03627  59.56094  62.43546
 Alpha virt. eigenvalues --   64.44490  64.44502  64.44851  64.44864  64.49733
 Alpha virt. eigenvalues --   64.49755  64.51710  64.51745  64.58713  64.59710
 Alpha virt. eigenvalues --   64.70704  64.72940  64.74037  66.61626  66.61630
 Alpha virt. eigenvalues --   66.70876  66.70902  66.90656  66.91368  67.31093
 Alpha virt. eigenvalues --   67.32331  67.64777  68.53025  68.53032  68.53151
 Alpha virt. eigenvalues --   68.53154  68.64608  68.64658  68.87178  68.88094
 Alpha virt. eigenvalues --   68.90869  68.91578  69.00178  70.82645  70.82658
 Alpha virt. eigenvalues --   71.14116  71.14668  71.82661  71.83684  72.17749
 Alpha virt. eigenvalues --  108.64145 743.48797
          Condensed to atoms (all electrons):
              1          2
     1  Co  27.585860  -1.631777
     2  O   -1.631777  11.677693
 Mulliken atomic charges:
              1
     1  Co   1.045916
     2  O   -2.045916
 Sum of Mulliken atomic charges =  -1.00000
 Mulliken charges with hydrogens summed into heavy atoms:
              1
     1  Co   1.045916
     2  O   -2.045916
 Sum of Mulliken charges with hydrogens summed into heavy atoms =  -1.00000
          Atomic-Atomic Spin Densities.
              1          2
     1  Co   3.147514  -1.858001
     2  O   -1.858001   2.568489
 Mulliken atomic spin densities:
              1
     1  Co   1.289512
     2  O    0.710488
 Sum of Mulliken atomic spin densities =   2.00000
 Electronic spatial extent (au):  <R**2>=            127.4099
 Charge=             -1.0000 electrons
 Dipole moment (field-independent basis, Debye):
    X=              0.0000    Y=              0.0000    Z=              3.4529  Tot=              3.4529
 Quadrupole moment (field-independent basis, Debye-Ang):
   XX=            -25.9328   YY=            -26.2628   ZZ=            -41.7647
   XY=              0.0000   XZ=              0.0000   YZ=              0.0000
 Traceless Quadrupole moment (field-independent basis, Debye-Ang):
   XX=              5.3873   YY=              5.0573   ZZ=            -10.4446
   XY=              0.0000   XZ=              0.0000   YZ=              0.0000
 Octapole moment (field-independent basis, Debye-Ang**2):
  XXX=              0.0000  YYY=              0.0000  ZZZ=             -9.5838  XYY=              0.0000
  XXY=              0.0000  XXZ=             -2.6380  XZZ=              0.0000  YZZ=              0.0000
  YYZ=             -2.4448  XYZ=              0.0000
 Hexadecapole moment (field-independent basis, Debye-Ang**3):
 XXXX=            -64.6659 YYYY=            -60.3952 ZZZZ=           -253.8187 XXXY=              0.0000
 XXXZ=              0.0000 YYYX=              0.0000 YYYZ=              0.0000 ZZZX=              0.0000
 ZZZY=              0.0000 XXYY=            -20.8703 XXZZ=            -51.1017 YYZZ=            -49.0951
 XXYZ=              0.0000 YYXZ=              0.0000 ZZXY=              0.0000
 N-N= 7.073160708876D+01 E-N=-5.413726525664D+03  KE= 2.180154171865D+03
                          Isotropic Fermi Contact Couplings
        Atom                 a.u.       MegaHertz       Gauss      10(-4) cm-1
     1  Co(59)             1.14837     607.44058     216.74990     202.62037
     2  O(17)              0.02182      -6.61285      -2.35963      -2.20581
 --------------------------------------------------------
       Center         ----  Spin Dipole Couplings  ----
                      3XX-RR        3YY-RR        3ZZ-RR
 --------------------------------------------------------
     1   Atom       -3.548761      1.464530      2.084231
     2   Atom       -0.148593      0.090281      0.058312
 --------------------------------------------------------
                        XY            XZ            YZ
 --------------------------------------------------------
     1   Atom        0.000000      0.000000      0.000000
     2   Atom        0.000000      0.000000      0.000000
 --------------------------------------------------------


 ---------------------------------------------------------------------------------
              Anisotropic Spin Dipole Couplings in Principal Axis System
 ---------------------------------------------------------------------------------

       Atom             a.u.   MegaHertz   Gauss  10(-4) cm-1        Axes

              Baa    -3.5488  -448.135  -159.906  -149.482  1.0000  0.0000  0.0000
     1 Co(59) Bbb     1.4645   184.940    65.991    61.689  0.0000  1.0000  0.0000
              Bcc     2.0842   263.195    93.914    87.792  0.0000  0.0000  1.0000
 
              Baa    -0.1486    10.752     3.837     3.587  1.0000  0.0000  0.0000
     2 O(17)  Bbb     0.0583    -4.219    -1.506    -1.407  0.0000  0.0000  1.0000
              Bcc     0.0903    -6.533    -2.331    -2.179  0.0000  1.0000  0.0000
 

 ---------------------------------------------------------------------------------


 Test job not archived.
 1\1\GINC-N37\SP\ROMP2-FC\Gen\Co1O1(1-,3)\GPETERSSON\13-Dec-2013\0\\# R
 OMP2 Gen GFinput Int=NoBasisTransform Guess=Read SCF=Symm IOP(3/32=2,5
 /6=8,9/33=1) Int(Grid=Ultrafine) CBSextrapolate(Nmin=25,MinPop)\\CoO- 
 3Sg\\-1,3\Co\O,1,1.616\\Version=EM64L-G09RevA.02\HF=-1456.1456621\MP2=
 -1456.8248261\E2(CBS)=-0.6849182\CBS-Int=-0.6825696\OIii=3.1637121\RMS
 D=4.884e-09\PG=C*V [C*(O1Co1)]\\@


 MARY HAD A LITTLE LAMB
      HIS FEET WERE BLACK AS SOOT,
           AND EVERYWHERE THAT MARY WENT
                HIS SOOTY FOOT HE PUT.

                    -- NONAME
 Job cpu time:  7 days  7 hours 42 minutes 14.0 seconds.
 File lengths (MBytes):  RWF=  69335 Int=      0 D2E=      0 Chk=     30 Scr=      1
 Normal termination of Gaussian 09 at Fri Dec 13 06:53:52 2013.
