 Entering Gaussian System, Link 0=g09
 AtFile(1): 7ZaPa-NR.gbs
 Initial command:
 /share/apps/gaussian/g09root/g09/l1.exe /localscratch/73762/Gau-15959.inp -scrdir=/localscratch/73762/
 Entering Link 1 = /share/apps/gaussian/g09root/g09/l1.exe PID=     15960.
  
 Copyright (c) 1988,1990,1992,1993,1995,1998,2003,2009, Gaussian, Inc.
                  All Rights Reserved.
  
 This is part of the Gaussian(R) 09 program.  It is based on
 the Gaussian(R) 03 system (copyright 2003, Gaussian, Inc.),
 the Gaussian(R) 98 system (copyright 1998, Gaussian, Inc.),
 the Gaussian(R) 94 system (copyright 1995, Gaussian, Inc.),
 the Gaussian 92(TM) system (copyright 1992, Gaussian, Inc.),
 the Gaussian 90(TM) system (copyright 1990, Gaussian, Inc.),
 the Gaussian 88(TM) system (copyright 1988, Gaussian, Inc.),
 the Gaussian 86(TM) system (copyright 1986, Carnegie Mellon
 University), and the Gaussian 82(TM) system (copyright 1983,
 Carnegie Mellon University). Gaussian is a federally registered
 trademark of Gaussian, Inc.
  
 This software contains proprietary and confidential information,
 including trade secrets, belonging to Gaussian, Inc.
  
 This software is provided under written license and may be
 used, copied, transmitted, or stored only in accord with that
 written license.
  
 The following legend is applicable only to US Government
 contracts under FAR:
  
                    RESTRICTED RIGHTS LEGEND
  
 Use, reproduction and disclosure by the US Government is
 subject to restrictions as set forth in subparagraphs (a)
 and (c) of the Commercial Computer Software - Restricted
 Rights clause in FAR 52.227-19.
  
 Gaussian, Inc.
 340 Quinnipiac St., Bldg. 40, Wallingford CT 06492
  
  
 ---------------------------------------------------------------
 Warning -- This program may not be used in any manner that
 competes with the business of Gaussian, Inc. or will provide
 assistance to any competitor of Gaussian, Inc.  The licensee
 of this program is prohibited from giving any competitor of
 Gaussian, Inc. access to this program.  By using this program,
 the user acknowledges that Gaussian, Inc. is engaged in the
 business of creating and licensing software in the field of
 computational chemistry and represents and warrants to the
 licensee that it is not a competitor of Gaussian, Inc. and that
 it will not use this program in any manner prohibited above.
 ---------------------------------------------------------------
  

 Cite this work as:
 Gaussian 09, Revision A.02,
 M. J. Frisch, G. W. Trucks, H. B. Schlegel, G. E. Scuseria, 
 M. A. Robb, J. R. Cheeseman, G. Scalmani, V. Barone, B. Mennucci, 
 G. A. Petersson, H. Nakatsuji, M. Caricato, X. Li, H. P. Hratchian, 
 A. F. Izmaylov, J. Bloino, G. Zheng, J. L. Sonnenberg, M. Hada, 
 M. Ehara, K. Toyota, R. Fukuda, J. Hasegawa, M. Ishida, T. Nakajima, 
 Y. Honda, O. Kitao, H. Nakai, T. Vreven, J. A. Montgomery, Jr., 
 J. E. Peralta, F. Ogliaro, M. Bearpark, J. J. Heyd, E. Brothers, 
 K. N. Kudin, V. N. Staroverov, R. Kobayashi, J. Normand, 
 K. Raghavachari, A. Rendell, J. C. Burant, S. S. Iyengar, J. Tomasi, 
 M. Cossi, N. Rega, J. M. Millam, M. Klene, J. E. Knox, J. B. Cross, 
 V. Bakken, C. Adamo, J. Jaramillo, R. Gomperts, R. E. Stratmann, 
 O. Yazyev, A. J. Austin, R. Cammi, C. Pomelli, J. W. Ochterski, 
 R. L. Martin, K. Morokuma, V. G. Zakrzewski, G. A. Voth, 
 P. Salvador, J. J. Dannenberg, S. Dapprich, A. D. Daniels, 
 O. Farkas, J. B. Foresman, J. V. Ortiz, J. Cioslowski, 
 and D. J. Fox, Gaussian, Inc., Wallingford CT, 2009.
 
 ******************************************
 Gaussian 09:  EM64L-G09RevA.02 11-Jun-2009
                15-Dec-2013 
 ******************************************
 % Mem=128GB
 % Nproc=16
 Will use up to   16 processors via shared memory.
 % Chk=CoO_4Delta.chk
 ----------------------------------------------------------------------
 # ROMP2 Gen GFinput Int=NoBasisTransform SCF=Symm IOP(3/32=2,5/6=8,9/3
 3=1) Guess=Read CBSextrapolate(Nmin=25,MinPop) Int(Grid=Ultrafine)
 ----------------------------------------------------------------------
 1/38=1/1;
 2/12=2,17=6,18=5,40=1/2;
 3/5=7,11=2,16=1,24=10,25=1,30=1,32=2,60=-1,75=-5,116=101/1,2,3;
 4/5=1,9=4/1;
 5/5=2,6=8,15=2,38=6/2;
 8/5=-1,10=1/1;
 9/16=-3,33=1,75=2,81=25,83=4/6,4;
 6/7=2,8=2,9=2,10=2/1;
 99/5=1,9=1/99;
 -------
 CoO 4/\
 -------
 Symbolic Z-matrix:
 Charge =  0 Multiplicity = 4
 Co
 O                    1    R
       Variables:
  R                     1.6                      
 
                          Input orientation:                          
 ---------------------------------------------------------------------
 Center     Atomic      Atomic             Coordinates (Angstroms)
 Number     Number       Type             X           Y           Z
 ---------------------------------------------------------------------
      1         27           0        0.000000    0.000000    0.000000
      2          8           0        0.000000    0.000000    1.600000
 ---------------------------------------------------------------------
 Stoichiometry    CoO(4)
 Framework group  C*V[C*(OCo)]
 Deg. of freedom     1
 Full point group                 C*V     NOp   4
 Largest Abelian subgroup         C2V     NOp   4
 Largest concise Abelian subgroup C1      NOp   1
                         Standard orientation:                         
 ---------------------------------------------------------------------
 Center     Atomic      Atomic             Coordinates (Angstroms)
 Number     Number       Type             X           Y           Z
 ---------------------------------------------------------------------
      1         27           0        0.000000    0.000000    0.365714
      2          8           0        0.000000    0.000000   -1.234286
 ---------------------------------------------------------------------
 Rotational constants (GHZ):      0.0000000     15.6920647     15.6920647
 General basis read from cards:  (5D, 7F)
 AO basis set in the form of general basis input (Overlap normalization):
      1 0
 S  18 1.00       0.000000000000
      0.4495614070D+08  0.4488200405D-06
      0.8558178660D+07  0.2751873153D-05
      0.1960655530D+07  0.1578253840D-04
      0.5264767680D+06  0.7275304373D-04
      0.1618003930D+06  0.2863159476D-03
      0.5571071220D+05  0.9824668118D-03
      0.2108640350D+05  0.3013325145D-02
      0.8627085680D+04  0.8405638482D-02
      0.3759253350D+04  0.2157103125D-01
      0.1722327390D+04  0.5093854919D-01
      0.8204791490D+03  0.1089658972D+00
      0.4025467070D+03  0.2024461857D+00
      0.2017701030D+03  0.2991155345D+00
      0.1026260340D+03  0.2932703355D+00
      0.5267420800D+02  0.1398555271D+00
      0.2715855300D+02  0.1963710841D-01
      0.1401517100D+02  0.1310472454D-02
      0.7217928000D+01 -0.5619254961D-06
 S  16 1.00       0.000000000000
      0.5571071220D+05 -0.3507844807D-06
      0.2108640350D+05 -0.3079786286D-05
      0.8627085680D+04 -0.2223545171D-04
      0.3759253350D+04 -0.1343594696D-03
      0.1722327390D+04 -0.6999104424D-03
      0.8204791490D+03 -0.3196441226D-02
      0.4025467070D+03 -0.1245284939D-01
      0.2017701030D+03 -0.3945729300D-01
      0.1026260340D+03 -0.8326928475D-01
      0.5267420800D+02 -0.5643109525D-01
      0.2715855300D+02  0.1919156070D+00
      0.1401517100D+02  0.5133363994D+00
      0.7217928000D+01  0.3688272266D+00
      0.3701266000D+01  0.6317262205D-01
      0.1886308000D+01  0.3286077241D-02
      0.9539760000D+00 -0.1835823135D-02
 P  17 1.00       0.000000000000
      0.1114342130D+06  0.1877650493D-05
      0.2648164840D+05  0.1756948013D-04
      0.8306216960D+04  0.1097707973D-03
      0.3159766870D+04  0.4998734549D-03
      0.1367471620D+04  0.1869582542D-02
      0.6429362610D+03  0.6102220553D-02
      0.3183728100D+03  0.1792736742D-01
      0.1629718070D+03  0.4733555013D-01
      0.8545664800D+02  0.1088210107D+00
      0.4579767500D+02  0.2026777508D+00
      0.2512881500D+02  0.2887759474D+00
      0.1415984200D+02  0.2853637170D+00
      0.8207103000D+01  0.1675277217D+00
      0.4879945000D+01  0.5402095259D-01
      0.2948108000D+01  0.8787845932D-02
      0.1774792000D+01  0.1093100987D-02
      0.1031244000D+01  0.7670035794D-05
 S  11 1.00       0.000000000000
      0.2017701030D+03  0.2167522011D-03
      0.1026260340D+03  0.1718749411D-02
      0.5267420800D+02  0.2436585373D-02
      0.2715855300D+02 -0.1069585345D-01
      0.1401517100D+02 -0.1206649913D+00
      0.7217928000D+01 -0.1962449295D+00
      0.3701266000D+01  0.1527506707D+00
      0.1886308000D+01  0.5475410348D+00
      0.9539760000D+00  0.4310951808D+00
      0.4781220000D+00  0.8628082524D-01
      0.2371600000D+00  0.2228069243D-02
 P  13 1.00       0.000000000000
      0.3183728100D+03  0.9028706211D-04
      0.1629718070D+03  0.4567718733D-03
      0.8545664800D+02  0.2211232660D-02
      0.4579767500D+02  0.6752388945D-02
      0.2512881500D+02  0.1482749266D-01
      0.1415984200D+02  0.1818471924D-01
      0.8207103000D+01 -0.3062909367D-01
      0.4879945000D+01 -0.1444203591D+00
      0.2948108000D+01 -0.2591161725D+00
      0.1774792000D+01 -0.3070004152D+00
      0.1031244000D+01 -0.2661596044D+00
      0.5516760000D+00 -0.1169453905D+00
      0.2545520000D+00 -0.1274044568D-01
 D  16 1.00       0.000000000000
      0.2920676070D+04  0.3761752289D-05
      0.9130011660D+03  0.3889466519D-04
      0.3494109600D+03  0.2640311349D-03
      0.1545328270D+03  0.1272104230D-02
      0.7550254000D+02  0.4805463938D-02
      0.3938731500D+02  0.1445145680D-01
      0.2140062800D+02  0.3559422339D-01
      0.1190368100D+02  0.7691111837D-01
      0.6701656000D+01  0.1405795310D+00
      0.3791460000D+01  0.2039088039D+00
      0.2145419000D+01  0.2394788379D+00
      0.1209487000D+01  0.2379099199D+00
      0.6760580000D+00  0.2003868899D+00
      0.3719150000D+00  0.1342487500D+00
      0.1990210000D+00  0.5718018828D-01
      0.1017820000D+00  0.8648433937D-02
 D   1 1.00       0.000000000000
      0.7107764434D-01  0.1000000000D+01
 D   1 1.00       0.000000000000
      0.2034100000D-01  0.1000000000D+01
 S  10 1.00       0.000000000000
      0.2715855300D+02 -0.5071434693D-05
      0.1401517100D+02  0.1575823675D-02
      0.7217928000D+01  0.4121569409D-02
      0.3701266000D+01 -0.7493998091D-02
      0.1886308000D+01 -0.3998091727D-01
      0.9539760000D+00 -0.1230952203D+00
      0.4781220000D+00 -0.1263279285D+00
      0.2371600000D+00  0.2419982032D+00
      0.1162580000D+00  0.6553445906D+00
      0.5622800000D-01  0.2910369314D+00
 S   1 1.00       0.000000000000
      0.4753025279D-01  0.1000000000D+01
 S   1 1.00       0.000000000000
      0.1732900000D-01  0.1000000000D+01
 S   1 1.00       0.000000000000
      0.4892000000D-02  0.1000000000D+01
 P  10 1.00       0.000000000000
      0.2512881500D+02  0.1485557405D-02
      0.1415984200D+02 -0.3175358145D-02
      0.8207103000D+01  0.8578319695D-02
      0.4879945000D+01 -0.3246560216D-01
      0.2948108000D+01  0.2289291496D-01
      0.1774792000D+01 -0.8444524284D-01
      0.1031244000D+01  0.4074610143D-01
      0.5516760000D+00 -0.3016558609D-01
      0.2545520000D+00  0.5071167622D+00
      0.9177657290D-01  0.5894174229D+00
 P   1 1.00       0.000000000000
      0.1317265368D+00  0.1000000000D+01
 P   1 1.00       0.000000000000
      0.5203700000D-01  0.1000000000D+01
 S   1 1.00       0.000000000000
      0.9471928000D+01  0.1000000000D+01
 S   1 1.00       0.000000000000
      0.4686355000D+01  0.1000000000D+01
 S   1 1.00       0.000000000000
      0.2318633000D+01  0.1000000000D+01
 S   1 1.00       0.000000000000
      0.1147173000D+01  0.1000000000D+01
 S   1 1.00       0.000000000000
      0.5675780000D+00  0.1000000000D+01
 S   1 1.00       0.000000000000
      0.2808160000D+00  0.1000000000D+01
 P   1 1.00       0.000000000000
      0.3258975000D+01  0.1000000000D+01
 P   1 1.00       0.000000000000
      0.1961923000D+01  0.1000000000D+01
 P   1 1.00       0.000000000000
      0.1181090000D+01  0.1000000000D+01
 P   1 1.00       0.000000000000
      0.7110240000D+00  0.1000000000D+01
 P   1 1.00       0.000000000000
      0.4280410000D+00  0.1000000000D+01
 P   1 1.00       0.000000000000
      0.2576830000D+00  0.1000000000D+01
 D   1 1.00       0.000000000000
      0.7734232000D+01  0.1000000000D+01
 D   1 1.00       0.000000000000
      0.3615824000D+01  0.1000000000D+01
 D   1 1.00       0.000000000000
      0.1690431000D+01  0.1000000000D+01
 D   1 1.00       0.000000000000
      0.7902920000D+00  0.1000000000D+01
 D   1 1.00       0.000000000000
      0.3694690000D+00  0.1000000000D+01
 D   1 1.00       0.000000000000
      0.1727300000D+00  0.1000000000D+01
 F   1 1.00       0.000000000000
      0.1628823600D+02  0.1000000000D+01
 F   1 1.00       0.000000000000
      0.7536234000D+01  0.1000000000D+01
 F   1 1.00       0.000000000000
      0.3486862000D+01  0.1000000000D+01
 F   1 1.00       0.000000000000
      0.1613300000D+01  0.1000000000D+01
 F   1 1.00       0.000000000000
      0.7464410000D+00  0.1000000000D+01
 F   1 1.00       0.000000000000
      0.3453630000D+00  0.1000000000D+01
 F   1 1.00       0.000000000000
      0.1597920000D+00  0.1000000000D+01
 G   1 1.00       0.000000000000
      0.1221388900D+02  0.1000000000D+01
 G   1 1.00       0.000000000000
      0.5635064000D+01  0.1000000000D+01
 G   1 1.00       0.000000000000
      0.2599823000D+01  0.1000000000D+01
 G   1 1.00       0.000000000000
      0.1199468000D+01  0.1000000000D+01
 G   1 1.00       0.000000000000
      0.5533930000D+00  0.1000000000D+01
 G   1 1.00       0.000000000000
      0.2553160000D+00  0.1000000000D+01
 H   1 1.00       0.000000000000
      0.1073697700D+02  0.1000000000D+01
 H   1 1.00       0.000000000000
      0.4722475000D+01  0.1000000000D+01
 H   1 1.00       0.000000000000
      0.2077100000D+01  0.1000000000D+01
 H   1 1.00       0.000000000000
      0.9135770000D+00  0.1000000000D+01
 H   1 1.00       0.000000000000
      0.4018210000D+00  0.1000000000D+01
 I   1 1.00       0.000000000000
      0.8841462000D+01  0.1000000000D+01
 I   1 1.00       0.000000000000
      0.3652520000D+01  0.1000000000D+01
 I   1 1.00       0.000000000000
      0.1508902000D+01  0.1000000000D+01
 I   1 1.00       0.000000000000
      0.6233460000D+00  0.1000000000D+01
 J   1 1.00       0.000000000000
      0.7027877000D+01  0.1000000000D+01
 J   1 1.00       0.000000000000
      0.2632307000D+01  0.1000000000D+01
 J   1 1.00       0.000000000000
      0.9859360000D+00  0.1000000000D+01
 K   1 1.00       0.000000000000
      0.4974012302D+01  0.1000000000D+01
 ****
      2 0
 S  16 1.00       0.000000000000
      0.1411246410D+07  0.1627429822D-05
      0.2499102240D+06  0.1092621996D-04
      0.5603410580D+05  0.6238741867D-04
      0.1521153640D+05  0.2783303491D-03
      0.4812287750D+04  0.1040541872D-02
      0.1717755460D+04  0.3380392793D-02
      0.6733958240D+03  0.9828484765D-02
      0.2835101840D+03  0.2605310129D-01
      0.1258620070D+03  0.6280818057D-01
      0.5804472200D+02  0.1348202075D+00
      0.2747198500D+02  0.2435563460D+00
      0.1321062900D+02  0.3323287378D+00
      0.6399806000D+01  0.2607930483D+00
      0.3099614000D+01  0.7430834326D-01
      0.1489856000D+01  0.4189538074D-02
      0.7052010000D+00  0.8706455725D-03
 S  11 1.00       0.000000000000
      0.2835101840D+03 -0.1122588094D-03
      0.1258620070D+03 -0.5559335617D-03
      0.5804472200D+02 -0.2851687904D-02
      0.2747198500D+02 -0.1133494995D-01
      0.1321062900D+02 -0.3657977704D-01
      0.6399806000D+01 -0.7288994197D-01
      0.3099614000D+01 -0.1062032356D-01
      0.1489856000D+01  0.2196705572D+00
      0.7052010000D+00  0.4294832072D+00
      0.3258480000D+00  0.3775832849D+00
      0.1454600000D+00  0.9640261255D-01
 S   1 1.00       0.000000000000
      0.5814297870D-01  0.1000000000D+01
 P  13 1.00       0.000000000000
      0.2085279200D+04  0.1447911740D-04
      0.5101470830D+03  0.1283233588D-03
      0.1616811510D+03  0.7792790007D-03
      0.6114945200D+02  0.3400506049D-02
      0.2597660200D+02  0.1157685214D-01
      0.1187542600D+02  0.3269740339D-01
      0.5677133000D+01  0.8011404242D-01
      0.2786475000D+01  0.1605265057D+00
      0.1387844000D+01  0.2460495026D+00
      0.6952810000D+00  0.2898982926D+00
      0.3470020000D+00  0.2606799382D+00
      0.1700990000D+00  0.1479363112D+00
      0.8008000000D-01  0.2980261453D-01
 P   1 1.00       0.000000000000
      0.4261436033D-01  0.1000000000D+01
 S   1 1.00       0.000000000000
      0.4249866000D+01  0.1000000000D+01
 S   1 1.00       0.000000000000
      0.2167470000D+01  0.1000000000D+01
 S   1 1.00       0.000000000000
      0.1105429000D+01  0.1000000000D+01
 S   1 1.00       0.000000000000
      0.5637790000D+00  0.1000000000D+01
 S   1 1.00       0.000000000000
      0.2875320000D+00  0.1000000000D+01
 S   1 1.00       0.000000000000
      0.1466440000D+00  0.1000000000D+01
 P   1 1.00       0.000000000000
      0.5659724000D+01  0.1000000000D+01
 P   1 1.00       0.000000000000
      0.2575878000D+01  0.1000000000D+01
 P   1 1.00       0.000000000000
      0.1172344000D+01  0.1000000000D+01
 P   1 1.00       0.000000000000
      0.5335620000D+00  0.1000000000D+01
 P   1 1.00       0.000000000000
      0.2428370000D+00  0.1000000000D+01
 P   1 1.00       0.000000000000
      0.1105210000D+00  0.1000000000D+01
 D   1 1.00       0.000000000000
      0.9464211000D+01  0.1000000000D+01
 D   1 1.00       0.000000000000
      0.4752286000D+01  0.1000000000D+01
 D   1 1.00       0.000000000000
      0.2386276000D+01  0.1000000000D+01
 D   1 1.00       0.000000000000
      0.1198226000D+01  0.1000000000D+01
 D   1 1.00       0.000000000000
      0.6016680000D+00  0.1000000000D+01
 D   1 1.00       0.000000000000
      0.3021170000D+00  0.1000000000D+01
 D   1 1.00       0.000000000000
      0.1517020000D+00  0.1000000000D+01
 F   1 1.00       0.000000000000
      0.7001836000D+01  0.1000000000D+01
 F   1 1.00       0.000000000000
      0.3552509000D+01  0.1000000000D+01
 F   1 1.00       0.000000000000
      0.1802430000D+01  0.1000000000D+01
 F   1 1.00       0.000000000000
      0.9144960000D+00  0.1000000000D+01
 F   1 1.00       0.000000000000
      0.4639860000D+00  0.1000000000D+01
 F   1 1.00       0.000000000000
      0.2354110000D+00  0.1000000000D+01
 G   1 1.00       0.000000000000
      0.6472481000D+01  0.1000000000D+01
 G   1 1.00       0.000000000000
      0.3119071000D+01  0.1000000000D+01
 G   1 1.00       0.000000000000
      0.1503072000D+01  0.1000000000D+01
 G   1 1.00       0.000000000000
      0.7243260000D+00  0.1000000000D+01
 G   1 1.00       0.000000000000
      0.3490500000D+00  0.1000000000D+01
 H   1 1.00       0.000000000000
      0.5355083000D+01  0.1000000000D+01
 H   1 1.00       0.000000000000
      0.2414696000D+01  0.1000000000D+01
 H   1 1.00       0.000000000000
      0.1088827000D+01  0.1000000000D+01
 H   1 1.00       0.000000000000
      0.4909703000D+00  0.1000000000D+01
 I   1 1.00       0.000000000000
      0.4322113000D+01  0.1000000000D+01
 I   1 1.00       0.000000000000
      0.1716263000D+01  0.1000000000D+01
 I   1 1.00       0.000000000000
      0.6815089000D+00  0.1000000000D+01
 J   1 1.00       0.000000000000
      0.3060973723D+01  0.1000000000D+01
 ****

 There are   208 symmetry adapted basis functions of A1  symmetry.
 There are   106 symmetry adapted basis functions of A2  symmetry.
 There are   151 symmetry adapted basis functions of B1  symmetry.
 There are   151 symmetry adapted basis functions of B2  symmetry.
 Integral buffers will be    131072 words long.
 Raffenetti 2 integral format.
 Two-electron integral symmetry is turned on.
   616 basis functions,  1357 primitive gaussians,  1044 cartesian basis functions
    19 alpha electrons       16 beta electrons
       nuclear repulsion energy        71.4389231596 Hartrees.
 NAtoms=    2 NActive=    2 NUniq=    2 SFac= 7.50D-01 NAtFMM=   80 NAOKFM=F Big=F
 One-electron integrals computed using PRISM.
 NBasis=   616 RedAO= F  NBF=   208   106   151   151
 NBsUse=   616 1.00D-04 NBFU=   208   106   151   151
 Initial guess read from the checkpoint file:  CoO_4Delta.chk
 B after Tr=     0.000000    0.000000    0.000000
         Rot=    1.000000    0.000000    0.000000    0.000000 Ang=   0.00 deg.
 Initial guess orbital symmetries:
       Occupied  (SG) (SG) (SG) (PI) (PI) (SG) (SG) (PI) (PI) (SG)
                 (SG) (DLTA) (DLTA) (SG) (PI) (PI) (SG) (PI) (PI)
       Virtual   (SG) (SG) (PI) (PI) (SG) (DLTA) (DLTA) (PI) (PI)
                 (SG) (SG) (SG) (PI) (PI) (PI) (PI) (DLTA) (DLTA)
                 (SG) (PI) (PI) (SG) (SG) (SG) (DLTA) (DLTA) (PI)
                 (PI) (SG) (PI) (PI) (SG) (PHI) (PHI) (DLTA) (DLTA)
                 (PI) (PI) (PI) (PI) (SG) (DLTA) (DLTA) (SG) (PI)
                 (PI) (SG) (SG) (SG) (PI) (PI) (DLTA) (DLTA) (SG)
                 (PI) (PI) (SG) (PHI) (PHI) (DLTA) (DLTA) (PI)
                 (PI) (SG) (PI) (PI) (SG) (DLTA) (DLTA) (SG) (PI)
                 (PI) (PHI) (PHI) (DLTA) (DLTA) (PI) (PI) (PI)
                 (PI) (SG) (SG) (DLTA) (DLTA) (SG) (PI) (PI) (SG)
                 (SG) (DLTA) (DLTA) (PHI) (PHI) (PI) (PI) (?A)
                 (?A) (SG) (DLTA) (DLTA) (PHI) (PHI) (PI) (PI)
                 (SG) (SG) (SG) (PI) (PI) (SG) (SG) (PI) (PI) (DLTA)
                 (DLTA) (SG) (PI) (PI) (DLTA) (DLTA) (SG) (PI)
                 (PI) (SG) (SG) (SG) (PI) (PI) (SG) (PI) (PI) (SG)
                 (PI) (PI) (SG) (SG) (SG) (SG) (SG) (PI) (PI) (SG)
                 (PI) (PI) (SG) (PI) (PI) (SG) (PI) (PI) (SG) (PI)
                 (PI) (SG) (PI) (PI) (SG) (SG) (PI) (PI) (DLTA)
                 (DLTA) (SG) (PI) (PI) (DLTA) (DLTA) (DLTA) (DLTA)
                 (PI) (PI) (DLTA) (DLTA) (SG) (PI) (PI) (DLTA)
                 (DLTA) (SG) (PI) (PI) (DLTA) (DLTA) (PHI) (PHI)
                 (SG) (PI) (PI) (DLTA) (DLTA) (PHI) (PHI) (SG)
                 (PI) (PI) (DLTA) (DLTA) (PHI) (PHI) (SG) (PI)
                 (PI) (DLTA) (DLTA) (PHI) (PHI) (SG) (PI) (PI)
                 (DLTA) (DLTA) (PHI) (PHI) (PI) (PI) (DLTA) (DLTA)
                 (PHI) (PHI) (SG) (PI) (PI) (DLTA) (DLTA) (PHI)
                 (PHI) (?A) (?A) (SG) (PI) (PI) (DLTA) (DLTA) (PHI)
                 (PHI) (?A) (?A) (SG) (PI) (PI) (DLTA) (DLTA) (PHI)
                 (PHI) (?A) (?A) (DLTA) (DLTA) (PHI) (PHI) (?A)
                 (?A) (SG) (PI) (PI) (DLTA) (DLTA) (PHI) (PHI)
                 (?A) (?A) (SG) (PI) (PI) (DLTA) (DLTA) (PHI) (PHI)
                 (?A) (?A) (SG) (PI) (PI) (DLTA) (DLTA) (PHI) (PHI)
                 (?A) (?A) (?B) (?B) (SG) (PI) (PI) (DLTA) (DLTA)
                 (PHI) (PHI) (?A) (?A) (?B) (?B) (SG) (PI) (PI)
                 (DLTA) (DLTA) (PHI) (PHI) (?A) (?A) (?B) (?B)
                 (SG) (PI) (PI) (DLTA) (DLTA) (PHI) (PHI) (?A)
                 (?A) (?B) (?B) (SG) (PI) (PI) (DLTA) (DLTA) (PHI)
                 (PHI) (?A) (?A) (?B) (?B) (SG) (PI) (PI) (DLTA)
                 (DLTA) (PHI) (PHI) (?A) (?A) (?B) (?B) (SG) (SG)
                 (SG) (PI) (PI) (DLTA) (DLTA) (PHI) (PHI) (?A)
                 (?A) (?B) (?B) (SG) (SG) (SG) (PI) (PI) (DLTA)
                 (DLTA) (PHI) (PHI) (?A) (?A) (?B) (?B) (SG) (SG)
                 (SG) (PI) (PI) (DLTA) (DLTA) (PHI) (PHI) (?A)
                 (?A) (?B) (?B) (SG) (SG) (SG) (PI) (PI) (DLTA)
                 (DLTA) (PHI) (PHI) (?A) (?A) (?B) (?B) (SG) (SG)
                 (?C) (?C) (SG) (PI) (PI) (DLTA) (DLTA) (PHI) (PHI)
                 (?A) (?A) (?B) (?B) (SG) (SG) (?C) (?C) (SG) (PI)
                 (PI) (DLTA) (DLTA) (PHI) (PHI) (?A) (?A) (?B)
                 (?B) (SG) (SG) (?C) (?C) (SG) (PI) (PI) (DLTA)
                 (DLTA) (PHI) (PHI) (?A) (?A) (?B) (?B) (SG) (SG)
                 (?C) (?C) (?D) (?D) (SG) (SG) (PI) (PI) (SG) (SG)
                 (SG) (PI) (PI) (SG) (PI) (PI) (SG) (PI) (PI) (DLTA)
                 (DLTA) (SG) (PI) (PI) (DLTA) (DLTA) (PI) (PI)
                 (DLTA) (DLTA) (SG) (DLTA) (DLTA) (SG) (PI) (PI)
                 (DLTA) (DLTA) (PHI) (PHI) (SG) (PI) (PI) (DLTA)
                 (DLTA) (PHI) (PHI) (PI) (PI) (DLTA) (DLTA) (PHI)
                 (PHI) (DLTA) (DLTA) (PHI) (PHI) (PHI) (PHI) (PHI)
                 (PHI) (SG) (PI) (PI) (DLTA) (DLTA) (PHI) (PHI)
                 (?A) (?A) (SG) (PI) (PI) (DLTA) (DLTA) (PHI) (PHI)
                 (?A) (?A) (SG) (PI) (PI) (DLTA) (DLTA) (PHI) (PHI)
                 (?A) (?A) (SG) (PI) (PI) (DLTA) (DLTA) (PHI) (PHI)
                 (?A) (?A) (DLTA) (DLTA) (PHI) (PHI) (?A) (?A)
                 (SG) (PI) (PI) (DLTA) (DLTA) (PHI) (PHI) (?A)
                 (?A) (?B) (?B) (DLTA) (DLTA) (PHI) (PHI) (?A)
                 (?A) (?B) (?B) (PHI) (PHI) (?A) (?A) (?B) (?B)
                 (?A) (?A) (?B) (?B) (PI) (PI) (DLTA) (DLTA) (PHI)
                 (PHI) (?A) (?A) (?B) (?B) (SG) (SG) (?A) (?A)
                 (?B) (?B) (SG) (SG) (?B) (?B) (SG) (SG) (?A) (?A)
                 (?B) (?B) (SG) (SG) (?C) (?C)
 Requested convergence on RMS density matrix=1.00D-08 within 128 cycles.
 Requested convergence on MAX density matrix=1.00D-06.
 Requested convergence on             energy=1.00D-06.
 No special actions if energy rises.
 EnCoef did    15 forward-backward iterations
 Rare condition: small coef for last iteration:  0.888D-15
 EnCoef did     7 forward-backward iterations
 EnCoef did     3 forward-backward iterations
 EnCoef did     3 forward-backward iterations
 Restarting incremental Fock formation.
 SCF Done:  E(ROHF) =  -1456.16128228     A.U. after   24 cycles
             Convg  =    0.2073D-08             -V/T =  1.9999
 <Sx>= 0.0000 <Sy>= 0.0000 <Sz>= 1.5000 <S**2>= 3.7500 S= 1.5000
 <L.S>= 0.000000000000E+00
 Annihilation of the first spin contaminant:
 S**2 before annihilation     3.7500,   after     3.7500
 DiagDN has N=   616 LTot=  1880 but NE2=     3 cannot use DSYEVD.
 GenMOA:  NOpAll=  4 NOp2=4 NOpUse=  4 JSym2X=1
 <Sx>= 0.0000 <Sy>= 0.0000 <Sz>= 1.5000 <S**2>= 3.7500 S= 1.5000
 ExpMin= 4.89D-03 ExpMax= 4.50D+07 ExpMxC= 3.76D+03 IAcc=3 IRadAn=         5 AccDes= 0.00D+00
 HarFok:  IExCor=  205 AccDes= 0.00D+00 IRadAn=         5 IDoV=-2
 ScaDFX=  1.000000  1.000000  1.000000  1.000000
 Range of M.O.s used for correlation:    11   616
 NBasis=   616 NAE=    19 NBE=    16 NFC=    10 NFV=     0
 NROrb=    606 NOA=     9 NOB=     6 NVA=   597 NVB=   600

 **** Warning!!: The largest alpha MO coefficient is  0.31180591D+03


 **** Warning!!: The largest beta MO coefficient is  0.31180528D+03

 Singles contribution to E2=   -0.5117535403D-02
 Disk-based method using OVN memory for  9 occupieds at a time.
 Permanent disk used for amplitudes and <ij||ab> integrals=    56885832 words.
 Estimated scratch disk usage=  9022746568 words.
 IUseRI=2 ITolRI= 6 IR12RI=0
 Actual    scratch disk usage=  8977627431 words.
 JobTyp=2 Pass  1:  I=   1 to   9 NPSUse= 16 ParTrn=T ParDer=T DoDerP=F.
 (rs|ai) integrals will be sorted in core.
 T,EIJ(AA): I=   1 J=   2      0.1352468E-03     -0.8835167E-03
 T,EIJ(AA): I=   1 J=   3      0.1352468E-03     -0.8835167E-03
 T,EIJ(AA): I=   1 J=   4      0.1411848E-03     -0.7377695E-03
 T,EIJ(AA): I=   1 J=   5      0.8185267E-04     -0.5026839E-03
 T,EIJ(AA): I=   1 J=   6      0.8185267E-04     -0.5026839E-03
 T,EIJ(AA): I=   1 J=   7      0.7123551E-03     -0.2990305E-02
 T,EIJ(AA): I=   1 J=   8      0.7616628E-03     -0.3317028E-02
 T,EIJ(AA): I=   1 J=   9      0.7616628E-03     -0.3317028E-02
 T,EIJ(AA): I=   2 J=   3      0.9812273E-03     -0.7047582E-02
 T,EIJ(AA): I=   2 J=   4      0.1368394E-02     -0.9359884E-02
 T,EIJ(AA): I=   2 J=   5      0.1116527E-02     -0.7513910E-02
 T,EIJ(AA): I=   2 J=   6      0.1116527E-02     -0.7513910E-02
 T,EIJ(AA): I=   2 J=   7      0.4070495E-03     -0.1917573E-02
 T,EIJ(AA): I=   2 J=   8      0.2205982E-03     -0.1020985E-02
 T,EIJ(AA): I=   2 J=   9      0.1211798E-03     -0.4925832E-03
 T,EIJ(AA): I=   3 J=   4      0.1368394E-02     -0.9359884E-02
 T,EIJ(AA): I=   3 J=   5      0.1116527E-02     -0.7513910E-02
 T,EIJ(AA): I=   3 J=   6      0.1116527E-02     -0.7513910E-02
 T,EIJ(AA): I=   3 J=   7      0.4070495E-03     -0.1917573E-02
 T,EIJ(AA): I=   3 J=   8      0.1211798E-03     -0.4925832E-03
 T,EIJ(AA): I=   3 J=   9      0.2205982E-03     -0.1020985E-02
 T,EIJ(AA): I=   4 J=   5      0.1094932E-02     -0.6191694E-02
 T,EIJ(AA): I=   4 J=   6      0.1094932E-02     -0.6191694E-02
 T,EIJ(AA): I=   4 J=   7      0.3927728E-03     -0.1583014E-02
 T,EIJ(AA): I=   4 J=   8      0.4783339E-03     -0.1832062E-02
 T,EIJ(AA): I=   4 J=   9      0.4783339E-03     -0.1832062E-02
 T,EIJ(AA): I=   5 J=   6      0.1883525E-02     -0.1248430E-01
 T,EIJ(AA): I=   5 J=   7      0.3349268E-03     -0.1485717E-02
 T,EIJ(AA): I=   5 J=   8      0.1903326E-03     -0.8518174E-03
 T,EIJ(AA): I=   5 J=   9      0.1903326E-03     -0.8518174E-03
 T,EIJ(AA): I=   6 J=   7      0.3349268E-03     -0.1485717E-02
 T,EIJ(AA): I=   6 J=   8      0.1903326E-03     -0.8518174E-03
 T,EIJ(AA): I=   6 J=   9      0.1903326E-03     -0.8518174E-03
 T,EIJ(AA): I=   7 J=   8      0.4064269E-02     -0.9740247E-02
 T,EIJ(AA): I=   7 J=   9      0.4064269E-02     -0.9740247E-02
 T,EIJ(AA): I=   8 J=   9      0.3653010E-02     -0.9920693E-02
 T,EIJ(AB): I=   1 J=   1      0.1964694E-02     -0.1274533E-01
 T,EIJ(AB): I=   1 J=   2      0.1092694E-03     -0.7414763E-03
 T,EIJ(AB): I=   1 J=   3      0.1092694E-03     -0.7414763E-03
 T,EIJ(AB): I=   1 J=   4      0.2155027E-02     -0.1098989E-01
 T,EIJ(AB): I=   1 J=   5      0.2221259E-02     -0.1131391E-01
 T,EIJ(AB): I=   1 J=   6      0.2221259E-02     -0.1131391E-01
 T,EIJ(AB): I=   2 J=   1      0.1977224E-03     -0.1212351E-02
 T,EIJ(AB): I=   2 J=   2      0.1580782E-02     -0.1072935E-01
 T,EIJ(AB): I=   2 J=   3      0.1580782E-02     -0.1072935E-01
 T,EIJ(AB): I=   2 J=   4      0.1108311E-02     -0.4325739E-02
 T,EIJ(AB): I=   2 J=   5      0.5605971E-03     -0.2015120E-02
 T,EIJ(AB): I=   2 J=   6      0.8534336E-03     -0.3286809E-02
 T,EIJ(AB): I=   3 J=   1      0.1977224E-03     -0.1212351E-02
 T,EIJ(AB): I=   3 J=   2      0.1580782E-02     -0.1072935E-01
 T,EIJ(AB): I=   3 J=   3      0.1580782E-02     -0.1072935E-01
 T,EIJ(AB): I=   3 J=   4      0.1108311E-02     -0.4325739E-02
 T,EIJ(AB): I=   3 J=   5      0.8534336E-03     -0.3286809E-02
 T,EIJ(AB): I=   3 J=   6      0.5605971E-03     -0.2015120E-02
 T,EIJ(AB): I=   4 J=   1      0.3912832E-03     -0.2342119E-02
 T,EIJ(AB): I=   4 J=   2      0.1788526E-02     -0.1043555E-01
 T,EIJ(AB): I=   4 J=   3      0.1788526E-02     -0.1043555E-01
 T,EIJ(AB): I=   4 J=   4      0.2811021E-02     -0.8865368E-02
 T,EIJ(AB): I=   4 J=   5      0.1265521E-02     -0.3808661E-02
 T,EIJ(AB): I=   4 J=   6      0.1265521E-02     -0.3808661E-02
 T,EIJ(AB): I=   5 J=   1      0.1060717E-03     -0.6019248E-03
 T,EIJ(AB): I=   5 J=   2      0.3151679E-02     -0.2081062E-01
 T,EIJ(AB): I=   5 J=   3      0.2079811E-02     -0.1329342E-01
 T,EIJ(AB): I=   5 J=   4      0.1108361E-02     -0.3852793E-02
 T,EIJ(AB): I=   5 J=   5      0.6145904E-03     -0.1958361E-02
 T,EIJ(AB): I=   5 J=   6      0.6145904E-03     -0.1958361E-02
 T,EIJ(AB): I=   6 J=   1      0.1060717E-03     -0.6019248E-03
 T,EIJ(AB): I=   6 J=   2      0.2079811E-02     -0.1329342E-01
 T,EIJ(AB): I=   6 J=   3      0.3151679E-02     -0.2081062E-01
 T,EIJ(AB): I=   6 J=   4      0.1108361E-02     -0.3852793E-02
 T,EIJ(AB): I=   6 J=   5      0.6145904E-03     -0.1958361E-02
 T,EIJ(AB): I=   6 J=   6      0.6145904E-03     -0.1958361E-02
 T,EIJ(AB): I=   7 J=   1      0.2077277E-02     -0.1057224E-01
 T,EIJ(AB): I=   7 J=   2      0.6683290E-03     -0.2431247E-02
 T,EIJ(AB): I=   7 J=   3      0.6683290E-03     -0.2431247E-02
 T,EIJ(AB): I=   7 J=   4      0.1019349E-01     -0.2491991E-01
 T,EIJ(AB): I=   7 J=   5      0.6086495E-02     -0.1460118E-01
 T,EIJ(AB): I=   7 J=   6      0.6086495E-02     -0.1460118E-01
 T,EIJ(AB): I=   8 J=   1      0.2221670E-02     -0.1166044E-01
 T,EIJ(AB): I=   8 J=   2      0.2647710E-03     -0.1133721E-02
 T,EIJ(AB): I=   8 J=   3      0.2647710E-03     -0.1133721E-02
 T,EIJ(AB): I=   8 J=   4      0.5362041E-02     -0.1420265E-01
 T,EIJ(AB): I=   8 J=   5      0.8660101E-02     -0.2573636E-01
 T,EIJ(AB): I=   8 J=   6      0.5180551E-02     -0.1421996E-01
 T,EIJ(AB): I=   9 J=   1      0.2221670E-02     -0.1166044E-01
 T,EIJ(AB): I=   9 J=   2      0.2647710E-03     -0.1133721E-02
 T,EIJ(AB): I=   9 J=   3      0.2647710E-03     -0.1133721E-02
 T,EIJ(AB): I=   9 J=   4      0.5362041E-02     -0.1420265E-01
 T,EIJ(AB): I=   9 J=   5      0.5180551E-02     -0.1421996E-01
 T,EIJ(AB): I=   9 J=   6      0.8660101E-02     -0.2573636E-01
 Actual    scratch disk usage=  9022740936 words.
 JobTyp=3 Pass  1:  I=   1 to   6 NPSUse= 16 ParTrn=T ParDer=T DoDerP=F.
 (rs|ai) integrals will be sorted in core.
 T,EIJ(BB): I=   1 J=   2      0.8828349E-04     -0.4759397E-03
 T,EIJ(BB): I=   1 J=   3      0.8828349E-04     -0.4759397E-03
 T,EIJ(BB): I=   1 J=   4      0.8757698E-03     -0.3606420E-02
 T,EIJ(BB): I=   1 J=   5      0.9235100E-03     -0.3789975E-02
 T,EIJ(BB): I=   1 J=   6      0.9235100E-03     -0.3789975E-02
 T,EIJ(BB): I=   2 J=   3      0.2356533E-02     -0.1331720E-01
 T,EIJ(BB): I=   2 J=   4      0.8699225E-03     -0.2852800E-02
 T,EIJ(BB): I=   2 J=   5      0.5892085E-03     -0.1712182E-02
 T,EIJ(BB): I=   2 J=   6      0.5892085E-03     -0.1712182E-02
 T,EIJ(BB): I=   3 J=   4      0.8699225E-03     -0.2852800E-02
 T,EIJ(BB): I=   3 J=   5      0.5892085E-03     -0.1712182E-02
 T,EIJ(BB): I=   3 J=   6      0.5892085E-03     -0.1712182E-02
 T,EIJ(BB): I=   4 J=   5      0.6393454E-02     -0.1356239E-01
 T,EIJ(BB): I=   4 J=   6      0.6393454E-02     -0.1356239E-01
 T,EIJ(BB): I=   5 J=   6      0.5322441E-02     -0.1216384E-01
 Spin components of T(2) and E(2):
     alpha-alpha T2 =       0.3112840355D-01 E2=     -0.1417145233D+00
     alpha-beta  T2 =       0.1148928626D+00 E2=     -0.4428210208D+00
     beta-beta   T2 =       0.2746191874D-01 E2=     -0.7729839580D-01
 ANorm=    0.1085615181D+01
 E2 =    -0.6669514753D+00 EUMP2 =    -0.14568282337598D+04

 Complete Basis Set (CBS) Extrapolation:
 M. R. Nyden and G. A. Petersson, JCP 75, 1843 (1981)
 G. A. Petersson and M. A. Al-Laham, JCP 94, 6081 (1991)
 G. A. Petersson, T. Tensfeldt, and J. A. Montgomery, JCP 94, 6091 (1991)
 J. A. Montgomery, J. W. Ochterski, and G. A. Petersson, JCP 101, 5900 (1994)
 
 Minimum Number of PNO for Extrapolation =  25
 Absolute Overlaps: IRadAn =         5
 LocTrn: ILocal=3 LocCor=F DoCore=F.
 Entering OneElI...
 Overlap between basis sets.
 Requested accuracy = 0.1000D-12
 PrsmSu:  NPrtUS=   1 ThrOK=F IAlg=1
 PRISM was handed 17178008075 working-precision words and    47 shell-pairs
 IPart=  0 NShTot=          47 NBatch=          11 AvBLen=         4.3
 CnvPC2: ToCart=F DoDens=F IPureD=0 IPureF=0.
 Transformed matrix in CnvPC2: 
                 1             2             3             4             5 
      1   0.100000D+01  0.389679D+00  0.000000D+00  0.000000D+00  0.000000D+00
      2   0.389679D+00  0.100000D+01  0.000000D+00  0.000000D+00  0.000000D+00
      3   0.000000D+00  0.000000D+00  0.100000D+01  0.000000D+00  0.000000D+00
      4   0.000000D+00  0.000000D+00  0.000000D+00  0.100000D+01  0.000000D+00
      5   0.000000D+00  0.000000D+00  0.000000D+00  0.000000D+00  0.100000D+01
      6   0.261173D-01  0.323296D+00  0.000000D+00  0.000000D+00  0.000000D+00
      7   0.000000D+00  0.000000D+00  0.336239D+00  0.000000D+00  0.000000D+00
      8   0.000000D+00  0.000000D+00  0.000000D+00  0.336239D+00  0.000000D+00
      9   0.000000D+00  0.000000D+00  0.000000D+00  0.000000D+00  0.336239D+00
     10   0.000000D+00  0.000000D+00  0.000000D+00  0.000000D+00  0.000000D+00
     11   0.000000D+00  0.000000D+00  0.000000D+00  0.000000D+00  0.000000D+00
     12   0.000000D+00  0.000000D+00  0.000000D+00  0.000000D+00  0.000000D+00
     13   0.000000D+00  0.000000D+00  0.000000D+00  0.000000D+00  0.000000D+00
     14   0.000000D+00  0.000000D+00  0.000000D+00  0.000000D+00  0.000000D+00
     15  -0.350952D-03  0.330494D-02  0.000000D+00  0.000000D+00  0.000000D+00
     16   0.000000D+00  0.000000D+00  0.105584D-01  0.000000D+00  0.000000D+00
     17   0.000000D+00  0.000000D+00  0.000000D+00  0.105584D-01  0.000000D+00
     18   0.000000D+00  0.000000D+00  0.000000D+00  0.000000D+00  0.105584D-01
     19   0.000000D+00  0.000000D+00  0.000000D+00  0.000000D+00  0.000000D+00
     20   0.762127D-03  0.515906D-02  0.000000D+00  0.000000D+00 -0.241105D-02
     21   0.000000D+00  0.000000D+00  0.726325D-03  0.000000D+00  0.000000D+00
     22   0.000000D+00  0.000000D+00  0.000000D+00  0.726325D-03  0.000000D+00
     23   0.159173D-02  0.104755D-01  0.000000D+00  0.000000D+00 -0.425039D-02
                 6             7             8             9            10 
      1   0.261173D-01  0.000000D+00  0.000000D+00  0.000000D+00  0.000000D+00
      2   0.323296D+00  0.000000D+00  0.000000D+00  0.000000D+00  0.000000D+00
      3   0.000000D+00  0.336239D+00  0.000000D+00  0.000000D+00  0.000000D+00
      4   0.000000D+00  0.000000D+00  0.336239D+00  0.000000D+00  0.000000D+00
      5   0.000000D+00  0.000000D+00  0.000000D+00  0.336239D+00  0.000000D+00
      6   0.100000D+01  0.000000D+00  0.000000D+00  0.000000D+00  0.000000D+00
      7   0.000000D+00  0.100000D+01  0.000000D+00  0.000000D+00  0.000000D+00
      8   0.000000D+00  0.000000D+00  0.100000D+01  0.000000D+00  0.000000D+00
      9   0.000000D+00  0.000000D+00  0.000000D+00  0.100000D+01  0.000000D+00
     10   0.000000D+00  0.000000D+00  0.000000D+00  0.000000D+00  0.100000D+01
     11   0.000000D+00  0.000000D+00  0.000000D+00  0.000000D+00  0.000000D+00
     12   0.000000D+00  0.000000D+00  0.000000D+00  0.000000D+00  0.000000D+00
     13   0.000000D+00  0.000000D+00  0.000000D+00  0.000000D+00  0.000000D+00
     14   0.000000D+00  0.000000D+00  0.000000D+00  0.000000D+00  0.000000D+00
     15   0.170029D+00  0.000000D+00  0.000000D+00  0.000000D+00  0.000000D+00
     16   0.000000D+00  0.186983D+00  0.000000D+00  0.000000D+00  0.000000D+00
     17   0.000000D+00  0.000000D+00  0.186983D+00  0.000000D+00  0.000000D+00
     18   0.000000D+00  0.000000D+00  0.000000D+00  0.186983D+00  0.000000D+00
     19   0.488797D-04  0.000000D+00  0.000000D+00 -0.143595D-03  0.953977D-03
     20   0.432645D-01  0.000000D+00  0.000000D+00 -0.486565D-01  0.462470D-01
     21   0.000000D+00  0.152412D-01  0.000000D+00  0.000000D+00  0.000000D+00
     22   0.000000D+00  0.000000D+00  0.152412D-01  0.000000D+00  0.000000D+00
     23   0.745940D-01  0.000000D+00  0.000000D+00 -0.769546D-01  0.671793D-01
                11            12            13            14            15 
      1   0.000000D+00  0.000000D+00  0.000000D+00  0.000000D+00 -0.350952D-03
      2   0.000000D+00  0.000000D+00  0.000000D+00  0.000000D+00  0.330494D-02
      3   0.000000D+00  0.000000D+00  0.000000D+00  0.000000D+00  0.000000D+00
      4   0.000000D+00  0.000000D+00  0.000000D+00  0.000000D+00  0.000000D+00
      5   0.000000D+00  0.000000D+00  0.000000D+00  0.000000D+00  0.000000D+00
      6   0.000000D+00  0.000000D+00  0.000000D+00  0.000000D+00  0.170029D+00
      7   0.000000D+00  0.000000D+00  0.000000D+00  0.000000D+00  0.000000D+00
      8   0.000000D+00  0.000000D+00  0.000000D+00  0.000000D+00  0.000000D+00
      9   0.000000D+00  0.000000D+00  0.000000D+00  0.000000D+00  0.000000D+00
     10   0.000000D+00  0.000000D+00  0.000000D+00  0.000000D+00  0.000000D+00
     11   0.100000D+01  0.000000D+00  0.000000D+00  0.000000D+00  0.000000D+00
     12   0.000000D+00  0.100000D+01  0.000000D+00  0.000000D+00  0.000000D+00
     13   0.000000D+00  0.000000D+00  0.100000D+01  0.000000D+00  0.000000D+00
     14   0.000000D+00  0.000000D+00  0.000000D+00  0.100000D+01  0.000000D+00
     15   0.000000D+00  0.000000D+00  0.000000D+00  0.000000D+00  0.100000D+01
     16   0.000000D+00  0.000000D+00  0.000000D+00  0.000000D+00  0.000000D+00
     17   0.000000D+00  0.000000D+00  0.000000D+00  0.000000D+00  0.000000D+00
     18   0.000000D+00  0.000000D+00  0.000000D+00  0.000000D+00  0.000000D+00
     19   0.000000D+00  0.000000D+00  0.000000D+00  0.000000D+00  0.370853D-01
     20   0.000000D+00  0.000000D+00  0.000000D+00  0.000000D+00  0.329154D+00
     21  -0.264197D-01  0.000000D+00  0.000000D+00  0.000000D+00  0.000000D+00
     22   0.000000D+00 -0.264197D-01  0.000000D+00  0.000000D+00  0.000000D+00
     23   0.000000D+00  0.000000D+00  0.000000D+00  0.000000D+00  0.142224D+00
                16            17            18            19            20 
      1   0.000000D+00  0.000000D+00  0.000000D+00  0.000000D+00  0.762127D-03
      2   0.000000D+00  0.000000D+00  0.000000D+00  0.000000D+00  0.515906D-02
      3   0.105584D-01  0.000000D+00  0.000000D+00  0.000000D+00  0.000000D+00
      4   0.000000D+00  0.105584D-01  0.000000D+00  0.000000D+00  0.000000D+00
      5   0.000000D+00  0.000000D+00  0.105584D-01  0.000000D+00 -0.241105D-02
      6   0.000000D+00  0.000000D+00  0.000000D+00  0.488797D-04  0.432645D-01
      7   0.186983D+00  0.000000D+00  0.000000D+00  0.000000D+00  0.000000D+00
      8   0.000000D+00  0.186983D+00  0.000000D+00  0.000000D+00  0.000000D+00
      9   0.000000D+00  0.000000D+00  0.186983D+00 -0.143595D-03 -0.486565D-01
     10   0.000000D+00  0.000000D+00  0.000000D+00  0.953977D-03  0.462470D-01
     11   0.000000D+00  0.000000D+00  0.000000D+00  0.000000D+00  0.000000D+00
     12   0.000000D+00  0.000000D+00  0.000000D+00  0.000000D+00  0.000000D+00
     13   0.000000D+00  0.000000D+00  0.000000D+00  0.000000D+00  0.000000D+00
     14   0.000000D+00  0.000000D+00  0.000000D+00  0.000000D+00  0.000000D+00
     15   0.000000D+00  0.000000D+00  0.000000D+00  0.370853D-01  0.329154D+00
     16   0.100000D+01  0.000000D+00  0.000000D+00  0.000000D+00  0.000000D+00
     17   0.000000D+00  0.100000D+01  0.000000D+00  0.000000D+00  0.000000D+00
     18   0.000000D+00  0.000000D+00  0.100000D+01 -0.646661D-01 -0.491065D+00
     19   0.000000D+00  0.000000D+00 -0.646661D-01  0.100000D+01  0.236704D+00
     20   0.000000D+00  0.000000D+00 -0.491065D+00  0.236704D+00  0.100000D+01
     21   0.174076D+00  0.000000D+00  0.000000D+00  0.000000D+00  0.000000D+00
     22   0.000000D+00  0.174076D+00  0.000000D+00  0.000000D+00  0.000000D+00
     23   0.000000D+00  0.000000D+00 -0.177512D+00  0.000000D+00  0.000000D+00
                21            22            23 
      1   0.000000D+00  0.000000D+00  0.159173D-02
      2   0.000000D+00  0.000000D+00  0.104755D-01
      3   0.726325D-03  0.000000D+00  0.000000D+00
      4   0.000000D+00  0.726325D-03  0.000000D+00
      5   0.000000D+00  0.000000D+00 -0.425039D-02
      6   0.000000D+00  0.000000D+00  0.745940D-01
      7   0.152412D-01  0.000000D+00  0.000000D+00
      8   0.000000D+00  0.152412D-01  0.000000D+00
      9   0.000000D+00  0.000000D+00 -0.769546D-01
     10   0.000000D+00  0.000000D+00  0.671793D-01
     11  -0.264197D-01  0.000000D+00  0.000000D+00
     12   0.000000D+00 -0.264197D-01  0.000000D+00
     13   0.000000D+00  0.000000D+00  0.000000D+00
     14   0.000000D+00  0.000000D+00  0.000000D+00
     15   0.000000D+00  0.000000D+00  0.142224D+00
     16   0.174076D+00  0.000000D+00  0.000000D+00
     17   0.000000D+00  0.174076D+00  0.000000D+00
     18   0.000000D+00  0.000000D+00 -0.177512D+00
     19   0.000000D+00  0.000000D+00  0.000000D+00
     20   0.000000D+00  0.000000D+00  0.000000D+00
     21   0.100000D+01  0.000000D+00  0.000000D+00
     22   0.000000D+00  0.100000D+01  0.000000D+00
     23   0.000000D+00  0.000000D+00  0.100000D+01
 Entering OneElI...
 Overlap between basis sets.
 Requested accuracy = 0.1000D-12
 PrsmSu:  NPrtUS=   1 ThrOK=F IAlg=1
 PRISM was handed 17176658618 working-precision words and   711 shell-pairs
 IPart=  0 NShTot=         711 NBatch=          88 AvBLen=         8.1
 CnvPC2: ToCart=F DoDens=F IPureD=0 IPureF=0.
 Transformed matrix in CnvPC2: 
                 1             2             3             4             5 
      1   0.999785D+00  0.398948D+00  0.000000D+00  0.000000D+00  0.000000D+00
      2   0.282303D+00  0.989985D+00  0.000000D+00  0.000000D+00  0.000000D+00
      3   0.000000D+00  0.000000D+00  0.999117D+00  0.000000D+00  0.000000D+00
      4   0.000000D+00  0.000000D+00  0.000000D+00  0.999117D+00  0.000000D+00
      5   0.000000D+00  0.000000D+00  0.000000D+00  0.000000D+00  0.999117D+00
      6   0.115247D-01  0.312821D+00  0.000000D+00  0.000000D+00  0.000000D+00
      7   0.000000D+00  0.000000D+00 -0.325798D+00  0.000000D+00  0.000000D+00
      8   0.000000D+00  0.000000D+00  0.000000D+00 -0.325798D+00  0.000000D+00
      9   0.000000D+00  0.000000D+00  0.000000D+00  0.000000D+00 -0.325798D+00
     10   0.000000D+00  0.000000D+00  0.000000D+00  0.000000D+00  0.000000D+00
     11   0.000000D+00  0.000000D+00  0.000000D+00  0.000000D+00  0.000000D+00
     12   0.000000D+00  0.000000D+00  0.000000D+00  0.000000D+00  0.000000D+00
     13   0.000000D+00  0.000000D+00  0.000000D+00  0.000000D+00  0.000000D+00
     14   0.000000D+00  0.000000D+00  0.000000D+00  0.000000D+00  0.000000D+00
     15   0.000000D+00  0.000000D+00  0.000000D+00  0.000000D+00  0.000000D+00
     16   0.000000D+00  0.000000D+00  0.000000D+00  0.000000D+00  0.000000D+00
     17   0.000000D+00  0.000000D+00  0.000000D+00  0.000000D+00  0.000000D+00
     18   0.000000D+00  0.000000D+00  0.000000D+00  0.000000D+00  0.000000D+00
     19   0.000000D+00  0.000000D+00  0.000000D+00  0.000000D+00  0.000000D+00
     20   0.000000D+00  0.000000D+00  0.000000D+00  0.000000D+00  0.000000D+00
     21   0.000000D+00  0.000000D+00  0.000000D+00  0.000000D+00  0.000000D+00
     22   0.000000D+00  0.000000D+00  0.000000D+00  0.000000D+00  0.000000D+00
     23   0.000000D+00  0.000000D+00  0.000000D+00  0.000000D+00  0.000000D+00
     24   0.000000D+00  0.000000D+00  0.000000D+00  0.000000D+00  0.000000D+00
     25   0.534568D-04  0.808020D-02  0.000000D+00  0.000000D+00  0.000000D+00
     26   0.734007D-02  0.464056D-01  0.000000D+00  0.000000D+00  0.000000D+00
     27   0.344545D-02  0.218674D-01  0.000000D+00  0.000000D+00  0.000000D+00
     28   0.133463D-02  0.848407D-02  0.000000D+00  0.000000D+00  0.000000D+00
     29   0.000000D+00  0.000000D+00 -0.179976D-02  0.000000D+00  0.000000D+00
     30   0.000000D+00  0.000000D+00  0.000000D+00 -0.179976D-02  0.000000D+00
     31   0.000000D+00  0.000000D+00  0.000000D+00  0.000000D+00 -0.179976D-02
     32   0.000000D+00  0.000000D+00  0.148888D-01  0.000000D+00  0.000000D+00
     33   0.000000D+00  0.000000D+00  0.000000D+00  0.148888D-01  0.000000D+00
     34   0.000000D+00  0.000000D+00  0.000000D+00  0.000000D+00  0.148888D-01
     35   0.000000D+00  0.000000D+00  0.474391D-02  0.000000D+00  0.000000D+00
     36   0.000000D+00  0.000000D+00  0.000000D+00  0.474391D-02  0.000000D+00
     37   0.000000D+00  0.000000D+00  0.000000D+00  0.000000D+00  0.474391D-02
     38   0.341892D+00  0.985224D+00  0.000000D+00  0.000000D+00  0.000000D+00
     39   0.214974D+00  0.853579D+00  0.000000D+00  0.000000D+00  0.000000D+00
     40   0.131098D+00  0.642230D+00  0.000000D+00  0.000000D+00  0.000000D+00
     41   0.786519D-01  0.435922D+00  0.000000D+00  0.000000D+00  0.000000D+00
     42   0.467922D-01  0.277379D+00  0.000000D+00  0.000000D+00  0.000000D+00
     43   0.277203D-01  0.170177D+00  0.000000D+00  0.000000D+00  0.000000D+00
     44   0.000000D+00  0.000000D+00  0.468236D+00  0.000000D+00  0.000000D+00
     45   0.000000D+00  0.000000D+00  0.000000D+00  0.468236D+00  0.000000D+00
     46   0.000000D+00  0.000000D+00  0.000000D+00  0.000000D+00  0.468236D+00
     47   0.000000D+00  0.000000D+00  0.306273D+00  0.000000D+00  0.000000D+00
     48   0.000000D+00  0.000000D+00  0.000000D+00  0.306273D+00  0.000000D+00
     49   0.000000D+00  0.000000D+00  0.000000D+00  0.000000D+00  0.306273D+00
     50   0.000000D+00  0.000000D+00  0.187009D+00  0.000000D+00  0.000000D+00
     51   0.000000D+00  0.000000D+00  0.000000D+00  0.187009D+00  0.000000D+00
     52   0.000000D+00  0.000000D+00  0.000000D+00  0.000000D+00  0.187009D+00
     53   0.000000D+00  0.000000D+00  0.108643D+00  0.000000D+00  0.000000D+00
     54   0.000000D+00  0.000000D+00  0.000000D+00  0.108643D+00  0.000000D+00
     55   0.000000D+00  0.000000D+00  0.000000D+00  0.000000D+00  0.108643D+00
     56   0.000000D+00  0.000000D+00  0.610219D-01  0.000000D+00  0.000000D+00
     57   0.000000D+00  0.000000D+00  0.000000D+00  0.610219D-01  0.000000D+00
     58   0.000000D+00  0.000000D+00  0.000000D+00  0.000000D+00  0.610219D-01
     59   0.000000D+00  0.000000D+00  0.335322D-01  0.000000D+00  0.000000D+00
     60   0.000000D+00  0.000000D+00  0.000000D+00  0.335322D-01  0.000000D+00
     61   0.000000D+00  0.000000D+00  0.000000D+00  0.000000D+00  0.335322D-01
     62   0.000000D+00  0.000000D+00  0.000000D+00  0.000000D+00  0.000000D+00
     63   0.000000D+00  0.000000D+00  0.000000D+00  0.000000D+00  0.000000D+00
     64   0.000000D+00  0.000000D+00  0.000000D+00  0.000000D+00  0.000000D+00
     65   0.000000D+00  0.000000D+00  0.000000D+00  0.000000D+00  0.000000D+00
     66   0.000000D+00  0.000000D+00  0.000000D+00  0.000000D+00  0.000000D+00
     67   0.000000D+00  0.000000D+00  0.000000D+00  0.000000D+00  0.000000D+00
     68   0.000000D+00  0.000000D+00  0.000000D+00  0.000000D+00  0.000000D+00
     69   0.000000D+00  0.000000D+00  0.000000D+00  0.000000D+00  0.000000D+00
     70   0.000000D+00  0.000000D+00  0.000000D+00  0.000000D+00  0.000000D+00
     71   0.000000D+00  0.000000D+00  0.000000D+00  0.000000D+00  0.000000D+00
     72   0.000000D+00  0.000000D+00  0.000000D+00  0.000000D+00  0.000000D+00
     73   0.000000D+00  0.000000D+00  0.000000D+00  0.000000D+00  0.000000D+00
     74   0.000000D+00  0.000000D+00  0.000000D+00  0.000000D+00  0.000000D+00
     75   0.000000D+00  0.000000D+00  0.000000D+00  0.000000D+00  0.000000D+00
     76   0.000000D+00  0.000000D+00  0.000000D+00  0.000000D+00  0.000000D+00
     77   0.000000D+00  0.000000D+00  0.000000D+00  0.000000D+00  0.000000D+00
     78   0.000000D+00  0.000000D+00  0.000000D+00  0.000000D+00  0.000000D+00
     79   0.000000D+00  0.000000D+00  0.000000D+00  0.000000D+00  0.000000D+00
     80   0.000000D+00  0.000000D+00  0.000000D+00  0.000000D+00  0.000000D+00
     81   0.000000D+00  0.000000D+00  0.000000D+00  0.000000D+00  0.000000D+00
     82   0.000000D+00  0.000000D+00  0.000000D+00  0.000000D+00  0.000000D+00
     83   0.000000D+00  0.000000D+00  0.000000D+00  0.000000D+00  0.000000D+00
     84   0.000000D+00  0.000000D+00  0.000000D+00  0.000000D+00  0.000000D+00
     85   0.000000D+00  0.000000D+00  0.000000D+00  0.000000D+00  0.000000D+00
     86   0.000000D+00  0.000000D+00  0.000000D+00  0.000000D+00  0.000000D+00
     87   0.000000D+00  0.000000D+00  0.000000D+00  0.000000D+00  0.000000D+00
     88   0.000000D+00  0.000000D+00  0.000000D+00  0.000000D+00  0.000000D+00
     89   0.000000D+00  0.000000D+00  0.000000D+00  0.000000D+00  0.000000D+00
     90   0.000000D+00  0.000000D+00  0.000000D+00  0.000000D+00  0.000000D+00
     91   0.000000D+00  0.000000D+00  0.000000D+00  0.000000D+00  0.000000D+00
     92   0.000000D+00  0.000000D+00  0.000000D+00  0.000000D+00  0.000000D+00
     93   0.000000D+00  0.000000D+00  0.000000D+00  0.000000D+00  0.000000D+00
     94   0.000000D+00  0.000000D+00  0.000000D+00  0.000000D+00  0.000000D+00
     95   0.000000D+00  0.000000D+00  0.000000D+00  0.000000D+00  0.000000D+00
     96   0.000000D+00  0.000000D+00  0.000000D+00  0.000000D+00  0.000000D+00
     97   0.000000D+00  0.000000D+00  0.000000D+00  0.000000D+00  0.000000D+00
     98   0.000000D+00  0.000000D+00  0.000000D+00  0.000000D+00  0.000000D+00
     99   0.000000D+00  0.000000D+00  0.000000D+00  0.000000D+00  0.000000D+00
    100   0.000000D+00  0.000000D+00  0.000000D+00  0.000000D+00  0.000000D+00
    101   0.000000D+00  0.000000D+00  0.000000D+00  0.000000D+00  0.000000D+00
    102   0.000000D+00  0.000000D+00  0.000000D+00  0.000000D+00  0.000000D+00
    103   0.000000D+00  0.000000D+00  0.000000D+00  0.000000D+00  0.000000D+00
    104   0.000000D+00  0.000000D+00  0.000000D+00  0.000000D+00  0.000000D+00
    105   0.000000D+00  0.000000D+00  0.000000D+00  0.000000D+00  0.000000D+00
    106   0.000000D+00  0.000000D+00  0.000000D+00  0.000000D+00  0.000000D+00
    107   0.000000D+00  0.000000D+00  0.000000D+00  0.000000D+00  0.000000D+00
    108   0.000000D+00  0.000000D+00  0.000000D+00  0.000000D+00  0.000000D+00
    109   0.000000D+00  0.000000D+00  0.000000D+00  0.000000D+00  0.000000D+00
    110   0.000000D+00  0.000000D+00  0.000000D+00  0.000000D+00  0.000000D+00
    111   0.000000D+00  0.000000D+00  0.000000D+00  0.000000D+00  0.000000D+00
    112   0.000000D+00  0.000000D+00  0.000000D+00  0.000000D+00  0.000000D+00
    113   0.000000D+00  0.000000D+00  0.000000D+00  0.000000D+00  0.000000D+00
    114   0.000000D+00  0.000000D+00  0.000000D+00  0.000000D+00  0.000000D+00
    115   0.000000D+00  0.000000D+00  0.000000D+00  0.000000D+00  0.000000D+00
    116   0.000000D+00  0.000000D+00  0.000000D+00  0.000000D+00  0.000000D+00
    117   0.000000D+00  0.000000D+00  0.000000D+00  0.000000D+00  0.000000D+00
    118   0.000000D+00  0.000000D+00  0.000000D+00  0.000000D+00  0.000000D+00
    119   0.000000D+00  0.000000D+00  0.000000D+00  0.000000D+00  0.000000D+00
    120   0.000000D+00  0.000000D+00  0.000000D+00  0.000000D+00  0.000000D+00
    121   0.000000D+00  0.000000D+00  0.000000D+00  0.000000D+00  0.000000D+00
    122   0.000000D+00  0.000000D+00  0.000000D+00  0.000000D+00  0.000000D+00
    123   0.000000D+00  0.000000D+00  0.000000D+00  0.000000D+00  0.000000D+00
    124   0.000000D+00  0.000000D+00  0.000000D+00  0.000000D+00  0.000000D+00
    125   0.000000D+00  0.000000D+00  0.000000D+00  0.000000D+00  0.000000D+00
    126   0.000000D+00  0.000000D+00  0.000000D+00  0.000000D+00  0.000000D+00
    127   0.000000D+00  0.000000D+00  0.000000D+00  0.000000D+00  0.000000D+00
    128   0.000000D+00  0.000000D+00  0.000000D+00  0.000000D+00  0.000000D+00
    129   0.000000D+00  0.000000D+00  0.000000D+00  0.000000D+00  0.000000D+00
    130   0.000000D+00  0.000000D+00  0.000000D+00  0.000000D+00  0.000000D+00
    131   0.000000D+00  0.000000D+00  0.000000D+00  0.000000D+00  0.000000D+00
    132   0.000000D+00  0.000000D+00  0.000000D+00  0.000000D+00  0.000000D+00
    133   0.000000D+00  0.000000D+00  0.000000D+00  0.000000D+00  0.000000D+00
    134   0.000000D+00  0.000000D+00  0.000000D+00  0.000000D+00  0.000000D+00
    135   0.000000D+00  0.000000D+00  0.000000D+00  0.000000D+00  0.000000D+00
    136   0.000000D+00  0.000000D+00  0.000000D+00  0.000000D+00  0.000000D+00
    137   0.000000D+00  0.000000D+00  0.000000D+00  0.000000D+00  0.000000D+00
    138   0.000000D+00  0.000000D+00  0.000000D+00  0.000000D+00  0.000000D+00
    139   0.000000D+00  0.000000D+00  0.000000D+00  0.000000D+00  0.000000D+00
    140   0.000000D+00  0.000000D+00  0.000000D+00  0.000000D+00  0.000000D+00
    141   0.000000D+00  0.000000D+00  0.000000D+00  0.000000D+00  0.000000D+00
    142   0.000000D+00  0.000000D+00  0.000000D+00  0.000000D+00  0.000000D+00
    143   0.000000D+00  0.000000D+00  0.000000D+00  0.000000D+00  0.000000D+00
    144   0.000000D+00  0.000000D+00  0.000000D+00  0.000000D+00  0.000000D+00
    145   0.000000D+00  0.000000D+00  0.000000D+00  0.000000D+00  0.000000D+00
    146   0.000000D+00  0.000000D+00  0.000000D+00  0.000000D+00  0.000000D+00
    147   0.000000D+00  0.000000D+00  0.000000D+00  0.000000D+00  0.000000D+00
    148   0.000000D+00  0.000000D+00  0.000000D+00  0.000000D+00  0.000000D+00
    149   0.000000D+00  0.000000D+00  0.000000D+00  0.000000D+00  0.000000D+00
    150   0.000000D+00  0.000000D+00  0.000000D+00  0.000000D+00  0.000000D+00
    151   0.000000D+00  0.000000D+00  0.000000D+00  0.000000D+00  0.000000D+00
    152   0.000000D+00  0.000000D+00  0.000000D+00  0.000000D+00  0.000000D+00
    153   0.000000D+00  0.000000D+00  0.000000D+00  0.000000D+00  0.000000D+00
    154   0.000000D+00  0.000000D+00  0.000000D+00  0.000000D+00  0.000000D+00
    155   0.000000D+00  0.000000D+00  0.000000D+00  0.000000D+00  0.000000D+00
    156   0.000000D+00  0.000000D+00  0.000000D+00  0.000000D+00  0.000000D+00
    157   0.000000D+00  0.000000D+00  0.000000D+00  0.000000D+00  0.000000D+00
    158   0.000000D+00  0.000000D+00  0.000000D+00  0.000000D+00  0.000000D+00
    159   0.000000D+00  0.000000D+00  0.000000D+00  0.000000D+00  0.000000D+00
    160   0.000000D+00  0.000000D+00  0.000000D+00  0.000000D+00  0.000000D+00
    161   0.000000D+00  0.000000D+00  0.000000D+00  0.000000D+00  0.000000D+00
    162   0.000000D+00  0.000000D+00  0.000000D+00  0.000000D+00  0.000000D+00
    163   0.000000D+00  0.000000D+00  0.000000D+00  0.000000D+00  0.000000D+00
    164   0.000000D+00  0.000000D+00  0.000000D+00  0.000000D+00  0.000000D+00
    165   0.000000D+00  0.000000D+00  0.000000D+00  0.000000D+00  0.000000D+00
    166   0.000000D+00  0.000000D+00  0.000000D+00  0.000000D+00  0.000000D+00
    167   0.000000D+00  0.000000D+00  0.000000D+00  0.000000D+00  0.000000D+00
    168   0.000000D+00  0.000000D+00  0.000000D+00  0.000000D+00  0.000000D+00
    169   0.000000D+00  0.000000D+00  0.000000D+00  0.000000D+00  0.000000D+00
    170   0.000000D+00  0.000000D+00  0.000000D+00  0.000000D+00  0.000000D+00
    171   0.000000D+00  0.000000D+00  0.000000D+00  0.000000D+00  0.000000D+00
    172   0.000000D+00  0.000000D+00  0.000000D+00  0.000000D+00  0.000000D+00
    173   0.000000D+00  0.000000D+00  0.000000D+00  0.000000D+00  0.000000D+00
    174   0.000000D+00  0.000000D+00  0.000000D+00  0.000000D+00  0.000000D+00
    175   0.000000D+00  0.000000D+00  0.000000D+00  0.000000D+00  0.000000D+00
    176   0.000000D+00  0.000000D+00  0.000000D+00  0.000000D+00  0.000000D+00
    177   0.000000D+00  0.000000D+00  0.000000D+00  0.000000D+00  0.000000D+00
    178   0.000000D+00  0.000000D+00  0.000000D+00  0.000000D+00  0.000000D+00
    179   0.000000D+00  0.000000D+00  0.000000D+00  0.000000D+00  0.000000D+00
    180   0.000000D+00  0.000000D+00  0.000000D+00  0.000000D+00  0.000000D+00
    181   0.000000D+00  0.000000D+00  0.000000D+00  0.000000D+00  0.000000D+00
    182   0.000000D+00  0.000000D+00  0.000000D+00  0.000000D+00  0.000000D+00
    183   0.000000D+00  0.000000D+00  0.000000D+00  0.000000D+00  0.000000D+00
    184   0.000000D+00  0.000000D+00  0.000000D+00  0.000000D+00  0.000000D+00
    185   0.000000D+00  0.000000D+00  0.000000D+00  0.000000D+00  0.000000D+00
    186   0.000000D+00  0.000000D+00  0.000000D+00  0.000000D+00  0.000000D+00
    187   0.000000D+00  0.000000D+00  0.000000D+00  0.000000D+00  0.000000D+00
    188   0.000000D+00  0.000000D+00  0.000000D+00  0.000000D+00  0.000000D+00
    189   0.000000D+00  0.000000D+00  0.000000D+00  0.000000D+00  0.000000D+00
    190   0.000000D+00  0.000000D+00  0.000000D+00  0.000000D+00  0.000000D+00
    191   0.000000D+00  0.000000D+00  0.000000D+00  0.000000D+00  0.000000D+00
    192   0.000000D+00  0.000000D+00  0.000000D+00  0.000000D+00  0.000000D+00
    193   0.000000D+00  0.000000D+00  0.000000D+00  0.000000D+00  0.000000D+00
    194   0.000000D+00  0.000000D+00  0.000000D+00  0.000000D+00  0.000000D+00
    195   0.000000D+00  0.000000D+00  0.000000D+00  0.000000D+00  0.000000D+00
    196   0.000000D+00  0.000000D+00  0.000000D+00  0.000000D+00  0.000000D+00
    197   0.000000D+00  0.000000D+00  0.000000D+00  0.000000D+00  0.000000D+00
    198   0.000000D+00  0.000000D+00  0.000000D+00  0.000000D+00  0.000000D+00
    199   0.000000D+00  0.000000D+00  0.000000D+00  0.000000D+00  0.000000D+00
    200   0.000000D+00  0.000000D+00  0.000000D+00  0.000000D+00  0.000000D+00
    201   0.000000D+00  0.000000D+00  0.000000D+00  0.000000D+00  0.000000D+00
    202   0.000000D+00  0.000000D+00  0.000000D+00  0.000000D+00  0.000000D+00
    203   0.000000D+00  0.000000D+00  0.000000D+00  0.000000D+00  0.000000D+00
    204   0.000000D+00  0.000000D+00  0.000000D+00  0.000000D+00  0.000000D+00
    205   0.000000D+00  0.000000D+00  0.000000D+00  0.000000D+00  0.000000D+00
    206   0.000000D+00  0.000000D+00  0.000000D+00  0.000000D+00  0.000000D+00
    207   0.000000D+00  0.000000D+00  0.000000D+00  0.000000D+00  0.000000D+00
    208   0.000000D+00  0.000000D+00  0.000000D+00  0.000000D+00  0.000000D+00
    209   0.000000D+00  0.000000D+00  0.000000D+00  0.000000D+00  0.000000D+00
    210   0.000000D+00  0.000000D+00  0.000000D+00  0.000000D+00  0.000000D+00
    211   0.000000D+00  0.000000D+00  0.000000D+00  0.000000D+00  0.000000D+00
    212   0.000000D+00  0.000000D+00  0.000000D+00  0.000000D+00  0.000000D+00
    213   0.000000D+00  0.000000D+00  0.000000D+00  0.000000D+00  0.000000D+00
    214   0.000000D+00  0.000000D+00  0.000000D+00  0.000000D+00  0.000000D+00
    215   0.000000D+00  0.000000D+00  0.000000D+00  0.000000D+00  0.000000D+00
    216   0.000000D+00  0.000000D+00  0.000000D+00  0.000000D+00  0.000000D+00
    217   0.000000D+00  0.000000D+00  0.000000D+00  0.000000D+00  0.000000D+00
    218   0.000000D+00  0.000000D+00  0.000000D+00  0.000000D+00  0.000000D+00
    219   0.000000D+00  0.000000D+00  0.000000D+00  0.000000D+00  0.000000D+00
    220   0.000000D+00  0.000000D+00  0.000000D+00  0.000000D+00  0.000000D+00
    221   0.000000D+00  0.000000D+00  0.000000D+00  0.000000D+00  0.000000D+00
    222   0.000000D+00  0.000000D+00  0.000000D+00  0.000000D+00  0.000000D+00
    223   0.000000D+00  0.000000D+00  0.000000D+00  0.000000D+00  0.000000D+00
    224   0.000000D+00  0.000000D+00  0.000000D+00  0.000000D+00  0.000000D+00
    225   0.000000D+00  0.000000D+00  0.000000D+00  0.000000D+00  0.000000D+00
    226   0.000000D+00  0.000000D+00  0.000000D+00  0.000000D+00  0.000000D+00
    227   0.000000D+00  0.000000D+00  0.000000D+00  0.000000D+00  0.000000D+00
    228   0.000000D+00  0.000000D+00  0.000000D+00  0.000000D+00  0.000000D+00
    229   0.000000D+00  0.000000D+00  0.000000D+00  0.000000D+00  0.000000D+00
    230   0.000000D+00  0.000000D+00  0.000000D+00  0.000000D+00  0.000000D+00
    231   0.000000D+00  0.000000D+00  0.000000D+00  0.000000D+00  0.000000D+00
    232   0.000000D+00  0.000000D+00  0.000000D+00  0.000000D+00  0.000000D+00
    233   0.000000D+00  0.000000D+00  0.000000D+00  0.000000D+00  0.000000D+00
    234   0.000000D+00  0.000000D+00  0.000000D+00  0.000000D+00  0.000000D+00
    235   0.000000D+00  0.000000D+00  0.000000D+00  0.000000D+00  0.000000D+00
    236   0.000000D+00  0.000000D+00  0.000000D+00  0.000000D+00  0.000000D+00
    237   0.000000D+00  0.000000D+00  0.000000D+00  0.000000D+00  0.000000D+00
    238   0.000000D+00  0.000000D+00  0.000000D+00  0.000000D+00  0.000000D+00
    239   0.000000D+00  0.000000D+00  0.000000D+00  0.000000D+00  0.000000D+00
    240   0.000000D+00  0.000000D+00  0.000000D+00  0.000000D+00  0.000000D+00
    241   0.000000D+00  0.000000D+00  0.000000D+00  0.000000D+00  0.000000D+00
    242   0.000000D+00  0.000000D+00  0.000000D+00  0.000000D+00  0.000000D+00
    243   0.000000D+00  0.000000D+00  0.000000D+00  0.000000D+00  0.000000D+00
    244   0.000000D+00  0.000000D+00  0.000000D+00  0.000000D+00  0.000000D+00
    245   0.000000D+00  0.000000D+00  0.000000D+00  0.000000D+00  0.000000D+00
    246   0.000000D+00  0.000000D+00  0.000000D+00  0.000000D+00  0.000000D+00
    247   0.000000D+00  0.000000D+00  0.000000D+00  0.000000D+00  0.000000D+00
    248   0.000000D+00  0.000000D+00  0.000000D+00  0.000000D+00  0.000000D+00
    249   0.000000D+00  0.000000D+00  0.000000D+00  0.000000D+00  0.000000D+00
    250   0.000000D+00  0.000000D+00  0.000000D+00  0.000000D+00  0.000000D+00
    251   0.000000D+00  0.000000D+00  0.000000D+00  0.000000D+00  0.000000D+00
    252   0.000000D+00  0.000000D+00  0.000000D+00  0.000000D+00  0.000000D+00
    253   0.000000D+00  0.000000D+00  0.000000D+00  0.000000D+00  0.000000D+00
    254   0.000000D+00  0.000000D+00  0.000000D+00  0.000000D+00  0.000000D+00
    255   0.000000D+00  0.000000D+00  0.000000D+00  0.000000D+00  0.000000D+00
    256   0.000000D+00  0.000000D+00  0.000000D+00  0.000000D+00  0.000000D+00
    257   0.000000D+00  0.000000D+00  0.000000D+00  0.000000D+00  0.000000D+00
    258   0.000000D+00  0.000000D+00  0.000000D+00  0.000000D+00  0.000000D+00
    259   0.000000D+00  0.000000D+00  0.000000D+00  0.000000D+00  0.000000D+00
    260   0.000000D+00  0.000000D+00  0.000000D+00  0.000000D+00  0.000000D+00
    261   0.000000D+00  0.000000D+00  0.000000D+00  0.000000D+00  0.000000D+00
    262   0.000000D+00  0.000000D+00  0.000000D+00  0.000000D+00  0.000000D+00
    263   0.000000D+00  0.000000D+00  0.000000D+00  0.000000D+00  0.000000D+00
    264   0.000000D+00  0.000000D+00  0.000000D+00  0.000000D+00  0.000000D+00
    265   0.000000D+00  0.000000D+00  0.000000D+00  0.000000D+00  0.000000D+00
    266   0.000000D+00  0.000000D+00  0.000000D+00  0.000000D+00  0.000000D+00
    267   0.000000D+00  0.000000D+00  0.000000D+00  0.000000D+00  0.000000D+00
    268   0.000000D+00  0.000000D+00  0.000000D+00  0.000000D+00  0.000000D+00
    269   0.000000D+00  0.000000D+00  0.000000D+00  0.000000D+00  0.000000D+00
    270   0.000000D+00  0.000000D+00  0.000000D+00  0.000000D+00  0.000000D+00
    271   0.000000D+00  0.000000D+00  0.000000D+00  0.000000D+00  0.000000D+00
    272   0.000000D+00  0.000000D+00  0.000000D+00  0.000000D+00  0.000000D+00
    273   0.000000D+00  0.000000D+00  0.000000D+00  0.000000D+00  0.000000D+00
    274   0.000000D+00  0.000000D+00  0.000000D+00  0.000000D+00  0.000000D+00
    275   0.000000D+00  0.000000D+00  0.000000D+00  0.000000D+00  0.000000D+00
    276   0.000000D+00  0.000000D+00  0.000000D+00  0.000000D+00  0.000000D+00
    277   0.000000D+00  0.000000D+00  0.000000D+00  0.000000D+00  0.000000D+00
    278   0.000000D+00  0.000000D+00  0.000000D+00  0.000000D+00  0.000000D+00
    279   0.000000D+00  0.000000D+00  0.000000D+00  0.000000D+00  0.000000D+00
    280   0.000000D+00  0.000000D+00  0.000000D+00  0.000000D+00  0.000000D+00
    281   0.000000D+00  0.000000D+00  0.000000D+00  0.000000D+00  0.000000D+00
    282   0.000000D+00  0.000000D+00  0.000000D+00  0.000000D+00  0.000000D+00
    283   0.000000D+00  0.000000D+00  0.000000D+00  0.000000D+00  0.000000D+00
    284   0.000000D+00  0.000000D+00  0.000000D+00  0.000000D+00  0.000000D+00
    285   0.000000D+00  0.000000D+00  0.000000D+00  0.000000D+00  0.000000D+00
    286   0.000000D+00  0.000000D+00  0.000000D+00  0.000000D+00  0.000000D+00
    287   0.000000D+00  0.000000D+00  0.000000D+00  0.000000D+00  0.000000D+00
    288   0.000000D+00  0.000000D+00  0.000000D+00  0.000000D+00  0.000000D+00
    289   0.000000D+00  0.000000D+00  0.000000D+00  0.000000D+00  0.000000D+00
    290   0.000000D+00  0.000000D+00  0.000000D+00  0.000000D+00  0.000000D+00
    291   0.000000D+00  0.000000D+00  0.000000D+00  0.000000D+00  0.000000D+00
    292   0.000000D+00  0.000000D+00  0.000000D+00  0.000000D+00  0.000000D+00
    293   0.000000D+00  0.000000D+00  0.000000D+00  0.000000D+00  0.000000D+00
    294   0.000000D+00  0.000000D+00  0.000000D+00  0.000000D+00  0.000000D+00
    295   0.000000D+00  0.000000D+00  0.000000D+00  0.000000D+00  0.000000D+00
    296   0.000000D+00  0.000000D+00  0.000000D+00  0.000000D+00  0.000000D+00
    297   0.000000D+00  0.000000D+00  0.000000D+00  0.000000D+00  0.000000D+00
    298   0.000000D+00  0.000000D+00  0.000000D+00  0.000000D+00  0.000000D+00
    299   0.000000D+00  0.000000D+00  0.000000D+00  0.000000D+00  0.000000D+00
    300   0.000000D+00  0.000000D+00  0.000000D+00  0.000000D+00  0.000000D+00
    301   0.000000D+00  0.000000D+00  0.000000D+00  0.000000D+00  0.000000D+00
    302   0.000000D+00  0.000000D+00  0.000000D+00  0.000000D+00  0.000000D+00
    303   0.000000D+00  0.000000D+00  0.000000D+00  0.000000D+00  0.000000D+00
    304   0.000000D+00  0.000000D+00  0.000000D+00  0.000000D+00  0.000000D+00
    305   0.000000D+00  0.000000D+00  0.000000D+00  0.000000D+00  0.000000D+00
    306   0.000000D+00  0.000000D+00  0.000000D+00  0.000000D+00  0.000000D+00
    307   0.000000D+00  0.000000D+00  0.000000D+00  0.000000D+00  0.000000D+00
    308   0.000000D+00  0.000000D+00  0.000000D+00  0.000000D+00  0.000000D+00
    309   0.000000D+00  0.000000D+00  0.000000D+00  0.000000D+00  0.000000D+00
    310   0.000000D+00  0.000000D+00  0.000000D+00  0.000000D+00  0.000000D+00
    311   0.000000D+00  0.000000D+00  0.000000D+00  0.000000D+00  0.000000D+00
    312   0.000000D+00  0.000000D+00  0.000000D+00  0.000000D+00  0.000000D+00
    313   0.000000D+00  0.000000D+00  0.000000D+00  0.000000D+00  0.000000D+00
    314   0.000000D+00  0.000000D+00  0.000000D+00  0.000000D+00  0.000000D+00
    315   0.000000D+00  0.000000D+00  0.000000D+00  0.000000D+00  0.000000D+00
    316   0.000000D+00  0.000000D+00  0.000000D+00  0.000000D+00  0.000000D+00
    317   0.000000D+00  0.000000D+00  0.000000D+00  0.000000D+00  0.000000D+00
    318   0.000000D+00  0.000000D+00  0.000000D+00  0.000000D+00  0.000000D+00
    319   0.000000D+00  0.000000D+00  0.000000D+00  0.000000D+00  0.000000D+00
    320   0.000000D+00  0.000000D+00  0.000000D+00  0.000000D+00  0.000000D+00
    321   0.000000D+00  0.000000D+00  0.000000D+00  0.000000D+00  0.000000D+00
    322   0.000000D+00  0.000000D+00  0.000000D+00  0.000000D+00  0.000000D+00
    323   0.000000D+00  0.000000D+00  0.000000D+00  0.000000D+00  0.000000D+00
    324   0.000000D+00  0.000000D+00  0.000000D+00  0.000000D+00  0.000000D+00
    325   0.000000D+00  0.000000D+00  0.000000D+00  0.000000D+00  0.000000D+00
    326   0.000000D+00  0.000000D+00  0.000000D+00  0.000000D+00  0.000000D+00
    327   0.000000D+00  0.000000D+00  0.000000D+00  0.000000D+00  0.000000D+00
    328   0.000000D+00  0.000000D+00  0.000000D+00  0.000000D+00  0.000000D+00
    329   0.000000D+00  0.000000D+00  0.000000D+00  0.000000D+00  0.000000D+00
    330   0.000000D+00  0.000000D+00  0.000000D+00  0.000000D+00  0.000000D+00
    331   0.000000D+00  0.000000D+00  0.000000D+00  0.000000D+00  0.000000D+00
    332   0.000000D+00  0.000000D+00  0.000000D+00  0.000000D+00  0.000000D+00
    333   0.000000D+00  0.000000D+00  0.000000D+00  0.000000D+00  0.000000D+00
    334   0.000000D+00  0.000000D+00  0.000000D+00  0.000000D+00  0.000000D+00
    335   0.000000D+00  0.000000D+00  0.000000D+00  0.000000D+00  0.000000D+00
    336   0.000000D+00  0.000000D+00  0.000000D+00  0.000000D+00  0.000000D+00
    337   0.000000D+00  0.000000D+00  0.000000D+00  0.000000D+00  0.000000D+00
    338   0.000000D+00  0.000000D+00  0.000000D+00  0.000000D+00  0.000000D+00
    339   0.000000D+00  0.000000D+00  0.000000D+00  0.000000D+00  0.000000D+00
    340   0.000000D+00  0.000000D+00  0.000000D+00  0.000000D+00  0.000000D+00
    341   0.000000D+00  0.000000D+00  0.000000D+00  0.000000D+00  0.000000D+00
    342   0.000000D+00  0.000000D+00  0.000000D+00  0.000000D+00  0.000000D+00
    343   0.000000D+00  0.000000D+00  0.000000D+00  0.000000D+00  0.000000D+00
    344   0.000000D+00  0.000000D+00  0.000000D+00  0.000000D+00  0.000000D+00
    345   0.000000D+00  0.000000D+00  0.000000D+00  0.000000D+00  0.000000D+00
    346   0.000000D+00  0.000000D+00  0.000000D+00  0.000000D+00  0.000000D+00
    347   0.000000D+00  0.000000D+00  0.000000D+00  0.000000D+00  0.000000D+00
    348   0.000000D+00  0.000000D+00  0.000000D+00  0.000000D+00  0.000000D+00
    349   0.000000D+00  0.000000D+00  0.000000D+00  0.000000D+00  0.000000D+00
    350   0.000000D+00  0.000000D+00  0.000000D+00  0.000000D+00  0.000000D+00
    351   0.000000D+00  0.000000D+00  0.000000D+00  0.000000D+00  0.000000D+00
    352   0.000000D+00  0.000000D+00  0.000000D+00  0.000000D+00  0.000000D+00
    353   0.000000D+00  0.000000D+00  0.000000D+00  0.000000D+00  0.000000D+00
    354   0.000000D+00  0.000000D+00  0.000000D+00  0.000000D+00  0.000000D+00
    355   0.000000D+00  0.000000D+00  0.000000D+00  0.000000D+00  0.000000D+00
    356   0.000000D+00  0.000000D+00  0.000000D+00  0.000000D+00  0.000000D+00
    357   0.000000D+00  0.000000D+00  0.000000D+00  0.000000D+00  0.000000D+00
    358   0.000000D+00  0.000000D+00  0.000000D+00  0.000000D+00  0.000000D+00
    359   0.000000D+00  0.000000D+00  0.000000D+00  0.000000D+00  0.000000D+00
    360   0.000000D+00  0.000000D+00  0.000000D+00  0.000000D+00  0.000000D+00
    361   0.000000D+00  0.000000D+00  0.000000D+00  0.000000D+00  0.000000D+00
    362   0.000000D+00  0.000000D+00  0.000000D+00  0.000000D+00  0.000000D+00
    363   0.000000D+00  0.000000D+00  0.000000D+00  0.000000D+00  0.000000D+00
    364   0.000000D+00  0.000000D+00  0.000000D+00  0.000000D+00  0.000000D+00
    365   0.107279D-02  0.705022D-02  0.000000D+00  0.000000D+00 -0.236812D-02
    366   0.501840D-02  0.317679D-01  0.000000D+00  0.000000D+00 -0.233819D-02
    367   0.000000D+00  0.000000D+00  0.141555D-02  0.000000D+00  0.000000D+00
    368   0.000000D+00  0.000000D+00  0.000000D+00  0.141555D-02  0.000000D+00
    369   0.316894D-02  0.203717D-01  0.000000D+00  0.000000D+00 -0.520094D-02
    370   0.000000D+00  0.000000D+00  0.251198D-02  0.000000D+00  0.000000D+00
    371   0.000000D+00  0.000000D+00  0.000000D+00  0.251198D-02  0.000000D+00
    372   0.571736D-02  0.360887D-01  0.000000D+00  0.000000D+00  0.562017D-03
    373   0.000000D+00  0.000000D+00  0.000000D+00  0.000000D+00  0.000000D+00
    374   0.000000D+00  0.000000D+00  0.000000D+00  0.000000D+00  0.000000D+00
    375   0.348755D-05  0.463378D-04  0.000000D+00  0.000000D+00 -0.558999D-04
    376   0.276691D-03  0.207578D-02  0.000000D+00  0.000000D+00 -0.139671D-02
    377   0.205157D-02  0.133988D-01  0.000000D+00  0.000000D+00 -0.476753D-02
    378   0.447359D-02  0.283955D-01  0.000000D+00  0.000000D+00 -0.522967D-02
    379   0.000000D+00  0.000000D+00  0.000000D+00  0.000000D+00  0.000000D+00
    380   0.000000D+00  0.000000D+00  0.000000D+00  0.000000D+00  0.000000D+00
    381   0.000000D+00  0.000000D+00  0.000000D+00  0.000000D+00  0.000000D+00
    382   0.000000D+00  0.000000D+00  0.000000D+00  0.000000D+00  0.000000D+00
    383   0.000000D+00  0.000000D+00  0.000000D+00  0.000000D+00  0.000000D+00
    384   0.000000D+00  0.000000D+00  0.000000D+00  0.000000D+00  0.000000D+00
    385   0.000000D+00  0.000000D+00  0.113208D-04  0.000000D+00  0.000000D+00
    386   0.000000D+00  0.000000D+00  0.000000D+00  0.113208D-04  0.000000D+00
    387   0.129573D-04  0.171682D-03  0.000000D+00  0.000000D+00 -0.207162D-03
    388   0.000000D+00  0.000000D+00  0.743134D-03  0.000000D+00  0.000000D+00
    389   0.000000D+00  0.000000D+00  0.000000D+00  0.743134D-03  0.000000D+00
    390   0.153387D-02  0.107804D-01  0.000000D+00  0.000000D+00 -0.618079D-02
    391   0.000000D+00  0.000000D+00  0.355132D-02  0.000000D+00  0.000000D+00
    392   0.000000D+00  0.000000D+00  0.000000D+00  0.355132D-02  0.000000D+00
    393   0.807315D-02  0.510265D-01  0.000000D+00  0.000000D+00 -0.118898D-01
    394   0.000000D+00  0.000000D+00  0.441509D-02  0.000000D+00  0.000000D+00
    395   0.000000D+00  0.000000D+00  0.000000D+00  0.441509D-02  0.000000D+00
    396   0.101071D-01  0.633915D-01  0.000000D+00  0.000000D+00 -0.442157D-02
    397   0.000000D+00  0.000000D+00  0.000000D+00  0.000000D+00  0.000000D+00
    398   0.000000D+00  0.000000D+00  0.000000D+00  0.000000D+00  0.000000D+00
    399   0.000000D+00  0.000000D+00  0.000000D+00  0.000000D+00  0.000000D+00
    400   0.000000D+00  0.000000D+00  0.000000D+00  0.000000D+00  0.000000D+00
    401   0.000000D+00  0.000000D+00  0.000000D+00  0.000000D+00  0.000000D+00
    402   0.000000D+00  0.000000D+00  0.000000D+00  0.000000D+00  0.000000D+00
    403   0.000000D+00  0.000000D+00  0.000000D+00  0.000000D+00  0.000000D+00
    404   0.000000D+00  0.000000D+00  0.000000D+00  0.000000D+00  0.000000D+00
    405   0.000000D+00  0.000000D+00  0.000000D+00  0.000000D+00  0.000000D+00
    406   0.000000D+00  0.000000D+00  0.000000D+00  0.000000D+00  0.000000D+00
    407   0.000000D+00  0.000000D+00  0.000000D+00  0.000000D+00 -0.100883D-05
    408   0.000000D+00  0.000000D+00  0.000000D+00  0.000000D+00  0.000000D+00
    409   0.000000D+00  0.000000D+00  0.000000D+00  0.000000D+00  0.000000D+00
    410   0.000000D+00  0.000000D+00  0.000000D+00  0.000000D+00  0.000000D+00
    411   0.000000D+00  0.000000D+00  0.000000D+00  0.000000D+00  0.000000D+00
    412   0.398841D-04  0.495369D-03  0.000000D+00  0.000000D+00 -0.580245D-03
    413   0.000000D+00  0.000000D+00  0.567941D-04  0.000000D+00  0.000000D+00
    414   0.000000D+00  0.000000D+00  0.000000D+00  0.567941D-04  0.000000D+00
    415   0.000000D+00  0.000000D+00  0.000000D+00  0.000000D+00  0.000000D+00
    416   0.000000D+00  0.000000D+00  0.000000D+00  0.000000D+00  0.000000D+00
    417   0.258806D-02  0.180352D-01  0.000000D+00  0.000000D+00 -0.105109D-01
    418   0.000000D+00  0.000000D+00  0.215507D-02  0.000000D+00  0.000000D+00
    419   0.000000D+00  0.000000D+00  0.000000D+00  0.215507D-02  0.000000D+00
    420   0.000000D+00  0.000000D+00  0.000000D+00  0.000000D+00  0.000000D+00
    421   0.000000D+00  0.000000D+00  0.000000D+00  0.000000D+00  0.000000D+00
    422   0.118215D-01  0.737092D-01  0.000000D+00  0.000000D+00 -0.173752D-01
    423   0.000000D+00  0.000000D+00  0.889696D-02  0.000000D+00  0.000000D+00
    424   0.000000D+00  0.000000D+00  0.000000D+00  0.889696D-02  0.000000D+00
    425   0.000000D+00  0.000000D+00  0.000000D+00  0.000000D+00  0.000000D+00
    426   0.000000D+00  0.000000D+00  0.000000D+00  0.000000D+00  0.000000D+00
    427   0.139920D-01  0.865984D-01  0.000000D+00  0.000000D+00 -0.445434D-02
    428   0.000000D+00  0.000000D+00  0.104600D-01  0.000000D+00  0.000000D+00
    429   0.000000D+00  0.000000D+00  0.000000D+00  0.104600D-01  0.000000D+00
    430   0.000000D+00  0.000000D+00  0.000000D+00  0.000000D+00  0.000000D+00
    431   0.000000D+00  0.000000D+00  0.000000D+00  0.000000D+00  0.000000D+00
    432   0.000000D+00  0.000000D+00  0.000000D+00  0.000000D+00  0.000000D+00
    433   0.000000D+00  0.000000D+00  0.000000D+00  0.000000D+00  0.000000D+00
    434   0.000000D+00  0.000000D+00  0.000000D+00  0.000000D+00  0.000000D+00
    435   0.000000D+00  0.000000D+00  0.000000D+00  0.000000D+00  0.000000D+00
    436   0.000000D+00  0.000000D+00  0.000000D+00  0.000000D+00  0.000000D+00
    437   0.000000D+00  0.000000D+00  0.000000D+00  0.000000D+00  0.000000D+00
    438   0.000000D+00  0.000000D+00  0.000000D+00  0.000000D+00  0.000000D+00
    439   0.000000D+00  0.000000D+00  0.000000D+00  0.000000D+00  0.000000D+00
    440   0.000000D+00  0.000000D+00  0.000000D+00  0.000000D+00  0.000000D+00
    441   0.000000D+00  0.000000D+00  0.000000D+00  0.000000D+00  0.000000D+00
    442   0.000000D+00  0.000000D+00  0.000000D+00  0.000000D+00  0.000000D+00
    443   0.000000D+00  0.000000D+00  0.000000D+00  0.000000D+00  0.000000D+00
    444   0.000000D+00  0.000000D+00  0.000000D+00  0.000000D+00  0.000000D+00
    445   0.000000D+00  0.000000D+00  0.000000D+00  0.000000D+00  0.000000D+00
    446   0.133743D-05  0.399774D-04  0.000000D+00  0.000000D+00 -0.635262D-04
    447   0.000000D+00  0.000000D+00  0.624200D-05  0.000000D+00  0.000000D+00
    448   0.000000D+00  0.000000D+00  0.000000D+00  0.624200D-05  0.000000D+00
    449   0.000000D+00  0.000000D+00  0.000000D+00  0.000000D+00  0.000000D+00
    450   0.000000D+00  0.000000D+00  0.000000D+00  0.000000D+00  0.000000D+00
    451   0.000000D+00  0.000000D+00  0.000000D+00  0.000000D+00  0.000000D+00
    452   0.000000D+00  0.000000D+00  0.000000D+00  0.000000D+00  0.000000D+00
    453   0.815841D-03  0.673449D-02  0.000000D+00  0.000000D+00 -0.570649D-02
[...]
                                                  ----------
                         Total pair energies =    -0.664962 A.U.

                         Single Excitations  =    -0.005118 A.U.

                          Total second order =    -0.670080 A.U.

                         E2(CBS) - E2(Dir) =      -0.005274 A.U.

 E2(CBS)=      -0.672225 CBS-Int=       0.002145 OIii=       2.702532

 **********************************************************************

            Population analysis using the SCF density.

 **********************************************************************

 Orbital symmetries:
       Occupied  (SG) (SG) (SG) (PI) (PI) (SG) (SG) (PI) (PI) (SG)
                 (SG) (DLTA) (DLTA) (SG) (PI) (PI) (SG) (PI) (PI)
       Virtual   (SG) (SG) (PI) (PI) (SG) (SG) (DLTA) (DLTA) (PI)
                 (PI) (SG) (PI) (PI) (SG) (SG) (DLTA) (DLTA) (PI)
                 (PI) (SG) (PI) (PI) (SG) (SG) (PI) (PI) (SG) (DLTA)
                 (DLTA) (SG) (PHI) (PHI) (PI) (PI) (PI) (PI) (DLTA)
                 (DLTA) (SG) (PI) (PI) (DLTA) (DLTA) (SG) (SG)
                 (PI) (PI) (SG) (PHI) (PHI) (SG) (PI) (PI) (?A)
                 (?A) (DLTA) (DLTA) (SG) (PI) (PI) (DLTA) (DLTA)
                 (PHI) (PHI) (SG) (DLTA) (DLTA) (PI) (PI) (SG)
                 (PI) (PI) (SG) (PHI) (PHI) (DLTA) (DLTA) (PI)
                 (PI) (PI) (PI) (SG) (DLTA) (DLTA) (?A) (?A) (SG)
                 (PHI) (PHI) (SG) (SG) (PI) (PI) (PI) (PI) (?B)
                 (?B) (SG) (DLTA) (DLTA) (PHI) (PHI) (?A) (?A)
                 (PI) (PI) (SG) (DLTA) (DLTA) (PI) (PI) (DLTA)
                 (DLTA) (SG) (PHI) (PHI) (SG) (PI) (PI) (DLTA)
                 (DLTA) (?A) (?A) (PHI) (PHI) (?B) (?B) (PI) (PI)
                 (PI) (PI) (DLTA) (DLTA) (SG) (PHI) (PHI) (?A)
                 (?A) (SG) (SG) (SG) (PI) (PI) (DLTA) (DLTA) (PI)
                 (PI) (PHI) (PHI) (DLTA) (DLTA) (SG) (SG) (SG)
                 (PI) (PI) (?B) (?B) (SG) (DLTA) (DLTA) (?A) (?A)
                 (SG) (PHI) (PHI) (PI) (PI) (?A) (?A) (DLTA) (DLTA)
                 (PI) (PI) (SG) (PI) (PI) (SG) (SG) (SG) (PHI)
                 (PHI) (DLTA) (DLTA) (PI) (PI) (?B) (?B) (SG) (PHI)
                 (PHI) (SG) (DLTA) (DLTA) (DLTA) (DLTA) (PHI) (PHI)
                 (?A) (?A) (PI) (PI) (?B) (?B) (PI) (PI) (SG) (?A)
                 (?A) (DLTA) (DLTA) (SG) (SG) (DLTA) (DLTA) (PHI)
                 (PHI) (PI) (PI) (?A) (?A) (PI) (PI) (PHI) (PHI)
                 (SG) (PHI) (PHI) (PI) (PI) (DLTA) (DLTA) (PI)
                 (PI) (SG) (?B) (?B) (?A) (?A) (DLTA) (DLTA) (?C)
                 (?C) (SG) (SG) (PHI) (PHI) (?B) (?B) (SG) (DLTA)
                 (DLTA) (SG) (PI) (PI) (SG) (PI) (PI) (?A) (?A)
                 (SG) (PI) (PI) (DLTA) (DLTA) (SG) (PI) (PI) (PHI)
                 (PHI) (?A) (?A) (DLTA) (DLTA) (SG) (PHI) (PHI)
                 (PI) (PI) (PHI) (PHI) (DLTA) (DLTA) (SG) (SG)
                 (DLTA) (DLTA) (PI) (PI) (SG) (SG) (?B) (?B) (DLTA)
                 (DLTA) (SG) (PI) (PI) (?A) (?A) (PHI) (PHI) (DLTA)
                 (DLTA) (SG) (PI) (PI) (PI) (PI) (SG) (SG) (SG)
                 (?B) (?B) (?B) (?B) (?A) (?A) (?A) (?A) (PHI)
                 (PHI) (DLTA) (DLTA) (SG) (PHI) (PHI) (PI) (PI)
                 (?A) (?A) (PI) (PI) (SG) (PHI) (PHI) (DLTA) (DLTA)
                 (PHI) (PHI) (SG) (DLTA) (DLTA) (DLTA) (DLTA) (PI)
                 (PI) (SG) (PI) (PI) (SG) (PI) (PI) (?B) (?B) (?A)
                 (?A) (SG) (PHI) (PHI) (PI) (PI) (DLTA) (DLTA)
                 (SG) (PI) (PI) (?A) (?A) (PHI) (PHI) (PHI) (PHI)
                 (SG) (DLTA) (DLTA) (PI) (PI) (SG) (DLTA) (DLTA)
                 (SG) (PI) (PI) (SG) (SG) (?C) (?C) (?B) (?B) (?A)
                 (?A) (SG) (DLTA) (DLTA) (PHI) (PHI) (DLTA) (DLTA)
                 (DLTA) (DLTA) (SG) (PI) (PI) (PI) (PI) (PI) (PI)
                 (SG) (SG) (SG) (SG) (?B) (?B) (?C) (?C) (?A) (?A)
                 (PHI) (PHI) (DLTA) (DLTA) (SG) (PI) (PI) (?B)
                 (?B) (SG) (SG) (?A) (?A) (PHI) (PHI) (DLTA) (DLTA)
                 (SG) (PI) (PI) (SG) (?A) (?A) (?B) (?B) (PHI)
                 (PHI) (?A) (?A) (DLTA) (DLTA) (PHI) (PHI) (PI)
                 (PI) (SG) (DLTA) (DLTA) (PI) (PI) (PHI) (PHI)
                 (DLTA) (DLTA) (SG) (PI) (PI) (SG) (SG) (SG) (?B)
                 (?B) (?A) (?A) (PHI) (PHI) (DLTA) (DLTA) (SG)
                 (PI) (PI) (?B) (?B) (?A) (?A) (PI) (PI) (PHI)
                 (PHI) (DLTA) (DLTA) (PI) (PI) (SG) (SG) (PHI)
                 (PHI) (DLTA) (DLTA) (PI) (PI) (SG) (?A) (?A) (PHI)
                 (PHI) (DLTA) (DLTA) (PI) (PI) (SG) (PHI) (PHI)
                 (?A) (?A) (?B) (?B) (SG) (SG) (DLTA) (DLTA) (?C)
                 (?C) (?D) (?D) (SG) (PI) (PI) (DLTA) (DLTA) (PI)
                 (PI) (SG) (PI) (PI) (SG) (?B) (?B) (SG) (SG) (?A)
                 (?A) (?C) (?C) (PHI) (PHI) (DLTA) (DLTA) (SG)
                 (PI) (PI) (DLTA) (DLTA) (PI) (PI) (SG) (SG) (?B)
                 (?B) (?A) (?A) (PHI) (PHI) (SG) (SG) (DLTA) (DLTA)
                 (SG) (PI) (PI) (?A) (?A) (PHI) (PHI) (DLTA) (DLTA)
                 (PI) (PI) (SG) (?A) (?A) (?B) (?B) (PHI) (PHI)
                 (DLTA) (DLTA) (PI) (PI) (SG) (PHI) (PHI) (DLTA)
                 (DLTA) (PI) (PI) (SG) (SG) (SG)
 The electronic state is 4-SG.
 Alpha  occ. eigenvalues -- -283.04694 -34.89268 -30.18807 -30.12339 -30.12339
 Alpha  occ. eigenvalues --  -20.42764  -4.62726  -3.23513  -3.09042  -3.09042
 Alpha  occ. eigenvalues --   -1.13409  -0.73469  -0.73469  -0.71487  -0.61636
 Alpha  occ. eigenvalues --   -0.61636  -0.36977  -0.35278  -0.35278
 Alpha virt. eigenvalues --   -0.05037   0.00973   0.03498   0.03498   0.04028
 Alpha virt. eigenvalues --    0.05860   0.06269   0.06269   0.07759   0.07759
 Alpha virt. eigenvalues --    0.09903   0.16261   0.16261   0.16740   0.20615
 Alpha virt. eigenvalues --    0.22550   0.22550   0.23621   0.23621   0.24418
 Alpha virt. eigenvalues --    0.24630   0.24630   0.26664   0.39981   0.45990
 Alpha virt. eigenvalues --    0.45990   0.49711   0.51302   0.51302   0.51484
 Alpha virt. eigenvalues --    0.56303   0.56303   0.56724   0.56724   0.59981
 Alpha virt. eigenvalues --    0.59981   0.61900   0.61900   0.62341   0.65799
 Alpha virt. eigenvalues --    0.65799   0.68386   0.68386   0.70394   0.76338
 Alpha virt. eigenvalues --    0.85316   0.85316   0.93349   1.00711   1.00711
 Alpha virt. eigenvalues --    1.03467   1.13171   1.13171   1.17893   1.17893
 Alpha virt. eigenvalues --    1.18999   1.18999   1.19855   1.20963   1.20963
 Alpha virt. eigenvalues --    1.25755   1.25755   1.30321   1.30321   1.31806
 Alpha virt. eigenvalues --    1.32105   1.32105   1.32508   1.32508   1.34834
 Alpha virt. eigenvalues --    1.42283   1.42283   1.43439   1.49153   1.49153
 Alpha virt. eigenvalues --    1.59741   1.59741   1.60042   1.60042   1.63683
 Alpha virt. eigenvalues --    1.63685   1.63685   1.76562   1.76562   1.83039
 Alpha virt. eigenvalues --    1.83804   1.83804   2.09476   2.09476   2.15077
 Alpha virt. eigenvalues --    2.18312   2.23292   2.23292   2.27337   2.27337
 Alpha virt. eigenvalues --    2.30197   2.30197   2.37397   2.37664   2.37664
 Alpha virt. eigenvalues --    2.43032   2.43032   2.43247   2.43247   2.43915
 Alpha virt. eigenvalues --    2.43915   2.45023   2.52112   2.52112   2.63504
 Alpha virt. eigenvalues --    2.63504   2.66792   2.66792   2.67874   2.68889
 Alpha virt. eigenvalues --    2.68889   2.76045   2.81195   2.81195   2.82017
 Alpha virt. eigenvalues --    2.82017   3.01290   3.01290   3.03226   3.03226
 Alpha virt. eigenvalues --    3.09888   3.09888   3.17081   3.17081   3.23026
 Alpha virt. eigenvalues --    3.23026   3.25414   3.25414   3.27047   3.31649
 Alpha virt. eigenvalues --    3.31649   3.38087   3.38087   3.47941   3.51162
 Alpha virt. eigenvalues --    3.63024   3.64051   3.64051   3.64497   3.64497
 Alpha virt. eigenvalues --    3.92888   3.92888   3.97656   3.97656   4.07051
 Alpha virt. eigenvalues --    4.07051   4.19464   4.25936   4.25936   4.26491
 Alpha virt. eigenvalues --    4.26491   4.30296   4.30296   4.32648   4.40250
 Alpha virt. eigenvalues --    4.40250   4.44027   4.44027   4.44790   4.49592
 Alpha virt. eigenvalues --    4.49592   4.55717   4.55717   4.73619   4.73619
 Alpha virt. eigenvalues --    4.74884   4.74884   4.90271   4.90271   4.96531
 Alpha virt. eigenvalues --    4.99359   4.99359   5.06022   5.06022   5.07511
 Alpha virt. eigenvalues --    5.09454   5.09454   5.14138   5.14138   5.25134
 Alpha virt. eigenvalues --    5.25134   5.29952   5.29952   5.32765   5.33688
 Alpha virt. eigenvalues --    5.33688   5.43177   5.44811   5.44811   5.57334
 Alpha virt. eigenvalues --    5.57334   5.59938   5.59938   5.65254   5.65254
 Alpha virt. eigenvalues --    5.89582   5.89582   5.90189   5.90189   6.03027
 Alpha virt. eigenvalues --    6.03027   6.12766   6.17727   6.17727   6.31038
 Alpha virt. eigenvalues --    6.31038   6.41344   6.47877   6.48352   6.48352
 Alpha virt. eigenvalues --    6.62083   6.62083   6.68616   6.68616   6.75227
 Alpha virt. eigenvalues --    6.75227   6.88407   6.88407   6.91714   6.91714
 Alpha virt. eigenvalues --    7.25198   7.37926   7.37926   7.47012   7.47012
 Alpha virt. eigenvalues --    7.59785   7.59785   7.60747   7.60747   7.61613
 Alpha virt. eigenvalues --    7.65875   7.65875   7.68688   7.68688   7.82566
 Alpha virt. eigenvalues --    7.82566   7.85344   7.85344   7.87144   7.87144
 Alpha virt. eigenvalues --    7.87770   7.87770   8.10218   8.10218   8.29012
 Alpha virt. eigenvalues --    8.48070   8.48070   8.50585   8.58403   8.58403
 Alpha virt. eigenvalues --    8.62543   8.73299   8.73299   8.76442   8.76442
 Alpha virt. eigenvalues --    9.07704   9.09044   9.09044   9.48277   9.48277
 Alpha virt. eigenvalues --    9.48466   9.49463   9.49463   9.52506   9.52506
 Alpha virt. eigenvalues --    9.59393   9.59393   9.60172   9.60172   9.87765
 Alpha virt. eigenvalues --    9.88927   9.88927  10.12405  10.12405  10.20435
 Alpha virt. eigenvalues --   10.20435  10.35950  10.35950  10.57361  10.87458
 Alpha virt. eigenvalues --   10.92120  10.92120  11.02248  11.02248  11.13491
 Alpha virt. eigenvalues --   11.13491  11.16217  11.16217  11.23099  11.23099
 Alpha virt. eigenvalues --   11.25380  11.26485  11.26485  11.33054  11.33054
 Alpha virt. eigenvalues --   11.46247  11.46247  11.52873  11.52873  11.59156
 Alpha virt. eigenvalues --   12.15402  12.15402  12.46130  12.46130  12.53249
 Alpha virt. eigenvalues --   13.42647  13.42647  13.45609  13.45609  13.49125
 Alpha virt. eigenvalues --   13.49125  13.50410  13.50410  13.61487  13.61487
 Alpha virt. eigenvalues --   13.73587  13.73587  13.86995  13.86995  13.96173
 Alpha virt. eigenvalues --   14.15531  14.15531  14.16150  14.16150  14.22915
 Alpha virt. eigenvalues --   14.22915  14.30289  14.30289  14.31388  14.38965
 Alpha virt. eigenvalues --   14.38965  14.44927  14.44927  14.53883  14.53883
 Alpha virt. eigenvalues --   14.82363  15.03877  15.03877  15.87216  15.87216
 Alpha virt. eigenvalues --   15.88429  15.88429  16.15658  16.66200  16.66200
 Alpha virt. eigenvalues --   16.73906  16.99935  16.99935  17.20387  17.20387
 Alpha virt. eigenvalues --   17.28250  17.29801  17.29801  17.61936  17.61936
 Alpha virt. eigenvalues --   17.99464  17.99464  18.09640  18.09640  18.34299
 Alpha virt. eigenvalues --   19.13522  19.13522  19.94955  19.94955  20.09119
 Alpha virt. eigenvalues --   20.09119  20.27644  20.27644  20.33496  20.36122
 Alpha virt. eigenvalues --   20.36122  20.63994  20.63994  20.86318  20.96451
 Alpha virt. eigenvalues --   20.96451  21.56265  21.63883  21.63883  21.66259
 Alpha virt. eigenvalues --   21.66259  21.68730  21.68730  21.69388  21.69388
 Alpha virt. eigenvalues --   21.84146  21.84146  21.94228  21.99511  21.99511
 Alpha virt. eigenvalues --   22.01944  22.01944  22.16485  22.16485  22.33052
 Alpha virt. eigenvalues --   22.33052  22.40249  22.49570  22.49570  23.19539
 Alpha virt. eigenvalues --   23.19539  23.37978  23.37978  23.61954  25.23150
 Alpha virt. eigenvalues --   25.43358  25.43358  25.43452  25.43452  25.44499
 Alpha virt. eigenvalues --   25.44499  25.51192  25.51192  25.64154  25.64154
 Alpha virt. eigenvalues --   25.69807  25.69807  26.02946  26.18620  26.18620
 Alpha virt. eigenvalues --   26.68676  26.68676  26.70973  26.70973  26.74697
 Alpha virt. eigenvalues --   26.74697  26.89906  26.89906  27.36539  27.36539
 Alpha virt. eigenvalues --   27.37100  27.65570  27.65570  27.75755  29.90893
 Alpha virt. eigenvalues --   29.90893  29.93326  29.93326  30.06134  30.06134
 Alpha virt. eigenvalues --   30.12450  30.12450  30.30012  30.30012  30.31674
 Alpha virt. eigenvalues --   30.31674  30.38376  30.38376  30.50934  30.67133
 Alpha virt. eigenvalues --   30.67133  31.28656  31.28656  31.31319  31.31319
 Alpha virt. eigenvalues --   31.89330  31.89330  31.93886  32.82237  32.82237
 Alpha virt. eigenvalues --   33.03202  34.05624  34.05624  34.07134  34.07134
 Alpha virt. eigenvalues --   34.13394  34.13394  34.29062  34.29062  34.65806
 Alpha virt. eigenvalues --   34.65806  35.11605  35.12738  35.12738  39.02769
 Alpha virt. eigenvalues --   39.02769  39.08119  39.08119  39.19082  39.19082
 Alpha virt. eigenvalues --   39.25822  39.25822  39.51010  39.51010  39.57760
 Alpha virt. eigenvalues --   39.57760  39.66157  39.94460  41.71863  41.71863
 Alpha virt. eigenvalues --   42.04577  42.04577  42.55342  42.55342  42.71540
 Alpha virt. eigenvalues --   42.88673  42.88673  43.01041  43.01041  43.37842
 Alpha virt. eigenvalues --   43.37842  43.82560  43.82560  43.95069  44.03449
 Alpha virt. eigenvalues --   44.03449  44.03876  44.03876  44.05486  44.05486
 Alpha virt. eigenvalues --   44.07748  44.07748  44.08516  44.08516  44.10744
 Alpha virt. eigenvalues --   44.10744  44.14634  44.14634  44.26932  44.38219
 Alpha virt. eigenvalues --   44.38219  46.83186  46.83186  47.36255  47.36255
 Alpha virt. eigenvalues --   48.09875  52.97953  52.97953  55.24572  57.23842
 Alpha virt. eigenvalues --   57.23842  57.25925  57.25925  57.26641  57.26641
 Alpha virt. eigenvalues --   57.30831  57.30831  57.31197  57.31197  57.31426
 Alpha virt. eigenvalues --   57.31426  57.38866  57.40168  57.40168  57.96934
 Alpha virt. eigenvalues --   57.96934  58.83520  58.83520  59.33757  62.21363
 Alpha virt. eigenvalues --   64.21507  64.21507  64.21636  64.21636  64.24341
 Alpha virt. eigenvalues --   64.24341  64.26276  64.26276  64.34682  64.34682
 Alpha virt. eigenvalues --   64.46812  64.49046  64.49046  66.39914  66.39914
 Alpha virt. eigenvalues --   66.45965  66.45965  66.65353  66.65353  67.11345
 Alpha virt. eigenvalues --   67.11345  67.42086  68.28215  68.28215  68.32528
 Alpha virt. eigenvalues --   68.32528  68.38971  68.38971  68.61724  68.61724
 Alpha virt. eigenvalues --   68.66154  68.66154  68.76390  70.60346  70.60346
 Alpha virt. eigenvalues --   70.91301  70.91301  71.57976  71.57976  71.98159
 Alpha virt. eigenvalues --  108.54001 743.26787
          Condensed to atoms (all electrons):
              1          2
     1  Co  25.553021   0.239250
     2  O    0.239250   8.968480
 Mulliken atomic charges:
              1
     1  Co   1.207730
     2  O   -1.207730
 Sum of Mulliken atomic charges =   0.00000
 Mulliken charges with hydrogens summed into heavy atoms:
              1
     1  Co   1.207730
     2  O   -1.207730
 Sum of Mulliken charges with hydrogens summed into heavy atoms =   0.00000
          Atomic-Atomic Spin Densities.
              1          2
     1  Co   2.840009  -0.048543
     2  O   -0.048543   0.257077
 Mulliken atomic spin densities:
              1
     1  Co   2.791466
     2  O    0.208534
 Sum of Mulliken atomic spin densities =   3.00000
 Electronic spatial extent (au):  <R**2>=            100.0446
 Charge=              0.0000 electrons
 Dipole moment (field-independent basis, Debye):
    X=              0.0000    Y=              0.0000    Z=              8.8100  Tot=              8.8100
 Quadrupole moment (field-independent basis, Debye-Ang):
   XX=            -18.3042   YY=            -18.3042   ZZ=            -22.0699
   XY=              0.0000   XZ=              0.0000   YZ=              0.0000
 Traceless Quadrupole moment (field-independent basis, Debye-Ang):
   XX=              1.2552   YY=              1.2552   ZZ=             -2.5105
   XY=              0.0000   XZ=              0.0000   YZ=              0.0000
 Octapole moment (field-independent basis, Debye-Ang**2):
  XXX=              0.0000  YYY=              0.0000  ZZZ=             25.7811  XYY=              0.0000
  XXY=              0.0000  XXZ=              6.3324  XZZ=              0.0000  YZZ=              0.0000
  YYZ=              6.3324  XYZ=              0.0000
 Hexadecapole moment (field-independent basis, Debye-Ang**3):
 XXXX=            -18.8116 YYYY=            -18.8116 ZZZZ=            -92.8212 XXXY=              0.0000
 XXXZ=              0.0000 YYYX=              0.0000 YYYZ=              0.0000 ZZZX=              0.0000
 ZZZY=              0.0000 XXYY=             -6.2705 XXZZ=            -17.9390 YYZZ=            -17.9390
 XXYZ=              0.0000 YYXZ=              0.0000 ZZXY=              0.0000
 N-N= 7.143892315965D+01 E-N=-5.373000564490D+03  KE= 2.172568390978D+03
                          Isotropic Fermi Contact Couplings
        Atom                 a.u.       MegaHertz       Gauss      10(-4) cm-1
     1  Co(59)             1.18760     418.79450     149.43629     139.69481
     2  O(17)              0.01318      -2.66223      -0.94995      -0.88802
 --------------------------------------------------------
       Center         ----  Spin Dipole Couplings  ----
                      3XX-RR        3YY-RR        3ZZ-RR
 --------------------------------------------------------
     1   Atom       -3.203509     -3.203509      6.407017
     2   Atom       -0.096522     -0.096522      0.193045
 --------------------------------------------------------
                        XY            XZ            YZ
 --------------------------------------------------------
     1   Atom        0.000000      0.000000      0.000000
     2   Atom        0.000000      0.000000      0.000000
 --------------------------------------------------------


 ---------------------------------------------------------------------------------
              Anisotropic Spin Dipole Couplings in Principal Axis System
 ---------------------------------------------------------------------------------

       Atom             a.u.   MegaHertz   Gauss  10(-4) cm-1        Axes

              Baa    -3.2035  -404.536  -144.349  -134.939  1.0000  0.0000  0.0000
     1 Co(59) Bbb    -3.2035  -404.536  -144.349  -134.939  0.0000  1.0000  0.0000
              Bcc     6.4070   809.073   288.697   269.878  0.0000  0.0000  1.0000
 
              Baa    -0.0965     6.984     2.492     2.330  1.0000  0.0000  0.0000
     2 O(17)  Bbb    -0.0965     6.984     2.492     2.330  0.0000  1.0000  0.0000
              Bcc     0.1930   -13.969    -4.984    -4.659  0.0000  0.0000  1.0000
 

 ---------------------------------------------------------------------------------


 Test job not archived.
 1\1\GINC-N33\SP\ROMP2-FC\Gen\Co1O1(4)\GPETERSSON\16-Dec-2013\0\\# ROMP
 2 Gen GFinput Int=NoBasisTransform SCF=Symm IOP(3/32=2,5/6=8,9/33=1) G
 uess=Read CBSextrapolate(Nmin=25,MinPop) Int(Grid=Ultrafine)\\CoO 4/\\
 0,4\Co\O,1,1.6\\Version=EM64L-G09RevA.02\State=4-SG\HF=-1456.1612823\M
 P2=-1456.8282338\E2(CBS)=-0.6722251\CBS-Int=-0.6700799\OIii=2.7025324\
 RMSD=2.073e-09\PG=C*V [C*(O1Co1)]\\@


 EVERYTHING'S GOT A MORAL, IF ONLY YOU CAN FIND IT.

                                    -- LEWIS CARROL, ALICE IN WONDERLAND
 Job cpu time:  7 days  6 hours 51 minutes 18.3 seconds.
 File lengths (MBytes):  RWF=  69402 Int=      0 D2E=      0 Chk=     31 Scr=      1
 Normal termination of Gaussian 09 at Mon Dec 16 06:59:47 2013.
