 Entering Gaussian System, Link 0=g09
 AtFile(1): 7ZaPa-NR.gbs
 Initial command:
 /share/apps/gaussian/g09root/g09/l1.exe /localscratch/63328/Gau-1441.inp -scrdir=/localscratch/63328/
 Entering Link 1 = /share/apps/gaussian/g09root/g09/l1.exe PID=      1442.
  
 Copyright (c) 1988,1990,1992,1993,1995,1998,2003,2009, Gaussian, Inc.
                  All Rights Reserved.
  
 This is part of the Gaussian(R) 09 program.  It is based on
 the Gaussian(R) 03 system (copyright 2003, Gaussian, Inc.),
 the Gaussian(R) 98 system (copyright 1998, Gaussian, Inc.),
 the Gaussian(R) 94 system (copyright 1995, Gaussian, Inc.),
 the Gaussian 92(TM) system (copyright 1992, Gaussian, Inc.),
 the Gaussian 90(TM) system (copyright 1990, Gaussian, Inc.),
 the Gaussian 88(TM) system (copyright 1988, Gaussian, Inc.),
 the Gaussian 86(TM) system (copyright 1986, Carnegie Mellon
 University), and the Gaussian 82(TM) system (copyright 1983,
 Carnegie Mellon University). Gaussian is a federally registered
 trademark of Gaussian, Inc.
  
 This software contains proprietary and confidential information,
 including trade secrets, belonging to Gaussian, Inc.
  
 This software is provided under written license and may be
 used, copied, transmitted, or stored only in accord with that
 written license.
  
 The following legend is applicable only to US Government
 contracts under FAR:
  
                    RESTRICTED RIGHTS LEGEND
  
 Use, reproduction and disclosure by the US Government is
 subject to restrictions as set forth in subparagraphs (a)
 and (c) of the Commercial Computer Software - Restricted
 Rights clause in FAR 52.227-19.
  
 Gaussian, Inc.
 340 Quinnipiac St., Bldg. 40, Wallingford CT 06492
  
  
 ---------------------------------------------------------------
 Warning -- This program may not be used in any manner that
 competes with the business of Gaussian, Inc. or will provide
 assistance to any competitor of Gaussian, Inc.  The licensee
 of this program is prohibited from giving any competitor of
 Gaussian, Inc. access to this program.  By using this program,
 the user acknowledges that Gaussian, Inc. is engaged in the
 business of creating and licensing software in the field of
 computational chemistry and represents and warrants to the
 licensee that it is not a competitor of Gaussian, Inc. and that
 it will not use this program in any manner prohibited above.
 ---------------------------------------------------------------
  

 Cite this work as:
 Gaussian 09, Revision A.02,
 M. J. Frisch, G. W. Trucks, H. B. Schlegel, G. E. Scuseria, 
 M. A. Robb, J. R. Cheeseman, G. Scalmani, V. Barone, B. Mennucci, 
 G. A. Petersson, H. Nakatsuji, M. Caricato, X. Li, H. P. Hratchian, 
 A. F. Izmaylov, J. Bloino, G. Zheng, J. L. Sonnenberg, M. Hada, 
 M. Ehara, K. Toyota, R. Fukuda, J. Hasegawa, M. Ishida, T. Nakajima, 
 Y. Honda, O. Kitao, H. Nakai, T. Vreven, J. A. Montgomery, Jr., 
 J. E. Peralta, F. Ogliaro, M. Bearpark, J. J. Heyd, E. Brothers, 
 K. N. Kudin, V. N. Staroverov, R. Kobayashi, J. Normand, 
 K. Raghavachari, A. Rendell, J. C. Burant, S. S. Iyengar, J. Tomasi, 
 M. Cossi, N. Rega, J. M. Millam, M. Klene, J. E. Knox, J. B. Cross, 
 V. Bakken, C. Adamo, J. Jaramillo, R. Gomperts, R. E. Stratmann, 
 O. Yazyev, A. J. Austin, R. Cammi, C. Pomelli, J. W. Ochterski, 
 R. L. Martin, K. Morokuma, V. G. Zakrzewski, G. A. Voth, 
 P. Salvador, J. J. Dannenberg, S. Dapprich, A. D. Daniels, 
 O. Farkas, J. B. Foresman, J. V. Ortiz, J. Cioslowski, 
 and D. J. Fox, Gaussian, Inc., Wallingford CT, 2009.
 
 ******************************************
 Gaussian 09:  EM64L-G09RevA.02 11-Jun-2009
                11-Nov-2013 
 ******************************************
 % Mem=64GB
 % Nproc=16
 Will use up to   16 processors via shared memory.
 % Chk=CrO+_4Sg.chk
 ----------------------------------------------------------------------
 # ROMP2 Gen GFinput Int=NoBasisTransform Int(Grid=Ultrafine) IOp(3/32=
 2,5/6=10,8/11=1,9/33=1) Maxdisk=128GB CBSextrapolate(Nmin=25,MinPop) S
 CF=Symm Guess=Read
 ----------------------------------------------------------------------
 1/38=1/1;
 2/12=2,17=6,18=5,40=1/2;
 3/5=7,11=2,16=1,24=10,25=1,30=1,32=2,60=-1,75=-5,116=101/1,2,3;
 4/5=1,9=4/1;
 5/5=2,6=10,15=2,38=6/2;
 8/5=-1,10=1,11=1/1;
 9/16=-3,33=1,75=2,81=25,83=4/6,4;
 6/7=2,8=2,9=2,10=2/1;
 99/5=1,9=1/99;
 ---------
 CrO+ 4Sg-
 ---------
 Symbolic Z-matrix:
 Charge =  1 Multiplicity = 4
 Cr
 O                    1     1.614 
 
                          Input orientation:                          
 ---------------------------------------------------------------------
 Center     Atomic      Atomic             Coordinates (Angstroms)
 Number     Number       Type             X           Y           Z
 ---------------------------------------------------------------------
      1         24           0        0.000000    0.000000    0.000000
      2          8           0        0.000000    0.000000    1.614000
 ---------------------------------------------------------------------
 Stoichiometry    CrO(1+,4)
 Framework group  C*V[C*(OCr)]
 Deg. of freedom     1
 Full point group                 C*V     NOp   4
 Largest Abelian subgroup         C2V     NOp   4
 Largest concise Abelian subgroup C1      NOp   1
                         Standard orientation:                         
 ---------------------------------------------------------------------
 Center     Atomic      Atomic             Coordinates (Angstroms)
 Number     Number       Type             X           Y           Z
 ---------------------------------------------------------------------
      1         24           0        0.000000    0.000000    0.403500
      2          8           0        0.000000    0.000000   -1.210500
 ---------------------------------------------------------------------
 Rotational constants (GHZ):      0.0000000     15.8642043     15.8642043
 General basis read from cards:  (5D, 7F)
 AO basis set in the form of general basis input (Overlap normalization):
      1 0
 S  18 1.00       0.000000000000
      0.3785251000D+08  0.4066181769D-06
      0.7529656060D+07  0.2343547468D-05
      0.1763888930D+07  0.1326615796D-04
      0.4772665070D+06  0.6102298347D-04
      0.1464857360D+06  0.2419454830D-03
      0.5015131340D+05  0.8387213576D-03
      0.1885691360D+05  0.2595524980D-02
      0.7675976440D+04  0.7279535703D-02
      0.3338514870D+04  0.1869859803D-01
      0.1532865360D+04  0.4408602079D-01
      0.7349137460D+03  0.9431189762D-01
      0.3643017120D+03  0.1773525655D+00
      0.1850688810D+03  0.2738386586D+00
      0.9559511900D+02  0.3017487450D+00
      0.4986120200D+02  0.1841630411D+00
      0.2610386100D+02  0.4202265972D-01
      0.1364682200D+02  0.2725318023D-02
      0.7093757000D+01  0.6696453945D-03
 S  16 1.00       0.000000000000
      0.5015131340D+05 -0.3337963832D-06
      0.1885691360D+05 -0.2032643443D-05
      0.7675976440D+04 -0.1788370979D-04
      0.3338514870D+04 -0.9712816531D-04
      0.1532865360D+04 -0.5333479060D-03
      0.7349137460D+03 -0.2328206727D-02
      0.3643017120D+03 -0.9228490345D-02
      0.1850688810D+03 -0.2931713271D-01
      0.9559511900D+02 -0.6967758856D-01
      0.4986120200D+02 -0.7640872750D-01
      0.2610386100D+02  0.7820060042D-01
      0.1364682200D+02  0.4120616170D+00
      0.7093757000D+01  0.4773607369D+00
      0.3653588000D+01  0.1546474566D+00
      0.1859401000D+01  0.1079213679D-01
      0.9331760000D+00  0.1007330109D-02
 P  16 1.00       0.000000000000
      0.6457291620D+05  0.3094959489D-05
      0.1550332020D+05  0.2850256002D-04
      0.4879418110D+04  0.1774046088D-03
      0.1853795450D+04  0.8099212803D-03
      0.7989917450D+03  0.3025978921D-02
      0.3736474200D+03  0.9788201619D-02
      0.1840141170D+03  0.2807786461D-01
      0.9373012900D+02  0.7116098347D-01
      0.4893463400D+02  0.1513477599D+00
      0.2610927600D+02  0.2524945410D+00
      0.1424198800D+02  0.3112291687D+00
      0.7948493000D+01  0.2431705764D+00
      0.4531322000D+01  0.1005142702D+00
      0.2620515000D+01  0.1997821485D-01
      0.1514382000D+01  0.1783530198D-02
      0.8520540000D+00  0.2871082911D-03
 S  11 1.00       0.000000000000
      0.1850688810D+03  0.1766520215D-03
      0.9559511900D+02  0.1029702892D-02
      0.4986120200D+02  0.2613528909D-02
      0.2610386100D+02 -0.1795816053D-02
      0.1364682200D+02 -0.5772693477D-01
      0.7093757000D+01 -0.1989420824D+00
      0.3653588000D+01 -0.4617281901D-01
      0.1859401000D+01  0.4289283851D+00
      0.9331760000D+00  0.5632543587D+00
      0.4612290000D+00  0.1961706841D+00
      0.2243580000D+00  0.7236161782D-02
 P  11 1.00       0.000000000000
      0.9373012900D+02  0.9227429775D-03
      0.4893463400D+02  0.2938081231D-02
      0.2610927600D+02  0.9049471033D-02
      0.1424198800D+02  0.1713153578D-01
      0.7948493000D+01  0.5105456360D-02
      0.4531322000D+01 -0.8977354309D-01
      0.2620515000D+01 -0.2336502149D+00
      0.1514382000D+01 -0.3290986221D+00
      0.8520540000D+00 -0.3112140836D+00
      0.4485090000D+00 -0.1490049246D+00
      0.2087320000D+00 -0.1807944794D-01
 D  16 1.00       0.000000000000
      0.2216703770D+04  0.3413089997D-05
      0.6949082160D+03  0.3497148867D-04
      0.2663406850D+03  0.2354186588D-03
      0.1177593000D+03  0.1129420079D-02
      0.5741846600D+02  0.4261619746D-02
      0.2985213300D+02  0.1277374809D-01
      0.1615389000D+02  0.3120024447D-01
      0.8950210000D+01  0.6758822514D-01
      0.5024698000D+01  0.1272953399D+00
      0.2840454000D+01  0.1924860798D+00
      0.1610589000D+01  0.2357991718D+00
      0.9130220000D+00  0.2438234438D+00
      0.5151620000D+00  0.2122502478D+00
      0.2871770000D+00  0.1456045589D+00
      0.1562460000D+00  0.6214652135D-01
      0.8143200000D-01  0.9037591232D-02
 D   1 1.00       0.000000000000
      0.5315766398D-01  0.1000000000D+01
 S  10 1.00       0.000000000000
      0.2610386100D+02  0.2078120604D-04
      0.1364682200D+02  0.1617984830D-03
      0.7093757000D+01  0.3610369228D-02
      0.3653588000D+01 -0.9284237980D-03
      0.1859401000D+01 -0.2196722802D-01
      0.9331760000D+00 -0.9918108124D-01
      0.4612290000D+00 -0.1805621896D+00
      0.2243580000D+00  0.1435921144D+00
      0.1074020000D+00  0.7085248420D+00
      0.5062400000D-01  0.3369685681D+00
 S   1 1.00       0.000000000000
      0.4130569390D-01  0.1000000000D+01
 S   1 1.00       0.000000000000
      0.1643200000D-01  0.1000000000D+01
 S   1 1.00       0.000000000000
      0.5499000000D-02  0.1000000000D+01
 P  10 1.00       0.000000000000
      0.2610927600D+02  0.1718967956D-02
      0.1424198800D+02 -0.2659370706D-02
      0.7948493000D+01  0.1063224935D-01
      0.4531322000D+01 -0.3188106187D-01
      0.2620515000D+01  0.2036038537D-01
      0.1514382000D+01 -0.1042742095D+00
      0.8520540000D+00  0.4838588434D-01
      0.4485090000D+00 -0.1430688266D+00
      0.2087320000D+00  0.4122560677D+00
      0.6503543410D-01  0.7533995482D+00
 P   1 1.00       0.000000000000
      0.8111303442D-01  0.1000000000D+01
 S   1 1.00       0.000000000000
      0.5653827000D+01  0.1000000000D+01
 S   1 1.00       0.000000000000
      0.2852201000D+01  0.1000000000D+01
 S   1 1.00       0.000000000000
      0.1438857000D+01  0.1000000000D+01
 S   1 1.00       0.000000000000
      0.7258640000D+00  0.1000000000D+01
 S   1 1.00       0.000000000000
      0.3661790000D+00  0.1000000000D+01
 S   1 1.00       0.000000000000
      0.1847270000D+00  0.1000000000D+01
 P   1 1.00       0.000000000000
      0.2202942000D+01  0.1000000000D+01
 P   1 1.00       0.000000000000
      0.1280859000D+01  0.1000000000D+01
 P   1 1.00       0.000000000000
      0.7447320000D+00  0.1000000000D+01
 P   1 1.00       0.000000000000
      0.4330100000D+00  0.1000000000D+01
 P   1 1.00       0.000000000000
      0.2517660000D+00  0.1000000000D+01
 P   1 1.00       0.000000000000
      0.1463850000D+00  0.1000000000D+01
 D   1 1.00       0.000000000000
      0.5285417000D+01  0.1000000000D+01
 D   1 1.00       0.000000000000
      0.2499902000D+01  0.1000000000D+01
 D   1 1.00       0.000000000000
      0.1182406000D+01  0.1000000000D+01
 D   1 1.00       0.000000000000
      0.5592560000D+00  0.1000000000D+01
 D   1 1.00       0.000000000000
      0.2645170000D+00  0.1000000000D+01
 D   1 1.00       0.000000000000
      0.1251120000D+00  0.1000000000D+01
 F   1 1.00       0.000000000000
      0.1379811500D+02  0.1000000000D+01
 F   1 1.00       0.000000000000
      0.6170242000D+01  0.1000000000D+01
 F   1 1.00       0.000000000000
      0.2759209000D+01  0.1000000000D+01
 F   1 1.00       0.000000000000
      0.1233863000D+01  0.1000000000D+01
 F   1 1.00       0.000000000000
      0.5517590000D+00  0.1000000000D+01
 F   1 1.00       0.000000000000
      0.2467360000D+00  0.1000000000D+01
 F   1 1.00       0.000000000000
      0.1103350000D+00  0.1000000000D+01
 G   1 1.00       0.000000000000
      0.1093228400D+02  0.1000000000D+01
 G   1 1.00       0.000000000000
      0.4822038000D+01  0.1000000000D+01
 G   1 1.00       0.000000000000
      0.2126916000D+01  0.1000000000D+01
 G   1 1.00       0.000000000000
      0.9381450000D+00  0.1000000000D+01
 G   1 1.00       0.000000000000
      0.4137990000D+00  0.1000000000D+01
 G   1 1.00       0.000000000000
      0.1825190000D+00  0.1000000000D+01
 H   1 1.00       0.000000000000
      0.7559634000D+01  0.1000000000D+01
 H   1 1.00       0.000000000000
      0.3150497000D+01  0.1000000000D+01
 H   1 1.00       0.000000000000
      0.1312978000D+01  0.1000000000D+01
 H   1 1.00       0.000000000000
      0.5471870000D+00  0.1000000000D+01
 H   1 1.00       0.000000000000
      0.2280410000D+00  0.1000000000D+01
 I   1 1.00       0.000000000000
      0.6006038000D+01  0.1000000000D+01
 I   1 1.00       0.000000000000
      0.2382564000D+01  0.1000000000D+01
 I   1 1.00       0.000000000000
      0.9451510000D+00  0.1000000000D+01
 I   1 1.00       0.000000000000
      0.3749360000D+00  0.1000000000D+01
 J   1 1.00       0.000000000000
      0.4605020000D+01  0.1000000000D+01
 J   1 1.00       0.000000000000
      0.1654368000D+01  0.1000000000D+01
 J   1 1.00       0.000000000000
      0.5943360000D+00  0.1000000000D+01
 K   1 1.00       0.000000000000
      0.3225791679D+01  0.1000000000D+01
 ****
      2 0
 S  16 1.00       0.000000000000
      0.1411246410D+07  0.1627429822D-05
      0.2499102240D+06  0.1092621996D-04
      0.5603410580D+05  0.6238741867D-04
      0.1521153640D+05  0.2783303491D-03
      0.4812287750D+04  0.1040541872D-02
      0.1717755460D+04  0.3380392793D-02
      0.6733958240D+03  0.9828484765D-02
      0.2835101840D+03  0.2605310129D-01
      0.1258620070D+03  0.6280818057D-01
      0.5804472200D+02  0.1348202075D+00
      0.2747198500D+02  0.2435563460D+00
      0.1321062900D+02  0.3323287378D+00
      0.6399806000D+01  0.2607930483D+00
      0.3099614000D+01  0.7430834326D-01
      0.1489856000D+01  0.4189538074D-02
      0.7052010000D+00  0.8706455725D-03
 S  11 1.00       0.000000000000
      0.2835101840D+03 -0.1122588094D-03
      0.1258620070D+03 -0.5559335617D-03
      0.5804472200D+02 -0.2851687904D-02
      0.2747198500D+02 -0.1133494995D-01
      0.1321062900D+02 -0.3657977704D-01
      0.6399806000D+01 -0.7288994197D-01
      0.3099614000D+01 -0.1062032356D-01
      0.1489856000D+01  0.2196705572D+00
      0.7052010000D+00  0.4294832072D+00
      0.3258480000D+00  0.3775832849D+00
      0.1454600000D+00  0.9640261255D-01
 S   1 1.00       0.000000000000
      0.5814297870D-01  0.1000000000D+01
 P  13 1.00       0.000000000000
      0.2085279200D+04  0.1447911740D-04
      0.5101470830D+03  0.1283233588D-03
      0.1616811510D+03  0.7792790007D-03
      0.6114945200D+02  0.3400506049D-02
      0.2597660200D+02  0.1157685214D-01
      0.1187542600D+02  0.3269740339D-01
      0.5677133000D+01  0.8011404242D-01
      0.2786475000D+01  0.1605265057D+00
      0.1387844000D+01  0.2460495026D+00
      0.6952810000D+00  0.2898982926D+00
      0.3470020000D+00  0.2606799382D+00
      0.1700990000D+00  0.1479363112D+00
      0.8008000000D-01  0.2980261453D-01
 P   1 1.00       0.000000000000
      0.4261436033D-01  0.1000000000D+01
 S   1 1.00       0.000000000000
      0.4249866000D+01  0.1000000000D+01
 S   1 1.00       0.000000000000
      0.2167470000D+01  0.1000000000D+01
 S   1 1.00       0.000000000000
      0.1105429000D+01  0.1000000000D+01
 S   1 1.00       0.000000000000
      0.5637790000D+00  0.1000000000D+01
 S   1 1.00       0.000000000000
      0.2875320000D+00  0.1000000000D+01
 S   1 1.00       0.000000000000
      0.1466440000D+00  0.1000000000D+01
 P   1 1.00       0.000000000000
      0.5659724000D+01  0.1000000000D+01
 P   1 1.00       0.000000000000
      0.2575878000D+01  0.1000000000D+01
 P   1 1.00       0.000000000000
      0.1172344000D+01  0.1000000000D+01
 P   1 1.00       0.000000000000
      0.5335620000D+00  0.1000000000D+01
 P   1 1.00       0.000000000000
      0.2428370000D+00  0.1000000000D+01
 P   1 1.00       0.000000000000
      0.1105210000D+00  0.1000000000D+01
 D   1 1.00       0.000000000000
      0.9464211000D+01  0.1000000000D+01
 D   1 1.00       0.000000000000
      0.4752286000D+01  0.1000000000D+01
 D   1 1.00       0.000000000000
      0.2386276000D+01  0.1000000000D+01
 D   1 1.00       0.000000000000
      0.1198226000D+01  0.1000000000D+01
 D   1 1.00       0.000000000000
      0.6016680000D+00  0.1000000000D+01
 D   1 1.00       0.000000000000
      0.3021170000D+00  0.1000000000D+01
 D   1 1.00       0.000000000000
      0.1517020000D+00  0.1000000000D+01
 F   1 1.00       0.000000000000
      0.7001836000D+01  0.1000000000D+01
 F   1 1.00       0.000000000000
      0.3552509000D+01  0.1000000000D+01
 F   1 1.00       0.000000000000
      0.1802430000D+01  0.1000000000D+01
 F   1 1.00       0.000000000000
      0.9144960000D+00  0.1000000000D+01
 F   1 1.00       0.000000000000
      0.4639860000D+00  0.1000000000D+01
 F   1 1.00       0.000000000000
      0.2354110000D+00  0.1000000000D+01
 G   1 1.00       0.000000000000
      0.6472481000D+01  0.1000000000D+01
 G   1 1.00       0.000000000000
      0.3119071000D+01  0.1000000000D+01
 G   1 1.00       0.000000000000
      0.1503072000D+01  0.1000000000D+01
 G   1 1.00       0.000000000000
      0.7243260000D+00  0.1000000000D+01
 G   1 1.00       0.000000000000
      0.3490500000D+00  0.1000000000D+01
 H   1 1.00       0.000000000000
      0.5355083000D+01  0.1000000000D+01
 H   1 1.00       0.000000000000
      0.2414696000D+01  0.1000000000D+01
 H   1 1.00       0.000000000000
      0.1088827000D+01  0.1000000000D+01
 H   1 1.00       0.000000000000
      0.4909703000D+00  0.1000000000D+01
 I   1 1.00       0.000000000000
      0.4322113000D+01  0.1000000000D+01
 I   1 1.00       0.000000000000
      0.1716263000D+01  0.1000000000D+01
 I   1 1.00       0.000000000000
      0.6815089000D+00  0.1000000000D+01
 J   1 1.00       0.000000000000
      0.3060973723D+01  0.1000000000D+01
 ****

 There are   205 symmetry adapted basis functions of A1  symmetry.
 There are   105 symmetry adapted basis functions of A2  symmetry.
 There are   149 symmetry adapted basis functions of B1  symmetry.
 There are   149 symmetry adapted basis functions of B2  symmetry.
 Integral buffers will be    131072 words long.
 Raffenetti 2 integral format.
 Two-electron integral symmetry is turned on.
   608 basis functions,  1339 primitive gaussians,  1035 cartesian basis functions
    17 alpha electrons       14 beta electrons
       nuclear repulsion energy        62.9504486055 Hartrees.
 NAtoms=    2 NActive=    2 NUniq=    2 SFac= 7.50D-01 NAtFMM=   80 NAOKFM=F Big=F
 One-electron integrals computed using PRISM.
 NBasis=   608 RedAO= F  NBF=   205   105   149   149
 NBsUse=   608 1.00D-04 NBFU=   205   105   149   149
 Initial guess read from the checkpoint file:  CrO+_4Sg.chk
 B after Tr=     0.000000    0.000000    0.000000
         Rot=    1.000000    0.000000    0.000000    0.000000 Ang=   0.00 deg.
 Initial guess orbital symmetries:
       Occupied  (SG) (SG) (SG) (PI) (PI) (SG) (SG) (SG) (PI) (PI)
                 (SG) (SG) (PI) (PI) (DLTA) (DLTA) (SG)
       Virtual   (SG) (PI) (PI) (PI) (PI) (SG) (SG) (DLTA) (DLTA)
                 (PI) (PI) (SG) (SG) (PI) (PI) (SG) (DLTA) (DLTA)
                 (SG) (PI) (PI) (PI) (PI) (SG) (SG) (PI) (PI) (SG)
                 (DLTA) (DLTA) (PHI) (PHI) (SG) (PI) (PI) (SG)
                 (DLTA) (DLTA) (PI) (PI) (SG) (DLTA) (DLTA) (PI)
                 (PI) (SG) (PI) (PI) (SG) (PI) (PI) (SG) (PHI)
                 (PHI) (?A) (?A) (SG) (DLTA) (DLTA) (PI) (PI) (SG)
                 (DLTA) (DLTA) (PHI) (PHI) (SG) (PHI) (PHI) (PI)
                 (PI) (DLTA) (DLTA) (DLTA) (DLTA) (PI) (PI) (SG)
                 (SG) (PI) (PI) (SG) (PI) (PI) (DLTA) (DLTA) (PI)
                 (PI) (?A) (?A) (?B) (?B) (PHI) (PHI) (SG) (SG)
                 (PI) (PI) (DLTA) (DLTA) (SG) (SG) (PHI) (PHI)
                 (PI) (PI) (?A) (?A) (SG) (DLTA) (DLTA) (?A) (?A)
                 (PI) (PI) (PHI) (PHI) (PHI) (PHI) (SG) (SG) (DLTA)
                 (DLTA) (PI) (PI) (PHI) (PHI) (DLTA) (DLTA) (SG)
                 (PI) (PI) (?B) (?B) (SG) (SG) (DLTA) (DLTA) (?A)
                 (?A) (SG) (DLTA) (DLTA) (PI) (PI) (PI) (PI) (SG)
                 (PI) (PI) (DLTA) (DLTA) (PHI) (PHI) (SG) (?B)
                 (?B) (PI) (PI) (DLTA) (DLTA) (SG) (SG) (?A) (?A)
                 (PHI) (PHI) (PI) (PI) (SG) (DLTA) (DLTA) (PI)
                 (PI) (?B) (?B) (?A) (?A) (PI) (PI) (SG) (PI) (PI)
                 (PHI) (PHI) (SG) (DLTA) (DLTA) (SG) (?A) (?A)
                 (PHI) (PHI) (?A) (?A) (SG) (PI) (PI) (PHI) (PHI)
                 (DLTA) (DLTA) (PHI) (PHI) (DLTA) (DLTA) (SG) (PHI)
                 (PHI) (DLTA) (DLTA) (PI) (PI) (SG) (PI) (PI) (SG)
                 (DLTA) (DLTA) (DLTA) (DLTA) (SG) (PI) (PI) (PI)
                 (PI) (PI) (PI) (SG) (SG) (SG) (DLTA) (DLTA) (DLTA)
                 (DLTA) (PHI) (PHI) (?A) (?A) (?B) (?B) (SG) (SG)
                 (PI) (PI) (?B) (?B) (PI) (PI) (SG) (?A) (?A) (PHI)
                 (PHI) (SG) (PI) (PI) (DLTA) (DLTA) (SG) (PI) (PI)
                 (PHI) (PHI) (SG) (?A) (?A) (?B) (?B) (PHI) (PHI)
                 (DLTA) (DLTA) (SG) (PI) (PI) (DLTA) (DLTA) (?A)
                 (?A) (PHI) (PHI) (PI) (PI) (DLTA) (DLTA) (SG)
                 (SG) (?A) (?A) (PI) (PI) (PHI) (PHI) (DLTA) (DLTA)
                 (PI) (PI) (PHI) (PHI) (SG) (DLTA) (DLTA) (PI)
                 (PI) (DLTA) (DLTA) (SG) (PI) (PI) (SG) (SG) (?B)
                 (?B) (SG) (SG) (?A) (?A) (PHI) (PHI) (SG) (DLTA)
                 (DLTA) (PI) (PI) (PI) (PI) (SG) (SG) (?B) (?B)
                 (?A) (?A) (SG) (SG) (?C) (?C) (PHI) (PHI) (DLTA)
                 (DLTA) (PI) (PI) (SG) (DLTA) (DLTA) (PI) (PI)
                 (?B) (?B) (?A) (?A) (PHI) (PHI) (DLTA) (DLTA)
                 (SG) (PI) (PI) (SG) (?B) (?B) (?A) (?A) (SG) (SG)
                 (PHI) (PHI) (DLTA) (DLTA) (PI) (PI) (SG) (PHI)
                 (PHI) (DLTA) (DLTA) (SG) (PI) (PI) (?A) (?A) (PHI)
                 (PHI) (DLTA) (DLTA) (PI) (PI) (SG) (PI) (PI) (?A)
                 (?A) (?B) (?B) (PHI) (PHI) (SG) (DLTA) (DLTA)
                 (PI) (PI) (SG) (?A) (?A) (PHI) (PHI) (DLTA) (DLTA)
                 (PI) (PI) (SG) (PHI) (PHI) (DLTA) (DLTA) (PI)
                 (PI) (DLTA) (DLTA) (SG) (PI) (PI) (SG) (SG) (SG)
                 (SG) (SG) (SG) (PI) (PI) (DLTA) (DLTA) (SG) (PI)
                 (PI) (SG) (PI) (PI) (SG) (SG) (SG) (SG) (PI) (PI)
                 (PI) (PI) (SG) (PI) (PI) (PI) (PI) (DLTA) (DLTA)
                 (SG) (DLTA) (DLTA) (PI) (PI) (DLTA) (DLTA) (PHI)
                 (PHI) (PI) (PI) (PHI) (PHI) (PI) (PI) (DLTA) (DLTA)
                 (PHI) (PHI) (SG) (PI) (PI) (DLTA) (DLTA) (PHI)
                 (PHI) (?A) (?A) (DLTA) (DLTA) (?A) (?A) (SG) (DLTA)
                 (DLTA) (PHI) (PHI) (?A) (?A) (?B) (?B) (PI) (PI)
                 (PHI) (PHI) (?A) (?A) (SG) (PI) (PI) (DLTA) (DLTA)
                 (PHI) (PHI) (?A) (?A) (?B) (?B) (SG) (SG) (DLTA)
                 (DLTA) (PHI) (PHI) (?B) (?B) (SG) (PI) (PI) (DLTA)
                 (DLTA) (PHI) (PHI) (?A) (?A) (?B) (?B) (SG) (SG)
                 (?C) (?C) (SG) (PHI) (PHI) (?A) (?A) (?B) (?B)
                 (SG) (SG) (?C) (?C) (SG) (PI) (PI) (DLTA) (DLTA)
                 (PHI) (PHI) (?A) (?A) (?B) (?B) (SG) (SG) (?C)
                 (?C) (?D) (?D) (DLTA) (DLTA) (PHI) (PHI) (?A)
                 (?A) (PHI) (PHI) (?A) (?A) (?B) (?B) (DLTA) (DLTA)
                 (?A) (?A) (?B) (?B) (SG) (SG) (SG) (SG) (?B) (?B)
                 (SG) (SG) (?C) (?C)
 Requested convergence on RMS density matrix=1.00D-10 within 128 cycles.
 Requested convergence on MAX density matrix=1.00D-08.
 Requested convergence on             energy=1.00D-08.
 No special actions if energy rises.
 Restarting incremental Fock formation.
 SCF Done:  E(ROHF) =  -1117.82790035     A.U. after   20 cycles
             Convg  =    0.2754D-10             -V/T =  2.0002
 <Sx>= 0.0000 <Sy>= 0.0000 <Sz>= 1.5000 <S**2>= 3.7500 S= 1.5000
 <L.S>= 0.000000000000E+00
 Annihilation of the first spin contaminant:
 S**2 before annihilation     3.7500,   after     3.7500
 DiagDN has N=   608 LTot=  1856 but NE2=     3 cannot use DSYEVD.
 GenMOA:  NOpAll=  4 NOp2=4 NOpUse=  4 JSym2X=1
 <Sx>= 0.0000 <Sy>= 0.0000 <Sz>= 1.5000 <S**2>= 3.7500 S= 1.5000
 ExpMin= 5.50D-03 ExpMax= 3.79D+07 ExpMxC= 3.34D+03 IAcc=3 IRadAn=         5 AccDes= 0.00D+00
 HarFok:  IExCor=  205 AccDes= 0.00D+00 IRadAn=         5 IDoV=-2
 ScaDFX=  1.000000  1.000000  1.000000  1.000000
 Range of M.O.s used for correlation:    11   608
 NBasis=   608 NAE=    17 NBE=    14 NFC=    10 NFV=     0
 NROrb=    598 NOA=     7 NOB=     4 NVA=   591 NVB=   594

 **** Warning!!: The largest alpha MO coefficient is  0.27865481D+03


 **** Warning!!: The largest beta MO coefficient is  0.27865457D+03

 Singles contribution to E2=   -0.3400565967D-02
 Disk-based method using OVN memory for  7 occupieds at a time.
 Permanent disk used for amplitudes and <ij||ab> integrals=    29094966 words.
 Estimated scratch disk usage=  6830303506 words.
 IUseRI=2 ITolRI= 6 IR12RI=0
 Actual    scratch disk usage=  6795802351 words.
 GetIJB would need an additional  4900162084 words of memory to use all  16 processors.
 JobTyp=2 Pass  1:  I=   1 to   7 NPSUse= 10 ParTrn=T ParDer=T DoDerP=F.
 T,EIJ(AA): I=   1 J=   2      0.2266311E-03     -0.1212960E-02
 T,EIJ(AA): I=   1 J=   3      0.9793742E-04     -0.5610066E-03
 T,EIJ(AA): I=   1 J=   4      0.9793742E-04     -0.5610066E-03
 T,EIJ(AA): I=   1 J=   5      0.1095714E-02     -0.4170555E-02
 T,EIJ(AA): I=   1 J=   6      0.1095714E-02     -0.4170555E-02
 T,EIJ(AA): I=   1 J=   7      0.5486635E-03     -0.2671478E-02
 T,EIJ(AA): I=   2 J=   3      0.9220047E-03     -0.4747742E-02
 T,EIJ(AA): I=   2 J=   4      0.9220047E-03     -0.4747742E-02
 T,EIJ(AA): I=   2 J=   5      0.2421270E-02     -0.6017373E-02
 T,EIJ(AA): I=   2 J=   6      0.2421270E-02     -0.6017373E-02
 T,EIJ(AA): I=   2 J=   7      0.3488008E-03     -0.1454662E-02
 T,EIJ(AA): I=   3 J=   4      0.2084878E-02     -0.1176355E-01
 T,EIJ(AA): I=   3 J=   5      0.9787384E-03     -0.2963650E-02
 T,EIJ(AA): I=   3 J=   6      0.9787384E-03     -0.2963650E-02
 T,EIJ(AA): I=   3 J=   7      0.4519555E-03     -0.2097245E-02
 T,EIJ(AA): I=   4 J=   5      0.9787384E-03     -0.2963650E-02
 T,EIJ(AA): I=   4 J=   6      0.9787384E-03     -0.2963650E-02
 T,EIJ(AA): I=   4 J=   7      0.4519555E-03     -0.2097245E-02
 T,EIJ(AA): I=   5 J=   6      0.1225705E-01     -0.1881013E-01
 T,EIJ(AA): I=   5 J=   7      0.3246924E-02     -0.8931617E-02
 T,EIJ(AA): I=   6 J=   7      0.3246924E-02     -0.8931617E-02
 T,EIJ(AB): I=   1 J=   1      0.2133757E-02     -0.1330762E-01
 T,EIJ(AB): I=   1 J=   2      0.2169108E-02     -0.1182821E-01
 T,EIJ(AB): I=   1 J=   3      0.2434861E-02     -0.1176006E-01
 T,EIJ(AB): I=   1 J=   4      0.2434861E-02     -0.1176006E-01
 T,EIJ(AB): I=   2 J=   1      0.7101182E-03     -0.4206124E-02
 T,EIJ(AB): I=   2 J=   2      0.3217782E-02     -0.1139566E-01
 T,EIJ(AB): I=   2 J=   3      0.2692042E-02     -0.7382912E-02
 T,EIJ(AB): I=   2 J=   4      0.2692042E-02     -0.7382912E-02
 T,EIJ(AB): I=   3 J=   1      0.1269178E-03     -0.7533003E-03
 T,EIJ(AB): I=   3 J=   2      0.8340334E-03     -0.3184697E-02
 T,EIJ(AB): I=   3 J=   3      0.1175633E-02     -0.3747340E-02
 T,EIJ(AB): I=   3 J=   4      0.1175633E-02     -0.3747340E-02
 T,EIJ(AB): I=   4 J=   1      0.1269178E-03     -0.7533003E-03
 T,EIJ(AB): I=   4 J=   2      0.8340334E-03     -0.3184697E-02
 T,EIJ(AB): I=   4 J=   3      0.1175633E-02     -0.3747340E-02
 T,EIJ(AB): I=   4 J=   4      0.1175633E-02     -0.3747340E-02
 T,EIJ(AB): I=   5 J=   1      0.2531986E-02     -0.1212830E-01
 T,EIJ(AB): I=   5 J=   2      0.9524733E-02     -0.2015095E-01
 T,EIJ(AB): I=   5 J=   3      0.2059239E-01     -0.3740926E-01
 T,EIJ(AB): I=   5 J=   4      0.1417617E-01     -0.2352380E-01
 T,EIJ(AB): I=   6 J=   1      0.2531986E-02     -0.1212830E-01
 T,EIJ(AB): I=   6 J=   2      0.9524733E-02     -0.2015095E-01
 T,EIJ(AB): I=   6 J=   3      0.1417617E-01     -0.2352380E-01
 T,EIJ(AB): I=   6 J=   4      0.2059239E-01     -0.3740926E-01
 T,EIJ(AB): I=   7 J=   1      0.1725381E-02     -0.9716770E-02
 T,EIJ(AB): I=   7 J=   2      0.4984672E-02     -0.1954057E-01
 T,EIJ(AB): I=   7 J=   3      0.4193118E-02     -0.1229203E-01
 T,EIJ(AB): I=   7 J=   4      0.4193118E-02     -0.1229203E-01
 Actual    scratch disk usage=  6830298898 words.
 GetIJB would need an additional  4900115509 words of memory to use all  16 processors.
 JobTyp=3 Pass  1:  I=   1 to   4 NPSUse= 10 ParTrn=T ParDer=T DoDerP=F.
 T,EIJ(BB): I=   1 J=   2      0.7706448E-03     -0.3597867E-02
 T,EIJ(BB): I=   1 J=   3      0.1089980E-02     -0.4226538E-02
 T,EIJ(BB): I=   1 J=   4      0.1089980E-02     -0.4226538E-02
 T,EIJ(BB): I=   2 J=   3      0.7935137E-02     -0.1606035E-01
 T,EIJ(BB): I=   2 J=   4      0.7935137E-02     -0.1606035E-01
 T,EIJ(BB): I=   3 J=   4      0.1096106E-01     -0.1814560E-01
 Spin components of T(2) and E(2):
     alpha-alpha T2 =       0.3585258290D-01 E2=     -0.1008184646D+00
     alpha-beta  T2 =       0.1338558517D+00 E2=     -0.3421549264D+00
     beta-beta   T2 =       0.2978193444D-01 E2=     -0.6231723624D-01
 ANorm=    0.1097147052D+01
 E2 =    -0.5086911932D+00 EUMP2 =    -0.11183365915416D+04

 Complete Basis Set (CBS) Extrapolation:
 M. R. Nyden and G. A. Petersson, JCP 75, 1843 (1981)
 G. A. Petersson and M. A. Al-Laham, JCP 94, 6081 (1991)
 G. A. Petersson, T. Tensfeldt, and J. A. Montgomery, JCP 94, 6091 (1991)
 J. A. Montgomery, J. W. Ochterski, and G. A. Petersson, JCP 101, 5900 (1994)
 
 Minimum Number of PNO for Extrapolation =  25
 Absolute Overlaps: IRadAn =         5
 LocTrn: ILocal=3 LocCor=F DoCore=F.
 Entering OneElI...
 Overlap between basis sets.
 Requested accuracy = 0.1000D-12
 PrsmSu:  NPrtUS=   1 ThrOK=F IAlg=1
 PRISM was handed  8588112192 working-precision words and    47 shell-pairs
 IPart=  0 NShTot=          47 NBatch=          10 AvBLen=         4.7
 CnvPC2: ToCart=F DoDens=F IPureD=0 IPureF=0.
 Transformed matrix in CnvPC2: 
                 1             2             3             4             5 
      1   0.100000D+01  0.380046D+00  0.000000D+00  0.000000D+00  0.000000D+00
      2   0.380046D+00  0.100000D+01  0.000000D+00  0.000000D+00  0.000000D+00
      3   0.000000D+00  0.000000D+00  0.100000D+01  0.000000D+00  0.000000D+00
      4   0.000000D+00  0.000000D+00  0.000000D+00  0.100000D+01  0.000000D+00
      5   0.000000D+00  0.000000D+00  0.000000D+00  0.000000D+00  0.100000D+01
      6   0.239905D-01  0.310472D+00  0.000000D+00  0.000000D+00  0.000000D+00
      7   0.000000D+00  0.000000D+00  0.323414D+00  0.000000D+00  0.000000D+00
      8   0.000000D+00  0.000000D+00  0.000000D+00  0.323414D+00  0.000000D+00
      9   0.000000D+00  0.000000D+00  0.000000D+00  0.000000D+00  0.323414D+00
     10   0.000000D+00  0.000000D+00  0.000000D+00  0.000000D+00  0.000000D+00
     11   0.000000D+00  0.000000D+00  0.000000D+00  0.000000D+00  0.000000D+00
     12   0.000000D+00  0.000000D+00  0.000000D+00  0.000000D+00  0.000000D+00
     13   0.000000D+00  0.000000D+00  0.000000D+00  0.000000D+00  0.000000D+00
     14   0.000000D+00  0.000000D+00  0.000000D+00  0.000000D+00  0.000000D+00
     15  -0.408378D-03  0.102168D-01  0.000000D+00  0.000000D+00  0.000000D+00
     16   0.000000D+00  0.000000D+00  0.205972D-01  0.000000D+00  0.000000D+00
     17   0.000000D+00  0.000000D+00  0.000000D+00  0.205972D-01  0.000000D+00
     18   0.000000D+00  0.000000D+00  0.000000D+00  0.000000D+00  0.205972D-01
     19   0.000000D+00  0.000000D+00  0.000000D+00  0.000000D+00  0.000000D+00
     20   0.856322D-03  0.609297D-02  0.000000D+00  0.000000D+00 -0.325374D-02
     21   0.000000D+00  0.000000D+00  0.972024D-03  0.000000D+00  0.000000D+00
     22   0.000000D+00  0.000000D+00  0.000000D+00  0.972024D-03  0.000000D+00
     23   0.180164D-02  0.123539D-01  0.000000D+00  0.000000D+00 -0.574525D-02
                 6             7             8             9            10 
      1   0.239905D-01  0.000000D+00  0.000000D+00  0.000000D+00  0.000000D+00
      2   0.310472D+00  0.000000D+00  0.000000D+00  0.000000D+00  0.000000D+00
      3   0.000000D+00  0.323414D+00  0.000000D+00  0.000000D+00  0.000000D+00
      4   0.000000D+00  0.000000D+00  0.323414D+00  0.000000D+00  0.000000D+00
      5   0.000000D+00  0.000000D+00  0.000000D+00  0.323414D+00  0.000000D+00
      6   0.100000D+01  0.000000D+00  0.000000D+00  0.000000D+00  0.000000D+00
      7   0.000000D+00  0.100000D+01  0.000000D+00  0.000000D+00  0.000000D+00
      8   0.000000D+00  0.000000D+00  0.100000D+01  0.000000D+00  0.000000D+00
      9   0.000000D+00  0.000000D+00  0.000000D+00  0.100000D+01  0.000000D+00
     10   0.000000D+00  0.000000D+00  0.000000D+00  0.000000D+00  0.100000D+01
     11   0.000000D+00  0.000000D+00  0.000000D+00  0.000000D+00  0.000000D+00
     12   0.000000D+00  0.000000D+00  0.000000D+00  0.000000D+00  0.000000D+00
     13   0.000000D+00  0.000000D+00  0.000000D+00  0.000000D+00  0.000000D+00
     14   0.000000D+00  0.000000D+00  0.000000D+00  0.000000D+00  0.000000D+00
     15   0.327359D+00  0.000000D+00  0.000000D+00  0.000000D+00  0.000000D+00
     16   0.000000D+00  0.341184D+00  0.000000D+00  0.000000D+00  0.000000D+00
     17   0.000000D+00  0.000000D+00  0.341184D+00  0.000000D+00  0.000000D+00
     18   0.000000D+00  0.000000D+00  0.000000D+00  0.341184D+00  0.000000D+00
     19   0.324367D-03  0.000000D+00  0.000000D+00 -0.855275D-03  0.878648D-02
     20   0.590131D-01  0.000000D+00  0.000000D+00 -0.723889D-01  0.111762D+00
     21   0.000000D+00  0.229110D-01  0.000000D+00  0.000000D+00  0.000000D+00
     22   0.000000D+00  0.000000D+00  0.229110D-01  0.000000D+00  0.000000D+00
     23   0.971045D-01  0.000000D+00  0.000000D+00 -0.109806D+00  0.136736D+00
                11            12            13            14            15 
      1   0.000000D+00  0.000000D+00  0.000000D+00  0.000000D+00 -0.408378D-03
      2   0.000000D+00  0.000000D+00  0.000000D+00  0.000000D+00  0.102168D-01
      3   0.000000D+00  0.000000D+00  0.000000D+00  0.000000D+00  0.000000D+00
      4   0.000000D+00  0.000000D+00  0.000000D+00  0.000000D+00  0.000000D+00
      5   0.000000D+00  0.000000D+00  0.000000D+00  0.000000D+00  0.000000D+00
      6   0.000000D+00  0.000000D+00  0.000000D+00  0.000000D+00  0.327359D+00
      7   0.000000D+00  0.000000D+00  0.000000D+00  0.000000D+00  0.000000D+00
      8   0.000000D+00  0.000000D+00  0.000000D+00  0.000000D+00  0.000000D+00
      9   0.000000D+00  0.000000D+00  0.000000D+00  0.000000D+00  0.000000D+00
     10   0.000000D+00  0.000000D+00  0.000000D+00  0.000000D+00  0.000000D+00
     11   0.100000D+01  0.000000D+00  0.000000D+00  0.000000D+00  0.000000D+00
     12   0.000000D+00  0.100000D+01  0.000000D+00  0.000000D+00  0.000000D+00
     13   0.000000D+00  0.000000D+00  0.100000D+01  0.000000D+00  0.000000D+00
     14   0.000000D+00  0.000000D+00  0.000000D+00  0.100000D+01  0.000000D+00
     15   0.000000D+00  0.000000D+00  0.000000D+00  0.000000D+00  0.100000D+01
     16   0.000000D+00  0.000000D+00  0.000000D+00  0.000000D+00  0.000000D+00
     17   0.000000D+00  0.000000D+00  0.000000D+00  0.000000D+00  0.000000D+00
     18   0.000000D+00  0.000000D+00  0.000000D+00  0.000000D+00  0.000000D+00
     19   0.000000D+00  0.000000D+00  0.000000D+00  0.000000D+00  0.345430D-01
     20   0.000000D+00  0.000000D+00  0.000000D+00  0.000000D+00  0.314764D+00
     21  -0.664562D-01  0.000000D+00  0.000000D+00  0.000000D+00  0.000000D+00
     22   0.000000D+00 -0.664562D-01  0.000000D+00  0.000000D+00  0.000000D+00
     23   0.000000D+00  0.000000D+00  0.000000D+00  0.000000D+00  0.179789D+00
                16            17            18            19            20 
      1   0.000000D+00  0.000000D+00  0.000000D+00  0.000000D+00  0.856322D-03
      2   0.000000D+00  0.000000D+00  0.000000D+00  0.000000D+00  0.609297D-02
      3   0.205972D-01  0.000000D+00  0.000000D+00  0.000000D+00  0.000000D+00
      4   0.000000D+00  0.205972D-01  0.000000D+00  0.000000D+00  0.000000D+00
      5   0.000000D+00  0.000000D+00  0.205972D-01  0.000000D+00 -0.325374D-02
      6   0.000000D+00  0.000000D+00  0.000000D+00  0.324367D-03  0.590131D-01
      7   0.341184D+00  0.000000D+00  0.000000D+00  0.000000D+00  0.000000D+00
      8   0.000000D+00  0.341184D+00  0.000000D+00  0.000000D+00  0.000000D+00
      9   0.000000D+00  0.000000D+00  0.341184D+00 -0.855275D-03 -0.723889D-01
     10   0.000000D+00  0.000000D+00  0.000000D+00  0.878648D-02  0.111762D+00
     11   0.000000D+00  0.000000D+00  0.000000D+00  0.000000D+00  0.000000D+00
     12   0.000000D+00  0.000000D+00  0.000000D+00  0.000000D+00  0.000000D+00
     13   0.000000D+00  0.000000D+00  0.000000D+00  0.000000D+00  0.000000D+00
     14   0.000000D+00  0.000000D+00  0.000000D+00  0.000000D+00  0.000000D+00
     15   0.000000D+00  0.000000D+00  0.000000D+00  0.345430D-01  0.314764D+00
     16   0.100000D+01  0.000000D+00  0.000000D+00  0.000000D+00  0.000000D+00
     17   0.000000D+00  0.100000D+01  0.000000D+00  0.000000D+00  0.000000D+00
     18   0.000000D+00  0.000000D+00  0.100000D+01 -0.594951D-01 -0.465602D+00
     19   0.000000D+00  0.000000D+00 -0.594951D-01  0.100000D+01  0.236704D+00
     20   0.000000D+00  0.000000D+00 -0.465602D+00  0.236704D+00  0.100000D+01
     21   0.163339D+00  0.000000D+00  0.000000D+00  0.000000D+00  0.000000D+00
     22   0.000000D+00  0.163339D+00  0.000000D+00  0.000000D+00  0.000000D+00
     23   0.000000D+00  0.000000D+00 -0.234835D+00  0.000000D+00  0.000000D+00
                21            22            23 
      1   0.000000D+00  0.000000D+00  0.180164D-02
      2   0.000000D+00  0.000000D+00  0.123539D-01
      3   0.972024D-03  0.000000D+00  0.000000D+00
      4   0.000000D+00  0.972024D-03  0.000000D+00
      5   0.000000D+00  0.000000D+00 -0.574525D-02
      6   0.000000D+00  0.000000D+00  0.971045D-01
      7   0.229110D-01  0.000000D+00  0.000000D+00
      8   0.000000D+00  0.229110D-01  0.000000D+00
      9   0.000000D+00  0.000000D+00 -0.109806D+00
     10   0.000000D+00  0.000000D+00  0.136736D+00
     11  -0.664562D-01  0.000000D+00  0.000000D+00
     12   0.000000D+00 -0.664562D-01  0.000000D+00
     13   0.000000D+00  0.000000D+00  0.000000D+00
     14   0.000000D+00  0.000000D+00  0.000000D+00
     15   0.000000D+00  0.000000D+00  0.179789D+00
     16   0.163339D+00  0.000000D+00  0.000000D+00
     17   0.000000D+00  0.163339D+00  0.000000D+00
     18   0.000000D+00  0.000000D+00 -0.234835D+00
     19   0.000000D+00  0.000000D+00  0.000000D+00
     20   0.000000D+00  0.000000D+00  0.000000D+00
     21   0.100000D+01  0.000000D+00  0.000000D+00
     22   0.000000D+00  0.100000D+01  0.000000D+00
     23   0.000000D+00  0.000000D+00  0.100000D+01
 Entering OneElI...
 Overlap between basis sets.
 Requested accuracy = 0.1000D-12
 PrsmSu:  NPrtUS=   1 ThrOK=F IAlg=1
 PRISM was handed  8586783126 working-precision words and   697 shell-pairs
 IPart=  0 NShTot=         697 NBatch=          84 AvBLen=         8.3
 CnvPC2: ToCart=F DoDens=F IPureD=0 IPureF=0.
 Transformed matrix in CnvPC2: 
                 1             2             3             4             5 
      1   0.999763D+00  0.391742D+00  0.000000D+00  0.000000D+00  0.000000D+00
      2   0.275582D+00  0.990335D+00  0.000000D+00  0.000000D+00  0.000000D+00
      3   0.000000D+00  0.000000D+00  0.998973D+00  0.000000D+00  0.000000D+00
      4   0.000000D+00  0.000000D+00  0.000000D+00  0.998973D+00  0.000000D+00
      5   0.000000D+00  0.000000D+00  0.000000D+00  0.000000D+00  0.998973D+00
      6   0.100511D-01  0.304962D+00  0.000000D+00  0.000000D+00  0.000000D+00
      7   0.000000D+00  0.000000D+00 -0.314491D+00  0.000000D+00  0.000000D+00
      8   0.000000D+00  0.000000D+00  0.000000D+00 -0.314491D+00  0.000000D+00
      9   0.000000D+00  0.000000D+00  0.000000D+00  0.000000D+00 -0.314491D+00
     10   0.000000D+00  0.000000D+00  0.000000D+00  0.000000D+00  0.000000D+00
     11   0.000000D+00  0.000000D+00  0.000000D+00  0.000000D+00  0.000000D+00
     12   0.000000D+00  0.000000D+00  0.000000D+00  0.000000D+00  0.000000D+00
     13   0.000000D+00  0.000000D+00  0.000000D+00  0.000000D+00  0.000000D+00
     14   0.000000D+00  0.000000D+00  0.000000D+00  0.000000D+00  0.000000D+00
     15   0.000000D+00  0.000000D+00  0.000000D+00  0.000000D+00  0.000000D+00
     16   0.000000D+00  0.000000D+00  0.000000D+00  0.000000D+00  0.000000D+00
     17   0.000000D+00  0.000000D+00  0.000000D+00  0.000000D+00  0.000000D+00
     18   0.000000D+00  0.000000D+00  0.000000D+00  0.000000D+00  0.000000D+00
     19   0.000000D+00  0.000000D+00  0.000000D+00  0.000000D+00  0.000000D+00
     20   0.110987D-03  0.986296D-02  0.000000D+00  0.000000D+00  0.000000D+00
     21   0.787383D-02  0.511906D-01  0.000000D+00  0.000000D+00  0.000000D+00
     22   0.394592D-02  0.257618D-01  0.000000D+00  0.000000D+00  0.000000D+00
     23   0.173653D-02  0.113583D-01  0.000000D+00  0.000000D+00  0.000000D+00
     24   0.000000D+00  0.000000D+00 -0.186792D-01  0.000000D+00  0.000000D+00
     25   0.000000D+00  0.000000D+00  0.000000D+00 -0.186792D-01  0.000000D+00
     26   0.000000D+00  0.000000D+00  0.000000D+00  0.000000D+00 -0.186792D-01
     27   0.000000D+00  0.000000D+00  0.114793D-01  0.000000D+00  0.000000D+00
     28   0.000000D+00  0.000000D+00  0.000000D+00  0.114793D-01  0.000000D+00
     29   0.000000D+00  0.000000D+00  0.000000D+00  0.000000D+00  0.114793D-01
     30   0.285296D+00  0.954345D+00  0.000000D+00  0.000000D+00  0.000000D+00
     31   0.179228D+00  0.790394D+00  0.000000D+00  0.000000D+00  0.000000D+00
     32   0.110035D+00  0.578852D+00  0.000000D+00  0.000000D+00  0.000000D+00
     33   0.667292D-01  0.388922D+00  0.000000D+00  0.000000D+00  0.000000D+00
     34   0.402094D-01  0.247841D+00  0.000000D+00  0.000000D+00  0.000000D+00
     35   0.241500D-01  0.153302D+00  0.000000D+00  0.000000D+00  0.000000D+00
     36   0.000000D+00  0.000000D+00  0.426895D+00  0.000000D+00  0.000000D+00
     37   0.000000D+00  0.000000D+00  0.000000D+00  0.426895D+00  0.000000D+00
     38   0.000000D+00  0.000000D+00  0.000000D+00  0.000000D+00  0.426895D+00
     39   0.000000D+00  0.000000D+00  0.265399D+00  0.000000D+00  0.000000D+00
     40   0.000000D+00  0.000000D+00  0.000000D+00  0.265399D+00  0.000000D+00
     41   0.000000D+00  0.000000D+00  0.000000D+00  0.000000D+00  0.265399D+00
     42   0.000000D+00  0.000000D+00  0.153563D+00  0.000000D+00  0.000000D+00
     43   0.000000D+00  0.000000D+00  0.000000D+00  0.153563D+00  0.000000D+00
     44   0.000000D+00  0.000000D+00  0.000000D+00  0.000000D+00  0.153563D+00
     45   0.000000D+00  0.000000D+00  0.845580D-01  0.000000D+00  0.000000D+00
     46   0.000000D+00  0.000000D+00  0.000000D+00  0.845580D-01  0.000000D+00
     47   0.000000D+00  0.000000D+00  0.000000D+00  0.000000D+00  0.845580D-01
     48   0.000000D+00  0.000000D+00  0.450930D-01  0.000000D+00  0.000000D+00
     49   0.000000D+00  0.000000D+00  0.000000D+00  0.450930D-01  0.000000D+00
     50   0.000000D+00  0.000000D+00  0.000000D+00  0.000000D+00  0.450930D-01
     51   0.000000D+00  0.000000D+00  0.235742D-01  0.000000D+00  0.000000D+00
     52   0.000000D+00  0.000000D+00  0.000000D+00  0.235742D-01  0.000000D+00
     53   0.000000D+00  0.000000D+00  0.000000D+00  0.000000D+00  0.235742D-01
     54   0.000000D+00  0.000000D+00  0.000000D+00  0.000000D+00  0.000000D+00
     55   0.000000D+00  0.000000D+00  0.000000D+00  0.000000D+00  0.000000D+00
     56   0.000000D+00  0.000000D+00  0.000000D+00  0.000000D+00  0.000000D+00
     57   0.000000D+00  0.000000D+00  0.000000D+00  0.000000D+00  0.000000D+00
     58   0.000000D+00  0.000000D+00  0.000000D+00  0.000000D+00  0.000000D+00
     59   0.000000D+00  0.000000D+00  0.000000D+00  0.000000D+00  0.000000D+00
     60   0.000000D+00  0.000000D+00  0.000000D+00  0.000000D+00  0.000000D+00
     61   0.000000D+00  0.000000D+00  0.000000D+00  0.000000D+00  0.000000D+00
     62   0.000000D+00  0.000000D+00  0.000000D+00  0.000000D+00  0.000000D+00
     63   0.000000D+00  0.000000D+00  0.000000D+00  0.000000D+00  0.000000D+00
     64   0.000000D+00  0.000000D+00  0.000000D+00  0.000000D+00  0.000000D+00
     65   0.000000D+00  0.000000D+00  0.000000D+00  0.000000D+00  0.000000D+00
     66   0.000000D+00  0.000000D+00  0.000000D+00  0.000000D+00  0.000000D+00
     67   0.000000D+00  0.000000D+00  0.000000D+00  0.000000D+00  0.000000D+00
     68   0.000000D+00  0.000000D+00  0.000000D+00  0.000000D+00  0.000000D+00
     69   0.000000D+00  0.000000D+00  0.000000D+00  0.000000D+00  0.000000D+00
     70   0.000000D+00  0.000000D+00  0.000000D+00  0.000000D+00  0.000000D+00
     71   0.000000D+00  0.000000D+00  0.000000D+00  0.000000D+00  0.000000D+00
     72   0.000000D+00  0.000000D+00  0.000000D+00  0.000000D+00  0.000000D+00
     73   0.000000D+00  0.000000D+00  0.000000D+00  0.000000D+00  0.000000D+00
     74   0.000000D+00  0.000000D+00  0.000000D+00  0.000000D+00  0.000000D+00
     75   0.000000D+00  0.000000D+00  0.000000D+00  0.000000D+00  0.000000D+00
     76   0.000000D+00  0.000000D+00  0.000000D+00  0.000000D+00  0.000000D+00
     77   0.000000D+00  0.000000D+00  0.000000D+00  0.000000D+00  0.000000D+00
     78   0.000000D+00  0.000000D+00  0.000000D+00  0.000000D+00  0.000000D+00
     79   0.000000D+00  0.000000D+00  0.000000D+00  0.000000D+00  0.000000D+00
     80   0.000000D+00  0.000000D+00  0.000000D+00  0.000000D+00  0.000000D+00
     81   0.000000D+00  0.000000D+00  0.000000D+00  0.000000D+00  0.000000D+00
     82   0.000000D+00  0.000000D+00  0.000000D+00  0.000000D+00  0.000000D+00
     83   0.000000D+00  0.000000D+00  0.000000D+00  0.000000D+00  0.000000D+00
     84   0.000000D+00  0.000000D+00  0.000000D+00  0.000000D+00  0.000000D+00
     85   0.000000D+00  0.000000D+00  0.000000D+00  0.000000D+00  0.000000D+00
     86   0.000000D+00  0.000000D+00  0.000000D+00  0.000000D+00  0.000000D+00
     87   0.000000D+00  0.000000D+00  0.000000D+00  0.000000D+00  0.000000D+00
     88   0.000000D+00  0.000000D+00  0.000000D+00  0.000000D+00  0.000000D+00
     89   0.000000D+00  0.000000D+00  0.000000D+00  0.000000D+00  0.000000D+00
     90   0.000000D+00  0.000000D+00  0.000000D+00  0.000000D+00  0.000000D+00
     91   0.000000D+00  0.000000D+00  0.000000D+00  0.000000D+00  0.000000D+00
     92   0.000000D+00  0.000000D+00  0.000000D+00  0.000000D+00  0.000000D+00
     93   0.000000D+00  0.000000D+00  0.000000D+00  0.000000D+00  0.000000D+00
     94   0.000000D+00  0.000000D+00  0.000000D+00  0.000000D+00  0.000000D+00
     95   0.000000D+00  0.000000D+00  0.000000D+00  0.000000D+00  0.000000D+00
     96   0.000000D+00  0.000000D+00  0.000000D+00  0.000000D+00  0.000000D+00
     97   0.000000D+00  0.000000D+00  0.000000D+00  0.000000D+00  0.000000D+00
     98   0.000000D+00  0.000000D+00  0.000000D+00  0.000000D+00  0.000000D+00
     99   0.000000D+00  0.000000D+00  0.000000D+00  0.000000D+00  0.000000D+00
    100   0.000000D+00  0.000000D+00  0.000000D+00  0.000000D+00  0.000000D+00
    101   0.000000D+00  0.000000D+00  0.000000D+00  0.000000D+00  0.000000D+00
    102   0.000000D+00  0.000000D+00  0.000000D+00  0.000000D+00  0.000000D+00
    103   0.000000D+00  0.000000D+00  0.000000D+00  0.000000D+00  0.000000D+00
    104   0.000000D+00  0.000000D+00  0.000000D+00  0.000000D+00  0.000000D+00
    105   0.000000D+00  0.000000D+00  0.000000D+00  0.000000D+00  0.000000D+00
    106   0.000000D+00  0.000000D+00  0.000000D+00  0.000000D+00  0.000000D+00
    107   0.000000D+00  0.000000D+00  0.000000D+00  0.000000D+00  0.000000D+00
    108   0.000000D+00  0.000000D+00  0.000000D+00  0.000000D+00  0.000000D+00
    109   0.000000D+00  0.000000D+00  0.000000D+00  0.000000D+00  0.000000D+00
    110   0.000000D+00  0.000000D+00  0.000000D+00  0.000000D+00  0.000000D+00
    111   0.000000D+00  0.000000D+00  0.000000D+00  0.000000D+00  0.000000D+00
    112   0.000000D+00  0.000000D+00  0.000000D+00  0.000000D+00  0.000000D+00
    113   0.000000D+00  0.000000D+00  0.000000D+00  0.000000D+00  0.000000D+00
    114   0.000000D+00  0.000000D+00  0.000000D+00  0.000000D+00  0.000000D+00
    115   0.000000D+00  0.000000D+00  0.000000D+00  0.000000D+00  0.000000D+00
    116   0.000000D+00  0.000000D+00  0.000000D+00  0.000000D+00  0.000000D+00
    117   0.000000D+00  0.000000D+00  0.000000D+00  0.000000D+00  0.000000D+00
    118   0.000000D+00  0.000000D+00  0.000000D+00  0.000000D+00  0.000000D+00
    119   0.000000D+00  0.000000D+00  0.000000D+00  0.000000D+00  0.000000D+00
    120   0.000000D+00  0.000000D+00  0.000000D+00  0.000000D+00  0.000000D+00
    121   0.000000D+00  0.000000D+00  0.000000D+00  0.000000D+00  0.000000D+00
    122   0.000000D+00  0.000000D+00  0.000000D+00  0.000000D+00  0.000000D+00
    123   0.000000D+00  0.000000D+00  0.000000D+00  0.000000D+00  0.000000D+00
    124   0.000000D+00  0.000000D+00  0.000000D+00  0.000000D+00  0.000000D+00
    125   0.000000D+00  0.000000D+00  0.000000D+00  0.000000D+00  0.000000D+00
    126   0.000000D+00  0.000000D+00  0.000000D+00  0.000000D+00  0.000000D+00
    127   0.000000D+00  0.000000D+00  0.000000D+00  0.000000D+00  0.000000D+00
    128   0.000000D+00  0.000000D+00  0.000000D+00  0.000000D+00  0.000000D+00
    129   0.000000D+00  0.000000D+00  0.000000D+00  0.000000D+00  0.000000D+00
    130   0.000000D+00  0.000000D+00  0.000000D+00  0.000000D+00  0.000000D+00
    131   0.000000D+00  0.000000D+00  0.000000D+00  0.000000D+00  0.000000D+00
    132   0.000000D+00  0.000000D+00  0.000000D+00  0.000000D+00  0.000000D+00
    133   0.000000D+00  0.000000D+00  0.000000D+00  0.000000D+00  0.000000D+00
    134   0.000000D+00  0.000000D+00  0.000000D+00  0.000000D+00  0.000000D+00
    135   0.000000D+00  0.000000D+00  0.000000D+00  0.000000D+00  0.000000D+00
    136   0.000000D+00  0.000000D+00  0.000000D+00  0.000000D+00  0.000000D+00
    137   0.000000D+00  0.000000D+00  0.000000D+00  0.000000D+00  0.000000D+00
    138   0.000000D+00  0.000000D+00  0.000000D+00  0.000000D+00  0.000000D+00
    139   0.000000D+00  0.000000D+00  0.000000D+00  0.000000D+00  0.000000D+00
    140   0.000000D+00  0.000000D+00  0.000000D+00  0.000000D+00  0.000000D+00
    141   0.000000D+00  0.000000D+00  0.000000D+00  0.000000D+00  0.000000D+00
    142   0.000000D+00  0.000000D+00  0.000000D+00  0.000000D+00  0.000000D+00
    143   0.000000D+00  0.000000D+00  0.000000D+00  0.000000D+00  0.000000D+00
    144   0.000000D+00  0.000000D+00  0.000000D+00  0.000000D+00  0.000000D+00
    145   0.000000D+00  0.000000D+00  0.000000D+00  0.000000D+00  0.000000D+00
    146   0.000000D+00  0.000000D+00  0.000000D+00  0.000000D+00  0.000000D+00
    147   0.000000D+00  0.000000D+00  0.000000D+00  0.000000D+00  0.000000D+00
    148   0.000000D+00  0.000000D+00  0.000000D+00  0.000000D+00  0.000000D+00
    149   0.000000D+00  0.000000D+00  0.000000D+00  0.000000D+00  0.000000D+00
    150   0.000000D+00  0.000000D+00  0.000000D+00  0.000000D+00  0.000000D+00
    151   0.000000D+00  0.000000D+00  0.000000D+00  0.000000D+00  0.000000D+00
    152   0.000000D+00  0.000000D+00  0.000000D+00  0.000000D+00  0.000000D+00
    153   0.000000D+00  0.000000D+00  0.000000D+00  0.000000D+00  0.000000D+00
    154   0.000000D+00  0.000000D+00  0.000000D+00  0.000000D+00  0.000000D+00
    155   0.000000D+00  0.000000D+00  0.000000D+00  0.000000D+00  0.000000D+00
    156   0.000000D+00  0.000000D+00  0.000000D+00  0.000000D+00  0.000000D+00
    157   0.000000D+00  0.000000D+00  0.000000D+00  0.000000D+00  0.000000D+00
    158   0.000000D+00  0.000000D+00  0.000000D+00  0.000000D+00  0.000000D+00
    159   0.000000D+00  0.000000D+00  0.000000D+00  0.000000D+00  0.000000D+00
    160   0.000000D+00  0.000000D+00  0.000000D+00  0.000000D+00  0.000000D+00
    161   0.000000D+00  0.000000D+00  0.000000D+00  0.000000D+00  0.000000D+00
    162   0.000000D+00  0.000000D+00  0.000000D+00  0.000000D+00  0.000000D+00
    163   0.000000D+00  0.000000D+00  0.000000D+00  0.000000D+00  0.000000D+00
    164   0.000000D+00  0.000000D+00  0.000000D+00  0.000000D+00  0.000000D+00
    165   0.000000D+00  0.000000D+00  0.000000D+00  0.000000D+00  0.000000D+00
    166   0.000000D+00  0.000000D+00  0.000000D+00  0.000000D+00  0.000000D+00
    167   0.000000D+00  0.000000D+00  0.000000D+00  0.000000D+00  0.000000D+00
    168   0.000000D+00  0.000000D+00  0.000000D+00  0.000000D+00  0.000000D+00
    169   0.000000D+00  0.000000D+00  0.000000D+00  0.000000D+00  0.000000D+00
    170   0.000000D+00  0.000000D+00  0.000000D+00  0.000000D+00  0.000000D+00
    171   0.000000D+00  0.000000D+00  0.000000D+00  0.000000D+00  0.000000D+00
    172   0.000000D+00  0.000000D+00  0.000000D+00  0.000000D+00  0.000000D+00
    173   0.000000D+00  0.000000D+00  0.000000D+00  0.000000D+00  0.000000D+00
    174   0.000000D+00  0.000000D+00  0.000000D+00  0.000000D+00  0.000000D+00
    175   0.000000D+00  0.000000D+00  0.000000D+00  0.000000D+00  0.000000D+00
    176   0.000000D+00  0.000000D+00  0.000000D+00  0.000000D+00  0.000000D+00
    177   0.000000D+00  0.000000D+00  0.000000D+00  0.000000D+00  0.000000D+00
    178   0.000000D+00  0.000000D+00  0.000000D+00  0.000000D+00  0.000000D+00
    179   0.000000D+00  0.000000D+00  0.000000D+00  0.000000D+00  0.000000D+00
    180   0.000000D+00  0.000000D+00  0.000000D+00  0.000000D+00  0.000000D+00
    181   0.000000D+00  0.000000D+00  0.000000D+00  0.000000D+00  0.000000D+00
    182   0.000000D+00  0.000000D+00  0.000000D+00  0.000000D+00  0.000000D+00
    183   0.000000D+00  0.000000D+00  0.000000D+00  0.000000D+00  0.000000D+00
    184   0.000000D+00  0.000000D+00  0.000000D+00  0.000000D+00  0.000000D+00
    185   0.000000D+00  0.000000D+00  0.000000D+00  0.000000D+00  0.000000D+00
    186   0.000000D+00  0.000000D+00  0.000000D+00  0.000000D+00  0.000000D+00
    187   0.000000D+00  0.000000D+00  0.000000D+00  0.000000D+00  0.000000D+00
    188   0.000000D+00  0.000000D+00  0.000000D+00  0.000000D+00  0.000000D+00
    189   0.000000D+00  0.000000D+00  0.000000D+00  0.000000D+00  0.000000D+00
    190   0.000000D+00  0.000000D+00  0.000000D+00  0.000000D+00  0.000000D+00
    191   0.000000D+00  0.000000D+00  0.000000D+00  0.000000D+00  0.000000D+00
    192   0.000000D+00  0.000000D+00  0.000000D+00  0.000000D+00  0.000000D+00
    193   0.000000D+00  0.000000D+00  0.000000D+00  0.000000D+00  0.000000D+00
    194   0.000000D+00  0.000000D+00  0.000000D+00  0.000000D+00  0.000000D+00
    195   0.000000D+00  0.000000D+00  0.000000D+00  0.000000D+00  0.000000D+00
    196   0.000000D+00  0.000000D+00  0.000000D+00  0.000000D+00  0.000000D+00
    197   0.000000D+00  0.000000D+00  0.000000D+00  0.000000D+00  0.000000D+00
    198   0.000000D+00  0.000000D+00  0.000000D+00  0.000000D+00  0.000000D+00
    199   0.000000D+00  0.000000D+00  0.000000D+00  0.000000D+00  0.000000D+00
    200   0.000000D+00  0.000000D+00  0.000000D+00  0.000000D+00  0.000000D+00
    201   0.000000D+00  0.000000D+00  0.000000D+00  0.000000D+00  0.000000D+00
    202   0.000000D+00  0.000000D+00  0.000000D+00  0.000000D+00  0.000000D+00
    203   0.000000D+00  0.000000D+00  0.000000D+00  0.000000D+00  0.000000D+00
    204   0.000000D+00  0.000000D+00  0.000000D+00  0.000000D+00  0.000000D+00
    205   0.000000D+00  0.000000D+00  0.000000D+00  0.000000D+00  0.000000D+00
    206   0.000000D+00  0.000000D+00  0.000000D+00  0.000000D+00  0.000000D+00
    207   0.000000D+00  0.000000D+00  0.000000D+00  0.000000D+00  0.000000D+00
    208   0.000000D+00  0.000000D+00  0.000000D+00  0.000000D+00  0.000000D+00
    209   0.000000D+00  0.000000D+00  0.000000D+00  0.000000D+00  0.000000D+00
    210   0.000000D+00  0.000000D+00  0.000000D+00  0.000000D+00  0.000000D+00
    211   0.000000D+00  0.000000D+00  0.000000D+00  0.000000D+00  0.000000D+00
    212   0.000000D+00  0.000000D+00  0.000000D+00  0.000000D+00  0.000000D+00
    213   0.000000D+00  0.000000D+00  0.000000D+00  0.000000D+00  0.000000D+00
    214   0.000000D+00  0.000000D+00  0.000000D+00  0.000000D+00  0.000000D+00
    215   0.000000D+00  0.000000D+00  0.000000D+00  0.000000D+00  0.000000D+00
    216   0.000000D+00  0.000000D+00  0.000000D+00  0.000000D+00  0.000000D+00
    217   0.000000D+00  0.000000D+00  0.000000D+00  0.000000D+00  0.000000D+00
    218   0.000000D+00  0.000000D+00  0.000000D+00  0.000000D+00  0.000000D+00
    219   0.000000D+00  0.000000D+00  0.000000D+00  0.000000D+00  0.000000D+00
    220   0.000000D+00  0.000000D+00  0.000000D+00  0.000000D+00  0.000000D+00
    221   0.000000D+00  0.000000D+00  0.000000D+00  0.000000D+00  0.000000D+00
    222   0.000000D+00  0.000000D+00  0.000000D+00  0.000000D+00  0.000000D+00
    223   0.000000D+00  0.000000D+00  0.000000D+00  0.000000D+00  0.000000D+00
    224   0.000000D+00  0.000000D+00  0.000000D+00  0.000000D+00  0.000000D+00
    225   0.000000D+00  0.000000D+00  0.000000D+00  0.000000D+00  0.000000D+00
    226   0.000000D+00  0.000000D+00  0.000000D+00  0.000000D+00  0.000000D+00
    227   0.000000D+00  0.000000D+00  0.000000D+00  0.000000D+00  0.000000D+00
    228   0.000000D+00  0.000000D+00  0.000000D+00  0.000000D+00  0.000000D+00
    229   0.000000D+00  0.000000D+00  0.000000D+00  0.000000D+00  0.000000D+00
    230   0.000000D+00  0.000000D+00  0.000000D+00  0.000000D+00  0.000000D+00
    231   0.000000D+00  0.000000D+00  0.000000D+00  0.000000D+00  0.000000D+00
    232   0.000000D+00  0.000000D+00  0.000000D+00  0.000000D+00  0.000000D+00
    233   0.000000D+00  0.000000D+00  0.000000D+00  0.000000D+00  0.000000D+00
    234   0.000000D+00  0.000000D+00  0.000000D+00  0.000000D+00  0.000000D+00
    235   0.000000D+00  0.000000D+00  0.000000D+00  0.000000D+00  0.000000D+00
    236   0.000000D+00  0.000000D+00  0.000000D+00  0.000000D+00  0.000000D+00
    237   0.000000D+00  0.000000D+00  0.000000D+00  0.000000D+00  0.000000D+00
    238   0.000000D+00  0.000000D+00  0.000000D+00  0.000000D+00  0.000000D+00
    239   0.000000D+00  0.000000D+00  0.000000D+00  0.000000D+00  0.000000D+00
    240   0.000000D+00  0.000000D+00  0.000000D+00  0.000000D+00  0.000000D+00
    241   0.000000D+00  0.000000D+00  0.000000D+00  0.000000D+00  0.000000D+00
    242   0.000000D+00  0.000000D+00  0.000000D+00  0.000000D+00  0.000000D+00
    243   0.000000D+00  0.000000D+00  0.000000D+00  0.000000D+00  0.000000D+00
    244   0.000000D+00  0.000000D+00  0.000000D+00  0.000000D+00  0.000000D+00
    245   0.000000D+00  0.000000D+00  0.000000D+00  0.000000D+00  0.000000D+00
    246   0.000000D+00  0.000000D+00  0.000000D+00  0.000000D+00  0.000000D+00
    247   0.000000D+00  0.000000D+00  0.000000D+00  0.000000D+00  0.000000D+00
    248   0.000000D+00  0.000000D+00  0.000000D+00  0.000000D+00  0.000000D+00
    249   0.000000D+00  0.000000D+00  0.000000D+00  0.000000D+00  0.000000D+00
    250   0.000000D+00  0.000000D+00  0.000000D+00  0.000000D+00  0.000000D+00
    251   0.000000D+00  0.000000D+00  0.000000D+00  0.000000D+00  0.000000D+00
    252   0.000000D+00  0.000000D+00  0.000000D+00  0.000000D+00  0.000000D+00
    253   0.000000D+00  0.000000D+00  0.000000D+00  0.000000D+00  0.000000D+00
    254   0.000000D+00  0.000000D+00  0.000000D+00  0.000000D+00  0.000000D+00
    255   0.000000D+00  0.000000D+00  0.000000D+00  0.000000D+00  0.000000D+00
    256   0.000000D+00  0.000000D+00  0.000000D+00  0.000000D+00  0.000000D+00
    257   0.000000D+00  0.000000D+00  0.000000D+00  0.000000D+00  0.000000D+00
    258   0.000000D+00  0.000000D+00  0.000000D+00  0.000000D+00  0.000000D+00
    259   0.000000D+00  0.000000D+00  0.000000D+00  0.000000D+00  0.000000D+00
    260   0.000000D+00  0.000000D+00  0.000000D+00  0.000000D+00  0.000000D+00
    261   0.000000D+00  0.000000D+00  0.000000D+00  0.000000D+00  0.000000D+00
    262   0.000000D+00  0.000000D+00  0.000000D+00  0.000000D+00  0.000000D+00
    263   0.000000D+00  0.000000D+00  0.000000D+00  0.000000D+00  0.000000D+00
    264   0.000000D+00  0.000000D+00  0.000000D+00  0.000000D+00  0.000000D+00
    265   0.000000D+00  0.000000D+00  0.000000D+00  0.000000D+00  0.000000D+00
    266   0.000000D+00  0.000000D+00  0.000000D+00  0.000000D+00  0.000000D+00
    267   0.000000D+00  0.000000D+00  0.000000D+00  0.000000D+00  0.000000D+00
    268   0.000000D+00  0.000000D+00  0.000000D+00  0.000000D+00  0.000000D+00
    269   0.000000D+00  0.000000D+00  0.000000D+00  0.000000D+00  0.000000D+00
    270   0.000000D+00  0.000000D+00  0.000000D+00  0.000000D+00  0.000000D+00
    271   0.000000D+00  0.000000D+00  0.000000D+00  0.000000D+00  0.000000D+00
    272   0.000000D+00  0.000000D+00  0.000000D+00  0.000000D+00  0.000000D+00
    273   0.000000D+00  0.000000D+00  0.000000D+00  0.000000D+00  0.000000D+00
    274   0.000000D+00  0.000000D+00  0.000000D+00  0.000000D+00  0.000000D+00
    275   0.000000D+00  0.000000D+00  0.000000D+00  0.000000D+00  0.000000D+00
    276   0.000000D+00  0.000000D+00  0.000000D+00  0.000000D+00  0.000000D+00
    277   0.000000D+00  0.000000D+00  0.000000D+00  0.000000D+00  0.000000D+00
    278   0.000000D+00  0.000000D+00  0.000000D+00  0.000000D+00  0.000000D+00
    279   0.000000D+00  0.000000D+00  0.000000D+00  0.000000D+00  0.000000D+00
    280   0.000000D+00  0.000000D+00  0.000000D+00  0.000000D+00  0.000000D+00
    281   0.000000D+00  0.000000D+00  0.000000D+00  0.000000D+00  0.000000D+00
    282   0.000000D+00  0.000000D+00  0.000000D+00  0.000000D+00  0.000000D+00
    283   0.000000D+00  0.000000D+00  0.000000D+00  0.000000D+00  0.000000D+00
    284   0.000000D+00  0.000000D+00  0.000000D+00  0.000000D+00  0.000000D+00
    285   0.000000D+00  0.000000D+00  0.000000D+00  0.000000D+00  0.000000D+00
    286   0.000000D+00  0.000000D+00  0.000000D+00  0.000000D+00  0.000000D+00
    287   0.000000D+00  0.000000D+00  0.000000D+00  0.000000D+00  0.000000D+00
    288   0.000000D+00  0.000000D+00  0.000000D+00  0.000000D+00  0.000000D+00
    289   0.000000D+00  0.000000D+00  0.000000D+00  0.000000D+00  0.000000D+00
    290   0.000000D+00  0.000000D+00  0.000000D+00  0.000000D+00  0.000000D+00
    291   0.000000D+00  0.000000D+00  0.000000D+00  0.000000D+00  0.000000D+00
    292   0.000000D+00  0.000000D+00  0.000000D+00  0.000000D+00  0.000000D+00
    293   0.000000D+00  0.000000D+00  0.000000D+00  0.000000D+00  0.000000D+00
    294   0.000000D+00  0.000000D+00  0.000000D+00  0.000000D+00  0.000000D+00
    295   0.000000D+00  0.000000D+00  0.000000D+00  0.000000D+00  0.000000D+00
    296   0.000000D+00  0.000000D+00  0.000000D+00  0.000000D+00  0.000000D+00
    297   0.000000D+00  0.000000D+00  0.000000D+00  0.000000D+00  0.000000D+00
    298   0.000000D+00  0.000000D+00  0.000000D+00  0.000000D+00  0.000000D+00
    299   0.000000D+00  0.000000D+00  0.000000D+00  0.000000D+00  0.000000D+00
    300   0.000000D+00  0.000000D+00  0.000000D+00  0.000000D+00  0.000000D+00
    301   0.000000D+00  0.000000D+00  0.000000D+00  0.000000D+00  0.000000D+00
    302   0.000000D+00  0.000000D+00  0.000000D+00  0.000000D+00  0.000000D+00
    303   0.000000D+00  0.000000D+00  0.000000D+00  0.000000D+00  0.000000D+00
    304   0.000000D+00  0.000000D+00  0.000000D+00  0.000000D+00  0.000000D+00
    305   0.000000D+00  0.000000D+00  0.000000D+00  0.000000D+00  0.000000D+00
    306   0.000000D+00  0.000000D+00  0.000000D+00  0.000000D+00  0.000000D+00
    307   0.000000D+00  0.000000D+00  0.000000D+00  0.000000D+00  0.000000D+00
    308   0.000000D+00  0.000000D+00  0.000000D+00  0.000000D+00  0.000000D+00
    309   0.000000D+00  0.000000D+00  0.000000D+00  0.000000D+00  0.000000D+00
    310   0.000000D+00  0.000000D+00  0.000000D+00  0.000000D+00  0.000000D+00
    311   0.000000D+00  0.000000D+00  0.000000D+00  0.000000D+00  0.000000D+00
    312   0.000000D+00  0.000000D+00  0.000000D+00  0.000000D+00  0.000000D+00
    313   0.000000D+00  0.000000D+00  0.000000D+00  0.000000D+00  0.000000D+00
    314   0.000000D+00  0.000000D+00  0.000000D+00  0.000000D+00  0.000000D+00
    315   0.000000D+00  0.000000D+00  0.000000D+00  0.000000D+00  0.000000D+00
    316   0.000000D+00  0.000000D+00  0.000000D+00  0.000000D+00  0.000000D+00
    317   0.000000D+00  0.000000D+00  0.000000D+00  0.000000D+00  0.000000D+00
    318   0.000000D+00  0.000000D+00  0.000000D+00  0.000000D+00  0.000000D+00
    319   0.000000D+00  0.000000D+00  0.000000D+00  0.000000D+00  0.000000D+00
    320   0.000000D+00  0.000000D+00  0.000000D+00  0.000000D+00  0.000000D+00
    321   0.000000D+00  0.000000D+00  0.000000D+00  0.000000D+00  0.000000D+00
    322   0.000000D+00  0.000000D+00  0.000000D+00  0.000000D+00  0.000000D+00
    323   0.000000D+00  0.000000D+00  0.000000D+00  0.000000D+00  0.000000D+00
    324   0.000000D+00  0.000000D+00  0.000000D+00  0.000000D+00  0.000000D+00
    325   0.000000D+00  0.000000D+00  0.000000D+00  0.000000D+00  0.000000D+00
    326   0.000000D+00  0.000000D+00  0.000000D+00  0.000000D+00  0.000000D+00
    327   0.000000D+00  0.000000D+00  0.000000D+00  0.000000D+00  0.000000D+00
    328   0.000000D+00  0.000000D+00  0.000000D+00  0.000000D+00  0.000000D+00
    329   0.000000D+00  0.000000D+00  0.000000D+00  0.000000D+00  0.000000D+00
    330   0.000000D+00  0.000000D+00  0.000000D+00  0.000000D+00  0.000000D+00
    331   0.000000D+00  0.000000D+00  0.000000D+00  0.000000D+00  0.000000D+00
    332   0.000000D+00  0.000000D+00  0.000000D+00  0.000000D+00  0.000000D+00
    333   0.000000D+00  0.000000D+00  0.000000D+00  0.000000D+00  0.000000D+00
    334   0.000000D+00  0.000000D+00  0.000000D+00  0.000000D+00  0.000000D+00
    335   0.000000D+00  0.000000D+00  0.000000D+00  0.000000D+00  0.000000D+00
    336   0.000000D+00  0.000000D+00  0.000000D+00  0.000000D+00  0.000000D+00
    337   0.000000D+00  0.000000D+00  0.000000D+00  0.000000D+00  0.000000D+00
    338   0.000000D+00  0.000000D+00  0.000000D+00  0.000000D+00  0.000000D+00
    339   0.000000D+00  0.000000D+00  0.000000D+00  0.000000D+00  0.000000D+00
    340   0.000000D+00  0.000000D+00  0.000000D+00  0.000000D+00  0.000000D+00
    341   0.000000D+00  0.000000D+00  0.000000D+00  0.000000D+00  0.000000D+00
    342   0.000000D+00  0.000000D+00  0.000000D+00  0.000000D+00  0.000000D+00
    343   0.000000D+00  0.000000D+00  0.000000D+00  0.000000D+00  0.000000D+00
    344   0.000000D+00  0.000000D+00  0.000000D+00  0.000000D+00  0.000000D+00
    345   0.000000D+00  0.000000D+00  0.000000D+00  0.000000D+00  0.000000D+00
    346   0.000000D+00  0.000000D+00  0.000000D+00  0.000000D+00  0.000000D+00
    347   0.000000D+00  0.000000D+00  0.000000D+00  0.000000D+00  0.000000D+00
    348   0.000000D+00  0.000000D+00  0.000000D+00  0.000000D+00  0.000000D+00
    349   0.000000D+00  0.000000D+00  0.000000D+00  0.000000D+00  0.000000D+00
    350   0.000000D+00  0.000000D+00  0.000000D+00  0.000000D+00  0.000000D+00
    351   0.000000D+00  0.000000D+00  0.000000D+00  0.000000D+00  0.000000D+00
    352   0.000000D+00  0.000000D+00  0.000000D+00  0.000000D+00  0.000000D+00
    353   0.000000D+00  0.000000D+00  0.000000D+00  0.000000D+00  0.000000D+00
    354   0.000000D+00  0.000000D+00  0.000000D+00  0.000000D+00  0.000000D+00
    355   0.000000D+00  0.000000D+00  0.000000D+00  0.000000D+00  0.000000D+00
    356   0.000000D+00  0.000000D+00  0.000000D+00  0.000000D+00  0.000000D+00
    357   0.122660D-02  0.838483D-02  0.000000D+00  0.000000D+00 -0.321938D-02
    358   0.592493D-02  0.385467D-01  0.000000D+00  0.000000D+00 -0.327496D-02
    359   0.000000D+00  0.000000D+00  0.191677D-02  0.000000D+00  0.000000D+00
    360   0.000000D+00  0.000000D+00  0.000000D+00  0.191677D-02  0.000000D+00
    361   0.365819D-02  0.242898D-01  0.000000D+00  0.000000D+00 -0.708572D-02
    362   0.000000D+00  0.000000D+00  0.349880D-02  0.000000D+00  0.000000D+00
    363   0.000000D+00  0.000000D+00  0.000000D+00  0.349880D-02  0.000000D+00
    364   0.682561D-02  0.442373D-01  0.000000D+00  0.000000D+00  0.738263D-03
    365   0.000000D+00  0.000000D+00  0.000000D+00  0.000000D+00  0.000000D+00
    366   0.000000D+00  0.000000D+00  0.000000D+00  0.000000D+00  0.000000D+00
    367   0.357511D-05  0.611780D-04  0.000000D+00  0.000000D+00 -0.817837D-04
    368   0.303007D-03  0.246851D-02  0.000000D+00  0.000000D+00 -0.188317D-02
    369   0.233717D-02  0.158574D-01  0.000000D+00  0.000000D+00 -0.646729D-02
    370   0.520776D-02  0.340107D-01  0.000000D+00  0.000000D+00 -0.721268D-02
    371   0.000000D+00  0.000000D+00  0.000000D+00  0.000000D+00  0.000000D+00
    372   0.000000D+00  0.000000D+00  0.000000D+00  0.000000D+00  0.000000D+00
    373   0.000000D+00  0.000000D+00  0.000000D+00  0.000000D+00  0.000000D+00
    374   0.000000D+00  0.000000D+00  0.000000D+00  0.000000D+00  0.000000D+00
    375   0.000000D+00  0.000000D+00  0.000000D+00  0.000000D+00  0.000000D+00
    376   0.000000D+00  0.000000D+00  0.000000D+00  0.000000D+00  0.000000D+00
    377   0.000000D+00  0.000000D+00  0.167196D-04  0.000000D+00  0.000000D+00
    378   0.000000D+00  0.000000D+00  0.000000D+00  0.167196D-04  0.000000D+00
    379   0.132624D-04  0.225636D-03  0.000000D+00  0.000000D+00 -0.301033D-03
    380   0.000000D+00  0.000000D+00  0.992310D-03  0.000000D+00  0.000000D+00
    381   0.000000D+00  0.000000D+00  0.000000D+00  0.992310D-03  0.000000D+00
    382   0.169911D-02  0.127063D-01  0.000000D+00  0.000000D+00 -0.828378D-02
    383   0.000000D+00  0.000000D+00  0.479591D-02  0.000000D+00  0.000000D+00
    384   0.000000D+00  0.000000D+00  0.000000D+00  0.479591D-02  0.000000D+00
    385   0.933447D-02  0.606510D-01  0.000000D+00  0.000000D+00 -0.162870D-01
    386   0.000000D+00  0.000000D+00  0.607161D-02  0.000000D+00  0.000000D+00
    387   0.000000D+00  0.000000D+00  0.000000D+00  0.607161D-02  0.000000D+00
    388   0.119333D-01  0.767069D-01  0.000000D+00  0.000000D+00 -0.625741D-02
    389   0.000000D+00  0.000000D+00  0.000000D+00  0.000000D+00  0.000000D+00
    390   0.000000D+00  0.000000D+00  0.000000D+00  0.000000D+00  0.000000D+00
    391   0.000000D+00  0.000000D+00  0.000000D+00  0.000000D+00  0.000000D+00
    392   0.000000D+00  0.000000D+00  0.000000D+00  0.000000D+00  0.000000D+00
    393   0.000000D+00  0.000000D+00  0.000000D+00  0.000000D+00  0.000000D+00
    394   0.000000D+00  0.000000D+00  0.000000D+00  0.000000D+00  0.000000D+00
    395   0.000000D+00  0.000000D+00  0.000000D+00  0.000000D+00  0.000000D+00
    396   0.000000D+00  0.000000D+00  0.000000D+00  0.000000D+00  0.000000D+00
    397   0.000000D+00  0.000000D+00  0.000000D+00  0.000000D+00  0.000000D+00
    398   0.000000D+00  0.000000D+00  0.000000D+00  0.000000D+00  0.000000D+00
    399   0.000000D+00  0.105671D-05  0.000000D+00  0.000000D+00 -0.231225D-05
    400   0.000000D+00  0.000000D+00  0.000000D+00  0.000000D+00  0.000000D+00
    401   0.000000D+00  0.000000D+00  0.000000D+00  0.000000D+00  0.000000D+00
    402   0.000000D+00  0.000000D+00  0.000000D+00  0.000000D+00  0.000000D+00
    403   0.000000D+00  0.000000D+00  0.000000D+00  0.000000D+00  0.000000D+00
    404   0.409361D-04  0.639448D-03  0.000000D+00  0.000000D+00 -0.827602D-03
    405   0.000000D+00  0.000000D+00  0.824307D-04  0.000000D+00  0.000000D+00
    406   0.000000D+00  0.000000D+00  0.000000D+00  0.824307D-04  0.000000D+00
    407   0.000000D+00  0.000000D+00  0.000000D+00  0.000000D+00  0.000000D+00
    408   0.000000D+00  0.000000D+00  0.000000D+00  0.000000D+00  0.000000D+00
    409   0.286037D-02  0.211558D-01  0.000000D+00  0.000000D+00 -0.140004D-01
    410   0.000000D+00  0.000000D+00  0.286461D-02  0.000000D+00  0.000000D+00
    411   0.000000D+00  0.000000D+00  0.000000D+00  0.286461D-02  0.000000D+00
    412   0.000000D+00  0.000000D+00  0.000000D+00  0.000000D+00  0.000000D+00
    413   0.000000D+00  0.000000D+00  0.000000D+00  0.000000D+00  0.000000D+00
    414   0.136527D-01  0.871710D-01  0.000000D+00  0.000000D+00 -0.237101D-01
    415   0.000000D+00  0.000000D+00  0.119589D-01  0.000000D+00  0.000000D+00
    416   0.000000D+00  0.000000D+00  0.000000D+00  0.119589D-01  0.000000D+00
    417   0.000000D+00  0.000000D+00  0.000000D+00  0.000000D+00  0.000000D+00
    418   0.000000D+00  0.000000D+00  0.000000D+00  0.000000D+00  0.000000D+00
    419   0.165484D-01  0.104547D+00  0.000000D+00  0.000000D+00 -0.641962D-02
    420   0.000000D+00  0.000000D+00  0.143569D-01  0.000000D+00  0.000000D+00
    421   0.000000D+00  0.000000D+00  0.000000D+00  0.143569D-01  0.000000D+00
    422   0.000000D+00  0.000000D+00  0.000000D+00  0.000000D+00  0.000000D+00
    423   0.000000D+00  0.000000D+00  0.000000D+00  0.000000D+00  0.000000D+00
    424   0.000000D+00  0.000000D+00  0.000000D+00  0.000000D+00  0.000000D+00
    425   0.000000D+00  0.000000D+00  0.000000D+00  0.000000D+00  0.000000D+00
    426   0.000000D+00  0.000000D+00  0.000000D+00  0.000000D+00  0.000000D+00
    427   0.000000D+00  0.000000D+00  0.000000D+00  0.000000D+00  0.000000D+00
    428   0.000000D+00  0.000000D+00  0.000000D+00  0.000000D+00  0.000000D+00
    429   0.000000D+00  0.000000D+00  0.000000D+00  0.000000D+00  0.000000D+00
    430   0.000000D+00  0.000000D+00  0.000000D+00  0.000000D+00  0.000000D+00
    431   0.000000D+00  0.000000D+00  0.000000D+00  0.000000D+00  0.000000D+00
    432   0.000000D+00  0.000000D+00  0.000000D+00  0.000000D+00  0.000000D+00
    433   0.000000D+00  0.000000D+00  0.000000D+00  0.000000D+00  0.000000D+00
    434   0.000000D+00  0.000000D+00  0.000000D+00  0.000000D+00  0.000000D+00
    435   0.000000D+00  0.000000D+00  0.000000D+00  0.000000D+00  0.000000D+00
    436   0.000000D+00  0.000000D+00  0.000000D+00  0.000000D+00  0.000000D+00
    437   0.000000D+00  0.000000D+00  0.000000D+00  0.000000D+00  0.000000D+00
    438   0.130322D-05  0.615215D-04  0.000000D+00  0.000000D+00 -0.105918D-03
    439   0.000000D+00  0.000000D+00  0.107961D-04  0.000000D+00  0.000000D+00
    440   0.000000D+00  0.000000D+00  0.000000D+00  0.107961D-04  0.000000D+00
    441   0.000000D+00  0.000000D+00  0.000000D+00  0.000000D+00  0.000000D+00
    442   0.000000D+00  0.000000D+00  0.000000D+00  0.000000D+00  0.000000D+00
    443   0.000000D+00  0.000000D+00  0.000000D+00  0.000000D+00  0.000000D+00
    444   0.000000D+00  0.000000D+00  0.000000D+00  0.000000D+00  0.000000D+00
    445   0.870872D-03  0.802654D-02  0.000000D+00  0.000000D+00 -0.761848D-02
    446   0.000000D+00  0.000000D+00  0.151108D-02  0.000000D+00  0.000000D+00
    447   0.000000D+00  0.000000D+00  0.000000D+00  0.151108D-02  0.000000D+00
    448   0.000000D+00  0.000000D+00  0.000000D+00  0.000000D+00  0.000000D+00
    449   0.000000D+00  0.000000D+00  0.000000D+00  0.000000D+00  0.000000D+00
    450   0.000000D+00  0.000000D+00  0.000000D+00  0.000000D+00  0.000000D+00
    451   0.000000D+00  0.000000D+00  0.000000D+00  0.000000D+00  0.000000D+00
    452   0.119417D-01  0.769027D-01  0.000000D+00  0.000000D+00 -0.316510D-01
    453   0.000000D+00  0.000000D+00  0.149094D-01  0.000000D+00  0.000000D+00
    454   0.000000D+00  0.000000D+00  0.000000D+00  0.149094D-01  0.000000D+00
    455   0.000000D+00  0.000000D+00  0.000000D+00  0.000000D+00  0.000000D+00
    456   0.000000D+00  0.000000D+00  0.000000D+00  0.000000D+00  0.000000D+00
    457   0.000000D+00  0.000000D+00  0.000000D+00  0.000000D+00  0.000000D+00
    458   0.000000D+00  0.000000D+00  0.000000D+00  0.000000D+00  0.000000D+00
    459   0.216303D-01  0.133199D+00  0.000000D+00  0.000000D+00 -0.134034D-01
    460   0.000000D+00  0.000000D+00  0.259326D-01  0.000000D+00  0.000000D+00
    461   0.000000D+00  0.000000D+00  0.000000D+00  0.259326D-01  0.000000D+00
    462   0.000000D+00  0.000000D+00  0.000000D+00  0.000000D+00  0.000000D+00
    463   0.000000D+00  0.000000D+00  0.000000D+00  0.000000D+00  0.000000D+00
    464   0.000000D+00  0.000000D+00  0.000000D+00  0.000000D+00  0.000000D+00
    465   0.000000D+00  0.000000D+00  0.000000D+00  0.000000D+00  0.000000D+00
    466   0.000000D+00  0.000000D+00  0.000000D+00  0.000000D+00  0.000000D+00
    467   0.000000D+00  0.000000D+00  0.000000D+00  0.000000D+00  0.000000D+00
    468   0.000000D+00  0.000000D+00  0.000000D+00  0.000000D+00  0.000000D+00
    469   0.000000D+00  0.000000D+00  0.000000D+00  0.000000D+00  0.000000D+00
    470   0.000000D+00  0.000000D+00  0.000000D+00  0.000000D+00  0.000000D+00
    471   0.000000D+00  0.000000D+00  0.000000D+00  0.000000D+00  0.000000D+00
    472   0.000000D+00  0.000000D+00  0.000000D+00  0.000000D+00  0.000000D+00
    473   0.000000D+00  0.000000D+00  0.000000D+00  0.000000D+00  0.000000D+00
    474   0.000000D+00  0.000000D+00  0.000000D+00  0.000000D+00  0.000000D+00
    475   0.000000D+00  0.000000D+00  0.000000D+00  0.000000D+00  0.000000D+00
    476   0.000000D+00  0.000000D+00  0.000000D+00  0.000000D+00  0.000000D+00
    477   0.000000D+00  0.000000D+00  0.000000D+00  0.000000D+00  0.000000D+00
    478   0.000000D+00  0.000000D+00  0.000000D+00  0.000000D+00  0.000000D+00
    479   0.000000D+00  0.000000D+00  0.000000D+00  0.000000D+00  0.000000D+00
    480   0.000000D+00  0.000000D+00  0.000000D+00  0.000000D+00  0.000000D+00
    481   0.000000D+00  0.000000D+00  0.000000D+00  0.000000D+00  0.000000D+00
    482   0.000000D+00  0.000000D+00  0.000000D+00  0.000000D+00  0.000000D+00
    483   0.000000D+00  0.000000D+00  0.000000D+00  0.000000D+00  0.000000D+00
    484   0.352634D-04  0.717793D-03  0.000000D+00  0.000000D+00 -0.102858D-02
    485   0.000000D+00  0.000000D+00  0.167006D-03  0.000000D+00  0.000000D+00
    486   0.000000D+00  0.000000D+00  0.000000D+00  0.167006D-03  0.000000D+00
    487   0.000000D+00  0.000000D+00  0.000000D+00  0.000000D+00  0.000000D+00
    488   0.000000D+00  0.000000D+00  0.000000D+00  0.000000D+00  0.000000D+00
    489   0.000000D+00  0.000000D+00  0.000000D+00  0.000000D+00  0.000000D+00
    490   0.000000D+00  0.000000D+00  0.000000D+00  0.000000D+00  0.000000D+00
    491   0.000000D+00  0.000000D+00  0.000000D+00  0.000000D+00  0.000000D+00
    492   0.000000D+00  0.000000D+00  0.000000D+00  0.000000D+00  0.000000D+00
    493   0.573347D-02  0.402722D-01  0.000000D+00  0.000000D+00 -0.267069D-01
    494   0.000000D+00  0.000000D+00  0.100030D-01  0.000000D+00  0.000000D+00
    495   0.000000D+00  0.000000D+00  0.000000D+00  0.100030D-01  0.000000D+00
    496   0.000000D+00  0.000000D+00  0.000000D+00  0.000000D+00  0.000000D+00
    497   0.000000D+00  0.000000D+00  0.000000D+00  0.000000D+00  0.000000D+00
    498   0.000000D+00  0.000000D+00  0.000000D+00  0.000000D+00  0.000000D+00
    499   0.000000D+00  0.000000D+00  0.000000D+00  0.000000D+00  0.000000D+00
    500   0.000000D+00  0.000000D+00  0.000000D+00  0.000000D+00  0.000000D+00
[...]
                                                  ----------
                         Total pair energies =    -0.507202 A.U.

                         Single Excitations  =    -0.003401 A.U.

                          Total second order =    -0.510602 A.U.

                         E2(CBS) - E2(Dir) =      -0.003464 A.U.

 E2(CBS)=      -0.512155 CBS-Int=       0.001553 OIii=       1.529231

 **********************************************************************

            Population analysis using the SCF density.

 **********************************************************************

 Orbital symmetries:
       Occupied  (SG) (SG) (SG) (PI) (PI) (SG) (SG) (SG) (PI) (PI)
                 (SG) (SG) (PI) (PI) (DLTA) (DLTA) (SG)
       Virtual   (SG) (PI) (PI) (PI) (PI) (SG) (SG) (SG) (DLTA)
                 (DLTA) (PI) (PI) (SG) (PI) (PI) (SG) (SG) (PI)
                 (PI) (SG) (SG) (DLTA) (DLTA) (PHI) (PHI) (PI)
                 (PI) (SG) (DLTA) (DLTA) (PI) (PI) (SG) (PI) (PI)
                 (SG) (DLTA) (DLTA) (PI) (PI) (SG) (SG) (SG) (PI)
                 (PI) (PHI) (PHI) (?A) (?A) (DLTA) (DLTA) (PI)
                 (PI) (SG) (SG) (DLTA) (DLTA) (PHI) (PHI) (PI)
                 (PI) (DLTA) (DLTA) (PI) (PI) (PHI) (PHI) (SG)
                 (DLTA) (DLTA) (PI) (PI) (?A) (?A) (?B) (?B) (SG)
                 (SG) (PI) (PI) (PHI) (PHI) (DLTA) (DLTA) (SG)
                 (PI) (PI) (SG) (PI) (PI) (DLTA) (DLTA) (SG) (SG)
                 (?A) (?A) (PI) (PI) (PHI) (PHI) (DLTA) (DLTA)
                 (SG) (SG) (?A) (?A) (PI) (PI) (PHI) (PHI) (DLTA)
                 (DLTA) (SG) (PI) (PI) (PI) (PI) (PHI) (PHI) (DLTA)
                 (DLTA) (PHI) (PHI) (?B) (?B) (SG) (SG) (SG) (PI)
                 (PI) (DLTA) (DLTA) (SG) (?A) (?A) (PI) (PI) (PHI)
                 (PHI) (DLTA) (DLTA) (SG) (SG) (DLTA) (DLTA) (PI)
                 (PI) (SG) (?B) (?B) (PI) (PI) (DLTA) (DLTA) (?A)
                 (?A) (SG) (PHI) (PHI) (?B) (?B) (PI) (PI) (SG)
                 (?A) (?A) (PI) (PI) (DLTA) (DLTA) (SG) (DLTA)
                 (DLTA) (PI) (PI) (SG) (PHI) (PHI) (PI) (PI) (?A)
                 (?A) (SG) (SG) (SG) (PHI) (PHI) (?C) (?C) (?B)
                 (?B) (SG) (PI) (PI) (DLTA) (DLTA) (PHI) (PHI)
                 (SG) (PHI) (PHI) (?A) (?A) (PI) (PI) (DLTA) (DLTA)
                 (SG) (SG) (SG) (PI) (PI) (DLTA) (DLTA) (PHI) (PHI)
                 (?A) (?A) (SG) (DLTA) (DLTA) (SG) (PHI) (PHI)
                 (PI) (PI) (SG) (?B) (?B) (PI) (PI) (DLTA) (DLTA)
                 (?A) (?A) (SG) (PI) (PI) (DLTA) (DLTA) (PHI) (PHI)
                 (PI) (PI) (DLTA) (DLTA) (SG) (SG) (SG) (SG) (?B)
                 (?B) (SG) (PI) (PI) (DLTA) (DLTA) (?A) (?A) (PHI)
                 (PHI) (DLTA) (DLTA) (PI) (PI) (?B) (?B) (SG) (?A)
                 (?A) (PI) (PI) (PI) (PI) (?B) (?B) (?A) (?A) (PHI)
                 (PHI) (PI) (PI) (SG) (DLTA) (DLTA) (SG) (PHI)
                 (PHI) (DLTA) (DLTA) (?A) (?A) (SG) (PI) (PI) (PHI)
                 (PHI) (SG) (PI) (PI) (PHI) (PHI) (DLTA) (DLTA)
                 (PI) (PI) (SG) (SG) (SG) (DLTA) (DLTA) (DLTA)
                 (DLTA) (PHI) (PHI) (?A) (?A) (PHI) (PHI) (PI)
                 (PI) (SG) (DLTA) (DLTA) (PI) (PI) (SG) (PI) (PI)
                 (DLTA) (DLTA) (SG) (SG) (PHI) (PHI) (DLTA) (DLTA)
                 (PI) (PI) (?A) (?A) (SG) (SG) (?B) (?B) (?C) (?C)
                 (SG) (SG) (?B) (?B) (?A) (?A) (SG) (PI) (PI) (PHI)
                 (PHI) (SG) (DLTA) (DLTA) (PI) (PI) (DLTA) (DLTA)
                 (SG) (PI) (PI) (?B) (?B) (?A) (?A) (SG) (SG) (?B)
                 (?B) (?A) (?A) (PHI) (PHI) (SG) (PI) (PI) (DLTA)
                 (DLTA) (PHI) (PHI) (SG) (DLTA) (DLTA) (PI) (PI)
                 (SG) (PI) (PI) (?B) (?B) (?A) (?A) (PHI) (PHI)
                 (?A) (?A) (SG) (DLTA) (DLTA) (PHI) (PHI) (PHI)
                 (PHI) (DLTA) (DLTA) (SG) (PI) (PI) (PI) (PI) (DLTA)
                 (DLTA) (SG) (PI) (PI) (SG) (DLTA) (DLTA) (PI)
                 (PI) (PI) (PI) (SG) (SG) (?A) (?A) (PHI) (PHI)
                 (PHI) (PHI) (DLTA) (DLTA) (SG) (SG) (?C) (?C)
                 (?B) (?B) (?A) (?A) (PI) (PI) (PHI) (PHI) (DLTA)
                 (DLTA) (SG) (SG) (DLTA) (DLTA) (PI) (PI) (SG)
                 (PI) (PI) (SG) (?B) (?B) (SG) (SG) (?C) (?C) (?A)
                 (?A) (?D) (?D) (PHI) (PHI) (DLTA) (DLTA) (PI)
                 (PI) (SG) (SG) (SG) (?B) (?B) (?A) (?A) (PHI)
                 (PHI) (DLTA) (DLTA) (SG) (PI) (PI) (SG) (SG) (SG)
                 (?B) (?B) (?C) (?C) (?A) (?A) (PHI) (PHI) (PI)
                 (PI) (DLTA) (DLTA) (SG) (?B) (?B) (?A) (?A) (PHI)
                 (PHI) (DLTA) (DLTA) (SG) (PI) (PI) (DLTA) (DLTA)
                 (PI) (PI) (PHI) (PHI) (SG) (DLTA) (DLTA) (PI)
                 (PI) (SG) (?A) (?A) (PHI) (PHI) (?B) (?B) (SG)
                 (SG) (?A) (?A) (DLTA) (DLTA) (PHI) (PHI) (SG)
                 (DLTA) (DLTA) (PI) (PI) (PI) (PI) (SG) (DLTA)
                 (DLTA) (?B) (?B) (?A) (?A) (PHI) (PHI) (DLTA)
                 (DLTA) (SG) (PI) (PI) (PI) (PI) (SG) (PI) (PI)
                 (SG) (?A) (?A) (PHI) (PHI) (DLTA) (DLTA) (PHI)
                 (PHI) (PI) (PI) (SG) (DLTA) (DLTA) (PI) (PI) (SG)
                 (SG) (SG)
 The electronic state is 4-SG.
 Alpha  occ. eigenvalues -- -220.97007 -26.86199 -22.79113 -22.79113 -22.78121
 Alpha  occ. eigenvalues --  -20.78532  -3.96833  -2.75720  -2.75720  -2.71249
 Alpha  occ. eigenvalues --   -1.44428  -0.93440  -0.90179  -0.90179  -0.70217
 Alpha  occ. eigenvalues --   -0.70217  -0.66879
 Alpha virt. eigenvalues --   -0.25568  -0.21051  -0.21051  -0.10759  -0.10759
 Alpha virt. eigenvalues --   -0.08581  -0.07731  -0.04038  -0.02555  -0.02555
 Alpha virt. eigenvalues --   -0.01138  -0.01138  -0.00845   0.01658   0.01658
 Alpha virt. eigenvalues --    0.04535   0.05949   0.09099   0.09099   0.11314
 Alpha virt. eigenvalues --    0.17505   0.18676   0.18676   0.19718   0.19718
 Alpha virt. eigenvalues --    0.21839   0.21839   0.23062   0.23500   0.23500
 Alpha virt. eigenvalues --    0.26361   0.26361   0.32114   0.32810   0.32810
 Alpha virt. eigenvalues --    0.36098   0.38637   0.38637   0.41656   0.41656
 Alpha virt. eigenvalues --    0.46003   0.53969   0.58565   0.58829   0.58829
 Alpha virt. eigenvalues --    0.62129   0.62129   0.63162   0.63162   0.67695
 Alpha virt. eigenvalues --    0.67695   0.70073   0.70073   0.72111   0.77638
 Alpha virt. eigenvalues --    0.78407   0.78407   0.78831   0.78831   0.85364
 Alpha virt. eigenvalues --    0.85364   0.88119   0.88119   0.90634   0.90634
 Alpha virt. eigenvalues --    0.91570   0.92019   0.92019   1.03011   1.03011
 Alpha virt. eigenvalues --    1.04067   1.04067   1.09951   1.09951   1.10213
 Alpha virt. eigenvalues --    1.10213   1.10739   1.11594   1.14597   1.14597
 Alpha virt. eigenvalues --    1.19185   1.19185   1.19462   1.19462   1.24632
 Alpha virt. eigenvalues --    1.25857   1.25857   1.28630   1.40227   1.40227
 Alpha virt. eigenvalues --    1.42105   1.42105   1.51113   1.61668   1.72594
 Alpha virt. eigenvalues --    1.72594   1.75773   1.75773   1.78065   1.78065
 Alpha virt. eigenvalues --    1.85649   1.86048   1.86048   1.94314   1.95160
 Alpha virt. eigenvalues --    1.95160   2.01556   2.01556   2.03923   2.03923
 Alpha virt. eigenvalues --    2.13400   2.13400   2.14258   2.17064   2.17064
 Alpha virt. eigenvalues --    2.19607   2.19607   2.22371   2.22371   2.23766
 Alpha virt. eigenvalues --    2.23766   2.26994   2.26994   2.31333   2.31686
 Alpha virt. eigenvalues --    2.31686   2.33191   2.33191   2.35479   2.35479
 Alpha virt. eigenvalues --    2.43508   2.43508   2.48311   2.50082   2.50082
 Alpha virt. eigenvalues --    2.58295   2.58295   2.60157   2.60157   2.60289
 Alpha virt. eigenvalues --    2.60289   2.62580   2.67031   2.69013   2.69013
 Alpha virt. eigenvalues --    2.76472   2.76472   2.84891   2.95582   2.95582
 Alpha virt. eigenvalues --    2.98735   2.98735   3.00051   3.00051   3.01699
 Alpha virt. eigenvalues --    3.01774   3.01774   3.22313   3.22313   3.22370
 Alpha virt. eigenvalues --    3.22370   3.27310   3.27310   3.53632   3.57168
 Alpha virt. eigenvalues --    3.57168   3.61301   3.61301   3.77821   3.77821
 Alpha virt. eigenvalues --    3.77924   3.84385   3.84385   3.95751   3.95751
 Alpha virt. eigenvalues --    3.99241   4.05475   4.05475   4.21072   4.21072
 Alpha virt. eigenvalues --    4.23836   4.23836   4.39989   4.39989   4.43089
 Alpha virt. eigenvalues --    4.43560   4.43560   4.47002   4.47002   4.50211
 Alpha virt. eigenvalues --    4.50555   4.50555   4.54370   4.54370   4.57666
 Alpha virt. eigenvalues --    4.57666   4.67072   4.67072   4.71221   4.77648
 Alpha virt. eigenvalues --    4.77648   4.78690   4.78690   4.79739   4.79739
 Alpha virt. eigenvalues --    4.80938   4.80938   4.89865   4.89865   4.90881
 Alpha virt. eigenvalues --    4.93689   4.93689   5.02044   5.02044   5.04228
 Alpha virt. eigenvalues --    5.04228   5.07970   5.07970   5.25080   5.27892
 Alpha virt. eigenvalues --    5.27892   5.31993   5.36335   5.36335   5.37497
 Alpha virt. eigenvalues --    5.37674   5.37674   5.38808   5.38808   5.56157
 Alpha virt. eigenvalues --    5.56157   5.62960   5.62960   5.64197   5.64197
 Alpha virt. eigenvalues --    5.73690   5.95887   5.95887   5.98552   5.98552
 Alpha virt. eigenvalues --    6.05917   6.05917   6.19111   6.19111   6.19173
 Alpha virt. eigenvalues --    6.19173   6.42484   6.55782   6.62290   6.62290
 Alpha virt. eigenvalues --    6.63545   6.63545   6.81037   6.87304   6.87304
 Alpha virt. eigenvalues --    6.92335   6.92335   6.99117   6.99117   7.28633
 Alpha virt. eigenvalues --    7.28633   7.30273   7.30273   7.32447   7.32447
 Alpha virt. eigenvalues --    7.39250   7.39250   7.40592   7.64330   7.64330
 Alpha virt. eigenvalues --    7.80219   7.80219   8.06488   8.06488   8.06498
 Alpha virt. eigenvalues --    8.06498   8.24172   8.24172   8.39694   8.39694
 Alpha virt. eigenvalues --    8.40205   8.40205   8.43958   8.61963   8.61963
 Alpha virt. eigenvalues --    8.67663   8.67852   8.67852   9.08489   9.08489
 Alpha virt. eigenvalues --    9.31633   9.31633   9.33830   9.63789   9.63789
 Alpha virt. eigenvalues --    9.70215   9.70215   9.81713   9.87672   9.87672
 Alpha virt. eigenvalues --    9.91660   9.91660   9.92311   9.92311  10.20310
 Alpha virt. eigenvalues --   10.20310  10.23814  10.40654  10.55394  10.56474
 Alpha virt. eigenvalues --   10.56474  10.81230  10.81230  10.85241  10.85241
 Alpha virt. eigenvalues --   10.89599  10.89599  11.10370  11.10370  11.14854
 Alpha virt. eigenvalues --   11.14854  11.25419  11.46185  11.46185  11.49768
 Alpha virt. eigenvalues --   11.49768  11.55700  12.00309  12.00309  12.10303
 Alpha virt. eigenvalues --   12.10303  12.17364  12.76133  12.80830  12.80830
 Alpha virt. eigenvalues --   12.88006  12.88006  12.96329  12.96329  13.03733
 Alpha virt. eigenvalues --   13.03733  13.07712  13.07712  13.10263  13.10263
 Alpha virt. eigenvalues --   13.24612  13.24612  13.26463  13.26463  13.39770
 Alpha virt. eigenvalues --   13.39770  13.69832  13.69832  13.79443  13.89311
 Alpha virt. eigenvalues --   13.89311  14.26492  14.26492  14.76703  15.10333
 Alpha virt. eigenvalues --   15.10333  15.27620  15.27620  15.40576  15.40576
 Alpha virt. eigenvalues --   15.56852  15.91198  15.91198  16.84014  16.84014
 Alpha virt. eigenvalues --   16.91266  16.91266  16.93381  16.93381  16.96091
 Alpha virt. eigenvalues --   16.96091  17.12933  17.12933  17.13565  17.13565
 Alpha virt. eigenvalues --   17.19207  17.41812  17.41812  17.53303  17.53303
 Alpha virt. eigenvalues --   17.57527  17.57527  17.60739  17.78835  17.78835
 Alpha virt. eigenvalues --   18.01463  18.01463  18.46407  18.68773  18.68773
 Alpha virt. eigenvalues --   19.23324  19.23324  19.29599  19.29599  19.50831
 Alpha virt. eigenvalues --   19.50831  19.63871  19.63871  19.74909  19.78291
 Alpha virt. eigenvalues --   19.78291  19.83704  19.83704  20.04724  20.04724
 Alpha virt. eigenvalues --   20.13309  20.13309  20.16360  20.16423  20.16423
 Alpha virt. eigenvalues --   20.68620  20.68620  20.69284  20.69284  20.95696
 Alpha virt. eigenvalues --   21.94171  21.94171  21.98285  22.05610  22.05610
 Alpha virt. eigenvalues --   22.90226  22.90226  23.02740  23.02740  23.25637
 Alpha virt. eigenvalues --   24.00552  24.61207  24.61207  24.67957  24.67957
 Alpha virt. eigenvalues --   24.74276  24.74276  24.88950  24.88950  25.07958
 Alpha virt. eigenvalues --   25.07958  25.08094  25.08094  25.08370  25.08370
 Alpha virt. eigenvalues --   25.12813  25.12813  25.14099  25.14099  25.32683
 Alpha virt. eigenvalues --   25.32683  25.33676  25.33676  25.42820  25.61409
 Alpha virt. eigenvalues --   25.98463  25.98463  26.03639  26.03639  26.89272
 Alpha virt. eigenvalues --   26.90313  26.90313  27.81884  28.30521  28.30521
 Alpha virt. eigenvalues --   28.30599  28.30599  28.31377  28.31377  28.31950
 Alpha virt. eigenvalues --   28.31950  28.32994  28.32994  28.39795  28.39795
 Alpha virt. eigenvalues --   28.65353  28.65353  28.96174  28.96174  29.01182
 Alpha virt. eigenvalues --   33.68766  33.68766  33.73904  33.73904  33.80885
 Alpha virt. eigenvalues --   33.80885  33.91942  33.91942  34.25058  34.25058
 Alpha virt. eigenvalues --   34.37788  34.54334  34.54334  34.84541  36.96598
 Alpha virt. eigenvalues --   36.96598  36.97506  36.97506  36.98456  36.98456
 Alpha virt. eigenvalues --   37.01260  37.01260  37.09187  37.09187  37.36785
 Alpha virt. eigenvalues --   37.36785  37.39834  37.39834  37.42703  38.66594
 Alpha virt. eigenvalues --   38.66594  38.75539  38.75539  38.92340  38.92340
 Alpha virt. eigenvalues --   39.16848  39.16848  39.26388  39.32345  39.32345
 Alpha virt. eigenvalues --   39.57618  39.57618  40.17774  40.17774  41.37077
 Alpha virt. eigenvalues --   41.37077  41.58511  41.79664  41.79664  42.21438
 Alpha virt. eigenvalues --   42.21438  42.44896  42.53828  42.53828  42.69132
 Alpha virt. eigenvalues --   42.69132  42.78704  42.78704  42.80405  42.80405
 Alpha virt. eigenvalues --   42.82907  42.82907  43.03680  43.03680  43.04314
 Alpha virt. eigenvalues --   43.04314  43.11187  43.13356  43.13356  43.22625
 Alpha virt. eigenvalues --   43.22625  43.73144  43.73144  43.89603  46.54224
 Alpha virt. eigenvalues --   46.54224  46.59325  46.59325  46.61727  46.61727
 Alpha virt. eigenvalues --   46.76979  46.76979  46.91491  46.91491  46.91904
 Alpha virt. eigenvalues --   46.95719  46.95719  47.60396  47.60396  48.40524
 Alpha virt. eigenvalues --   52.66770  52.66770  55.12659  57.74318  57.74318
 Alpha virt. eigenvalues --   57.81417  57.81417  58.10024  58.10024  58.52669
 Alpha virt. eigenvalues --   58.52669  58.79402  58.79402  58.91708  58.99052
 Alpha virt. eigenvalues --   58.99052  59.33275  59.33275  60.23185 108.22042
 Alpha virt. eigenvalues --  595.47255
          Condensed to atoms (all electrons):
              1          2
     1  Cr  21.963310   0.442068
     2  O    0.442068   8.152554
 Mulliken atomic charges:
              1
     1  Cr   1.594622
     2  O   -0.594622
 Sum of Mulliken atomic charges =   1.00000
 Mulliken charges with hydrogens summed into heavy atoms:
              1
     1  Cr   1.594622
     2  O   -0.594622
 Sum of Mulliken charges with hydrogens summed into heavy atoms =   1.00000
          Atomic-Atomic Spin Densities.
              1          2
     1  Cr   2.910505  -0.013441
     2  O   -0.013441   0.116376
 Mulliken atomic spin densities:
              1
     1  Cr   2.897064
     2  O    0.102936
 Sum of Mulliken atomic spin densities =   3.00000
 Electronic spatial extent (au):  <R**2>=             90.0079
 Charge=              1.0000 electrons
 Dipole moment (field-independent basis, Debye):
    X=              0.0000    Y=              0.0000    Z=              7.8197  Tot=              7.8197
 Quadrupole moment (field-independent basis, Debye-Ang):
   XX=            -15.2690   YY=            -15.2690   ZZ=            -15.4517
   XY=              0.0000   XZ=              0.0000   YZ=              0.0000
 Traceless Quadrupole moment (field-independent basis, Debye-Ang):
   XX=              0.0609   YY=              0.0609   ZZ=             -0.1218
   XY=              0.0000   XZ=              0.0000   YZ=              0.0000
 Octapole moment (field-independent basis, Debye-Ang**2):
  XXX=              0.0000  YYY=              0.0000  ZZZ=             16.8367  XYY=              0.0000
  XXY=              0.0000  XXZ=              4.6336  XZZ=              0.0000  YZZ=              0.0000
  YYZ=              4.6336  XYZ=              0.0000
 Hexadecapole moment (field-independent basis, Debye-Ang**3):
 XXXX=            -11.9125 YYYY=            -11.9125 ZZZZ=            -69.9853 XXXY=              0.0000
 XXXZ=              0.0000 YYYX=              0.0000 YYYZ=              0.0000 ZZZX=              0.0000
 ZZZY=              0.0000 XXYY=             -3.9708 XXZZ=            -13.0379 YYZZ=            -13.0379
 XXYZ=              0.0000 YYXZ=              0.0000 ZZXY=              0.0000
 N-N= 6.295044860550D+01 E-N=-4.116195790457D+03  KE= 1.668018339311D+03
                          Isotropic Fermi Contact Couplings
        Atom                 a.u.       MegaHertz       Gauss      10(-4) cm-1
     1  Cr(53)             1.02165     -86.21485     -30.76360     -28.75818
     2  O(17)              0.02133      -4.30977      -1.53783      -1.43758
 --------------------------------------------------------
       Center         ----  Spin Dipole Couplings  ----
                      3XX-RR        3YY-RR        3ZZ-RR
 --------------------------------------------------------
     1   Atom        0.890175      0.890175     -1.780350
     2   Atom       -0.258500     -0.258500      0.517000
 --------------------------------------------------------
                        XY            XZ            YZ
 --------------------------------------------------------
     1   Atom        0.000000      0.000000      0.000000
     2   Atom        0.000000      0.000000      0.000000
 --------------------------------------------------------


 ---------------------------------------------------------------------------------
              Anisotropic Spin Dipole Couplings in Principal Axis System
 ---------------------------------------------------------------------------------

       Atom             a.u.   MegaHertz   Gauss  10(-4) cm-1        Axes

              Baa    -1.7804    53.801    19.197    17.946  0.0000  0.0000  1.0000
     1 Cr(53) Bbb     0.8902   -26.900    -9.599    -8.973  0.0000  1.0000  0.0000
              Bcc     0.8902   -26.900    -9.599    -8.973  1.0000  0.0000  0.0000
 
              Baa    -0.2585    18.705     6.674     6.239  1.0000  0.0000  0.0000
     2 O(17)  Bbb    -0.2585    18.705     6.674     6.239  0.0000  1.0000  0.0000
              Bcc     0.5170   -37.410   -13.349   -12.479  0.0000  0.0000  1.0000
 

 ---------------------------------------------------------------------------------


 Test job not archived.
 1\1\GINC-N37\SP\ROMP2-FC\Gen\Cr1O1(1+,4)\ROOT\11-Nov-2013\0\\# ROMP2 G
 en GFinput Int=NoBasisTransform Int(Grid=Ultrafine) IOp(3/32=2,5/6=10,
 8/11=1,9/33=1) Maxdisk=128GB CBSextrapolate(Nmin=25,MinPop) SCF=Symm G
 uess=Read\\CrO+ 4Sg-\\1,4\Cr\O,1,1.614\\Version=EM64L-G09RevA.02\State
 =4-SG\HF=-1117.8279003\MP2=-1118.3365915\E2(CBS)=-0.5121554\CBS-Int=-0
 .5106024\OIii=1.5292314\RMSD=2.754e-11\PG=C*V [C*(O1Cr1)]\\@


 ... A MOLECULAR SYSTEM ... (PASSES) ... FROM ONE STATE OF EQUILIBRIUM 
 TO ANOTHER ... BY MEANS OF ALL POSSIBLE INTERMEDIATE PATHS, 
 BUT THE PATH MOST ECONOMICAL OF ENERGY WILL BE THE MORE OFTEN TRAVELED.

                      -- HENRY EYRING, 1945
 Job cpu time:  5 days 21 hours 59 minutes 28.9 seconds.
 File lengths (MBytes):  RWF=  52449 Int=      0 D2E=      0 Chk=     35 Scr=      1
 Normal termination of Gaussian 09 at Mon Nov 11 19:55:57 2013.
