 Entering Gaussian System, Link 0=g09
 AtFile(1): 7ZaPa-NR.gbs
 Initial command:
 /share/apps/gaussian/g09root/g09/l1.exe /localscratch/67227/Gau-12774.inp -scrdir=/localscratch/67227/
 Entering Link 1 = /share/apps/gaussian/g09root/g09/l1.exe PID=     12775.
  
 Copyright (c) 1988,1990,1992,1993,1995,1998,2003,2009, Gaussian, Inc.
                  All Rights Reserved.
  
 This is part of the Gaussian(R) 09 program.  It is based on
 the Gaussian(R) 03 system (copyright 2003, Gaussian, Inc.),
 the Gaussian(R) 98 system (copyright 1998, Gaussian, Inc.),
 the Gaussian(R) 94 system (copyright 1995, Gaussian, Inc.),
 the Gaussian 92(TM) system (copyright 1992, Gaussian, Inc.),
 the Gaussian 90(TM) system (copyright 1990, Gaussian, Inc.),
 the Gaussian 88(TM) system (copyright 1988, Gaussian, Inc.),
 the Gaussian 86(TM) system (copyright 1986, Carnegie Mellon
 University), and the Gaussian 82(TM) system (copyright 1983,
 Carnegie Mellon University). Gaussian is a federally registered
 trademark of Gaussian, Inc.
  
 This software contains proprietary and confidential information,
 including trade secrets, belonging to Gaussian, Inc.
  
 This software is provided under written license and may be
 used, copied, transmitted, or stored only in accord with that
 written license.
  
 The following legend is applicable only to US Government
 contracts under FAR:
  
                    RESTRICTED RIGHTS LEGEND
  
 Use, reproduction and disclosure by the US Government is
 subject to restrictions as set forth in subparagraphs (a)
 and (c) of the Commercial Computer Software - Restricted
 Rights clause in FAR 52.227-19.
  
 Gaussian, Inc.
 340 Quinnipiac St., Bldg. 40, Wallingford CT 06492
  
  
 ---------------------------------------------------------------
 Warning -- This program may not be used in any manner that
 competes with the business of Gaussian, Inc. or will provide
 assistance to any competitor of Gaussian, Inc.  The licensee
 of this program is prohibited from giving any competitor of
 Gaussian, Inc. access to this program.  By using this program,
 the user acknowledges that Gaussian, Inc. is engaged in the
 business of creating and licensing software in the field of
 computational chemistry and represents and warrants to the
 licensee that it is not a competitor of Gaussian, Inc. and that
 it will not use this program in any manner prohibited above.
 ---------------------------------------------------------------
  

 Cite this work as:
 Gaussian 09, Revision A.02,
 M. J. Frisch, G. W. Trucks, H. B. Schlegel, G. E. Scuseria, 
 M. A. Robb, J. R. Cheeseman, G. Scalmani, V. Barone, B. Mennucci, 
 G. A. Petersson, H. Nakatsuji, M. Caricato, X. Li, H. P. Hratchian, 
 A. F. Izmaylov, J. Bloino, G. Zheng, J. L. Sonnenberg, M. Hada, 
 M. Ehara, K. Toyota, R. Fukuda, J. Hasegawa, M. Ishida, T. Nakajima, 
 Y. Honda, O. Kitao, H. Nakai, T. Vreven, J. A. Montgomery, Jr., 
 J. E. Peralta, F. Ogliaro, M. Bearpark, J. J. Heyd, E. Brothers, 
 K. N. Kudin, V. N. Staroverov, R. Kobayashi, J. Normand, 
 K. Raghavachari, A. Rendell, J. C. Burant, S. S. Iyengar, J. Tomasi, 
 M. Cossi, N. Rega, J. M. Millam, M. Klene, J. E. Knox, J. B. Cross, 
 V. Bakken, C. Adamo, J. Jaramillo, R. Gomperts, R. E. Stratmann, 
 O. Yazyev, A. J. Austin, R. Cammi, C. Pomelli, J. W. Ochterski, 
 R. L. Martin, K. Morokuma, V. G. Zakrzewski, G. A. Voth, 
 P. Salvador, J. J. Dannenberg, S. Dapprich, A. D. Daniels, 
 O. Farkas, J. B. Foresman, J. V. Ortiz, J. Cioslowski, 
 and D. J. Fox, Gaussian, Inc., Wallingford CT, 2009.
 
 ******************************************
 Gaussian 09:  EM64L-G09RevA.02 11-Jun-2009
                19-Nov-2013 
 ******************************************
 % Mem=64GB
 % Nproc=16
 Will use up to   16 processors via shared memory.
 % Chk=CrO-_4Pi.chk
 ----------------------------------------------------------------------
 # ROMP2 Gen GFinput Int=NoBasisTransform Int(Grid=Ultrafine) IOp(3/32=
 2,5/6=10,8/11=1,9/33=1) Maxdisk=128GB CBSextrapolate(Nmin=25,MinPop) S
 CF=Symm Guess=Read
 ----------------------------------------------------------------------
 1/38=1/1;
 2/12=2,17=6,18=5,40=1/2;
 3/5=7,11=2,16=1,24=10,25=1,30=1,32=2,60=-1,75=-5,116=101/1,2,3;
 4/5=1,9=4/1;
 5/5=2,6=10,15=2,38=6/2;
 8/5=-1,10=1,11=1/1;
 9/16=-3,33=1,75=2,81=25,83=4/6,4;
 6/7=2,8=2,9=2,10=2/1;
 99/5=1,9=1/99;
 --------
 CrO- 4Pi
 --------
 Symbolic Z-matrix:
 Charge = -1 Multiplicity = 4
 Cr
 O                    1     1.647 
 
                          Input orientation:                          
 ---------------------------------------------------------------------
 Center     Atomic      Atomic             Coordinates (Angstroms)
 Number     Number       Type             X           Y           Z
 ---------------------------------------------------------------------
      1         24           0        0.000000    0.000000    0.000000
      2          8           0        0.000000    0.000000    1.647000
 ---------------------------------------------------------------------
 Stoichiometry    CrO(1-,4)
 Framework group  C*V[C*(OCr)]
 Deg. of freedom     1
 Full point group                 C*V     NOp   4
 Largest Abelian subgroup         C2V     NOp   4
 Largest concise Abelian subgroup C1      NOp   1
                         Standard orientation:                         
 ---------------------------------------------------------------------
 Center     Atomic      Atomic             Coordinates (Angstroms)
 Number     Number       Type             X           Y           Z
 ---------------------------------------------------------------------
      1         24           0        0.000000    0.000000    0.411750
      2          8           0        0.000000    0.000000   -1.235250
 ---------------------------------------------------------------------
 Rotational constants (GHZ):      0.0000000     15.2348491     15.2348491
 General basis read from cards:  (5D, 7F)
 AO basis set in the form of general basis input (Overlap normalization):
      1 0
 S  18 1.00       0.000000000000
      0.3785251000D+08  0.4066181769D-06
      0.7529656060D+07  0.2343547468D-05
      0.1763888930D+07  0.1326615796D-04
      0.4772665070D+06  0.6102298347D-04
      0.1464857360D+06  0.2419454830D-03
      0.5015131340D+05  0.8387213576D-03
      0.1885691360D+05  0.2595524980D-02
      0.7675976440D+04  0.7279535703D-02
      0.3338514870D+04  0.1869859803D-01
      0.1532865360D+04  0.4408602079D-01
      0.7349137460D+03  0.9431189762D-01
      0.3643017120D+03  0.1773525655D+00
      0.1850688810D+03  0.2738386586D+00
      0.9559511900D+02  0.3017487450D+00
      0.4986120200D+02  0.1841630411D+00
      0.2610386100D+02  0.4202265972D-01
      0.1364682200D+02  0.2725318023D-02
      0.7093757000D+01  0.6696453945D-03
 S  16 1.00       0.000000000000
      0.5015131340D+05 -0.3337963832D-06
      0.1885691360D+05 -0.2032643443D-05
      0.7675976440D+04 -0.1788370979D-04
      0.3338514870D+04 -0.9712816531D-04
      0.1532865360D+04 -0.5333479060D-03
      0.7349137460D+03 -0.2328206727D-02
      0.3643017120D+03 -0.9228490345D-02
      0.1850688810D+03 -0.2931713271D-01
      0.9559511900D+02 -0.6967758856D-01
      0.4986120200D+02 -0.7640872750D-01
      0.2610386100D+02  0.7820060042D-01
      0.1364682200D+02  0.4120616170D+00
      0.7093757000D+01  0.4773607369D+00
      0.3653588000D+01  0.1546474566D+00
      0.1859401000D+01  0.1079213679D-01
      0.9331760000D+00  0.1007330109D-02
 P  16 1.00       0.000000000000
      0.6457291620D+05  0.3094959489D-05
      0.1550332020D+05  0.2850256002D-04
      0.4879418110D+04  0.1774046088D-03
      0.1853795450D+04  0.8099212803D-03
      0.7989917450D+03  0.3025978921D-02
      0.3736474200D+03  0.9788201619D-02
      0.1840141170D+03  0.2807786461D-01
      0.9373012900D+02  0.7116098347D-01
      0.4893463400D+02  0.1513477599D+00
      0.2610927600D+02  0.2524945410D+00
      0.1424198800D+02  0.3112291687D+00
      0.7948493000D+01  0.2431705764D+00
      0.4531322000D+01  0.1005142702D+00
      0.2620515000D+01  0.1997821485D-01
      0.1514382000D+01  0.1783530198D-02
      0.8520540000D+00  0.2871082911D-03
 S  11 1.00       0.000000000000
      0.1850688810D+03  0.1766520215D-03
      0.9559511900D+02  0.1029702892D-02
      0.4986120200D+02  0.2613528909D-02
      0.2610386100D+02 -0.1795816053D-02
      0.1364682200D+02 -0.5772693477D-01
      0.7093757000D+01 -0.1989420824D+00
      0.3653588000D+01 -0.4617281901D-01
      0.1859401000D+01  0.4289283851D+00
      0.9331760000D+00  0.5632543587D+00
      0.4612290000D+00  0.1961706841D+00
      0.2243580000D+00  0.7236161782D-02
 P  11 1.00       0.000000000000
      0.9373012900D+02  0.9227429775D-03
      0.4893463400D+02  0.2938081231D-02
      0.2610927600D+02  0.9049471033D-02
      0.1424198800D+02  0.1713153578D-01
      0.7948493000D+01  0.5105456360D-02
      0.4531322000D+01 -0.8977354309D-01
      0.2620515000D+01 -0.2336502149D+00
      0.1514382000D+01 -0.3290986221D+00
      0.8520540000D+00 -0.3112140836D+00
      0.4485090000D+00 -0.1490049246D+00
      0.2087320000D+00 -0.1807944794D-01
 D  16 1.00       0.000000000000
      0.2216703770D+04  0.3413089997D-05
      0.6949082160D+03  0.3497148867D-04
      0.2663406850D+03  0.2354186588D-03
      0.1177593000D+03  0.1129420079D-02
      0.5741846600D+02  0.4261619746D-02
      0.2985213300D+02  0.1277374809D-01
      0.1615389000D+02  0.3120024447D-01
      0.8950210000D+01  0.6758822514D-01
      0.5024698000D+01  0.1272953399D+00
      0.2840454000D+01  0.1924860798D+00
      0.1610589000D+01  0.2357991718D+00
      0.9130220000D+00  0.2438234438D+00
      0.5151620000D+00  0.2122502478D+00
      0.2871770000D+00  0.1456045589D+00
      0.1562460000D+00  0.6214652135D-01
      0.8143200000D-01  0.9037591232D-02
 D   1 1.00       0.000000000000
      0.5315766398D-01  0.1000000000D+01
 S  10 1.00       0.000000000000
      0.2610386100D+02  0.2078120604D-04
      0.1364682200D+02  0.1617984830D-03
      0.7093757000D+01  0.3610369228D-02
      0.3653588000D+01 -0.9284237980D-03
      0.1859401000D+01 -0.2196722802D-01
      0.9331760000D+00 -0.9918108124D-01
      0.4612290000D+00 -0.1805621896D+00
      0.2243580000D+00  0.1435921144D+00
      0.1074020000D+00  0.7085248420D+00
      0.5062400000D-01  0.3369685681D+00
 S   1 1.00       0.000000000000
      0.4130569390D-01  0.1000000000D+01
 S   1 1.00       0.000000000000
      0.1643200000D-01  0.1000000000D+01
 S   1 1.00       0.000000000000
      0.5499000000D-02  0.1000000000D+01
 P  10 1.00       0.000000000000
      0.2610927600D+02  0.1718967956D-02
      0.1424198800D+02 -0.2659370706D-02
      0.7948493000D+01  0.1063224935D-01
      0.4531322000D+01 -0.3188106187D-01
      0.2620515000D+01  0.2036038537D-01
      0.1514382000D+01 -0.1042742095D+00
      0.8520540000D+00  0.4838588434D-01
      0.4485090000D+00 -0.1430688266D+00
      0.2087320000D+00  0.4122560677D+00
      0.6503543410D-01  0.7533995482D+00
 P   1 1.00       0.000000000000
      0.8111303442D-01  0.1000000000D+01
 S   1 1.00       0.000000000000
      0.5653827000D+01  0.1000000000D+01
 S   1 1.00       0.000000000000
      0.2852201000D+01  0.1000000000D+01
 S   1 1.00       0.000000000000
      0.1438857000D+01  0.1000000000D+01
 S   1 1.00       0.000000000000
      0.7258640000D+00  0.1000000000D+01
 S   1 1.00       0.000000000000
      0.3661790000D+00  0.1000000000D+01
 S   1 1.00       0.000000000000
      0.1847270000D+00  0.1000000000D+01
 P   1 1.00       0.000000000000
      0.2202942000D+01  0.1000000000D+01
 P   1 1.00       0.000000000000
      0.1280859000D+01  0.1000000000D+01
 P   1 1.00       0.000000000000
      0.7447320000D+00  0.1000000000D+01
 P   1 1.00       0.000000000000
      0.4330100000D+00  0.1000000000D+01
 P   1 1.00       0.000000000000
      0.2517660000D+00  0.1000000000D+01
 P   1 1.00       0.000000000000
      0.1463850000D+00  0.1000000000D+01
 D   1 1.00       0.000000000000
      0.5285417000D+01  0.1000000000D+01
 D   1 1.00       0.000000000000
      0.2499902000D+01  0.1000000000D+01
 D   1 1.00       0.000000000000
      0.1182406000D+01  0.1000000000D+01
 D   1 1.00       0.000000000000
      0.5592560000D+00  0.1000000000D+01
 D   1 1.00       0.000000000000
      0.2645170000D+00  0.1000000000D+01
 D   1 1.00       0.000000000000
      0.1251120000D+00  0.1000000000D+01
 F   1 1.00       0.000000000000
      0.1379811500D+02  0.1000000000D+01
 F   1 1.00       0.000000000000
      0.6170242000D+01  0.1000000000D+01
 F   1 1.00       0.000000000000
      0.2759209000D+01  0.1000000000D+01
 F   1 1.00       0.000000000000
      0.1233863000D+01  0.1000000000D+01
 F   1 1.00       0.000000000000
      0.5517590000D+00  0.1000000000D+01
 F   1 1.00       0.000000000000
      0.2467360000D+00  0.1000000000D+01
 F   1 1.00       0.000000000000
      0.1103350000D+00  0.1000000000D+01
 G   1 1.00       0.000000000000
      0.1093228400D+02  0.1000000000D+01
 G   1 1.00       0.000000000000
      0.4822038000D+01  0.1000000000D+01
 G   1 1.00       0.000000000000
      0.2126916000D+01  0.1000000000D+01
 G   1 1.00       0.000000000000
      0.9381450000D+00  0.1000000000D+01
 G   1 1.00       0.000000000000
      0.4137990000D+00  0.1000000000D+01
 G   1 1.00       0.000000000000
      0.1825190000D+00  0.1000000000D+01
 H   1 1.00       0.000000000000
      0.7559634000D+01  0.1000000000D+01
 H   1 1.00       0.000000000000
      0.3150497000D+01  0.1000000000D+01
 H   1 1.00       0.000000000000
      0.1312978000D+01  0.1000000000D+01
 H   1 1.00       0.000000000000
      0.5471870000D+00  0.1000000000D+01
 H   1 1.00       0.000000000000
      0.2280410000D+00  0.1000000000D+01
 I   1 1.00       0.000000000000
      0.6006038000D+01  0.1000000000D+01
 I   1 1.00       0.000000000000
      0.2382564000D+01  0.1000000000D+01
 I   1 1.00       0.000000000000
      0.9451510000D+00  0.1000000000D+01
 I   1 1.00       0.000000000000
      0.3749360000D+00  0.1000000000D+01
 J   1 1.00       0.000000000000
      0.4605020000D+01  0.1000000000D+01
 J   1 1.00       0.000000000000
      0.1654368000D+01  0.1000000000D+01
 J   1 1.00       0.000000000000
      0.5943360000D+00  0.1000000000D+01
 K   1 1.00       0.000000000000
      0.3225791679D+01  0.1000000000D+01
 ****
      2 0
 S  16 1.00       0.000000000000
      0.1411246410D+07  0.1627429822D-05
      0.2499102240D+06  0.1092621996D-04
      0.5603410580D+05  0.6238741867D-04
      0.1521153640D+05  0.2783303491D-03
      0.4812287750D+04  0.1040541872D-02
      0.1717755460D+04  0.3380392793D-02
      0.6733958240D+03  0.9828484765D-02
      0.2835101840D+03  0.2605310129D-01
      0.1258620070D+03  0.6280818057D-01
      0.5804472200D+02  0.1348202075D+00
      0.2747198500D+02  0.2435563460D+00
      0.1321062900D+02  0.3323287378D+00
      0.6399806000D+01  0.2607930483D+00
      0.3099614000D+01  0.7430834326D-01
      0.1489856000D+01  0.4189538074D-02
      0.7052010000D+00  0.8706455725D-03
 S  11 1.00       0.000000000000
      0.2835101840D+03 -0.1122588094D-03
      0.1258620070D+03 -0.5559335617D-03
      0.5804472200D+02 -0.2851687904D-02
      0.2747198500D+02 -0.1133494995D-01
      0.1321062900D+02 -0.3657977704D-01
      0.6399806000D+01 -0.7288994197D-01
      0.3099614000D+01 -0.1062032356D-01
      0.1489856000D+01  0.2196705572D+00
      0.7052010000D+00  0.4294832072D+00
      0.3258480000D+00  0.3775832849D+00
      0.1454600000D+00  0.9640261255D-01
 S   1 1.00       0.000000000000
      0.5814297870D-01  0.1000000000D+01
 P  13 1.00       0.000000000000
      0.2085279200D+04  0.1447911740D-04
      0.5101470830D+03  0.1283233588D-03
      0.1616811510D+03  0.7792790007D-03
      0.6114945200D+02  0.3400506049D-02
      0.2597660200D+02  0.1157685214D-01
      0.1187542600D+02  0.3269740339D-01
      0.5677133000D+01  0.8011404242D-01
      0.2786475000D+01  0.1605265057D+00
      0.1387844000D+01  0.2460495026D+00
      0.6952810000D+00  0.2898982926D+00
      0.3470020000D+00  0.2606799382D+00
      0.1700990000D+00  0.1479363112D+00
      0.8008000000D-01  0.2980261453D-01
 P   1 1.00       0.000000000000
      0.4261436033D-01  0.1000000000D+01
 S   1 1.00       0.000000000000
      0.4249866000D+01  0.1000000000D+01
 S   1 1.00       0.000000000000
      0.2167470000D+01  0.1000000000D+01
 S   1 1.00       0.000000000000
      0.1105429000D+01  0.1000000000D+01
 S   1 1.00       0.000000000000
      0.5637790000D+00  0.1000000000D+01
 S   1 1.00       0.000000000000
      0.2875320000D+00  0.1000000000D+01
 S   1 1.00       0.000000000000
      0.1466440000D+00  0.1000000000D+01
 P   1 1.00       0.000000000000
      0.5659724000D+01  0.1000000000D+01
 P   1 1.00       0.000000000000
      0.2575878000D+01  0.1000000000D+01
 P   1 1.00       0.000000000000
      0.1172344000D+01  0.1000000000D+01
 P   1 1.00       0.000000000000
      0.5335620000D+00  0.1000000000D+01
 P   1 1.00       0.000000000000
      0.2428370000D+00  0.1000000000D+01
 P   1 1.00       0.000000000000
      0.1105210000D+00  0.1000000000D+01
 D   1 1.00       0.000000000000
      0.9464211000D+01  0.1000000000D+01
 D   1 1.00       0.000000000000
      0.4752286000D+01  0.1000000000D+01
 D   1 1.00       0.000000000000
      0.2386276000D+01  0.1000000000D+01
 D   1 1.00       0.000000000000
      0.1198226000D+01  0.1000000000D+01
 D   1 1.00       0.000000000000
      0.6016680000D+00  0.1000000000D+01
 D   1 1.00       0.000000000000
      0.3021170000D+00  0.1000000000D+01
 D   1 1.00       0.000000000000
      0.1517020000D+00  0.1000000000D+01
 F   1 1.00       0.000000000000
      0.7001836000D+01  0.1000000000D+01
 F   1 1.00       0.000000000000
      0.3552509000D+01  0.1000000000D+01
 F   1 1.00       0.000000000000
      0.1802430000D+01  0.1000000000D+01
 F   1 1.00       0.000000000000
      0.9144960000D+00  0.1000000000D+01
 F   1 1.00       0.000000000000
      0.4639860000D+00  0.1000000000D+01
 F   1 1.00       0.000000000000
      0.2354110000D+00  0.1000000000D+01
 G   1 1.00       0.000000000000
      0.6472481000D+01  0.1000000000D+01
 G   1 1.00       0.000000000000
      0.3119071000D+01  0.1000000000D+01
 G   1 1.00       0.000000000000
      0.1503072000D+01  0.1000000000D+01
 G   1 1.00       0.000000000000
      0.7243260000D+00  0.1000000000D+01
 G   1 1.00       0.000000000000
      0.3490500000D+00  0.1000000000D+01
 H   1 1.00       0.000000000000
      0.5355083000D+01  0.1000000000D+01
 H   1 1.00       0.000000000000
      0.2414696000D+01  0.1000000000D+01
 H   1 1.00       0.000000000000
      0.1088827000D+01  0.1000000000D+01
 H   1 1.00       0.000000000000
      0.4909703000D+00  0.1000000000D+01
 I   1 1.00       0.000000000000
      0.4322113000D+01  0.1000000000D+01
 I   1 1.00       0.000000000000
      0.1716263000D+01  0.1000000000D+01
 I   1 1.00       0.000000000000
      0.6815089000D+00  0.1000000000D+01
 J   1 1.00       0.000000000000
      0.3060973723D+01  0.1000000000D+01
 ****

 There are   205 symmetry adapted basis functions of A1  symmetry.
 There are   105 symmetry adapted basis functions of A2  symmetry.
 There are   149 symmetry adapted basis functions of B1  symmetry.
 There are   149 symmetry adapted basis functions of B2  symmetry.
 Integral buffers will be    131072 words long.
 Raffenetti 2 integral format.
 Two-electron integral symmetry is turned on.
   608 basis functions,  1339 primitive gaussians,  1035 cartesian basis functions
    18 alpha electrons       15 beta electrons
       nuclear repulsion energy        61.6891463566 Hartrees.
 NAtoms=    2 NActive=    2 NUniq=    2 SFac= 7.50D-01 NAtFMM=   80 NAOKFM=F Big=F
 One-electron integrals computed using PRISM.
 NBasis=   608 RedAO= F  NBF=   205   105   149   149
 NBsUse=   608 1.00D-04 NBFU=   205   105   149   149
 Initial guess read from the checkpoint file:  CrO-_4Pi.chk
 B after Tr=     0.000000    0.000000    0.000000
         Rot=    1.000000    0.000000    0.000000    0.000000 Ang=   0.00 deg.
 Initial guess orbital symmetries:
       Occupied  (SG) (SG) (SG) (PI) (PI) (SG) (SG) (SG) (PI) (PI)
                 (SG) (SG) (?A) (?A) (SG) (?B) (?B) (?A)
       Virtual   (SG) (?B) (?A) (?A) (?B) (?B) (?A) (?A) (?B) (?B)
                 (?B) (?A) (PI) (PI) (SG) (SG) (?A) (?A) (?B) (?B)
                 (DLTA) (DLTA) (PHI) (PHI) (?B) (?A) (?A) (?B)
                 (?A) (?B) (?A) (?B) (?A) (?B) (?A) (?B) (?B) (?A)
                 (?A) (SG) (?A) (?A) (SG) (SG) (PHI) (PHI) (DLTA)
                 (DLTA) (SG) (?C) (?C) (?C) (?C) (?D) (?D) (?D)
                 (?A) (?A) (?D) (?D) (?D) (PI) (PI) (?E) (?E) (?E)
                 (?A) (?A) (PI) (PI) (SG) (SG) (PI) (PI) (?F) (?F)
                 (PHI) (PHI) (SG) (?F) (?F) (?G) (?G) (?G) (PI)
                 (PI) (SG) (PHI) (PHI) (PHI) (PHI) (DLTA) (DLTA)
                 (PI) (PI) (?H) (?H) (?H) (?C) (?C) (?C) (?C) (SG)
                 (SG) (DLTA) (DLTA) (DLTA) (DLTA) (PI) (PI) (?I)
                 (?I) (?I) (?J) (?J) (?J) (?J) (?F) (?F) (?K) (?K)
                 (SG) (PHI) (PHI) (PI) (PI) (SG) (PI) (PI) (?L)
                 (?L) (?L) (?K) (?K) (?F) (?F) (SG) (PI) (PI) (SG)
                 (?C) (?C) (?C) (?C) (DLTA) (DLTA) (SG) (?F) (?F)
                 (PHI) (PHI) (?F) (?F) (SG) (?L) (?L) (DLTA) (DLTA)
                 (?L) (?L) (?L) (?L) (DLTA) (DLTA) (SG) (DLTA)
                 (DLTA) (?C) (?C) (?C) (?C) (SG) (SG) (PI) (PI)
                 (DLTA) (DLTA) (DLTA) (DLTA) (SG) (PI) (PI) (PI)
                 (PI) (PI) (PI) (SG) (SG) (SG) (DLTA) (DLTA) (SG)
                 (SG) (?K) (?K) (?L) (?L) (?L) (?L) (PHI) (PHI)
                 (PI) (PI) (PI) (PI) (SG) (?K) (?K) (?F) (?F) (PHI)
                 (PHI) (SG) (PI) (PI) (?L) (?L) (?L) (PI) (PI)
                 (SG) (?K) (?K) (?F) (?F) (PHI) (PHI) (PHI) (PHI)
                 (?L) (?L) (?L) (PI) (PI) (?L) (?L) (?F) (?F) (PHI)
                 (PHI) (PI) (PI) (DLTA) (DLTA) (SG) (SG) (PI) (PI)
                 (?F) (?F) (PHI) (PHI) (DLTA) (DLTA) (PI) (PI)
                 (SG) (PHI) (PHI) (DLTA) (DLTA) (PI) (PI) (?L)
                 (?L) (?L) (PI) (PI) (SG) (SG) (?L) (?L) (?K) (?K)
                 (?L) (?L) (PHI) (PHI) (?L) (?L) (?L) (PI) (PI)
                 (PI) (PI) (SG) (SG) (?L) (?L) (?L) (?L) (?L) (?L)
                 (?L) (?L) (?L) (?L) (?L) (?L) (?L) (?L) (?L) (DLTA)
                 (DLTA) (PI) (PI) (?K) (?K) (?F) (?F) (PHI) (PHI)
                 (DLTA) (DLTA) (SG) (SG) (PI) (PI) (?K) (?K) (?L)
                 (?L) (?L) (?L) (?C) (?C) (?L) (?L) (?C) (?C) (?L)
                 (PHI) (PHI) (DLTA) (DLTA) (SG) (PI) (PI) (?F)
                 (?F) (PHI) (PHI) (DLTA) (DLTA) (PI) (PI) (SG)
                 (PI) (PI) (?K) (?K) (?F) (?F) (?L) (?C) (?C) (?L)
                 (?L) (?C) (?C) (?L) (?F) (?F) (PHI) (PHI) (DLTA)
                 (DLTA) (PI) (PI) (SG) (PHI) (PHI) (DLTA) (DLTA)
                 (PI) (PI) (SG) (DLTA) (DLTA) (PI) (PI) (SG) (SG)
                 (SG) (SG) (PI) (PI) (SG) (SG) (PI) (PI) (DLTA)
                 (DLTA) (SG) (SG) (PI) (PI) (SG) (PI) (PI) (SG)
                 (SG) (SG) (PI) (PI) (SG) (PI) (PI) (PI) (PI) (PI)
                 (PI) (SG) (PI) (PI) (SG) (SG) (DLTA) (DLTA) (PI)
                 (PI) (DLTA) (DLTA) (PI) (PI) (DLTA) (DLTA) (SG)
                 (PI) (PI) (DLTA) (DLTA) (PHI) (PHI) (PHI) (PHI)
                 (DLTA) (DLTA) (PHI) (PHI) (SG) (SG) (PI) (PI)
                 (DLTA) (DLTA) (PHI) (PHI) (?F) (?F) (DLTA) (DLTA)
                 (PHI) (PHI) (?F) (?F) (DLTA) (DLTA) (PHI) (PHI)
                 (?F) (?F) (SG) (PI) (PI) (DLTA) (DLTA) (PHI) (PHI)
                 (?F) (?F) (?K) (?K) (PI) (PI) (?F) (?F) (SG) (PI)
                 (PI) (DLTA) (DLTA) (PHI) (PHI) (?F) (?F) (?K)
                 (?K) (SG) (PI) (PI) (DLTA) (DLTA) (PHI) (PHI)
                 (?F) (?F) (?K) (?K) (SG) (SG) (SG) (PI) (PI) (DLTA)
                 (DLTA) (PHI) (PHI) (?F) (?F) (?K) (?K) (SG) (SG)
                 (SG) (PI) (PI) (DLTA) (DLTA) (PHI) (PHI) (?F)
                 (?F) (?K) (?K) (SG) (SG) (?L) (?L) (DLTA) (DLTA)
                 (PHI) (PHI) (?F) (?F) (?K) (?K) (SG) (SG) (?L)
                 (?L) (SG) (PI) (PI) (DLTA) (DLTA) (PHI) (PHI)
                 (?F) (?F) (?K) (?K) (SG) (SG) (?L) (?L) (?L) (?L)
                 (DLTA) (DLTA) (PHI) (PHI) (PHI) (PHI) (?F) (?F)
                 (?F) (?F) (?K) (?K) (DLTA) (DLTA) (PHI) (PHI)
                 (?F) (?F) (?K) (?K) (SG) (SG) (?K) (?K) (SG) (SG)
                 (?K) (?K) (SG) (SG) (?L) (?L)
 Requested convergence on RMS density matrix=1.00D-10 within 128 cycles.
 Requested convergence on MAX density matrix=1.00D-08.
 Requested convergence on             energy=1.00D-08.
 No special actions if energy rises.
 Rare condition: small coef for last iteration:  0.000D+00
 Restarting incremental Fock formation.
 SCF Done:  E(ROHF) =  -1118.14755193     A.U. after   30 cycles
             Convg  =    0.1373D-10             -V/T =  2.0001
 <Sx>= 0.0000 <Sy>= 0.0000 <Sz>= 1.5000 <S**2>= 3.7500 S= 1.5000
 <L.S>= 0.000000000000E+00
 Annihilation of the first spin contaminant:
 S**2 before annihilation     3.7500,   after     3.7500
 DiagDN has N=   608 LTot=  1856 but NE2=     3 cannot use DSYEVD.
 GenMOA:  NOpAll=  4 NOp2=4 NOpUse=  4 JSym2X=1
 <Sx>= 0.0000 <Sy>= 0.0000 <Sz>= 1.5000 <S**2>= 3.7500 S= 1.5000
 ExpMin= 5.50D-03 ExpMax= 3.79D+07 ExpMxC= 3.34D+03 IAcc=3 IRadAn=         5 AccDes= 0.00D+00
 HarFok:  IExCor=  205 AccDes= 0.00D+00 IRadAn=         5 IDoV=-2
 ScaDFX=  1.000000  1.000000  1.000000  1.000000
 Range of M.O.s used for correlation:    11   608
 NBasis=   608 NAE=    18 NBE=    15 NFC=    10 NFV=     0
 NROrb=    598 NOA=     8 NOB=     5 NVA=   590 NVB=   593

 **** Warning!!: The largest alpha MO coefficient is  0.27857604D+03


 **** Warning!!: The largest beta MO coefficient is  0.27857576D+03

 Singles contribution to E2=   -0.3033175892D-02
 Disk-based method using OVN memory for  8 occupieds at a time.
 Permanent disk used for amplitudes and <ij||ab> integrals=    41230440 words.
 Estimated scratch disk usage=  7792833800 words.
 IUseRI=2 ITolRI= 6 IR12RI=0
 Actual    scratch disk usage=  7753404272 words.
 GetIJB would need an additional  4967238906 words of memory to use all  16 processors.
 JobTyp=2 Pass  1:  I=   1 to   8 NPSUse= 10 ParTrn=T ParDer=T DoDerP=F.
 T,EIJ(AA): I=   1 J=   2      0.1846686E-03     -0.9587936E-03
 T,EIJ(AA): I=   1 J=   3      0.1169787E-03     -0.6075816E-03
 T,EIJ(AA): I=   1 J=   4      0.8167822E-04     -0.4449382E-03
 T,EIJ(AA): I=   1 J=   5      0.7707699E-03     -0.3332783E-02
 T,EIJ(AA): I=   1 J=   6      0.9656709E-03     -0.3821702E-02
 T,EIJ(AA): I=   1 J=   7      0.6936010E-03     -0.3137132E-02
 T,EIJ(AA): I=   1 J=   8      0.7632762E-04     -0.2288396E-03
 T,EIJ(AA): I=   2 J=   3      0.9095038E-03     -0.5098847E-02
 T,EIJ(AA): I=   2 J=   4      0.1210516E-02     -0.6544692E-02
 T,EIJ(AA): I=   2 J=   5      0.1136541E-02     -0.4259954E-02
 T,EIJ(AA): I=   2 J=   6      0.7887298E-03     -0.2420495E-02
 T,EIJ(AA): I=   2 J=   7      0.1459720E-03     -0.5376646E-03
 T,EIJ(AA): I=   2 J=   8      0.9934657E-03     -0.2615312E-02
 T,EIJ(AA): I=   3 J=   4      0.1764430E-02     -0.1041886E-01
 T,EIJ(AA): I=   3 J=   5      0.7499775E-03     -0.2424298E-02
 T,EIJ(AA): I=   3 J=   6      0.1057750E-02     -0.2761679E-02
 T,EIJ(AA): I=   3 J=   7      0.4043045E-03     -0.1656111E-02
 T,EIJ(AA): I=   3 J=   8      0.1059524E-02     -0.2657538E-02
 T,EIJ(AA): I=   4 J=   5      0.8617505E-03     -0.3138630E-02
 T,EIJ(AA): I=   4 J=   6      0.6365605E-03     -0.1819356E-02
 T,EIJ(AA): I=   4 J=   7      0.3269926E-03     -0.1446184E-02
 T,EIJ(AA): I=   4 J=   8      0.1128821E-02     -0.2837575E-02
 T,EIJ(AA): I=   5 J=   6      0.6332654E-02     -0.1306874E-01
 T,EIJ(AA): I=   5 J=   7      0.3335196E-02     -0.9569248E-02
 T,EIJ(AA): I=   5 J=   8      0.1013912E-02     -0.1619374E-02
 T,EIJ(AA): I=   6 J=   7      0.3755499E-02     -0.9847332E-02
 T,EIJ(AA): I=   6 J=   8      0.1484955E-02     -0.1895252E-02
 T,EIJ(AA): I=   7 J=   8      0.7821107E-03     -0.1174937E-02
 T,EIJ(AB): I=   1 J=   1      0.1969728E-02     -0.1281119E-01
 T,EIJ(AB): I=   1 J=   2      0.2233901E-02     -0.1171076E-01
 T,EIJ(AB): I=   1 J=   3      0.2259014E-02     -0.1183693E-01
 T,EIJ(AB): I=   1 J=   4      0.2360443E-02     -0.1170161E-01
 T,EIJ(AB): I=   1 J=   5      0.1173378E-03     -0.3651564E-03
 T,EIJ(AB): I=   2 J=   1      0.3618071E-03     -0.2138610E-02
 T,EIJ(AB): I=   2 J=   2      0.1242891E-02     -0.4673745E-02
 T,EIJ(AB): I=   2 J=   3      0.1233909E-02     -0.4473677E-02
 T,EIJ(AB): I=   2 J=   4      0.9991779E-03     -0.3217430E-02
 T,EIJ(AB): I=   2 J=   5      0.1387632E-02     -0.3531887E-02
 T,EIJ(AB): I=   3 J=   1      0.2266038E-03     -0.1297641E-02
 T,EIJ(AB): I=   3 J=   2      0.1621851E-02     -0.5279190E-02
 T,EIJ(AB): I=   3 J=   3      0.6024273E-03     -0.1941001E-02
 T,EIJ(AB): I=   3 J=   4      0.1128418E-02     -0.3193794E-02
 T,EIJ(AB): I=   3 J=   5      0.1734039E-02     -0.4105048E-02
 T,EIJ(AB): I=   4 J=   1      0.1130599E-03     -0.6605128E-03
 T,EIJ(AB): I=   4 J=   2      0.1017904E-02     -0.3567242E-02
 T,EIJ(AB): I=   4 J=   3      0.4179354E-03     -0.1330571E-02
 T,EIJ(AB): I=   4 J=   4      0.7436864E-03     -0.2268046E-02
 T,EIJ(AB): I=   4 J=   5      0.1789358E-02     -0.4226253E-02
 T,EIJ(AB): I=   5 J=   1      0.2142725E-02     -0.1121131E-01
 T,EIJ(AB): I=   5 J=   2      0.1130841E-01     -0.2993937E-01
 T,EIJ(AB): I=   5 J=   3      0.5678387E-02     -0.1488814E-01
 T,EIJ(AB): I=   5 J=   4      0.7168762E-02     -0.1663854E-01
 T,EIJ(AB): I=   5 J=   5      0.1822378E-02     -0.2747193E-02
 T,EIJ(AB): I=   6 J=   1      0.2380764E-02     -0.1177165E-01
 T,EIJ(AB): I=   6 J=   2      0.7670125E-02     -0.1757487E-01
 T,EIJ(AB): I=   6 J=   3      0.6367118E-02     -0.1568013E-01
 T,EIJ(AB): I=   6 J=   4      0.1231730E-01     -0.2946144E-01
 T,EIJ(AB): I=   6 J=   5      0.1790319E-02     -0.2374883E-02
 T,EIJ(AB): I=   7 J=   1      0.2011966E-02     -0.1084701E-01
 T,EIJ(AB): I=   7 J=   2      0.4126269E-02     -0.1287390E-01
 T,EIJ(AB): I=   7 J=   3      0.7252531E-02     -0.2356500E-01
 T,EIJ(AB): I=   7 J=   4      0.4690923E-02     -0.1314474E-01
 T,EIJ(AB): I=   7 J=   5      0.1038002E-02     -0.1647571E-02
 T,EIJ(AB): I=   8 J=   1      0.1214471E-03     -0.3766182E-03
 T,EIJ(AB): I=   8 J=   2      0.1697686E-02     -0.2594593E-02
 T,EIJ(AB): I=   8 J=   3      0.1154858E-02     -0.1647723E-02
 T,EIJ(AB): I=   8 J=   4      0.1650517E-02     -0.2260345E-02
 T,EIJ(AB): I=   8 J=   5      0.2844122E-01     -0.2189745E-01
 Actual    scratch disk usage=  7792828680 words.
 GetIJB would need an additional  4967192331 words of memory to use all  16 processors.
 JobTyp=3 Pass  1:  I=   1 to   5 NPSUse= 10 ParTrn=T ParDer=T DoDerP=F.
 T,EIJ(BB): I=   1 J=   2      0.8190943E-03     -0.3563476E-02
 T,EIJ(BB): I=   1 J=   3      0.8493241E-03     -0.3640594E-02
 T,EIJ(BB): I=   1 J=   4      0.9538753E-03     -0.3828293E-02
 T,EIJ(BB): I=   1 J=   5      0.8080992E-04     -0.2440841E-03
 T,EIJ(BB): I=   2 J=   3      0.4812782E-02     -0.1197483E-01
 T,EIJ(BB): I=   2 J=   4      0.6268520E-02     -0.1372873E-01
 T,EIJ(BB): I=   2 J=   5      0.9379913E-03     -0.1533630E-02
 T,EIJ(BB): I=   3 J=   4      0.4860333E-02     -0.1164061E-01
 T,EIJ(BB): I=   3 J=   5      0.9969754E-03     -0.1381201E-02
 T,EIJ(BB): I=   4 J=   5      0.1432873E-02     -0.1928143E-02
 Spin components of T(2) and E(2):
     alpha-alpha T2 =       0.3276886130D-01 E2=     -0.1003438499D+00
     alpha-beta  T2 =       0.1343928332D+00 E2=     -0.3374727736D+00
     beta-beta   T2 =       0.2201257875D-01 E2=     -0.5346358367D-01
 ANorm=    0.1092813374D+01
 E2 =    -0.4943133831D+00 EUMP2 =    -0.11186418653093D+04

 Complete Basis Set (CBS) Extrapolation:
 M. R. Nyden and G. A. Petersson, JCP 75, 1843 (1981)
 G. A. Petersson and M. A. Al-Laham, JCP 94, 6081 (1991)
 G. A. Petersson, T. Tensfeldt, and J. A. Montgomery, JCP 94, 6091 (1991)
 J. A. Montgomery, J. W. Ochterski, and G. A. Petersson, JCP 101, 5900 (1994)
 
 Minimum Number of PNO for Extrapolation =  25
 Absolute Overlaps: IRadAn =         5
 LocTrn: ILocal=3 LocCor=F DoCore=F.
 Entering OneElI...
 Overlap between basis sets.
 Requested accuracy = 0.1000D-12
 PrsmSu:  NPrtUS=   1 ThrOK=F IAlg=1
 PRISM was handed  8588111969 working-precision words and    47 shell-pairs
 IPart=  0 NShTot=          47 NBatch=          10 AvBLen=         4.7
 CnvPC2: ToCart=F DoDens=F IPureD=0 IPureF=0.
 Transformed matrix in CnvPC2: 
                 1             2             3             4             5 
      1   0.100000D+01  0.380046D+00  0.000000D+00  0.000000D+00  0.000000D+00
      2   0.380046D+00  0.100000D+01  0.000000D+00  0.000000D+00  0.000000D+00
      3   0.000000D+00  0.000000D+00  0.100000D+01  0.000000D+00  0.000000D+00
      4   0.000000D+00  0.000000D+00  0.000000D+00  0.100000D+01  0.000000D+00
      5   0.000000D+00  0.000000D+00  0.000000D+00  0.000000D+00  0.100000D+01
      6   0.239905D-01  0.310472D+00  0.000000D+00  0.000000D+00  0.000000D+00
      7   0.000000D+00  0.000000D+00  0.323414D+00  0.000000D+00  0.000000D+00
      8   0.000000D+00  0.000000D+00  0.000000D+00  0.323414D+00  0.000000D+00
      9   0.000000D+00  0.000000D+00  0.000000D+00  0.000000D+00  0.323414D+00
     10   0.000000D+00  0.000000D+00  0.000000D+00  0.000000D+00  0.000000D+00
     11   0.000000D+00  0.000000D+00  0.000000D+00  0.000000D+00  0.000000D+00
     12   0.000000D+00  0.000000D+00  0.000000D+00  0.000000D+00  0.000000D+00
     13   0.000000D+00  0.000000D+00  0.000000D+00  0.000000D+00  0.000000D+00
     14   0.000000D+00  0.000000D+00  0.000000D+00  0.000000D+00  0.000000D+00
     15  -0.408378D-03  0.102168D-01  0.000000D+00  0.000000D+00  0.000000D+00
     16   0.000000D+00  0.000000D+00  0.205972D-01  0.000000D+00  0.000000D+00
     17   0.000000D+00  0.000000D+00  0.000000D+00  0.205972D-01  0.000000D+00
     18   0.000000D+00  0.000000D+00  0.000000D+00  0.000000D+00  0.205972D-01
     19   0.000000D+00  0.000000D+00  0.000000D+00  0.000000D+00  0.000000D+00
     20   0.740188D-03  0.529656D-02  0.000000D+00  0.000000D+00 -0.288191D-02
     21   0.000000D+00  0.000000D+00  0.842987D-03  0.000000D+00  0.000000D+00
     22   0.000000D+00  0.000000D+00  0.000000D+00  0.842987D-03  0.000000D+00
     23   0.158767D-02  0.109375D-01  0.000000D+00  0.000000D+00 -0.519783D-02
                 6             7             8             9            10 
      1   0.239905D-01  0.000000D+00  0.000000D+00  0.000000D+00  0.000000D+00
      2   0.310472D+00  0.000000D+00  0.000000D+00  0.000000D+00  0.000000D+00
      3   0.000000D+00  0.323414D+00  0.000000D+00  0.000000D+00  0.000000D+00
      4   0.000000D+00  0.000000D+00  0.323414D+00  0.000000D+00  0.000000D+00
      5   0.000000D+00  0.000000D+00  0.000000D+00  0.323414D+00  0.000000D+00
      6   0.100000D+01  0.000000D+00  0.000000D+00  0.000000D+00  0.000000D+00
      7   0.000000D+00  0.100000D+01  0.000000D+00  0.000000D+00  0.000000D+00
      8   0.000000D+00  0.000000D+00  0.100000D+01  0.000000D+00  0.000000D+00
      9   0.000000D+00  0.000000D+00  0.000000D+00  0.100000D+01  0.000000D+00
     10   0.000000D+00  0.000000D+00  0.000000D+00  0.000000D+00  0.100000D+01
     11   0.000000D+00  0.000000D+00  0.000000D+00  0.000000D+00  0.000000D+00
     12   0.000000D+00  0.000000D+00  0.000000D+00  0.000000D+00  0.000000D+00
     13   0.000000D+00  0.000000D+00  0.000000D+00  0.000000D+00  0.000000D+00
     14   0.000000D+00  0.000000D+00  0.000000D+00  0.000000D+00  0.000000D+00
     15   0.327359D+00  0.000000D+00  0.000000D+00  0.000000D+00  0.000000D+00
     16   0.000000D+00  0.341184D+00  0.000000D+00  0.000000D+00  0.000000D+00
     17   0.000000D+00  0.000000D+00  0.341184D+00  0.000000D+00  0.000000D+00
     18   0.000000D+00  0.000000D+00  0.000000D+00  0.341184D+00  0.000000D+00
     19   0.244433D-03  0.000000D+00  0.000000D+00 -0.657322D-03  0.759731D-02
     20   0.530745D-01  0.000000D+00  0.000000D+00 -0.658948D-01  0.104534D+00
     21   0.000000D+00  0.203398D-01  0.000000D+00  0.000000D+00  0.000000D+00
     22   0.000000D+00  0.000000D+00  0.203398D-01  0.000000D+00  0.000000D+00
     23   0.882579D-01  0.000000D+00  0.000000D+00 -0.101111D+00  0.129843D+00
                11            12            13            14            15 
      1   0.000000D+00  0.000000D+00  0.000000D+00  0.000000D+00 -0.408378D-03
      2   0.000000D+00  0.000000D+00  0.000000D+00  0.000000D+00  0.102168D-01
      3   0.000000D+00  0.000000D+00  0.000000D+00  0.000000D+00  0.000000D+00
      4   0.000000D+00  0.000000D+00  0.000000D+00  0.000000D+00  0.000000D+00
      5   0.000000D+00  0.000000D+00  0.000000D+00  0.000000D+00  0.000000D+00
      6   0.000000D+00  0.000000D+00  0.000000D+00  0.000000D+00  0.327359D+00
      7   0.000000D+00  0.000000D+00  0.000000D+00  0.000000D+00  0.000000D+00
      8   0.000000D+00  0.000000D+00  0.000000D+00  0.000000D+00  0.000000D+00
      9   0.000000D+00  0.000000D+00  0.000000D+00  0.000000D+00  0.000000D+00
     10   0.000000D+00  0.000000D+00  0.000000D+00  0.000000D+00  0.000000D+00
     11   0.100000D+01  0.000000D+00  0.000000D+00  0.000000D+00  0.000000D+00
     12   0.000000D+00  0.100000D+01  0.000000D+00  0.000000D+00  0.000000D+00
     13   0.000000D+00  0.000000D+00  0.100000D+01  0.000000D+00  0.000000D+00
     14   0.000000D+00  0.000000D+00  0.000000D+00  0.100000D+01  0.000000D+00
     15   0.000000D+00  0.000000D+00  0.000000D+00  0.000000D+00  0.100000D+01
     16   0.000000D+00  0.000000D+00  0.000000D+00  0.000000D+00  0.000000D+00
     17   0.000000D+00  0.000000D+00  0.000000D+00  0.000000D+00  0.000000D+00
     18   0.000000D+00  0.000000D+00  0.000000D+00  0.000000D+00  0.000000D+00
     19   0.000000D+00  0.000000D+00  0.000000D+00  0.000000D+00  0.329862D-01
     20   0.000000D+00  0.000000D+00  0.000000D+00  0.000000D+00  0.304477D+00
     21  -0.604991D-01  0.000000D+00  0.000000D+00  0.000000D+00  0.000000D+00
     22   0.000000D+00 -0.604991D-01  0.000000D+00  0.000000D+00  0.000000D+00
     23   0.000000D+00  0.000000D+00  0.000000D+00  0.000000D+00  0.178802D+00
                16            17            18            19            20 
      1   0.000000D+00  0.000000D+00  0.000000D+00  0.000000D+00  0.740188D-03
      2   0.000000D+00  0.000000D+00  0.000000D+00  0.000000D+00  0.529656D-02
      3   0.205972D-01  0.000000D+00  0.000000D+00  0.000000D+00  0.000000D+00
      4   0.000000D+00  0.205972D-01  0.000000D+00  0.000000D+00  0.000000D+00
      5   0.000000D+00  0.000000D+00  0.205972D-01  0.000000D+00 -0.288191D-02
      6   0.000000D+00  0.000000D+00  0.000000D+00  0.244433D-03  0.530745D-01
      7   0.341184D+00  0.000000D+00  0.000000D+00  0.000000D+00  0.000000D+00
      8   0.000000D+00  0.341184D+00  0.000000D+00  0.000000D+00  0.000000D+00
      9   0.000000D+00  0.000000D+00  0.341184D+00 -0.657322D-03 -0.658948D-01
     10   0.000000D+00  0.000000D+00  0.000000D+00  0.759731D-02  0.104534D+00
     11   0.000000D+00  0.000000D+00  0.000000D+00  0.000000D+00  0.000000D+00
     12   0.000000D+00  0.000000D+00  0.000000D+00  0.000000D+00  0.000000D+00
     13   0.000000D+00  0.000000D+00  0.000000D+00  0.000000D+00  0.000000D+00
     14   0.000000D+00  0.000000D+00  0.000000D+00  0.000000D+00  0.000000D+00
     15   0.000000D+00  0.000000D+00  0.000000D+00  0.329862D-01  0.304477D+00
     16   0.100000D+01  0.000000D+00  0.000000D+00  0.000000D+00  0.000000D+00
     17   0.000000D+00  0.100000D+01  0.000000D+00  0.000000D+00  0.000000D+00
     18   0.000000D+00  0.000000D+00  0.100000D+01 -0.566827D-01 -0.452713D+00
     19   0.000000D+00  0.000000D+00 -0.566827D-01  0.100000D+01  0.236704D+00
     20   0.000000D+00  0.000000D+00 -0.452713D+00  0.236704D+00  0.100000D+01
     21   0.155333D+00  0.000000D+00  0.000000D+00  0.000000D+00  0.000000D+00
     22   0.000000D+00  0.155333D+00  0.000000D+00  0.000000D+00  0.000000D+00
     23   0.000000D+00  0.000000D+00 -0.237487D+00  0.000000D+00  0.000000D+00
                21            22            23 
      1   0.000000D+00  0.000000D+00  0.158767D-02
      2   0.000000D+00  0.000000D+00  0.109375D-01
      3   0.842987D-03  0.000000D+00  0.000000D+00
      4   0.000000D+00  0.842987D-03  0.000000D+00
      5   0.000000D+00  0.000000D+00 -0.519783D-02
      6   0.000000D+00  0.000000D+00  0.882579D-01
      7   0.203398D-01  0.000000D+00  0.000000D+00
      8   0.000000D+00  0.203398D-01  0.000000D+00
      9   0.000000D+00  0.000000D+00 -0.101111D+00
     10   0.000000D+00  0.000000D+00  0.129843D+00
     11  -0.604991D-01  0.000000D+00  0.000000D+00
     12   0.000000D+00 -0.604991D-01  0.000000D+00
     13   0.000000D+00  0.000000D+00  0.000000D+00
     14   0.000000D+00  0.000000D+00  0.000000D+00
     15   0.000000D+00  0.000000D+00  0.178802D+00
     16   0.155333D+00  0.000000D+00  0.000000D+00
     17   0.000000D+00  0.155333D+00  0.000000D+00
     18   0.000000D+00  0.000000D+00 -0.237487D+00
     19   0.000000D+00  0.000000D+00  0.000000D+00
     20   0.000000D+00  0.000000D+00  0.000000D+00
     21   0.100000D+01  0.000000D+00  0.000000D+00
     22   0.000000D+00  0.100000D+01  0.000000D+00
     23   0.000000D+00  0.000000D+00  0.100000D+01
 Entering OneElI...
 Overlap between basis sets.
 Requested accuracy = 0.1000D-12
 PrsmSu:  NPrtUS=   1 ThrOK=F IAlg=1
 PRISM was handed  8586783104 working-precision words and   696 shell-pairs
 IPart=  0 NShTot=         696 NBatch=          85 AvBLen=         8.2
 CnvPC2: ToCart=F DoDens=F IPureD=0 IPureF=0.
 Transformed matrix in CnvPC2: 
                 1             2             3             4             5 
      1   0.999763D+00  0.391742D+00  0.000000D+00  0.000000D+00  0.000000D+00
      2   0.275582D+00  0.990335D+00  0.000000D+00  0.000000D+00  0.000000D+00
      3   0.000000D+00  0.000000D+00  0.998973D+00  0.000000D+00  0.000000D+00
      4   0.000000D+00  0.000000D+00  0.000000D+00  0.998973D+00  0.000000D+00
      5   0.000000D+00  0.000000D+00  0.000000D+00  0.000000D+00  0.998973D+00
      6   0.100511D-01  0.304962D+00  0.000000D+00  0.000000D+00  0.000000D+00
      7   0.000000D+00  0.000000D+00 -0.314491D+00  0.000000D+00  0.000000D+00
      8   0.000000D+00  0.000000D+00  0.000000D+00 -0.314491D+00  0.000000D+00
      9   0.000000D+00  0.000000D+00  0.000000D+00  0.000000D+00 -0.314491D+00
     10   0.000000D+00  0.000000D+00  0.000000D+00  0.000000D+00  0.000000D+00
     11   0.000000D+00  0.000000D+00  0.000000D+00  0.000000D+00  0.000000D+00
     12   0.000000D+00  0.000000D+00  0.000000D+00  0.000000D+00  0.000000D+00
     13   0.000000D+00  0.000000D+00  0.000000D+00  0.000000D+00  0.000000D+00
     14   0.000000D+00  0.000000D+00  0.000000D+00  0.000000D+00  0.000000D+00
     15   0.000000D+00  0.000000D+00  0.000000D+00  0.000000D+00  0.000000D+00
     16   0.000000D+00  0.000000D+00  0.000000D+00  0.000000D+00  0.000000D+00
     17   0.000000D+00  0.000000D+00  0.000000D+00  0.000000D+00  0.000000D+00
     18   0.000000D+00  0.000000D+00  0.000000D+00  0.000000D+00  0.000000D+00
     19   0.000000D+00  0.000000D+00  0.000000D+00  0.000000D+00  0.000000D+00
     20   0.110987D-03  0.986296D-02  0.000000D+00  0.000000D+00  0.000000D+00
     21   0.787383D-02  0.511906D-01  0.000000D+00  0.000000D+00  0.000000D+00
     22   0.394592D-02  0.257618D-01  0.000000D+00  0.000000D+00  0.000000D+00
     23   0.173653D-02  0.113583D-01  0.000000D+00  0.000000D+00  0.000000D+00
     24   0.000000D+00  0.000000D+00 -0.186792D-01  0.000000D+00  0.000000D+00
     25   0.000000D+00  0.000000D+00  0.000000D+00 -0.186792D-01  0.000000D+00
     26   0.000000D+00  0.000000D+00  0.000000D+00  0.000000D+00 -0.186792D-01
     27   0.000000D+00  0.000000D+00  0.114793D-01  0.000000D+00  0.000000D+00
     28   0.000000D+00  0.000000D+00  0.000000D+00  0.114793D-01  0.000000D+00
     29   0.000000D+00  0.000000D+00  0.000000D+00  0.000000D+00  0.114793D-01
     30   0.285296D+00  0.954345D+00  0.000000D+00  0.000000D+00  0.000000D+00
     31   0.179228D+00  0.790394D+00  0.000000D+00  0.000000D+00  0.000000D+00
     32   0.110035D+00  0.578852D+00  0.000000D+00  0.000000D+00  0.000000D+00
     33   0.667292D-01  0.388922D+00  0.000000D+00  0.000000D+00  0.000000D+00
     34   0.402094D-01  0.247841D+00  0.000000D+00  0.000000D+00  0.000000D+00
     35   0.241500D-01  0.153302D+00  0.000000D+00  0.000000D+00  0.000000D+00
     36   0.000000D+00  0.000000D+00  0.426895D+00  0.000000D+00  0.000000D+00
     37   0.000000D+00  0.000000D+00  0.000000D+00  0.426895D+00  0.000000D+00
     38   0.000000D+00  0.000000D+00  0.000000D+00  0.000000D+00  0.426895D+00
     39   0.000000D+00  0.000000D+00  0.265399D+00  0.000000D+00  0.000000D+00
     40   0.000000D+00  0.000000D+00  0.000000D+00  0.265399D+00  0.000000D+00
     41   0.000000D+00  0.000000D+00  0.000000D+00  0.000000D+00  0.265399D+00
     42   0.000000D+00  0.000000D+00  0.153563D+00  0.000000D+00  0.000000D+00
     43   0.000000D+00  0.000000D+00  0.000000D+00  0.153563D+00  0.000000D+00
     44   0.000000D+00  0.000000D+00  0.000000D+00  0.000000D+00  0.153563D+00
     45   0.000000D+00  0.000000D+00  0.845580D-01  0.000000D+00  0.000000D+00
     46   0.000000D+00  0.000000D+00  0.000000D+00  0.845580D-01  0.000000D+00
     47   0.000000D+00  0.000000D+00  0.000000D+00  0.000000D+00  0.845580D-01
     48   0.000000D+00  0.000000D+00  0.450930D-01  0.000000D+00  0.000000D+00
     49   0.000000D+00  0.000000D+00  0.000000D+00  0.450930D-01  0.000000D+00
     50   0.000000D+00  0.000000D+00  0.000000D+00  0.000000D+00  0.450930D-01
     51   0.000000D+00  0.000000D+00  0.235742D-01  0.000000D+00  0.000000D+00
     52   0.000000D+00  0.000000D+00  0.000000D+00  0.235742D-01  0.000000D+00
     53   0.000000D+00  0.000000D+00  0.000000D+00  0.000000D+00  0.235742D-01
     54   0.000000D+00  0.000000D+00  0.000000D+00  0.000000D+00  0.000000D+00
     55   0.000000D+00  0.000000D+00  0.000000D+00  0.000000D+00  0.000000D+00
     56   0.000000D+00  0.000000D+00  0.000000D+00  0.000000D+00  0.000000D+00
     57   0.000000D+00  0.000000D+00  0.000000D+00  0.000000D+00  0.000000D+00
     58   0.000000D+00  0.000000D+00  0.000000D+00  0.000000D+00  0.000000D+00
     59   0.000000D+00  0.000000D+00  0.000000D+00  0.000000D+00  0.000000D+00
     60   0.000000D+00  0.000000D+00  0.000000D+00  0.000000D+00  0.000000D+00
     61   0.000000D+00  0.000000D+00  0.000000D+00  0.000000D+00  0.000000D+00
     62   0.000000D+00  0.000000D+00  0.000000D+00  0.000000D+00  0.000000D+00
     63   0.000000D+00  0.000000D+00  0.000000D+00  0.000000D+00  0.000000D+00
     64   0.000000D+00  0.000000D+00  0.000000D+00  0.000000D+00  0.000000D+00
     65   0.000000D+00  0.000000D+00  0.000000D+00  0.000000D+00  0.000000D+00
     66   0.000000D+00  0.000000D+00  0.000000D+00  0.000000D+00  0.000000D+00
     67   0.000000D+00  0.000000D+00  0.000000D+00  0.000000D+00  0.000000D+00
     68   0.000000D+00  0.000000D+00  0.000000D+00  0.000000D+00  0.000000D+00
     69   0.000000D+00  0.000000D+00  0.000000D+00  0.000000D+00  0.000000D+00
     70   0.000000D+00  0.000000D+00  0.000000D+00  0.000000D+00  0.000000D+00
     71   0.000000D+00  0.000000D+00  0.000000D+00  0.000000D+00  0.000000D+00
     72   0.000000D+00  0.000000D+00  0.000000D+00  0.000000D+00  0.000000D+00
     73   0.000000D+00  0.000000D+00  0.000000D+00  0.000000D+00  0.000000D+00
     74   0.000000D+00  0.000000D+00  0.000000D+00  0.000000D+00  0.000000D+00
     75   0.000000D+00  0.000000D+00  0.000000D+00  0.000000D+00  0.000000D+00
     76   0.000000D+00  0.000000D+00  0.000000D+00  0.000000D+00  0.000000D+00
     77   0.000000D+00  0.000000D+00  0.000000D+00  0.000000D+00  0.000000D+00
     78   0.000000D+00  0.000000D+00  0.000000D+00  0.000000D+00  0.000000D+00
     79   0.000000D+00  0.000000D+00  0.000000D+00  0.000000D+00  0.000000D+00
     80   0.000000D+00  0.000000D+00  0.000000D+00  0.000000D+00  0.000000D+00
     81   0.000000D+00  0.000000D+00  0.000000D+00  0.000000D+00  0.000000D+00
     82   0.000000D+00  0.000000D+00  0.000000D+00  0.000000D+00  0.000000D+00
     83   0.000000D+00  0.000000D+00  0.000000D+00  0.000000D+00  0.000000D+00
     84   0.000000D+00  0.000000D+00  0.000000D+00  0.000000D+00  0.000000D+00
     85   0.000000D+00  0.000000D+00  0.000000D+00  0.000000D+00  0.000000D+00
     86   0.000000D+00  0.000000D+00  0.000000D+00  0.000000D+00  0.000000D+00
     87   0.000000D+00  0.000000D+00  0.000000D+00  0.000000D+00  0.000000D+00
     88   0.000000D+00  0.000000D+00  0.000000D+00  0.000000D+00  0.000000D+00
     89   0.000000D+00  0.000000D+00  0.000000D+00  0.000000D+00  0.000000D+00
     90   0.000000D+00  0.000000D+00  0.000000D+00  0.000000D+00  0.000000D+00
     91   0.000000D+00  0.000000D+00  0.000000D+00  0.000000D+00  0.000000D+00
     92   0.000000D+00  0.000000D+00  0.000000D+00  0.000000D+00  0.000000D+00
     93   0.000000D+00  0.000000D+00  0.000000D+00  0.000000D+00  0.000000D+00
     94   0.000000D+00  0.000000D+00  0.000000D+00  0.000000D+00  0.000000D+00
     95   0.000000D+00  0.000000D+00  0.000000D+00  0.000000D+00  0.000000D+00
     96   0.000000D+00  0.000000D+00  0.000000D+00  0.000000D+00  0.000000D+00
     97   0.000000D+00  0.000000D+00  0.000000D+00  0.000000D+00  0.000000D+00
     98   0.000000D+00  0.000000D+00  0.000000D+00  0.000000D+00  0.000000D+00
     99   0.000000D+00  0.000000D+00  0.000000D+00  0.000000D+00  0.000000D+00
    100   0.000000D+00  0.000000D+00  0.000000D+00  0.000000D+00  0.000000D+00
    101   0.000000D+00  0.000000D+00  0.000000D+00  0.000000D+00  0.000000D+00
    102   0.000000D+00  0.000000D+00  0.000000D+00  0.000000D+00  0.000000D+00
    103   0.000000D+00  0.000000D+00  0.000000D+00  0.000000D+00  0.000000D+00
    104   0.000000D+00  0.000000D+00  0.000000D+00  0.000000D+00  0.000000D+00
    105   0.000000D+00  0.000000D+00  0.000000D+00  0.000000D+00  0.000000D+00
    106   0.000000D+00  0.000000D+00  0.000000D+00  0.000000D+00  0.000000D+00
    107   0.000000D+00  0.000000D+00  0.000000D+00  0.000000D+00  0.000000D+00
    108   0.000000D+00  0.000000D+00  0.000000D+00  0.000000D+00  0.000000D+00
    109   0.000000D+00  0.000000D+00  0.000000D+00  0.000000D+00  0.000000D+00
    110   0.000000D+00  0.000000D+00  0.000000D+00  0.000000D+00  0.000000D+00
    111   0.000000D+00  0.000000D+00  0.000000D+00  0.000000D+00  0.000000D+00
    112   0.000000D+00  0.000000D+00  0.000000D+00  0.000000D+00  0.000000D+00
    113   0.000000D+00  0.000000D+00  0.000000D+00  0.000000D+00  0.000000D+00
    114   0.000000D+00  0.000000D+00  0.000000D+00  0.000000D+00  0.000000D+00
    115   0.000000D+00  0.000000D+00  0.000000D+00  0.000000D+00  0.000000D+00
    116   0.000000D+00  0.000000D+00  0.000000D+00  0.000000D+00  0.000000D+00
    117   0.000000D+00  0.000000D+00  0.000000D+00  0.000000D+00  0.000000D+00
    118   0.000000D+00  0.000000D+00  0.000000D+00  0.000000D+00  0.000000D+00
    119   0.000000D+00  0.000000D+00  0.000000D+00  0.000000D+00  0.000000D+00
    120   0.000000D+00  0.000000D+00  0.000000D+00  0.000000D+00  0.000000D+00
    121   0.000000D+00  0.000000D+00  0.000000D+00  0.000000D+00  0.000000D+00
    122   0.000000D+00  0.000000D+00  0.000000D+00  0.000000D+00  0.000000D+00
    123   0.000000D+00  0.000000D+00  0.000000D+00  0.000000D+00  0.000000D+00
    124   0.000000D+00  0.000000D+00  0.000000D+00  0.000000D+00  0.000000D+00
    125   0.000000D+00  0.000000D+00  0.000000D+00  0.000000D+00  0.000000D+00
    126   0.000000D+00  0.000000D+00  0.000000D+00  0.000000D+00  0.000000D+00
    127   0.000000D+00  0.000000D+00  0.000000D+00  0.000000D+00  0.000000D+00
    128   0.000000D+00  0.000000D+00  0.000000D+00  0.000000D+00  0.000000D+00
    129   0.000000D+00  0.000000D+00  0.000000D+00  0.000000D+00  0.000000D+00
    130   0.000000D+00  0.000000D+00  0.000000D+00  0.000000D+00  0.000000D+00
    131   0.000000D+00  0.000000D+00  0.000000D+00  0.000000D+00  0.000000D+00
    132   0.000000D+00  0.000000D+00  0.000000D+00  0.000000D+00  0.000000D+00
    133   0.000000D+00  0.000000D+00  0.000000D+00  0.000000D+00  0.000000D+00
    134   0.000000D+00  0.000000D+00  0.000000D+00  0.000000D+00  0.000000D+00
    135   0.000000D+00  0.000000D+00  0.000000D+00  0.000000D+00  0.000000D+00
    136   0.000000D+00  0.000000D+00  0.000000D+00  0.000000D+00  0.000000D+00
    137   0.000000D+00  0.000000D+00  0.000000D+00  0.000000D+00  0.000000D+00
    138   0.000000D+00  0.000000D+00  0.000000D+00  0.000000D+00  0.000000D+00
    139   0.000000D+00  0.000000D+00  0.000000D+00  0.000000D+00  0.000000D+00
    140   0.000000D+00  0.000000D+00  0.000000D+00  0.000000D+00  0.000000D+00
    141   0.000000D+00  0.000000D+00  0.000000D+00  0.000000D+00  0.000000D+00
    142   0.000000D+00  0.000000D+00  0.000000D+00  0.000000D+00  0.000000D+00
    143   0.000000D+00  0.000000D+00  0.000000D+00  0.000000D+00  0.000000D+00
    144   0.000000D+00  0.000000D+00  0.000000D+00  0.000000D+00  0.000000D+00
    145   0.000000D+00  0.000000D+00  0.000000D+00  0.000000D+00  0.000000D+00
    146   0.000000D+00  0.000000D+00  0.000000D+00  0.000000D+00  0.000000D+00
    147   0.000000D+00  0.000000D+00  0.000000D+00  0.000000D+00  0.000000D+00
    148   0.000000D+00  0.000000D+00  0.000000D+00  0.000000D+00  0.000000D+00
    149   0.000000D+00  0.000000D+00  0.000000D+00  0.000000D+00  0.000000D+00
    150   0.000000D+00  0.000000D+00  0.000000D+00  0.000000D+00  0.000000D+00
    151   0.000000D+00  0.000000D+00  0.000000D+00  0.000000D+00  0.000000D+00
    152   0.000000D+00  0.000000D+00  0.000000D+00  0.000000D+00  0.000000D+00
    153   0.000000D+00  0.000000D+00  0.000000D+00  0.000000D+00  0.000000D+00
    154   0.000000D+00  0.000000D+00  0.000000D+00  0.000000D+00  0.000000D+00
    155   0.000000D+00  0.000000D+00  0.000000D+00  0.000000D+00  0.000000D+00
    156   0.000000D+00  0.000000D+00  0.000000D+00  0.000000D+00  0.000000D+00
    157   0.000000D+00  0.000000D+00  0.000000D+00  0.000000D+00  0.000000D+00
    158   0.000000D+00  0.000000D+00  0.000000D+00  0.000000D+00  0.000000D+00
    159   0.000000D+00  0.000000D+00  0.000000D+00  0.000000D+00  0.000000D+00
    160   0.000000D+00  0.000000D+00  0.000000D+00  0.000000D+00  0.000000D+00
    161   0.000000D+00  0.000000D+00  0.000000D+00  0.000000D+00  0.000000D+00
    162   0.000000D+00  0.000000D+00  0.000000D+00  0.000000D+00  0.000000D+00
    163   0.000000D+00  0.000000D+00  0.000000D+00  0.000000D+00  0.000000D+00
    164   0.000000D+00  0.000000D+00  0.000000D+00  0.000000D+00  0.000000D+00
    165   0.000000D+00  0.000000D+00  0.000000D+00  0.000000D+00  0.000000D+00
    166   0.000000D+00  0.000000D+00  0.000000D+00  0.000000D+00  0.000000D+00
    167   0.000000D+00  0.000000D+00  0.000000D+00  0.000000D+00  0.000000D+00
    168   0.000000D+00  0.000000D+00  0.000000D+00  0.000000D+00  0.000000D+00
    169   0.000000D+00  0.000000D+00  0.000000D+00  0.000000D+00  0.000000D+00
    170   0.000000D+00  0.000000D+00  0.000000D+00  0.000000D+00  0.000000D+00
    171   0.000000D+00  0.000000D+00  0.000000D+00  0.000000D+00  0.000000D+00
    172   0.000000D+00  0.000000D+00  0.000000D+00  0.000000D+00  0.000000D+00
    173   0.000000D+00  0.000000D+00  0.000000D+00  0.000000D+00  0.000000D+00
    174   0.000000D+00  0.000000D+00  0.000000D+00  0.000000D+00  0.000000D+00
    175   0.000000D+00  0.000000D+00  0.000000D+00  0.000000D+00  0.000000D+00
    176   0.000000D+00  0.000000D+00  0.000000D+00  0.000000D+00  0.000000D+00
    177   0.000000D+00  0.000000D+00  0.000000D+00  0.000000D+00  0.000000D+00
    178   0.000000D+00  0.000000D+00  0.000000D+00  0.000000D+00  0.000000D+00
    179   0.000000D+00  0.000000D+00  0.000000D+00  0.000000D+00  0.000000D+00
    180   0.000000D+00  0.000000D+00  0.000000D+00  0.000000D+00  0.000000D+00
    181   0.000000D+00  0.000000D+00  0.000000D+00  0.000000D+00  0.000000D+00
    182   0.000000D+00  0.000000D+00  0.000000D+00  0.000000D+00  0.000000D+00
    183   0.000000D+00  0.000000D+00  0.000000D+00  0.000000D+00  0.000000D+00
    184   0.000000D+00  0.000000D+00  0.000000D+00  0.000000D+00  0.000000D+00
    185   0.000000D+00  0.000000D+00  0.000000D+00  0.000000D+00  0.000000D+00
    186   0.000000D+00  0.000000D+00  0.000000D+00  0.000000D+00  0.000000D+00
    187   0.000000D+00  0.000000D+00  0.000000D+00  0.000000D+00  0.000000D+00
    188   0.000000D+00  0.000000D+00  0.000000D+00  0.000000D+00  0.000000D+00
    189   0.000000D+00  0.000000D+00  0.000000D+00  0.000000D+00  0.000000D+00
    190   0.000000D+00  0.000000D+00  0.000000D+00  0.000000D+00  0.000000D+00
    191   0.000000D+00  0.000000D+00  0.000000D+00  0.000000D+00  0.000000D+00
    192   0.000000D+00  0.000000D+00  0.000000D+00  0.000000D+00  0.000000D+00
    193   0.000000D+00  0.000000D+00  0.000000D+00  0.000000D+00  0.000000D+00
    194   0.000000D+00  0.000000D+00  0.000000D+00  0.000000D+00  0.000000D+00
    195   0.000000D+00  0.000000D+00  0.000000D+00  0.000000D+00  0.000000D+00
    196   0.000000D+00  0.000000D+00  0.000000D+00  0.000000D+00  0.000000D+00
    197   0.000000D+00  0.000000D+00  0.000000D+00  0.000000D+00  0.000000D+00
    198   0.000000D+00  0.000000D+00  0.000000D+00  0.000000D+00  0.000000D+00
    199   0.000000D+00  0.000000D+00  0.000000D+00  0.000000D+00  0.000000D+00
    200   0.000000D+00  0.000000D+00  0.000000D+00  0.000000D+00  0.000000D+00
    201   0.000000D+00  0.000000D+00  0.000000D+00  0.000000D+00  0.000000D+00
    202   0.000000D+00  0.000000D+00  0.000000D+00  0.000000D+00  0.000000D+00
    203   0.000000D+00  0.000000D+00  0.000000D+00  0.000000D+00  0.000000D+00
    204   0.000000D+00  0.000000D+00  0.000000D+00  0.000000D+00  0.000000D+00
    205   0.000000D+00  0.000000D+00  0.000000D+00  0.000000D+00  0.000000D+00
    206   0.000000D+00  0.000000D+00  0.000000D+00  0.000000D+00  0.000000D+00
    207   0.000000D+00  0.000000D+00  0.000000D+00  0.000000D+00  0.000000D+00
    208   0.000000D+00  0.000000D+00  0.000000D+00  0.000000D+00  0.000000D+00
    209   0.000000D+00  0.000000D+00  0.000000D+00  0.000000D+00  0.000000D+00
    210   0.000000D+00  0.000000D+00  0.000000D+00  0.000000D+00  0.000000D+00
    211   0.000000D+00  0.000000D+00  0.000000D+00  0.000000D+00  0.000000D+00
    212   0.000000D+00  0.000000D+00  0.000000D+00  0.000000D+00  0.000000D+00
    213   0.000000D+00  0.000000D+00  0.000000D+00  0.000000D+00  0.000000D+00
    214   0.000000D+00  0.000000D+00  0.000000D+00  0.000000D+00  0.000000D+00
    215   0.000000D+00  0.000000D+00  0.000000D+00  0.000000D+00  0.000000D+00
    216   0.000000D+00  0.000000D+00  0.000000D+00  0.000000D+00  0.000000D+00
    217   0.000000D+00  0.000000D+00  0.000000D+00  0.000000D+00  0.000000D+00
    218   0.000000D+00  0.000000D+00  0.000000D+00  0.000000D+00  0.000000D+00
    219   0.000000D+00  0.000000D+00  0.000000D+00  0.000000D+00  0.000000D+00
    220   0.000000D+00  0.000000D+00  0.000000D+00  0.000000D+00  0.000000D+00
    221   0.000000D+00  0.000000D+00  0.000000D+00  0.000000D+00  0.000000D+00
    222   0.000000D+00  0.000000D+00  0.000000D+00  0.000000D+00  0.000000D+00
    223   0.000000D+00  0.000000D+00  0.000000D+00  0.000000D+00  0.000000D+00
    224   0.000000D+00  0.000000D+00  0.000000D+00  0.000000D+00  0.000000D+00
    225   0.000000D+00  0.000000D+00  0.000000D+00  0.000000D+00  0.000000D+00
    226   0.000000D+00  0.000000D+00  0.000000D+00  0.000000D+00  0.000000D+00
    227   0.000000D+00  0.000000D+00  0.000000D+00  0.000000D+00  0.000000D+00
    228   0.000000D+00  0.000000D+00  0.000000D+00  0.000000D+00  0.000000D+00
    229   0.000000D+00  0.000000D+00  0.000000D+00  0.000000D+00  0.000000D+00
    230   0.000000D+00  0.000000D+00  0.000000D+00  0.000000D+00  0.000000D+00
    231   0.000000D+00  0.000000D+00  0.000000D+00  0.000000D+00  0.000000D+00
    232   0.000000D+00  0.000000D+00  0.000000D+00  0.000000D+00  0.000000D+00
    233   0.000000D+00  0.000000D+00  0.000000D+00  0.000000D+00  0.000000D+00
    234   0.000000D+00  0.000000D+00  0.000000D+00  0.000000D+00  0.000000D+00
    235   0.000000D+00  0.000000D+00  0.000000D+00  0.000000D+00  0.000000D+00
    236   0.000000D+00  0.000000D+00  0.000000D+00  0.000000D+00  0.000000D+00
    237   0.000000D+00  0.000000D+00  0.000000D+00  0.000000D+00  0.000000D+00
    238   0.000000D+00  0.000000D+00  0.000000D+00  0.000000D+00  0.000000D+00
    239   0.000000D+00  0.000000D+00  0.000000D+00  0.000000D+00  0.000000D+00
    240   0.000000D+00  0.000000D+00  0.000000D+00  0.000000D+00  0.000000D+00
    241   0.000000D+00  0.000000D+00  0.000000D+00  0.000000D+00  0.000000D+00
    242   0.000000D+00  0.000000D+00  0.000000D+00  0.000000D+00  0.000000D+00
    243   0.000000D+00  0.000000D+00  0.000000D+00  0.000000D+00  0.000000D+00
    244   0.000000D+00  0.000000D+00  0.000000D+00  0.000000D+00  0.000000D+00
    245   0.000000D+00  0.000000D+00  0.000000D+00  0.000000D+00  0.000000D+00
    246   0.000000D+00  0.000000D+00  0.000000D+00  0.000000D+00  0.000000D+00
    247   0.000000D+00  0.000000D+00  0.000000D+00  0.000000D+00  0.000000D+00
    248   0.000000D+00  0.000000D+00  0.000000D+00  0.000000D+00  0.000000D+00
    249   0.000000D+00  0.000000D+00  0.000000D+00  0.000000D+00  0.000000D+00
    250   0.000000D+00  0.000000D+00  0.000000D+00  0.000000D+00  0.000000D+00
    251   0.000000D+00  0.000000D+00  0.000000D+00  0.000000D+00  0.000000D+00
    252   0.000000D+00  0.000000D+00  0.000000D+00  0.000000D+00  0.000000D+00
    253   0.000000D+00  0.000000D+00  0.000000D+00  0.000000D+00  0.000000D+00
    254   0.000000D+00  0.000000D+00  0.000000D+00  0.000000D+00  0.000000D+00
    255   0.000000D+00  0.000000D+00  0.000000D+00  0.000000D+00  0.000000D+00
    256   0.000000D+00  0.000000D+00  0.000000D+00  0.000000D+00  0.000000D+00
    257   0.000000D+00  0.000000D+00  0.000000D+00  0.000000D+00  0.000000D+00
    258   0.000000D+00  0.000000D+00  0.000000D+00  0.000000D+00  0.000000D+00
    259   0.000000D+00  0.000000D+00  0.000000D+00  0.000000D+00  0.000000D+00
    260   0.000000D+00  0.000000D+00  0.000000D+00  0.000000D+00  0.000000D+00
    261   0.000000D+00  0.000000D+00  0.000000D+00  0.000000D+00  0.000000D+00
    262   0.000000D+00  0.000000D+00  0.000000D+00  0.000000D+00  0.000000D+00
    263   0.000000D+00  0.000000D+00  0.000000D+00  0.000000D+00  0.000000D+00
    264   0.000000D+00  0.000000D+00  0.000000D+00  0.000000D+00  0.000000D+00
    265   0.000000D+00  0.000000D+00  0.000000D+00  0.000000D+00  0.000000D+00
    266   0.000000D+00  0.000000D+00  0.000000D+00  0.000000D+00  0.000000D+00
    267   0.000000D+00  0.000000D+00  0.000000D+00  0.000000D+00  0.000000D+00
    268   0.000000D+00  0.000000D+00  0.000000D+00  0.000000D+00  0.000000D+00
    269   0.000000D+00  0.000000D+00  0.000000D+00  0.000000D+00  0.000000D+00
    270   0.000000D+00  0.000000D+00  0.000000D+00  0.000000D+00  0.000000D+00
    271   0.000000D+00  0.000000D+00  0.000000D+00  0.000000D+00  0.000000D+00
    272   0.000000D+00  0.000000D+00  0.000000D+00  0.000000D+00  0.000000D+00
    273   0.000000D+00  0.000000D+00  0.000000D+00  0.000000D+00  0.000000D+00
    274   0.000000D+00  0.000000D+00  0.000000D+00  0.000000D+00  0.000000D+00
    275   0.000000D+00  0.000000D+00  0.000000D+00  0.000000D+00  0.000000D+00
    276   0.000000D+00  0.000000D+00  0.000000D+00  0.000000D+00  0.000000D+00
    277   0.000000D+00  0.000000D+00  0.000000D+00  0.000000D+00  0.000000D+00
    278   0.000000D+00  0.000000D+00  0.000000D+00  0.000000D+00  0.000000D+00
    279   0.000000D+00  0.000000D+00  0.000000D+00  0.000000D+00  0.000000D+00
    280   0.000000D+00  0.000000D+00  0.000000D+00  0.000000D+00  0.000000D+00
    281   0.000000D+00  0.000000D+00  0.000000D+00  0.000000D+00  0.000000D+00
    282   0.000000D+00  0.000000D+00  0.000000D+00  0.000000D+00  0.000000D+00
    283   0.000000D+00  0.000000D+00  0.000000D+00  0.000000D+00  0.000000D+00
    284   0.000000D+00  0.000000D+00  0.000000D+00  0.000000D+00  0.000000D+00
    285   0.000000D+00  0.000000D+00  0.000000D+00  0.000000D+00  0.000000D+00
    286   0.000000D+00  0.000000D+00  0.000000D+00  0.000000D+00  0.000000D+00
    287   0.000000D+00  0.000000D+00  0.000000D+00  0.000000D+00  0.000000D+00
    288   0.000000D+00  0.000000D+00  0.000000D+00  0.000000D+00  0.000000D+00
    289   0.000000D+00  0.000000D+00  0.000000D+00  0.000000D+00  0.000000D+00
    290   0.000000D+00  0.000000D+00  0.000000D+00  0.000000D+00  0.000000D+00
    291   0.000000D+00  0.000000D+00  0.000000D+00  0.000000D+00  0.000000D+00
    292   0.000000D+00  0.000000D+00  0.000000D+00  0.000000D+00  0.000000D+00
    293   0.000000D+00  0.000000D+00  0.000000D+00  0.000000D+00  0.000000D+00
    294   0.000000D+00  0.000000D+00  0.000000D+00  0.000000D+00  0.000000D+00
    295   0.000000D+00  0.000000D+00  0.000000D+00  0.000000D+00  0.000000D+00
    296   0.000000D+00  0.000000D+00  0.000000D+00  0.000000D+00  0.000000D+00
    297   0.000000D+00  0.000000D+00  0.000000D+00  0.000000D+00  0.000000D+00
    298   0.000000D+00  0.000000D+00  0.000000D+00  0.000000D+00  0.000000D+00
    299   0.000000D+00  0.000000D+00  0.000000D+00  0.000000D+00  0.000000D+00
    300   0.000000D+00  0.000000D+00  0.000000D+00  0.000000D+00  0.000000D+00
    301   0.000000D+00  0.000000D+00  0.000000D+00  0.000000D+00  0.000000D+00
    302   0.000000D+00  0.000000D+00  0.000000D+00  0.000000D+00  0.000000D+00
    303   0.000000D+00  0.000000D+00  0.000000D+00  0.000000D+00  0.000000D+00
    304   0.000000D+00  0.000000D+00  0.000000D+00  0.000000D+00  0.000000D+00
    305   0.000000D+00  0.000000D+00  0.000000D+00  0.000000D+00  0.000000D+00
    306   0.000000D+00  0.000000D+00  0.000000D+00  0.000000D+00  0.000000D+00
    307   0.000000D+00  0.000000D+00  0.000000D+00  0.000000D+00  0.000000D+00
    308   0.000000D+00  0.000000D+00  0.000000D+00  0.000000D+00  0.000000D+00
    309   0.000000D+00  0.000000D+00  0.000000D+00  0.000000D+00  0.000000D+00
    310   0.000000D+00  0.000000D+00  0.000000D+00  0.000000D+00  0.000000D+00
    311   0.000000D+00  0.000000D+00  0.000000D+00  0.000000D+00  0.000000D+00
    312   0.000000D+00  0.000000D+00  0.000000D+00  0.000000D+00  0.000000D+00
    313   0.000000D+00  0.000000D+00  0.000000D+00  0.000000D+00  0.000000D+00
    314   0.000000D+00  0.000000D+00  0.000000D+00  0.000000D+00  0.000000D+00
    315   0.000000D+00  0.000000D+00  0.000000D+00  0.000000D+00  0.000000D+00
    316   0.000000D+00  0.000000D+00  0.000000D+00  0.000000D+00  0.000000D+00
    317   0.000000D+00  0.000000D+00  0.000000D+00  0.000000D+00  0.000000D+00
    318   0.000000D+00  0.000000D+00  0.000000D+00  0.000000D+00  0.000000D+00
    319   0.000000D+00  0.000000D+00  0.000000D+00  0.000000D+00  0.000000D+00
    320   0.000000D+00  0.000000D+00  0.000000D+00  0.000000D+00  0.000000D+00
    321   0.000000D+00  0.000000D+00  0.000000D+00  0.000000D+00  0.000000D+00
    322   0.000000D+00  0.000000D+00  0.000000D+00  0.000000D+00  0.000000D+00
    323   0.000000D+00  0.000000D+00  0.000000D+00  0.000000D+00  0.000000D+00
    324   0.000000D+00  0.000000D+00  0.000000D+00  0.000000D+00  0.000000D+00
    325   0.000000D+00  0.000000D+00  0.000000D+00  0.000000D+00  0.000000D+00
    326   0.000000D+00  0.000000D+00  0.000000D+00  0.000000D+00  0.000000D+00
    327   0.000000D+00  0.000000D+00  0.000000D+00  0.000000D+00  0.000000D+00
    328   0.000000D+00  0.000000D+00  0.000000D+00  0.000000D+00  0.000000D+00
    329   0.000000D+00  0.000000D+00  0.000000D+00  0.000000D+00  0.000000D+00
    330   0.000000D+00  0.000000D+00  0.000000D+00  0.000000D+00  0.000000D+00
    331   0.000000D+00  0.000000D+00  0.000000D+00  0.000000D+00  0.000000D+00
    332   0.000000D+00  0.000000D+00  0.000000D+00  0.000000D+00  0.000000D+00
    333   0.000000D+00  0.000000D+00  0.000000D+00  0.000000D+00  0.000000D+00
    334   0.000000D+00  0.000000D+00  0.000000D+00  0.000000D+00  0.000000D+00
    335   0.000000D+00  0.000000D+00  0.000000D+00  0.000000D+00  0.000000D+00
    336   0.000000D+00  0.000000D+00  0.000000D+00  0.000000D+00  0.000000D+00
    337   0.000000D+00  0.000000D+00  0.000000D+00  0.000000D+00  0.000000D+00
    338   0.000000D+00  0.000000D+00  0.000000D+00  0.000000D+00  0.000000D+00
    339   0.000000D+00  0.000000D+00  0.000000D+00  0.000000D+00  0.000000D+00
    340   0.000000D+00  0.000000D+00  0.000000D+00  0.000000D+00  0.000000D+00
    341   0.000000D+00  0.000000D+00  0.000000D+00  0.000000D+00  0.000000D+00
    342   0.000000D+00  0.000000D+00  0.000000D+00  0.000000D+00  0.000000D+00
    343   0.000000D+00  0.000000D+00  0.000000D+00  0.000000D+00  0.000000D+00
    344   0.000000D+00  0.000000D+00  0.000000D+00  0.000000D+00  0.000000D+00
    345   0.000000D+00  0.000000D+00  0.000000D+00  0.000000D+00  0.000000D+00
    346   0.000000D+00  0.000000D+00  0.000000D+00  0.000000D+00  0.000000D+00
    347   0.000000D+00  0.000000D+00  0.000000D+00  0.000000D+00  0.000000D+00
    348   0.000000D+00  0.000000D+00  0.000000D+00  0.000000D+00  0.000000D+00
    349   0.000000D+00  0.000000D+00  0.000000D+00  0.000000D+00  0.000000D+00
    350   0.000000D+00  0.000000D+00  0.000000D+00  0.000000D+00  0.000000D+00
    351   0.000000D+00  0.000000D+00  0.000000D+00  0.000000D+00  0.000000D+00
    352   0.000000D+00  0.000000D+00  0.000000D+00  0.000000D+00  0.000000D+00
    353   0.000000D+00  0.000000D+00  0.000000D+00  0.000000D+00  0.000000D+00
    354   0.000000D+00  0.000000D+00  0.000000D+00  0.000000D+00  0.000000D+00
    355   0.000000D+00  0.000000D+00  0.000000D+00  0.000000D+00  0.000000D+00
    356   0.000000D+00  0.000000D+00  0.000000D+00  0.000000D+00  0.000000D+00
    357   0.110957D-02  0.758929D-02  0.000000D+00  0.000000D+00 -0.291328D-02
    358   0.579411D-02  0.377010D-01  0.000000D+00  0.000000D+00 -0.326856D-02
    359   0.000000D+00  0.000000D+00  0.174172D-02  0.000000D+00  0.000000D+00
    360   0.000000D+00  0.000000D+00  0.000000D+00  0.174172D-02  0.000000D+00
    361   0.339038D-02  0.225240D-01  0.000000D+00  0.000000D+00 -0.656035D-02
    362   0.000000D+00  0.000000D+00  0.344224D-02  0.000000D+00  0.000000D+00
    363   0.000000D+00  0.000000D+00  0.000000D+00  0.344224D-02  0.000000D+00
    364   0.685209D-02  0.444124D-01  0.000000D+00  0.000000D+00  0.614134D-03
    365   0.000000D+00  0.000000D+00  0.000000D+00  0.000000D+00  0.000000D+00
    366   0.000000D+00  0.000000D+00  0.000000D+00  0.000000D+00  0.000000D+00
    367   0.235156D-05  0.422393D-04  0.000000D+00  0.000000D+00 -0.574610D-04
    368   0.244353D-03  0.201669D-02  0.000000D+00  0.000000D+00 -0.156815D-02
    369   0.209350D-02  0.142533D-01  0.000000D+00  0.000000D+00 -0.592998D-02
    370   0.492290D-02  0.321797D-01  0.000000D+00  0.000000D+00 -0.696331D-02
    371   0.000000D+00  0.000000D+00  0.000000D+00  0.000000D+00  0.000000D+00
    372   0.000000D+00  0.000000D+00  0.000000D+00  0.000000D+00  0.000000D+00
    373   0.000000D+00  0.000000D+00  0.000000D+00  0.000000D+00  0.000000D+00
    374   0.000000D+00  0.000000D+00  0.000000D+00  0.000000D+00  0.000000D+00
    375   0.000000D+00  0.000000D+00  0.000000D+00  0.000000D+00  0.000000D+00
    376   0.000000D+00  0.000000D+00  0.000000D+00  0.000000D+00  0.000000D+00
    377   0.000000D+00  0.000000D+00  0.112927D-04  0.000000D+00  0.000000D+00
    378   0.000000D+00  0.000000D+00  0.000000D+00  0.112927D-04  0.000000D+00
    379   0.868214D-05  0.155910D-03  0.000000D+00  0.000000D+00 -0.212057D-03
    380   0.000000D+00  0.000000D+00  0.818081D-03  0.000000D+00  0.000000D+00
    381   0.000000D+00  0.000000D+00  0.000000D+00  0.818081D-03  0.000000D+00
    382   0.141433D-02  0.107000D-01  0.000000D+00  0.000000D+00 -0.714448D-02
    383   0.000000D+00  0.000000D+00  0.437963D-02  0.000000D+00  0.000000D+00
    384   0.000000D+00  0.000000D+00  0.000000D+00  0.437963D-02  0.000000D+00
    385   0.867906D-02  0.565321D-01  0.000000D+00  0.000000D+00 -0.156685D-01
    386   0.000000D+00  0.000000D+00  0.582221D-02  0.000000D+00  0.000000D+00
    387   0.000000D+00  0.000000D+00  0.000000D+00  0.582221D-02  0.000000D+00
    388   0.116716D-01  0.750639D-01  0.000000D+00  0.000000D+00 -0.648877D-02
    389   0.000000D+00  0.000000D+00  0.000000D+00  0.000000D+00  0.000000D+00
    390   0.000000D+00  0.000000D+00  0.000000D+00  0.000000D+00  0.000000D+00
    391   0.000000D+00  0.000000D+00  0.000000D+00  0.000000D+00  0.000000D+00
    392   0.000000D+00  0.000000D+00  0.000000D+00  0.000000D+00  0.000000D+00
    393   0.000000D+00  0.000000D+00  0.000000D+00  0.000000D+00  0.000000D+00
    394   0.000000D+00  0.000000D+00  0.000000D+00  0.000000D+00  0.000000D+00
    395   0.000000D+00  0.000000D+00  0.000000D+00  0.000000D+00  0.000000D+00
    396   0.000000D+00  0.000000D+00  0.000000D+00  0.000000D+00  0.000000D+00
    397   0.000000D+00  0.000000D+00  0.000000D+00  0.000000D+00  0.000000D+00
    398   0.000000D+00  0.000000D+00  0.000000D+00  0.000000D+00  0.000000D+00
    399   0.000000D+00  0.000000D+00  0.000000D+00  0.000000D+00 -0.123798D-05
    400   0.000000D+00  0.000000D+00  0.000000D+00  0.000000D+00  0.000000D+00
    401   0.000000D+00  0.000000D+00  0.000000D+00  0.000000D+00  0.000000D+00
    402   0.000000D+00  0.000000D+00  0.000000D+00  0.000000D+00  0.000000D+00
    403   0.000000D+00  0.000000D+00  0.000000D+00  0.000000D+00  0.000000D+00
    404   0.270834D-04  0.447432D-03  0.000000D+00  0.000000D+00 -0.591532D-03
    405   0.000000D+00  0.000000D+00  0.563640D-04  0.000000D+00  0.000000D+00
    406   0.000000D+00  0.000000D+00  0.000000D+00  0.563640D-04  0.000000D+00
    407   0.000000D+00  0.000000D+00  0.000000D+00  0.000000D+00  0.000000D+00
    408   0.000000D+00  0.000000D+00  0.000000D+00  0.000000D+00  0.000000D+00
    409   0.236774D-02  0.177697D-01  0.000000D+00  0.000000D+00 -0.120954D-01
    410   0.000000D+00  0.000000D+00  0.235497D-02  0.000000D+00  0.000000D+00
    411   0.000000D+00  0.000000D+00  0.000000D+00  0.235497D-02  0.000000D+00
    412   0.000000D+00  0.000000D+00  0.000000D+00  0.000000D+00  0.000000D+00
    413   0.000000D+00  0.000000D+00  0.000000D+00  0.000000D+00  0.000000D+00
    414   0.126638D-01  0.811640D-01  0.000000D+00  0.000000D+00 -0.230391D-01
    415   0.000000D+00  0.000000D+00  0.109078D-01  0.000000D+00  0.000000D+00
    416   0.000000D+00  0.000000D+00  0.000000D+00  0.109078D-01  0.000000D+00
    417   0.000000D+00  0.000000D+00  0.000000D+00  0.000000D+00  0.000000D+00
    418   0.000000D+00  0.000000D+00  0.000000D+00  0.000000D+00  0.000000D+00
    419   0.162579D-01  0.102812D+00  0.000000D+00  0.000000D+00 -0.710143D-02
    420   0.000000D+00  0.000000D+00  0.138345D-01  0.000000D+00  0.000000D+00
    421   0.000000D+00  0.000000D+00  0.000000D+00  0.138345D-01  0.000000D+00
    422   0.000000D+00  0.000000D+00  0.000000D+00  0.000000D+00  0.000000D+00
    423   0.000000D+00  0.000000D+00  0.000000D+00  0.000000D+00  0.000000D+00
    424   0.000000D+00  0.000000D+00  0.000000D+00  0.000000D+00  0.000000D+00
    425   0.000000D+00  0.000000D+00  0.000000D+00  0.000000D+00  0.000000D+00
    426   0.000000D+00  0.000000D+00  0.000000D+00  0.000000D+00  0.000000D+00
    427   0.000000D+00  0.000000D+00  0.000000D+00  0.000000D+00  0.000000D+00
    428   0.000000D+00  0.000000D+00  0.000000D+00  0.000000D+00  0.000000D+00
    429   0.000000D+00  0.000000D+00  0.000000D+00  0.000000D+00  0.000000D+00
    430   0.000000D+00  0.000000D+00  0.000000D+00  0.000000D+00  0.000000D+00
    431   0.000000D+00  0.000000D+00  0.000000D+00  0.000000D+00  0.000000D+00
    432   0.000000D+00  0.000000D+00  0.000000D+00  0.000000D+00  0.000000D+00
    433   0.000000D+00  0.000000D+00  0.000000D+00  0.000000D+00  0.000000D+00
    434   0.000000D+00  0.000000D+00  0.000000D+00  0.000000D+00  0.000000D+00
    435   0.000000D+00  0.000000D+00  0.000000D+00  0.000000D+00  0.000000D+00
    436   0.000000D+00  0.000000D+00  0.000000D+00  0.000000D+00  0.000000D+00
    437   0.000000D+00  0.000000D+00  0.000000D+00  0.000000D+00  0.000000D+00
    438   0.000000D+00  0.375177D-04  0.000000D+00  0.000000D+00 -0.659805D-04
    439   0.000000D+00  0.000000D+00  0.643414D-05  0.000000D+00  0.000000D+00
    440   0.000000D+00  0.000000D+00  0.000000D+00  0.643414D-05  0.000000D+00
    441   0.000000D+00  0.000000D+00  0.000000D+00  0.000000D+00  0.000000D+00
    442   0.000000D+00  0.000000D+00  0.000000D+00  0.000000D+00  0.000000D+00
    443   0.000000D+00  0.000000D+00  0.000000D+00  0.000000D+00  0.000000D+00
    444   0.000000D+00  0.000000D+00  0.000000D+00  0.000000D+00  0.000000D+00
    445   0.653773D-03  0.622687D-02  0.000000D+00  0.000000D+00 -0.607177D-02
    446   0.000000D+00  0.000000D+00  0.114604D-02  0.000000D+00  0.000000D+00
    447   0.000000D+00  0.000000D+00  0.000000D+00  0.114604D-02  0.000000D+00
    448   0.000000D+00  0.000000D+00  0.000000D+00  0.000000D+00  0.000000D+00
    449   0.000000D+00  0.000000D+00  0.000000D+00  0.000000D+00  0.000000D+00
    450   0.000000D+00  0.000000D+00  0.000000D+00  0.000000D+00  0.000000D+00
    451   0.000000D+00  0.000000D+00  0.000000D+00  0.000000D+00  0.000000D+00
    452   0.106278D-01  0.690419D-01  0.000000D+00  0.000000D+00 -0.296331D-01
    453   0.000000D+00  0.000000D+00  0.131065D-01  0.000000D+00  0.000000D+00
    454   0.000000D+00  0.000000D+00  0.000000D+00  0.131065D-01  0.000000D+00
    455   0.000000D+00  0.000000D+00  0.000000D+00  0.000000D+00  0.000000D+00
    456   0.000000D+00  0.000000D+00  0.000000D+00  0.000000D+00  0.000000D+00
    457   0.000000D+00  0.000000D+00  0.000000D+00  0.000000D+00  0.000000D+00
    458   0.000000D+00  0.000000D+00  0.000000D+00  0.000000D+00  0.000000D+00
    459   0.210019D-01  0.129629D+00  0.000000D+00  0.000000D+00 -0.145584D-01
    460   0.000000D+00  0.000000D+00  0.247263D-01  0.000000D+00  0.000000D+00
    461   0.000000D+00  0.000000D+00  0.000000D+00  0.247263D-01  0.000000D+00
    462   0.000000D+00  0.000000D+00  0.000000D+00  0.000000D+00  0.000000D+00
    463   0.000000D+00  0.000000D+00  0.000000D+00  0.000000D+00  0.000000D+00
    464   0.000000D+00  0.000000D+00  0.000000D+00  0.000000D+00  0.000000D+00
    465   0.000000D+00  0.000000D+00  0.000000D+00  0.000000D+00  0.000000D+00
    466   0.000000D+00  0.000000D+00  0.000000D+00  0.000000D+00  0.000000D+00
    467   0.000000D+00  0.000000D+00  0.000000D+00  0.000000D+00  0.000000D+00
    468   0.000000D+00  0.000000D+00  0.000000D+00  0.000000D+00  0.000000D+00
    469   0.000000D+00  0.000000D+00  0.000000D+00  0.000000D+00  0.000000D+00
    470   0.000000D+00  0.000000D+00  0.000000D+00  0.000000D+00  0.000000D+00
    471   0.000000D+00  0.000000D+00  0.000000D+00  0.000000D+00  0.000000D+00
    472   0.000000D+00  0.000000D+00  0.000000D+00  0.000000D+00  0.000000D+00
    473   0.000000D+00  0.000000D+00  0.000000D+00  0.000000D+00  0.000000D+00
    474   0.000000D+00  0.000000D+00  0.000000D+00  0.000000D+00  0.000000D+00
    475   0.000000D+00  0.000000D+00  0.000000D+00  0.000000D+00  0.000000D+00
    476   0.000000D+00  0.000000D+00  0.000000D+00  0.000000D+00  0.000000D+00
    477   0.000000D+00  0.000000D+00  0.000000D+00  0.000000D+00  0.000000D+00
    478   0.000000D+00  0.000000D+00  0.000000D+00  0.000000D+00  0.000000D+00
    479   0.000000D+00  0.000000D+00  0.000000D+00  0.000000D+00  0.000000D+00
    480   0.000000D+00  0.000000D+00  0.000000D+00  0.000000D+00  0.000000D+00
    481   0.000000D+00  0.000000D+00  0.000000D+00  0.000000D+00  0.000000D+00
    482   0.000000D+00  0.000000D+00  0.000000D+00  0.000000D+00  0.000000D+00
[...]
                     Sum of ba pair energies =    -0.084713 A.U.
                     Sum of aa pair energies =    -0.100594 A.U.
                     Sum of bb pair energies =    -0.053582 A.U.

           Sum of intraorbital pair energies =    -0.128069 A.U.
           Sum of interorbital pair energies =    -0.365473 A.U.
                                                  ----------
                         Total pair energies =    -0.493542 A.U.

                         Single Excitations  =    -0.003033 A.U.

                          Total second order =    -0.496575 A.U.

                         E2(CBS) - E2(Dir) =      -0.004574 A.U.

 E2(CBS)=      -0.498888 CBS-Int=       0.002312 OIii=       1.690097

 **********************************************************************

            Population analysis using the SCF density.

 **********************************************************************

 Orbital symmetries:
       Occupied  (SG) (SG) (SG) (PI) (PI) (SG) (SG) (SG) (PI) (PI)
                 (SG) (SG) (?A) (?A) (SG) (?B) (?B) (?A)
       Virtual   (SG) (?B) (?A) (?A) (?B) (?B) (?A) (?A) (?B) (?B)
                 (?B) (?A) (?A) (?A) (SG) (?B) (?A) (?A) (SG) (?B)
                 (PI) (PI) (?B) (?B) (PHI) (PHI) (?B) (?A) (?A)
                 (?B) (?B) (?B) (?A) (?A) (?B) (?B) (?B) (?A) (?A)
                 (SG) (SG) (PI) (PI) (SG) (PHI) (PHI) (?C) (?C)
                 (?D) (?D) (PI) (PI) (?D) (?E) (?E) (?E) (?F) (?F)
                 (?F) (?F) (PHI) (PHI) (?A) (?G) (?G) (?G) (?A)
                 (?G) (?G) (?A) (?A) (SG) (?C) (?C) (?H) (?H) (SG)
                 (PI) (PI) (DLTA) (DLTA) (PHI) (PHI) (PI) (PI)
                 (SG) (SG) (PI) (PI) (DLTA) (DLTA) (SG) (SG) (?C)
                 (?C) (PI) (PI) (PHI) (PHI) (?I) (?I) (?I) (PI)
                 (PI) (SG) (?C) (?C) (PHI) (PHI) (SG) (DLTA) (DLTA)
                 (?J) (?J) (?J) (?J) (DLTA) (DLTA) (?J) (?J) (?J)
                 (?J) (SG) (?H) (?H) (SG) (SG) (PI) (PI) (DLTA)
                 (DLTA) (SG) (?C) (?C) (?K) (?K) (?K) (?F) (?F)
                 (?F) (?F) (?K) (?K) (?K) (PI) (PI) (SG) (?H) (?H)
                 (PI) (PI) (?L) (?L) (?L) (?C) (?C) (PHI) (PHI)
                 (?H) (?H) (PI) (PI) (?C) (?C) (PI) (PI) (SG) (?L)
                 (?L) (?L) (DLTA) (DLTA) (PI) (PI) (SG) (PHI) (PHI)
                 (PI) (PI) (?C) (?C) (SG) (PHI) (PHI) (SG) (SG)
                 (?H) (?H) (?L) (?L) (SG) (PI) (PI) (DLTA) (DLTA)
                 (SG) (?F) (?F) (PHI) (PHI) (DLTA) (DLTA) (?F)
                 (?F) (?C) (?C) (SG) (SG) (SG) (PI) (PI) (DLTA)
                 (DLTA) (PHI) (PHI) (?C) (?C) (?L) (?L) (?L) (?H)
                 (?H) (SG) (?F) (SG) (?F) (?F) (?F) (PI) (PI) (DLTA)
                 (DLTA) (SG) (?C) (?C) (DLTA) (DLTA) (?F) (?F)
                 (?F) (?F) (PI) (PI) (?L) (?L) (?L) (SG) (SG) (SG)
                 (?H) (?H) (SG) (PI) (PI) (DLTA) (DLTA) (?C) (?C)
                 (?L) (?L) (PHI) (PHI) (PI) (PI) (?H) (?H) (?L)
                 (?C) (?C) (PI) (PI) (PI) (PI) (?H) (?H) (?C) (?C)
                 (PHI) (PHI) (PI) (PI) (SG) (?L) (PHI) (PHI) (?L)
                 (?L) (DLTA) (DLTA) (SG) (?C) (?C) (PI) (PI) (PHI)
                 (PHI) (SG) (PI) (PI) (DLTA) (DLTA) (PHI) (PHI)
                 (PI) (PI) (SG) (SG) (?L) (?L) (?L) (DLTA) (DLTA)
                 (PHI) (PHI) (?C) (?C) (?F) (?F) (?F) (?F) (SG)
                 (?L) (?L) (PI) (PI) (?L) (PI) (PI) (DLTA) (DLTA)
                 (SG) (?L) (?L) (?L) (PI) (PI) (PHI) (PHI) (?L)
                 (?L) (?L) (?L) (?H) (?H) (?L) (?L) (SG) (SG) (?H)
                 (?H) (?C) (?C) (SG) (PI) (PI) (PHI) (PHI) (SG)
                 (DLTA) (DLTA) (PI) (PI) (DLTA) (DLTA) (SG) (PI)
                 (PI) (?H) (?H) (?C) (?C) (SG) (SG) (?H) (?H) (SG)
                 (PHI) (PHI) (?C) (?C) (PI) (PI) (?L) (?L) (PHI)
                 (PHI) (?L) (?L) (?L) (PI) (PI) (SG) (PI) (PI)
                 (?H) (?H) (?C) (?C) (PHI) (PHI) (?C) (?C) (?L)
                 (?L) (?L) (PHI) (PHI) (PHI) (PHI) (?L) (?L) (?L)
                 (PI) (PI) (PI) (PI) (DLTA) (DLTA) (SG) (PI) (PI)
                 (SG) (DLTA) (DLTA) (PI) (PI) (PI) (PI) (SG) (SG)
                 (?C) (?C) (PHI) (PHI) (PHI) (PHI) (DLTA) (DLTA)
                 (PI) (PI) (?L) (?L) (PI) (PI) (PI) (PI) (?L) (?L)
                 (PHI) (PHI) (?L) (?L) (?L) (SG) (DLTA) (DLTA)
                 (PI) (PI) (SG) (PI) (PI) (SG) (?L) (?L) (?L) (?L)
                 (?L) (?L) (?L) (?L) (?L) (?L) (?L) (?L) (?L) (?L)
                 (PI) (PI) (?L) (SG) (SG) (?H) (?H) (?C) (?C) (PHI)
                 (PHI) (?L) (?L) (?L) (PI) (PI) (SG) (?L) (?L)
                 (PI) (PI) (PI) (PI) (?L) (?L) (?F) (?F) (?L) (?L)
                 (?F) (?F) (?L) (?H) (?H) (?C) (?C) (PHI) (PHI)
                 (?L) (?L) (?L) (PI) (PI) (DLTA) (DLTA) (PI) (PI)
                 (PHI) (PHI) (SG) (DLTA) (DLTA) (PI) (PI) (SG)
                 (?C) (?C) (PHI) (PHI) (?H) (?H) (?L) (?L) (?L)
                 (?L) (?L) (?L) (?L) (?F) (?F) (?L) (?L) (?F) (?F)
                 (PI) (PI) (SG) (DLTA) (DLTA) (?H) (?H) (?C) (?C)
                 (PHI) (PHI) (?L) (?L) (?L) (PI) (PI) (PI) (PI)
                 (SG) (PI) (PI) (SG) (?C) (?C) (PHI) (PHI) (DLTA)
                 (DLTA) (PHI) (PHI) (PI) (PI) (SG) (DLTA) (DLTA)
                 (PI) (PI) (SG) (SG) (SG)
 Unable to determine electronic state:  an orbital has unidentified symmetry.
 Alpha  occ. eigenvalues -- -220.46799 -26.36794 -22.29470 -22.29469 -22.28871
 Alpha  occ. eigenvalues --  -20.29582  -3.47942  -2.28680  -2.25936  -2.21051
 Alpha  occ. eigenvalues --   -0.97743  -0.45193  -0.41321  -0.39979  -0.27971
 Alpha  occ. eigenvalues --   -0.24166  -0.20846  -0.06526
 Alpha virt. eigenvalues --    0.07865   0.16251   0.19130   0.20374   0.20791
 Alpha virt. eigenvalues --    0.21307   0.24762   0.24903   0.28762   0.28974
 Alpha virt. eigenvalues --    0.30198   0.31018   0.33642   0.33655   0.34766
 Alpha virt. eigenvalues --    0.35096   0.41329   0.42722   0.46068   0.49016
 Alpha virt. eigenvalues --    0.53977   0.54053   0.56173   0.56175   0.57375
 Alpha virt. eigenvalues --    0.57377   0.57377   0.61312   0.61526   0.62305
 Alpha virt. eigenvalues --    0.62468   0.69369   0.69455   0.70903   0.71336
 Alpha virt. eigenvalues --    0.71340   0.72533   0.78809   0.79161   0.84297
 Alpha virt. eigenvalues --    0.87947   0.90944   0.90979   0.93421   1.03207
 Alpha virt. eigenvalues --    1.03207   1.04716   1.04716   1.09982   1.09993
 Alpha virt. eigenvalues --    1.11626   1.11871   1.13446   1.15682   1.19602
 Alpha virt. eigenvalues --    1.19619   1.22888   1.22890   1.23903   1.24034
 Alpha virt. eigenvalues --    1.30134   1.30137   1.31823   1.32732   1.32839
 Alpha virt. eigenvalues --    1.34732   1.35036   1.41036   1.41088   1.46419
 Alpha virt. eigenvalues --    1.46846   1.48157   1.52715   1.52715   1.52798
 Alpha virt. eigenvalues --    1.52798   1.52964   1.54895   1.55135   1.60058
 Alpha virt. eigenvalues --    1.60058   1.61355   1.61355   1.64084   1.64133
 Alpha virt. eigenvalues --    1.64783   1.70642   1.79810   1.80775   1.83962
 Alpha virt. eigenvalues --    1.84000   1.89202   2.04898   2.10898   2.10898
 Alpha virt. eigenvalues --    2.18126   2.18621   2.21977   2.21977   2.29053
 Alpha virt. eigenvalues --    2.29580   2.29740   2.39270   2.39654   2.41503
 Alpha virt. eigenvalues --    2.42725   2.42725   2.51813   2.51819   2.54234
 Alpha virt. eigenvalues --    2.58152   2.58166   2.61978   2.62010   2.62234
 Alpha virt. eigenvalues --    2.62238   2.63413   2.63447   2.65893   2.67520
 Alpha virt. eigenvalues --    2.69085   2.69085   2.71131   2.77563   2.77563
 Alpha virt. eigenvalues --    2.79340   2.79340   2.80637   2.80888   2.89879
 Alpha virt. eigenvalues --    2.89978   2.95039   2.95726   2.95726   3.05085
 Alpha virt. eigenvalues --    3.05086   3.06385   3.07535   3.07914   3.10998
 Alpha virt. eigenvalues --    3.10999   3.16407   3.16996   3.17071   3.17773
 Alpha virt. eigenvalues --    3.17887   3.29038   3.35869   3.35869   3.38927
 Alpha virt. eigenvalues --    3.40818   3.41263   3.41347   3.42512   3.48719
 Alpha virt. eigenvalues --    3.48719   3.62940   3.62940   3.70652   3.70652
 Alpha virt. eigenvalues --    3.72222   3.72259   3.98045   3.98045   4.02808
 Alpha virt. eigenvalues --    4.03573   4.04815   4.16796   4.19370   4.19387
 Alpha virt. eigenvalues --    4.29460   4.29496   4.39812   4.39846   4.42245
 Alpha virt. eigenvalues --    4.49165   4.49165   4.62366   4.62535   4.66500
 Alpha virt. eigenvalues --    4.66500   4.83253   4.85953   4.85953   4.87535
 Alpha virt. eigenvalues --    4.87535   4.94792   4.94792   4.95041   4.95430
 Alpha virt. eigenvalues --    4.95430   4.99908   5.00134   5.03534   5.03549
 Alpha virt. eigenvalues --    5.16572   5.16575   5.19366   5.23350   5.23350
 Alpha virt. eigenvalues --    5.24494   5.24525   5.26083   5.26879   5.27140
 Alpha virt. eigenvalues --    5.27140   5.31922   5.31922   5.39181   5.42453
 Alpha virt. eigenvalues --    5.42887   5.45643   5.45648   5.49353   5.49354
 Alpha virt. eigenvalues --    5.50069   5.50069   5.72017   5.74663   5.74667
 Alpha virt. eigenvalues --    5.80774   5.80774   5.81359   5.84787   5.84998
 Alpha virt. eigenvalues --    5.85057   5.89008   5.89010   5.98050   5.98272
 Alpha virt. eigenvalues --    6.08399   6.08414   6.10913   6.14239   6.14239
 Alpha virt. eigenvalues --    6.39716   6.39740   6.43556   6.43556   6.45264
 Alpha virt. eigenvalues --    6.45722   6.59151   6.59772   6.66995   6.67116
 Alpha virt. eigenvalues --    6.79658   7.10002   7.11986   7.11986   7.12893
 Alpha virt. eigenvalues --    7.12893   7.17275   7.28180   7.28388   7.32944
 Alpha virt. eigenvalues --    7.32970   7.42142   7.42142   7.72340   7.72352
 Alpha virt. eigenvalues --    7.73712   7.73713   7.80582   7.80663   7.83581
 Alpha virt. eigenvalues --    7.83581   7.83678   8.06435   8.06435   8.16292
 Alpha virt. eigenvalues --    8.16574   8.41241   8.41640   8.56193   8.56193
 Alpha virt. eigenvalues --    8.71690   8.71690   8.75492   8.75492   8.94334
 Alpha virt. eigenvalues --    8.94934   9.02528   9.04481   9.16996   9.16996
 Alpha virt. eigenvalues --    9.17787   9.17794   9.43803   9.43820   9.67385
 Alpha virt. eigenvalues --    9.77044   9.77044  10.01602  10.02455  10.14666
 Alpha virt. eigenvalues --   10.14666  10.27817  10.33737  10.34750  10.36806
 Alpha virt. eigenvalues --   10.36814  10.37433  10.37433  10.65441  10.66191
 Alpha virt. eigenvalues --   10.78199  10.79501  10.95168  10.96792  10.96803
 Alpha virt. eigenvalues --   11.25828  11.25830  11.31374  11.31375  11.39365
 Alpha virt. eigenvalues --   11.39365  11.57818  11.57819  11.59462  11.60032
 Alpha virt. eigenvalues --   11.65452  11.90948  11.90992  11.95451  11.95963
 Alpha virt. eigenvalues --   11.99064  12.43937  12.44245  12.49719  12.49744
 Alpha virt. eigenvalues --   12.57026  13.21520  13.27968  13.27968  13.28557
 Alpha virt. eigenvalues --   13.28943  13.33405  13.33406  13.54585  13.54585
 Alpha virt. eigenvalues --   13.55902  13.55902  13.58006  13.58006  13.74399
 Alpha virt. eigenvalues --   13.74399  13.76072  13.76072  13.86974  13.86974
 Alpha virt. eigenvalues --   14.11884  14.11884  14.16577  14.19132  14.20235
 Alpha virt. eigenvalues --   14.58632  14.58632  14.99817  15.52440  15.52474
 Alpha virt. eigenvalues --   15.69338  15.70253  15.73019  15.73044  16.08382
 Alpha virt. eigenvalues --   16.41725  16.41842  17.32422  17.32422  17.38255
 Alpha virt. eigenvalues --   17.38255  17.43009  17.43009  17.45246  17.45246
 Alpha virt. eigenvalues --   17.51755  17.57104  17.57104  17.59948  17.59948
 Alpha virt. eigenvalues --   17.80274  17.81508  17.93069  17.93123  18.01122
 Alpha virt. eigenvalues --   18.01122  18.05395  18.34973  18.34982  18.49956
 Alpha virt. eigenvalues --   18.51168  18.80797  19.02839  19.03964  19.73009
 Alpha virt. eigenvalues --   19.73009  19.78305  19.78305  19.99500  19.99500
 Alpha virt. eigenvalues --   20.11838  20.11838  20.14769  20.20519  20.20603
 Alpha virt. eigenvalues --   20.30816  20.30816  20.50835  20.50835  20.57756
 Alpha virt. eigenvalues --   20.57769  20.61498  20.68096  20.69333  20.99833
 Alpha virt. eigenvalues --   21.00959  21.06537  21.06540  21.40086  22.33270
 Alpha virt. eigenvalues --   22.34248  22.37610  22.53076  22.53078  23.25582
 Alpha virt. eigenvalues --   23.26365  23.48245  23.50002  23.61637  24.43052
 Alpha virt. eigenvalues --   25.11063  25.11063  25.16763  25.16764  25.22824
 Alpha virt. eigenvalues --   25.22824  25.34386  25.34392  25.55410  25.55410
 Alpha virt. eigenvalues --   25.55747  25.55747  25.56358  25.56720  25.56720
 Alpha virt. eigenvalues --   25.57276  25.58501  25.58501  25.73935  25.73945
 Alpha virt. eigenvalues --   25.75315  25.75315  25.82202  26.00448  26.37354
 Alpha virt. eigenvalues --   26.37359  26.44582  26.45421  27.16736  27.21905
 Alpha virt. eigenvalues --   27.23146  28.20769  28.80431  28.80431  28.80807
 Alpha virt. eigenvalues --   28.80807  28.81108  28.81108  28.81577  28.81577
 Alpha virt. eigenvalues --   28.82410  28.82410  28.86083  28.86087  29.04326
 Alpha virt. eigenvalues --   29.04456  29.27633  29.29981  29.35084  34.18243
 Alpha virt. eigenvalues --   34.18243  34.22072  34.22072  34.28248  34.28248
 Alpha virt. eigenvalues --   34.36299  34.36299  34.63029  34.63068  34.72022
 Alpha virt. eigenvalues --   34.91071  34.92110  35.26306  37.46789  37.46789
 Alpha virt. eigenvalues --   37.47315  37.47315  37.48084  37.48084  37.50513
 Alpha virt. eigenvalues --   37.50513  37.55267  37.55273  37.80370  37.80986
 Alpha virt. eigenvalues --   37.83303  37.85928  37.86280  39.16313  39.16313
 Alpha virt. eigenvalues --   39.23654  39.23654  39.38044  39.38044  39.63360
 Alpha virt. eigenvalues --   39.63431  39.69389  39.74372  39.75402  40.06120
 Alpha virt. eigenvalues --   40.06135  40.63924  40.64683  41.86247  41.86247
 Alpha virt. eigenvalues --   41.93019  42.24770  42.24772  42.65235  42.66139
 Alpha virt. eigenvalues --   42.93455  43.03423  43.03423  43.16925  43.16926
 Alpha virt. eigenvalues --   43.28886  43.28886  43.30021  43.30021  43.32029
 Alpha virt. eigenvalues --   43.32029  43.47355  43.47410  43.48151  43.50778
 Alpha virt. eigenvalues --   43.50791  43.61504  43.61597  43.64507  43.67015
 Alpha virt. eigenvalues --   44.15189  44.16246  44.28284  47.02812  47.02817
 Alpha virt. eigenvalues --   47.09193  47.09193  47.11188  47.11188  47.25869
 Alpha virt. eigenvalues --   47.25870  47.29256  47.35283  47.35419  47.42001
 Alpha virt. eigenvalues --   47.42869  47.89750  47.91815  48.79153  53.06680
 Alpha virt. eigenvalues --   53.07398  55.46287  58.24288  58.24288  58.30534
 Alpha virt. eigenvalues --   58.30534  58.54386  58.54420  59.01643  59.01643
 Alpha virt. eigenvalues --   59.18537  59.20253  59.37289  59.45836  59.45851
 Alpha virt. eigenvalues --   59.77953  59.79278  60.55762 108.55429 595.89206
          Condensed to atoms (all electrons):
              1          2
     1  Cr  44.508133 -18.682132
     2  O  -18.682132  25.856131
 Mulliken atomic charges:
              1
     1  Cr  -1.826001
     2  O    0.826001
 Sum of Mulliken atomic charges =  -1.00000
 Mulliken charges with hydrogens summed into heavy atoms:
              1
     1  Cr  -1.826001
     2  O    0.826001
 Sum of Mulliken charges with hydrogens summed into heavy atoms =  -1.00000
          Atomic-Atomic Spin Densities.
              1          2
     1  Cr   3.012213  -0.071322
     2  O   -0.071322   0.130430
 Mulliken atomic spin densities:
              1
     1  Cr   2.940892
     2  O    0.059108
 Sum of Mulliken atomic spin densities =   3.00000
 Electronic spatial extent (au):  <R**2>=            140.4101
 Charge=             -1.0000 electrons
 Dipole moment (field-independent basis, Debye):
    X=              0.0000    Y=              0.0000    Z=              0.4993  Tot=              0.4993
 Quadrupole moment (field-independent basis, Debye-Ang):
   XX=            -33.5204   YY=            -32.8202   ZZ=            -44.3405
   XY=              0.0000   XZ=              0.0000   YZ=              0.0000
 Traceless Quadrupole moment (field-independent basis, Debye-Ang):
   XX=              3.3733   YY=              4.0735   ZZ=             -7.4468
   XY=              0.0000   XZ=              0.0000   YZ=              0.0000
 Octapole moment (field-independent basis, Debye-Ang**2):
  XXX=              0.0000  YYY=              0.0000  ZZZ=            -29.3900  XYY=              0.0000
  XXY=              0.0000  XXZ=            -11.4942  XZZ=              0.0000  YZZ=              0.0000
  YYZ=            -11.1521  XYZ=              0.0000
 Hexadecapole moment (field-independent basis, Debye-Ang**3):
 XXXX=           -130.5691 YYYY=           -127.8273 ZZZZ=           -281.2813 XXXY=              0.0000
 XXXZ=              0.0000 YYYX=              0.0000 YYYZ=              0.0000 ZZZX=              0.0000
 ZZZY=              0.0000 XXYY=            -43.0710 XXZZ=            -68.2491 YYZZ=            -66.7654
 XXYZ=              0.0000 YYXZ=              0.0000 ZZXY=              0.0000
 N-N= 6.168914635658D+01 E-N=-4.135531446111D+03  KE= 1.668454919081D+03
                          Isotropic Fermi Contact Couplings
        Atom                 a.u.       MegaHertz       Gauss      10(-4) cm-1
     1  Cr(53)             0.01311      -1.10651      -0.39483      -0.36909
     2  O(17)              0.00277      -0.55919      -0.19953      -0.18653
 --------------------------------------------------------
       Center         ----  Spin Dipole Couplings  ----
                      3XX-RR        3YY-RR        3ZZ-RR
 --------------------------------------------------------
     1   Atom        2.316911      0.494796     -2.811708
     2   Atom        0.104405     -0.183798      0.079393
 --------------------------------------------------------
                        XY            XZ            YZ
 --------------------------------------------------------
     1   Atom        0.000000      0.000000      0.000000
     2   Atom        0.000000      0.000000      0.000000
 --------------------------------------------------------


 ---------------------------------------------------------------------------------
              Anisotropic Spin Dipole Couplings in Principal Axis System
 ---------------------------------------------------------------------------------

       Atom             a.u.   MegaHertz   Gauss  10(-4) cm-1        Axes

              Baa    -2.8117    84.967    30.318    28.342  0.0000  0.0000  1.0000
     1 Cr(53) Bbb     0.4948   -14.952    -5.335    -4.988  0.0000  1.0000  0.0000
              Bcc     2.3169   -70.015   -24.983   -23.354  1.0000  0.0000  0.0000
 
              Baa    -0.1838    13.300     4.746     4.436  0.0000  1.0000  0.0000
     2 O(17)  Bbb     0.0794    -5.745    -2.050    -1.916  0.0000  0.0000  1.0000
              Bcc     0.1044    -7.555    -2.696    -2.520  1.0000  0.0000  0.0000
 

 ---------------------------------------------------------------------------------


 Test job not archived.
 1\1\GINC-N33\SP\ROMP2-FC\Gen\Cr1O1(1-,4)\ROOT\20-Nov-2013\0\\# ROMP2 G
 en GFinput Int=NoBasisTransform Int(Grid=Ultrafine) IOp(3/32=2,5/6=10,
 8/11=1,9/33=1) Maxdisk=128GB CBSextrapolate(Nmin=25,MinPop) SCF=Symm G
 uess=Read\\CrO- 4Pi\\-1,4\Cr\O,1,1.647\\Version=EM64L-G09RevA.02\HF=-1
 118.1475519\MP2=-1118.6418653\E2(CBS)=-0.4988878\CBS-Int=-0.4965754\OI
 ii=1.6900975\RMSD=1.373e-11\PG=C*V [C*(O1Cr1)]\\@


 ACHIEVEMENT--  THE MAN WHO ROWS THE BOAT GENERALLY 
                DOESN'T HAVE TIME TO ROCK IT.

                   -- FROM THE BACK OF A SUGAR PACKET
 Job cpu time:  8 days  8 hours 19 minutes 28.5 seconds.
 File lengths (MBytes):  RWF=  59861 Int=      0 D2E=      0 Chk=     35 Scr=      1
 Normal termination of Gaussian 09 at Wed Nov 20 10:40:18 2013.
