 Entering Gaussian System, Link 0=g09
 AtFile(1): 7ZaPa-NR.gbs
 Initial command:
 /share/apps/gaussian/g09root/g09/l1.exe /localscratch/64988/Gau-25540.inp -scrdir=/localscratch/64988/
 Entering Link 1 = /share/apps/gaussian/g09root/g09/l1.exe PID=     25546.
  
 Copyright (c) 1988,1990,1992,1993,1995,1998,2003,2009, Gaussian, Inc.
                  All Rights Reserved.
  
 This is part of the Gaussian(R) 09 program.  It is based on
 the Gaussian(R) 03 system (copyright 2003, Gaussian, Inc.),
 the Gaussian(R) 98 system (copyright 1998, Gaussian, Inc.),
 the Gaussian(R) 94 system (copyright 1995, Gaussian, Inc.),
 the Gaussian 92(TM) system (copyright 1992, Gaussian, Inc.),
 the Gaussian 90(TM) system (copyright 1990, Gaussian, Inc.),
 the Gaussian 88(TM) system (copyright 1988, Gaussian, Inc.),
 the Gaussian 86(TM) system (copyright 1986, Carnegie Mellon
 University), and the Gaussian 82(TM) system (copyright 1983,
 Carnegie Mellon University). Gaussian is a federally registered
 trademark of Gaussian, Inc.
  
 This software contains proprietary and confidential information,
 including trade secrets, belonging to Gaussian, Inc.
  
 This software is provided under written license and may be
 used, copied, transmitted, or stored only in accord with that
 written license.
  
 The following legend is applicable only to US Government
 contracts under FAR:
  
                    RESTRICTED RIGHTS LEGEND
  
 Use, reproduction and disclosure by the US Government is
 subject to restrictions as set forth in subparagraphs (a)
 and (c) of the Commercial Computer Software - Restricted
 Rights clause in FAR 52.227-19.
  
 Gaussian, Inc.
 340 Quinnipiac St., Bldg. 40, Wallingford CT 06492
  
  
 ---------------------------------------------------------------
 Warning -- This program may not be used in any manner that
 competes with the business of Gaussian, Inc. or will provide
 assistance to any competitor of Gaussian, Inc.  The licensee
 of this program is prohibited from giving any competitor of
 Gaussian, Inc. access to this program.  By using this program,
 the user acknowledges that Gaussian, Inc. is engaged in the
 business of creating and licensing software in the field of
 computational chemistry and represents and warrants to the
 licensee that it is not a competitor of Gaussian, Inc. and that
 it will not use this program in any manner prohibited above.
 ---------------------------------------------------------------
  

 Cite this work as:
 Gaussian 09, Revision A.02,
 M. J. Frisch, G. W. Trucks, H. B. Schlegel, G. E. Scuseria, 
 M. A. Robb, J. R. Cheeseman, G. Scalmani, V. Barone, B. Mennucci, 
 G. A. Petersson, H. Nakatsuji, M. Caricato, X. Li, H. P. Hratchian, 
 A. F. Izmaylov, J. Bloino, G. Zheng, J. L. Sonnenberg, M. Hada, 
 M. Ehara, K. Toyota, R. Fukuda, J. Hasegawa, M. Ishida, T. Nakajima, 
 Y. Honda, O. Kitao, H. Nakai, T. Vreven, J. A. Montgomery, Jr., 
 J. E. Peralta, F. Ogliaro, M. Bearpark, J. J. Heyd, E. Brothers, 
 K. N. Kudin, V. N. Staroverov, R. Kobayashi, J. Normand, 
 K. Raghavachari, A. Rendell, J. C. Burant, S. S. Iyengar, J. Tomasi, 
 M. Cossi, N. Rega, J. M. Millam, M. Klene, J. E. Knox, J. B. Cross, 
 V. Bakken, C. Adamo, J. Jaramillo, R. Gomperts, R. E. Stratmann, 
 O. Yazyev, A. J. Austin, R. Cammi, C. Pomelli, J. W. Ochterski, 
 R. L. Martin, K. Morokuma, V. G. Zakrzewski, G. A. Voth, 
 P. Salvador, J. J. Dannenberg, S. Dapprich, A. D. Daniels, 
 O. Farkas, J. B. Foresman, J. V. Ortiz, J. Cioslowski, 
 and D. J. Fox, Gaussian, Inc., Wallingford CT, 2009.
 
 ******************************************
 Gaussian 09:  EM64L-G09RevA.02 11-Jun-2009
                11-Nov-2013 
 ******************************************
 % Mem=64GB
 % Nproc=16
 Will use up to   16 processors via shared memory.
 % Chk=CrO_5Pi.chk
 ----------------------------------------------------------------------
 # ROMP2 Gen GFinput Int=NoBasisTransform Int(Grid=Ultrafine) IOp(3/32=
 2,5/6=10,8/11=1,9/33=1) Maxdisk=128GB CBSextrapolate(Nmin=25,MinPop) S
 CF=Symm Guess=Read
 ----------------------------------------------------------------------
 1/38=1/1;
 2/12=2,17=6,18=5,40=1/2;
 3/5=7,11=2,16=1,24=10,25=1,30=1,32=2,60=-1,75=-5,116=101/1,2,3;
 4/5=1,9=4/1;
 5/5=2,6=10,15=2,38=6/2;
 8/5=-1,10=1,11=1/1;
 9/16=-3,33=1,75=2,81=25,83=4/6,4;
 6/7=2,8=2,9=2,10=2/1;
 99/5=1,9=1/99;
 -------
 CrO 5Pi
 -------
 Symbolic Z-matrix:
 Charge =  0 Multiplicity = 5
 Cr
 O                    1     1.621 
 
                          Input orientation:                          
 ---------------------------------------------------------------------
 Center     Atomic      Atomic             Coordinates (Angstroms)
 Number     Number       Type             X           Y           Z
 ---------------------------------------------------------------------
      1         24           0        0.000000    0.000000    0.000000
      2          8           0        0.000000    0.000000    1.621000
 ---------------------------------------------------------------------
 Stoichiometry    CrO(5)
 Framework group  C*V[C*(OCr)]
 Deg. of freedom     1
 Full point group                 C*V     NOp   4
 Largest Abelian subgroup         C2V     NOp   4
 Largest concise Abelian subgroup C1      NOp   1
                         Standard orientation:                         
 ---------------------------------------------------------------------
 Center     Atomic      Atomic             Coordinates (Angstroms)
 Number     Number       Type             X           Y           Z
 ---------------------------------------------------------------------
      1         24           0        0.000000    0.000000    0.405250
      2          8           0        0.000000    0.000000   -1.215750
 ---------------------------------------------------------------------
 Rotational constants (GHZ):      0.0000000     15.7274866     15.7274866
 General basis read from cards:  (5D, 7F)
 AO basis set in the form of general basis input (Overlap normalization):
      1 0
 S  18 1.00       0.000000000000
      0.3785251000D+08  0.4066181769D-06
      0.7529656060D+07  0.2343547468D-05
      0.1763888930D+07  0.1326615796D-04
      0.4772665070D+06  0.6102298347D-04
      0.1464857360D+06  0.2419454830D-03
      0.5015131340D+05  0.8387213576D-03
      0.1885691360D+05  0.2595524980D-02
      0.7675976440D+04  0.7279535703D-02
      0.3338514870D+04  0.1869859803D-01
      0.1532865360D+04  0.4408602079D-01
      0.7349137460D+03  0.9431189762D-01
      0.3643017120D+03  0.1773525655D+00
      0.1850688810D+03  0.2738386586D+00
      0.9559511900D+02  0.3017487450D+00
      0.4986120200D+02  0.1841630411D+00
      0.2610386100D+02  0.4202265972D-01
      0.1364682200D+02  0.2725318023D-02
      0.7093757000D+01  0.6696453945D-03
 S  16 1.00       0.000000000000
      0.5015131340D+05 -0.3337963832D-06
      0.1885691360D+05 -0.2032643443D-05
      0.7675976440D+04 -0.1788370979D-04
      0.3338514870D+04 -0.9712816531D-04
      0.1532865360D+04 -0.5333479060D-03
      0.7349137460D+03 -0.2328206727D-02
      0.3643017120D+03 -0.9228490345D-02
      0.1850688810D+03 -0.2931713271D-01
      0.9559511900D+02 -0.6967758856D-01
      0.4986120200D+02 -0.7640872750D-01
      0.2610386100D+02  0.7820060042D-01
      0.1364682200D+02  0.4120616170D+00
      0.7093757000D+01  0.4773607369D+00
      0.3653588000D+01  0.1546474566D+00
      0.1859401000D+01  0.1079213679D-01
      0.9331760000D+00  0.1007330109D-02
 P  16 1.00       0.000000000000
      0.6457291620D+05  0.3094959489D-05
      0.1550332020D+05  0.2850256002D-04
      0.4879418110D+04  0.1774046088D-03
      0.1853795450D+04  0.8099212803D-03
      0.7989917450D+03  0.3025978921D-02
      0.3736474200D+03  0.9788201619D-02
      0.1840141170D+03  0.2807786461D-01
      0.9373012900D+02  0.7116098347D-01
      0.4893463400D+02  0.1513477599D+00
      0.2610927600D+02  0.2524945410D+00
      0.1424198800D+02  0.3112291687D+00
      0.7948493000D+01  0.2431705764D+00
      0.4531322000D+01  0.1005142702D+00
      0.2620515000D+01  0.1997821485D-01
      0.1514382000D+01  0.1783530198D-02
      0.8520540000D+00  0.2871082911D-03
 S  11 1.00       0.000000000000
      0.1850688810D+03  0.1766520215D-03
      0.9559511900D+02  0.1029702892D-02
      0.4986120200D+02  0.2613528909D-02
      0.2610386100D+02 -0.1795816053D-02
      0.1364682200D+02 -0.5772693477D-01
      0.7093757000D+01 -0.1989420824D+00
      0.3653588000D+01 -0.4617281901D-01
      0.1859401000D+01  0.4289283851D+00
      0.9331760000D+00  0.5632543587D+00
      0.4612290000D+00  0.1961706841D+00
      0.2243580000D+00  0.7236161782D-02
 P  11 1.00       0.000000000000
      0.9373012900D+02  0.9227429775D-03
      0.4893463400D+02  0.2938081231D-02
      0.2610927600D+02  0.9049471033D-02
      0.1424198800D+02  0.1713153578D-01
      0.7948493000D+01  0.5105456360D-02
      0.4531322000D+01 -0.8977354309D-01
      0.2620515000D+01 -0.2336502149D+00
      0.1514382000D+01 -0.3290986221D+00
      0.8520540000D+00 -0.3112140836D+00
      0.4485090000D+00 -0.1490049246D+00
      0.2087320000D+00 -0.1807944794D-01
 D  16 1.00       0.000000000000
      0.2216703770D+04  0.3413089997D-05
      0.6949082160D+03  0.3497148867D-04
      0.2663406850D+03  0.2354186588D-03
      0.1177593000D+03  0.1129420079D-02
      0.5741846600D+02  0.4261619746D-02
      0.2985213300D+02  0.1277374809D-01
      0.1615389000D+02  0.3120024447D-01
      0.8950210000D+01  0.6758822514D-01
      0.5024698000D+01  0.1272953399D+00
      0.2840454000D+01  0.1924860798D+00
      0.1610589000D+01  0.2357991718D+00
      0.9130220000D+00  0.2438234438D+00
      0.5151620000D+00  0.2122502478D+00
      0.2871770000D+00  0.1456045589D+00
      0.1562460000D+00  0.6214652135D-01
      0.8143200000D-01  0.9037591232D-02
 D   1 1.00       0.000000000000
      0.5315766398D-01  0.1000000000D+01
 S  10 1.00       0.000000000000
      0.2610386100D+02  0.2078120604D-04
      0.1364682200D+02  0.1617984830D-03
      0.7093757000D+01  0.3610369228D-02
      0.3653588000D+01 -0.9284237980D-03
      0.1859401000D+01 -0.2196722802D-01
      0.9331760000D+00 -0.9918108124D-01
      0.4612290000D+00 -0.1805621896D+00
      0.2243580000D+00  0.1435921144D+00
      0.1074020000D+00  0.7085248420D+00
      0.5062400000D-01  0.3369685681D+00
 S   1 1.00       0.000000000000
      0.4130569390D-01  0.1000000000D+01
 S   1 1.00       0.000000000000
      0.1643200000D-01  0.1000000000D+01
 S   1 1.00       0.000000000000
      0.5499000000D-02  0.1000000000D+01
 P  10 1.00       0.000000000000
      0.2610927600D+02  0.1718967956D-02
      0.1424198800D+02 -0.2659370706D-02
      0.7948493000D+01  0.1063224935D-01
      0.4531322000D+01 -0.3188106187D-01
      0.2620515000D+01  0.2036038537D-01
      0.1514382000D+01 -0.1042742095D+00
      0.8520540000D+00  0.4838588434D-01
      0.4485090000D+00 -0.1430688266D+00
      0.2087320000D+00  0.4122560677D+00
      0.6503543410D-01  0.7533995482D+00
 P   1 1.00       0.000000000000
      0.8111303442D-01  0.1000000000D+01
 S   1 1.00       0.000000000000
      0.5653827000D+01  0.1000000000D+01
 S   1 1.00       0.000000000000
      0.2852201000D+01  0.1000000000D+01
 S   1 1.00       0.000000000000
      0.1438857000D+01  0.1000000000D+01
 S   1 1.00       0.000000000000
      0.7258640000D+00  0.1000000000D+01
 S   1 1.00       0.000000000000
      0.3661790000D+00  0.1000000000D+01
 S   1 1.00       0.000000000000
      0.1847270000D+00  0.1000000000D+01
 P   1 1.00       0.000000000000
      0.2202942000D+01  0.1000000000D+01
 P   1 1.00       0.000000000000
      0.1280859000D+01  0.1000000000D+01
 P   1 1.00       0.000000000000
      0.7447320000D+00  0.1000000000D+01
 P   1 1.00       0.000000000000
      0.4330100000D+00  0.1000000000D+01
 P   1 1.00       0.000000000000
      0.2517660000D+00  0.1000000000D+01
 P   1 1.00       0.000000000000
      0.1463850000D+00  0.1000000000D+01
 D   1 1.00       0.000000000000
      0.5285417000D+01  0.1000000000D+01
 D   1 1.00       0.000000000000
      0.2499902000D+01  0.1000000000D+01
 D   1 1.00       0.000000000000
      0.1182406000D+01  0.1000000000D+01
 D   1 1.00       0.000000000000
      0.5592560000D+00  0.1000000000D+01
 D   1 1.00       0.000000000000
      0.2645170000D+00  0.1000000000D+01
 D   1 1.00       0.000000000000
      0.1251120000D+00  0.1000000000D+01
 F   1 1.00       0.000000000000
      0.1379811500D+02  0.1000000000D+01
 F   1 1.00       0.000000000000
      0.6170242000D+01  0.1000000000D+01
 F   1 1.00       0.000000000000
      0.2759209000D+01  0.1000000000D+01
 F   1 1.00       0.000000000000
      0.1233863000D+01  0.1000000000D+01
 F   1 1.00       0.000000000000
      0.5517590000D+00  0.1000000000D+01
 F   1 1.00       0.000000000000
      0.2467360000D+00  0.1000000000D+01
 F   1 1.00       0.000000000000
      0.1103350000D+00  0.1000000000D+01
 G   1 1.00       0.000000000000
      0.1093228400D+02  0.1000000000D+01
 G   1 1.00       0.000000000000
      0.4822038000D+01  0.1000000000D+01
 G   1 1.00       0.000000000000
      0.2126916000D+01  0.1000000000D+01
 G   1 1.00       0.000000000000
      0.9381450000D+00  0.1000000000D+01
 G   1 1.00       0.000000000000
      0.4137990000D+00  0.1000000000D+01
 G   1 1.00       0.000000000000
      0.1825190000D+00  0.1000000000D+01
 H   1 1.00       0.000000000000
      0.7559634000D+01  0.1000000000D+01
 H   1 1.00       0.000000000000
      0.3150497000D+01  0.1000000000D+01
 H   1 1.00       0.000000000000
      0.1312978000D+01  0.1000000000D+01
 H   1 1.00       0.000000000000
      0.5471870000D+00  0.1000000000D+01
 H   1 1.00       0.000000000000
      0.2280410000D+00  0.1000000000D+01
 I   1 1.00       0.000000000000
      0.6006038000D+01  0.1000000000D+01
 I   1 1.00       0.000000000000
      0.2382564000D+01  0.1000000000D+01
 I   1 1.00       0.000000000000
      0.9451510000D+00  0.1000000000D+01
 I   1 1.00       0.000000000000
      0.3749360000D+00  0.1000000000D+01
 J   1 1.00       0.000000000000
      0.4605020000D+01  0.1000000000D+01
 J   1 1.00       0.000000000000
      0.1654368000D+01  0.1000000000D+01
 J   1 1.00       0.000000000000
      0.5943360000D+00  0.1000000000D+01
 K   1 1.00       0.000000000000
      0.3225791679D+01  0.1000000000D+01
 ****
      2 0
 S  16 1.00       0.000000000000
      0.1411246410D+07  0.1627429822D-05
      0.2499102240D+06  0.1092621996D-04
      0.5603410580D+05  0.6238741867D-04
      0.1521153640D+05  0.2783303491D-03
      0.4812287750D+04  0.1040541872D-02
      0.1717755460D+04  0.3380392793D-02
      0.6733958240D+03  0.9828484765D-02
      0.2835101840D+03  0.2605310129D-01
      0.1258620070D+03  0.6280818057D-01
      0.5804472200D+02  0.1348202075D+00
      0.2747198500D+02  0.2435563460D+00
      0.1321062900D+02  0.3323287378D+00
      0.6399806000D+01  0.2607930483D+00
      0.3099614000D+01  0.7430834326D-01
      0.1489856000D+01  0.4189538074D-02
      0.7052010000D+00  0.8706455725D-03
 S  11 1.00       0.000000000000
      0.2835101840D+03 -0.1122588094D-03
      0.1258620070D+03 -0.5559335617D-03
      0.5804472200D+02 -0.2851687904D-02
      0.2747198500D+02 -0.1133494995D-01
      0.1321062900D+02 -0.3657977704D-01
      0.6399806000D+01 -0.7288994197D-01
      0.3099614000D+01 -0.1062032356D-01
      0.1489856000D+01  0.2196705572D+00
      0.7052010000D+00  0.4294832072D+00
      0.3258480000D+00  0.3775832849D+00
      0.1454600000D+00  0.9640261255D-01
 S   1 1.00       0.000000000000
      0.5814297870D-01  0.1000000000D+01
 P  13 1.00       0.000000000000
      0.2085279200D+04  0.1447911740D-04
      0.5101470830D+03  0.1283233588D-03
      0.1616811510D+03  0.7792790007D-03
      0.6114945200D+02  0.3400506049D-02
      0.2597660200D+02  0.1157685214D-01
      0.1187542600D+02  0.3269740339D-01
      0.5677133000D+01  0.8011404242D-01
      0.2786475000D+01  0.1605265057D+00
      0.1387844000D+01  0.2460495026D+00
      0.6952810000D+00  0.2898982926D+00
      0.3470020000D+00  0.2606799382D+00
      0.1700990000D+00  0.1479363112D+00
      0.8008000000D-01  0.2980261453D-01
 P   1 1.00       0.000000000000
      0.4261436033D-01  0.1000000000D+01
 S   1 1.00       0.000000000000
      0.4249866000D+01  0.1000000000D+01
 S   1 1.00       0.000000000000
      0.2167470000D+01  0.1000000000D+01
 S   1 1.00       0.000000000000
      0.1105429000D+01  0.1000000000D+01
 S   1 1.00       0.000000000000
      0.5637790000D+00  0.1000000000D+01
 S   1 1.00       0.000000000000
      0.2875320000D+00  0.1000000000D+01
 S   1 1.00       0.000000000000
      0.1466440000D+00  0.1000000000D+01
 P   1 1.00       0.000000000000
      0.5659724000D+01  0.1000000000D+01
 P   1 1.00       0.000000000000
      0.2575878000D+01  0.1000000000D+01
 P   1 1.00       0.000000000000
      0.1172344000D+01  0.1000000000D+01
 P   1 1.00       0.000000000000
      0.5335620000D+00  0.1000000000D+01
 P   1 1.00       0.000000000000
      0.2428370000D+00  0.1000000000D+01
 P   1 1.00       0.000000000000
      0.1105210000D+00  0.1000000000D+01
 D   1 1.00       0.000000000000
      0.9464211000D+01  0.1000000000D+01
 D   1 1.00       0.000000000000
      0.4752286000D+01  0.1000000000D+01
 D   1 1.00       0.000000000000
      0.2386276000D+01  0.1000000000D+01
 D   1 1.00       0.000000000000
      0.1198226000D+01  0.1000000000D+01
 D   1 1.00       0.000000000000
      0.6016680000D+00  0.1000000000D+01
 D   1 1.00       0.000000000000
      0.3021170000D+00  0.1000000000D+01
 D   1 1.00       0.000000000000
      0.1517020000D+00  0.1000000000D+01
 F   1 1.00       0.000000000000
      0.7001836000D+01  0.1000000000D+01
 F   1 1.00       0.000000000000
      0.3552509000D+01  0.1000000000D+01
 F   1 1.00       0.000000000000
      0.1802430000D+01  0.1000000000D+01
 F   1 1.00       0.000000000000
      0.9144960000D+00  0.1000000000D+01
 F   1 1.00       0.000000000000
      0.4639860000D+00  0.1000000000D+01
 F   1 1.00       0.000000000000
      0.2354110000D+00  0.1000000000D+01
 G   1 1.00       0.000000000000
      0.6472481000D+01  0.1000000000D+01
 G   1 1.00       0.000000000000
      0.3119071000D+01  0.1000000000D+01
 G   1 1.00       0.000000000000
      0.1503072000D+01  0.1000000000D+01
 G   1 1.00       0.000000000000
      0.7243260000D+00  0.1000000000D+01
 G   1 1.00       0.000000000000
      0.3490500000D+00  0.1000000000D+01
 H   1 1.00       0.000000000000
      0.5355083000D+01  0.1000000000D+01
 H   1 1.00       0.000000000000
      0.2414696000D+01  0.1000000000D+01
 H   1 1.00       0.000000000000
      0.1088827000D+01  0.1000000000D+01
 H   1 1.00       0.000000000000
      0.4909703000D+00  0.1000000000D+01
 I   1 1.00       0.000000000000
      0.4322113000D+01  0.1000000000D+01
 I   1 1.00       0.000000000000
      0.1716263000D+01  0.1000000000D+01
 I   1 1.00       0.000000000000
      0.6815089000D+00  0.1000000000D+01
 J   1 1.00       0.000000000000
      0.3060973723D+01  0.1000000000D+01
 ****

 There are   205 symmetry adapted basis functions of A1  symmetry.
 There are   105 symmetry adapted basis functions of A2  symmetry.
 There are   149 symmetry adapted basis functions of B1  symmetry.
 There are   149 symmetry adapted basis functions of B2  symmetry.
 Integral buffers will be    131072 words long.
 Raffenetti 2 integral format.
 Two-electron integral symmetry is turned on.
   608 basis functions,  1339 primitive gaussians,  1035 cartesian basis functions
    18 alpha electrons       14 beta electrons
       nuclear repulsion energy        62.6786082969 Hartrees.
 NAtoms=    2 NActive=    2 NUniq=    2 SFac= 7.50D-01 NAtFMM=   80 NAOKFM=F Big=F
 One-electron integrals computed using PRISM.
 NBasis=   608 RedAO= F  NBF=   205   105   149   149
 NBsUse=   608 1.00D-04 NBFU=   205   105   149   149
 Initial guess read from the checkpoint file:  CrO_5Pi.chk
 B after Tr=     0.000000    0.000000    0.000000
         Rot=    1.000000    0.000000    0.000000    0.000000 Ang=   0.00 deg.
 Initial guess orbital symmetries:
       Occupied  (SG) (SG) (SG) (PI) (PI) (SG) (SG) (SG) (PI) (PI)
                 (SG) (SG) (?A) (?A) (?B) (?B) (?B) (?A)
       Virtual   (?B) (?B) (?A) (SG) (?A) (?B) (?A) (PI) (?B) (PI)
                 (?B) (?B) (?A) (?A) (SG) (SG) (?A) (?A) (SG) (?C)
                 (?C) (?C) (SG) (?A) (?A) (?A) (?A) (?D) (?A) (?D)
                 (?D) (?A) (?D) (?D) (?D) (?A) (?A) (SG) (PI) (PI)
                 (?A) (?A) (SG) (SG) (SG) (DLTA) (DLTA) (PI) (PI)
                 (PHI) (PHI) (SG) (?E) (?E) (?E) (PI) (PI) (SG)
                 (PI) (PI) (?F) (?F) (?F) (PI) (PI) (SG) (PI) (PI)
                 (SG) (PHI) (PHI) (DLTA) (DLTA) (PI) (PI) (SG)
                 (?G) (?G) (?H) (?H) (?G) (?G) (?H) (?H) (?I) (?I)
                 (?I) (PI) (PI) (SG) (?H) (?H) (DLTA) (DLTA) (?H)
                 (?H) (SG) (SG) (SG) (SG) (PI) (PI) (SG) (SG) (PI)
                 (PI) (DLTA) (DLTA) (SG) (PI) (PI) (DLTA) (DLTA)
                 (SG) (SG) (PI) (PI) (SG) (PI) (PI) (SG) (SG) (SG)
                 (SG) (SG) (SG) (SG) (PI) (PI) (SG) (PI) (PI) (SG)
                 (PI) (PI) (SG) (PI) (PI) (SG) (PI) (PI) (SG) (PI)
                 (PI) (SG) (SG) (PI) (PI) (DLTA) (DLTA) (SG) (PI)
                 (PI) (DLTA) (DLTA) (SG) (PI) (PI) (DLTA) (DLTA)
                 (SG) (PI) (PI) (DLTA) (DLTA) (SG) (PI) (PI) (DLTA)
                 (DLTA) (SG) (PI) (PI) (DLTA) (DLTA) (PHI) (PHI)
                 (SG) (PI) (PI) (DLTA) (DLTA) (PHI) (PHI) (SG)
                 (PI) (PI) (DLTA) (DLTA) (PHI) (PHI) (PI) (PI)
                 (DLTA) (DLTA) (PHI) (PHI) (SG) (PI) (PI) (DLTA)
                 (DLTA) (PHI) (PHI) (PI) (PI) (DLTA) (DLTA) (PHI)
                 (PHI) (SG) (PI) (PI) (DLTA) (DLTA) (PHI) (PHI)
                 (?J) (?J) (SG) (PI) (PI) (DLTA) (DLTA) (PHI) (PHI)
                 (?J) (?J) (SG) (PI) (PI) (DLTA) (DLTA) (PHI) (PHI)
                 (?J) (?J) (DLTA) (DLTA) (PHI) (PHI) (?J) (?J)
                 (SG) (PI) (PI) (DLTA) (DLTA) (PHI) (PHI) (?J)
                 (?J) (SG) (PI) (PI) (DLTA) (DLTA) (PHI) (PHI)
                 (?J) (?J) (SG) (PI) (PI) (DLTA) (DLTA) (PHI) (PHI)
                 (?J) (?J) (?K) (?K) (SG) (PI) (PI) (DLTA) (DLTA)
                 (PHI) (PHI) (?J) (?J) (?K) (?K) (SG) (PI) (PI)
                 (DLTA) (DLTA) (PHI) (PHI) (?J) (?J) (?K) (?K)
                 (SG) (PI) (PI) (DLTA) (DLTA) (PHI) (PHI) (?J)
                 (?J) (?K) (?K) (SG) (PI) (PI) (DLTA) (DLTA) (PHI)
                 (PHI) (?J) (?J) (?K) (?K) (SG) (PI) (PI) (DLTA)
                 (DLTA) (PHI) (PHI) (?J) (?J) (?K) (?K) (SG) (SG)
                 (SG) (PI) (PI) (DLTA) (DLTA) (PHI) (PHI) (?J)
                 (?J) (?K) (?K) (SG) (SG) (SG) (PI) (PI) (DLTA)
                 (DLTA) (PHI) (PHI) (?J) (?J) (?K) (?K) (SG) (SG)
                 (SG) (PI) (PI) (DLTA) (DLTA) (PHI) (PHI) (?J)
                 (?J) (?K) (?K) (SG) (SG) (SG) (PI) (PI) (DLTA)
                 (DLTA) (PHI) (PHI) (?J) (?J) (?K) (?K) (SG) (SG)
                 (?L) (?L) (SG) (PI) (PI) (DLTA) (DLTA) (PHI) (PHI)
                 (?J) (?J) (?K) (?K) (SG) (SG) (?L) (?L) (SG) (PI)
                 (PI) (DLTA) (DLTA) (PHI) (PHI) (?J) (?J) (?K)
                 (?K) (SG) (SG) (?L) (?L) (SG) (PI) (PI) (DLTA)
                 (DLTA) (PHI) (PHI) (?J) (?J) (?K) (?K) (SG) (SG)
                 (?L) (?L) (?L) (?L) (SG) (SG) (PI) (PI) (SG) (SG)
                 (SG) (PI) (PI) (SG) (PI) (PI) (SG) (SG) (PI) (PI)
                 (DLTA) (DLTA) (SG) (PI) (PI) (DLTA) (DLTA) (PI)
                 (PI) (DLTA) (DLTA) (DLTA) (DLTA) (SG) (PI) (PI)
                 (DLTA) (DLTA) (PHI) (PHI) (SG) (PI) (PI) (DLTA)
                 (DLTA) (PHI) (PHI) (PI) (PI) (DLTA) (DLTA) (PHI)
                 (PHI) (DLTA) (DLTA) (PHI) (PHI) (PHI) (PHI) (PHI)
                 (PHI) (SG) (PI) (PI) (DLTA) (DLTA) (PHI) (PHI)
                 (?J) (?J) (SG) (PI) (PI) (DLTA) (DLTA) (PHI) (PHI)
                 (?J) (?J) (SG) (PI) (PI) (DLTA) (DLTA) (PHI) (PHI)
                 (?J) (?J) (PI) (PI) (DLTA) (DLTA) (PHI) (PHI)
                 (?J) (?J) (?J) (?J) (SG) (PI) (PI) (DLTA) (DLTA)
                 (PHI) (PHI) (?J) (?J) (?K) (?K) (DLTA) (DLTA)
                 (PHI) (PHI) (?J) (?J) (?K) (?K) (SG) (DLTA) (DLTA)
                 (PHI) (PHI) (?J) (?J) (?K) (?K) (?J) (?J) (?K)
                 (?K) (PI) (PI) (DLTA) (DLTA) (PHI) (PHI) (?J)
                 (?J) (?K) (?K) (SG) (SG) (PI) (PI) (PHI) (PHI)
                 (?J) (?J) (?K) (?K) (SG) (SG) (?K) (?K) (SG) (SG)
                 (?J) (?J) (?K) (?K) (SG) (SG) (?L) (?L)
 Requested convergence on RMS density matrix=1.00D-10 within 128 cycles.
 Requested convergence on MAX density matrix=1.00D-08.
 Requested convergence on             energy=1.00D-08.
 No special actions if energy rises.
 EnCoef did     3 forward-backward iterations
 EnCoef did     1 forward-backward iterations
 Restarting incremental Fock formation.
 SCF Done:  E(ROHF) =  -1118.13779988     A.U. after   36 cycles
             Convg  =    0.3254D-10             -V/T =  2.0000
 <Sx>= 0.0000 <Sy>= 0.0000 <Sz>= 2.0000 <S**2>= 6.0000 S= 2.0000
 <L.S>= 0.000000000000E+00
 Annihilation of the first spin contaminant:
 S**2 before annihilation     6.0000,   after     6.0000
 DiagDN has N=   608 LTot=  1856 but NE2=     3 cannot use DSYEVD.
 GenMOA:  NOpAll=  4 NOp2=4 NOpUse=  4 JSym2X=1
 <Sx>= 0.0000 <Sy>= 0.0000 <Sz>= 2.0000 <S**2>= 6.0000 S= 2.0000
 ExpMin= 5.50D-03 ExpMax= 3.79D+07 ExpMxC= 3.34D+03 IAcc=3 IRadAn=         5 AccDes= 0.00D+00
 HarFok:  IExCor=  205 AccDes= 0.00D+00 IRadAn=         5 IDoV=-2
 ScaDFX=  1.000000  1.000000  1.000000  1.000000
 Range of M.O.s used for correlation:    11   608
 NBasis=   608 NAE=    18 NBE=    14 NFC=    10 NFV=     0
 NROrb=    598 NOA=     8 NOB=     4 NVA=   590 NVB=   594

 **** Warning!!: The largest alpha MO coefficient is  0.27863777D+03


 **** Warning!!: The largest beta MO coefficient is  0.27863755D+03

 Singles contribution to E2=   -0.4956074747D-02
 Disk-based method using OVN memory for  8 occupieds at a time.
 Permanent disk used for amplitudes and <ij||ab> integrals=    34273172 words.
 Estimated scratch disk usage=  7806060784 words.
 IUseRI=2 ITolRI= 6 IR12RI=0
 Actual    scratch disk usage=  7753489424 words.
 GetIJB would need an additional  4967245365 words of memory to use all  16 processors.
 JobTyp=2 Pass  1:  I=   1 to   8 NPSUse= 10 ParTrn=T ParDer=T DoDerP=F.
 T,EIJ(AA): I=   1 J=   2      0.2183093E-03     -0.1115826E-02
 T,EIJ(AA): I=   1 J=   3      0.1295249E-03     -0.6613332E-03
 T,EIJ(AA): I=   1 J=   4      0.9136262E-04     -0.4907396E-03
 T,EIJ(AA): I=   1 J=   5      0.6659602E-03     -0.2865241E-02
 T,EIJ(AA): I=   1 J=   6      0.9938620E-03     -0.3907469E-02
 T,EIJ(AA): I=   1 J=   7      0.6780277E-03     -0.3077301E-02
 T,EIJ(AA): I=   1 J=   8      0.2894891E-03     -0.1065673E-02
 T,EIJ(AA): I=   2 J=   3      0.1053130E-02     -0.5191912E-02
 T,EIJ(AA): I=   2 J=   4      0.1316606E-02     -0.6490982E-02
 T,EIJ(AA): I=   2 J=   5      0.1822395E-02     -0.6457747E-02
 T,EIJ(AA): I=   2 J=   6      0.1040775E-02     -0.2961603E-02
 T,EIJ(AA): I=   2 J=   7      0.1708414E-03     -0.6044544E-03
 T,EIJ(AA): I=   2 J=   8      0.1536106E-02     -0.4481386E-02
 T,EIJ(AA): I=   3 J=   4      0.1951393E-02     -0.1064012E-01
 T,EIJ(AA): I=   3 J=   5      0.1237417E-02     -0.3917181E-02
 T,EIJ(AA): I=   3 J=   6      0.1294739E-02     -0.3195213E-02
 T,EIJ(AA): I=   3 J=   7      0.4840128E-03     -0.1908709E-02
 T,EIJ(AA): I=   3 J=   8      0.1402631E-02     -0.4012066E-02
 T,EIJ(AA): I=   4 J=   5      0.1379747E-02     -0.4781430E-02
 T,EIJ(AA): I=   4 J=   6      0.7592211E-03     -0.2106404E-02
 T,EIJ(AA): I=   4 J=   7      0.4091005E-03     -0.1728111E-02
 T,EIJ(AA): I=   4 J=   8      0.1496236E-02     -0.4254208E-02
 T,EIJ(AA): I=   5 J=   6      0.6678070E-02     -0.1241351E-01
 T,EIJ(AA): I=   5 J=   7      0.2807193E-02     -0.8102184E-02
 T,EIJ(AA): I=   5 J=   8      0.1043342E-02     -0.2384779E-02
 T,EIJ(AA): I=   6 J=   7      0.3650458E-02     -0.9626377E-02
 T,EIJ(AA): I=   6 J=   8      0.2019103E-02     -0.4003923E-02
 T,EIJ(AA): I=   7 J=   8      0.1823702E-02     -0.3560510E-02
 T,EIJ(AB): I=   1 J=   1      0.2023268E-02     -0.1294632E-01
 T,EIJ(AB): I=   1 J=   2      0.2288428E-02     -0.1169078E-01
 T,EIJ(AB): I=   1 J=   3      0.2267174E-02     -0.1194839E-01
 T,EIJ(AB): I=   1 J=   4      0.2386552E-02     -0.1179961E-01
 T,EIJ(AB): I=   2 J=   1      0.4528435E-03     -0.2624835E-02
 T,EIJ(AB): I=   2 J=   2      0.1627228E-02     -0.5523964E-02
 T,EIJ(AB): I=   2 J=   3      0.1561200E-02     -0.5504727E-02
 T,EIJ(AB): I=   2 J=   4      0.1303521E-02     -0.3941349E-02
 T,EIJ(AB): I=   3 J=   1      0.2483504E-03     -0.1391786E-02
 T,EIJ(AB): I=   3 J=   2      0.1924015E-02     -0.5844475E-02
 T,EIJ(AB): I=   3 J=   3      0.7137829E-03     -0.2165907E-02
 T,EIJ(AB): I=   3 J=   4      0.1375012E-02     -0.3684288E-02
 T,EIJ(AB): I=   4 J=   1      0.1296432E-03     -0.7416956E-03
 T,EIJ(AB): I=   4 J=   2      0.1161227E-02     -0.3940623E-02
 T,EIJ(AB): I=   4 J=   3      0.4902586E-03     -0.1515572E-02
 T,EIJ(AB): I=   4 J=   4      0.8834641E-03     -0.2624365E-02
 T,EIJ(AB): I=   5 J=   1      0.1795397E-02     -0.9268875E-02
 T,EIJ(AB): I=   5 J=   2      0.1160151E-01     -0.2770906E-01
 T,EIJ(AB): I=   5 J=   3      0.5300717E-02     -0.1296976E-01
 T,EIJ(AB): I=   5 J=   4      0.7285289E-02     -0.1530887E-01
 T,EIJ(AB): I=   6 J=   1      0.2384776E-02     -0.1182987E-01
 T,EIJ(AB): I=   6 J=   2      0.8437642E-02     -0.1847619E-01
 T,EIJ(AB): I=   6 J=   3      0.6468167E-02     -0.1590397E-01
 T,EIJ(AB): I=   6 J=   4      0.1294555E-01     -0.3024572E-01
 T,EIJ(AB): I=   7 J=   1      0.1952411E-02     -0.1058902E-01
 T,EIJ(AB): I=   7 J=   2      0.4333740E-02     -0.1285854E-01
 T,EIJ(AB): I=   7 J=   3      0.6822344E-02     -0.2273970E-01
 T,EIJ(AB): I=   7 J=   4      0.4494219E-02     -0.1275789E-01
 T,EIJ(AB): I=   8 J=   1      0.5853516E-03     -0.2643250E-02
 T,EIJ(AB): I=   8 J=   2      0.3654704E-02     -0.7822781E-02
 T,EIJ(AB): I=   8 J=   3      0.2154859E-02     -0.4719822E-02
 T,EIJ(AB): I=   8 J=   4      0.2556945E-02     -0.5386101E-02
 Actual    scratch disk usage=  7806055664 words.
 GetIJB would need an additional  4967183265 words of memory to use all  16 processors.
 JobTyp=3 Pass  1:  I=   1 to   4 NPSUse= 10 ParTrn=T ParDer=T DoDerP=F.
 T,EIJ(BB): I=   1 J=   2      0.8584172E-03     -0.3664451E-02
 T,EIJ(BB): I=   1 J=   3      0.8426542E-03     -0.3658131E-02
 T,EIJ(BB): I=   1 J=   4      0.9600495E-03     -0.3873504E-02
 T,EIJ(BB): I=   2 J=   3      0.5110819E-02     -0.1237384E-01
 T,EIJ(BB): I=   2 J=   4      0.6889865E-02     -0.1453107E-01
 T,EIJ(BB): I=   3 J=   4      0.4917878E-02     -0.1182151E-01
 Spin components of T(2) and E(2):
     alpha-alpha T2 =       0.3844275495D-01 E2=     -0.1160063873D+00
     alpha-beta  T2 =       0.1036095948D+00 E2=     -0.3091181019D+00
     beta-beta   T2 =       0.1957968223D-01 E2=     -0.4992251252D-01
 ANorm=    0.1081142596D+01
 E2 =    -0.4800030765D+00 EUMP2 =    -0.11186178029531D+04

 Complete Basis Set (CBS) Extrapolation:
 M. R. Nyden and G. A. Petersson, JCP 75, 1843 (1981)
 G. A. Petersson and M. A. Al-Laham, JCP 94, 6081 (1991)
 G. A. Petersson, T. Tensfeldt, and J. A. Montgomery, JCP 94, 6091 (1991)
 J. A. Montgomery, J. W. Ochterski, and G. A. Petersson, JCP 101, 5900 (1994)
 
 Minimum Number of PNO for Extrapolation =  25
 Absolute Overlaps: IRadAn =         5
 LocTrn: ILocal=3 LocCor=F DoCore=F.
 Entering OneElI...
 Overlap between basis sets.
 Requested accuracy = 0.1000D-12
 PrsmSu:  NPrtUS=   1 ThrOK=F IAlg=1
 PRISM was handed  8588112036 working-precision words and    47 shell-pairs
 IPart=  0 NShTot=          47 NBatch=          10 AvBLen=         4.7
 CnvPC2: ToCart=F DoDens=F IPureD=0 IPureF=0.
 Transformed matrix in CnvPC2: 
                 1             2             3             4             5 
      1   0.100000D+01  0.380046D+00  0.000000D+00  0.000000D+00  0.000000D+00
      2   0.380046D+00  0.100000D+01  0.000000D+00  0.000000D+00  0.000000D+00
      3   0.000000D+00  0.000000D+00  0.100000D+01  0.000000D+00  0.000000D+00
      4   0.000000D+00  0.000000D+00  0.000000D+00  0.100000D+01  0.000000D+00
      5   0.000000D+00  0.000000D+00  0.000000D+00  0.000000D+00  0.100000D+01
      6   0.239905D-01  0.310472D+00  0.000000D+00  0.000000D+00  0.000000D+00
      7   0.000000D+00  0.000000D+00  0.323414D+00  0.000000D+00  0.000000D+00
      8   0.000000D+00  0.000000D+00  0.000000D+00  0.323414D+00  0.000000D+00
      9   0.000000D+00  0.000000D+00  0.000000D+00  0.000000D+00  0.323414D+00
     10   0.000000D+00  0.000000D+00  0.000000D+00  0.000000D+00  0.000000D+00
     11   0.000000D+00  0.000000D+00  0.000000D+00  0.000000D+00  0.000000D+00
     12   0.000000D+00  0.000000D+00  0.000000D+00  0.000000D+00  0.000000D+00
     13   0.000000D+00  0.000000D+00  0.000000D+00  0.000000D+00  0.000000D+00
     14   0.000000D+00  0.000000D+00  0.000000D+00  0.000000D+00  0.000000D+00
     15  -0.408378D-03  0.102168D-01  0.000000D+00  0.000000D+00  0.000000D+00
     16   0.000000D+00  0.000000D+00  0.205972D-01  0.000000D+00  0.000000D+00
     17   0.000000D+00  0.000000D+00  0.000000D+00  0.205972D-01  0.000000D+00
     18   0.000000D+00  0.000000D+00  0.000000D+00  0.000000D+00  0.205972D-01
     19   0.000000D+00  0.000000D+00  0.000000D+00  0.000000D+00  0.000000D+00
     20   0.830453D-03  0.591591D-02  0.000000D+00  0.000000D+00 -0.317182D-02
     21   0.000000D+00  0.000000D+00  0.943275D-03  0.000000D+00  0.000000D+00
     22   0.000000D+00  0.000000D+00  0.000000D+00  0.943275D-03  0.000000D+00
     23   0.175441D-02  0.120415D-01  0.000000D+00  0.000000D+00 -0.562563D-02
                 6             7             8             9            10 
      1   0.239905D-01  0.000000D+00  0.000000D+00  0.000000D+00  0.000000D+00
      2   0.310472D+00  0.000000D+00  0.000000D+00  0.000000D+00  0.000000D+00
      3   0.000000D+00  0.323414D+00  0.000000D+00  0.000000D+00  0.000000D+00
      4   0.000000D+00  0.000000D+00  0.323414D+00  0.000000D+00  0.000000D+00
      5   0.000000D+00  0.000000D+00  0.000000D+00  0.323414D+00  0.000000D+00
      6   0.100000D+01  0.000000D+00  0.000000D+00  0.000000D+00  0.000000D+00
      7   0.000000D+00  0.100000D+01  0.000000D+00  0.000000D+00  0.000000D+00
      8   0.000000D+00  0.000000D+00  0.100000D+01  0.000000D+00  0.000000D+00
      9   0.000000D+00  0.000000D+00  0.000000D+00  0.100000D+01  0.000000D+00
     10   0.000000D+00  0.000000D+00  0.000000D+00  0.000000D+00  0.100000D+01
     11   0.000000D+00  0.000000D+00  0.000000D+00  0.000000D+00  0.000000D+00
     12   0.000000D+00  0.000000D+00  0.000000D+00  0.000000D+00  0.000000D+00
     13   0.000000D+00  0.000000D+00  0.000000D+00  0.000000D+00  0.000000D+00
     14   0.000000D+00  0.000000D+00  0.000000D+00  0.000000D+00  0.000000D+00
     15   0.327359D+00  0.000000D+00  0.000000D+00  0.000000D+00  0.000000D+00
     16   0.000000D+00  0.341184D+00  0.000000D+00  0.000000D+00  0.000000D+00
     17   0.000000D+00  0.000000D+00  0.341184D+00  0.000000D+00  0.000000D+00
     18   0.000000D+00  0.000000D+00  0.000000D+00  0.341184D+00  0.000000D+00
     19   0.305615D-03  0.000000D+00  0.000000D+00 -0.809228D-03  0.852203D-02
     20   0.577084D-01  0.000000D+00  0.000000D+00 -0.709712D-01  0.110206D+00
     21   0.000000D+00  0.223420D-01  0.000000D+00  0.000000D+00  0.000000D+00
     22   0.000000D+00  0.000000D+00  0.223420D-01  0.000000D+00  0.000000D+00
     23   0.951695D-01  0.000000D+00  0.000000D+00 -0.107917D+00  0.135269D+00
                11            12            13            14            15 
      1   0.000000D+00  0.000000D+00  0.000000D+00  0.000000D+00 -0.408378D-03
      2   0.000000D+00  0.000000D+00  0.000000D+00  0.000000D+00  0.102168D-01
      3   0.000000D+00  0.000000D+00  0.000000D+00  0.000000D+00  0.000000D+00
      4   0.000000D+00  0.000000D+00  0.000000D+00  0.000000D+00  0.000000D+00
      5   0.000000D+00  0.000000D+00  0.000000D+00  0.000000D+00  0.000000D+00
      6   0.000000D+00  0.000000D+00  0.000000D+00  0.000000D+00  0.327359D+00
      7   0.000000D+00  0.000000D+00  0.000000D+00  0.000000D+00  0.000000D+00
      8   0.000000D+00  0.000000D+00  0.000000D+00  0.000000D+00  0.000000D+00
      9   0.000000D+00  0.000000D+00  0.000000D+00  0.000000D+00  0.000000D+00
     10   0.000000D+00  0.000000D+00  0.000000D+00  0.000000D+00  0.000000D+00
     11   0.100000D+01  0.000000D+00  0.000000D+00  0.000000D+00  0.000000D+00
     12   0.000000D+00  0.100000D+01  0.000000D+00  0.000000D+00  0.000000D+00
     13   0.000000D+00  0.000000D+00  0.100000D+01  0.000000D+00  0.000000D+00
     14   0.000000D+00  0.000000D+00  0.000000D+00  0.100000D+01  0.000000D+00
     15   0.000000D+00  0.000000D+00  0.000000D+00  0.000000D+00  0.100000D+01
     16   0.000000D+00  0.000000D+00  0.000000D+00  0.000000D+00  0.000000D+00
     17   0.000000D+00  0.000000D+00  0.000000D+00  0.000000D+00  0.000000D+00
     18   0.000000D+00  0.000000D+00  0.000000D+00  0.000000D+00  0.000000D+00
     19   0.000000D+00  0.000000D+00  0.000000D+00  0.000000D+00  0.342099D-01
     20   0.000000D+00  0.000000D+00  0.000000D+00  0.000000D+00  0.312579D+00
     21  -0.651520D-01  0.000000D+00  0.000000D+00  0.000000D+00  0.000000D+00
     22   0.000000D+00 -0.651520D-01  0.000000D+00  0.000000D+00  0.000000D+00
     23   0.000000D+00  0.000000D+00  0.000000D+00  0.000000D+00  0.179613D+00
                16            17            18            19            20 
      1   0.000000D+00  0.000000D+00  0.000000D+00  0.000000D+00  0.830453D-03
      2   0.000000D+00  0.000000D+00  0.000000D+00  0.000000D+00  0.591591D-02
      3   0.205972D-01  0.000000D+00  0.000000D+00  0.000000D+00  0.000000D+00
      4   0.000000D+00  0.205972D-01  0.000000D+00  0.000000D+00  0.000000D+00
      5   0.000000D+00  0.000000D+00  0.205972D-01  0.000000D+00 -0.317182D-02
      6   0.000000D+00  0.000000D+00  0.000000D+00  0.305615D-03  0.577084D-01
      7   0.341184D+00  0.000000D+00  0.000000D+00  0.000000D+00  0.000000D+00
      8   0.000000D+00  0.341184D+00  0.000000D+00  0.000000D+00  0.000000D+00
      9   0.000000D+00  0.000000D+00  0.341184D+00 -0.809228D-03 -0.709712D-01
     10   0.000000D+00  0.000000D+00  0.000000D+00  0.852203D-02  0.110206D+00
     11   0.000000D+00  0.000000D+00  0.000000D+00  0.000000D+00  0.000000D+00
     12   0.000000D+00  0.000000D+00  0.000000D+00  0.000000D+00  0.000000D+00
     13   0.000000D+00  0.000000D+00  0.000000D+00  0.000000D+00  0.000000D+00
     14   0.000000D+00  0.000000D+00  0.000000D+00  0.000000D+00  0.000000D+00
     15   0.000000D+00  0.000000D+00  0.000000D+00  0.342099D-01  0.312579D+00
     16   0.100000D+01  0.000000D+00  0.000000D+00  0.000000D+00  0.000000D+00
     17   0.000000D+00  0.100000D+01  0.000000D+00  0.000000D+00  0.000000D+00
     18   0.000000D+00  0.000000D+00  0.100000D+01 -0.588930D-01 -0.462886D+00
     19   0.000000D+00  0.000000D+00 -0.588930D-01  0.100000D+01  0.236704D+00
     20   0.000000D+00  0.000000D+00 -0.462886D+00  0.236704D+00  0.100000D+01
     21   0.161618D+00  0.000000D+00  0.000000D+00  0.000000D+00  0.000000D+00
     22   0.000000D+00  0.161618D+00  0.000000D+00  0.000000D+00  0.000000D+00
     23   0.000000D+00  0.000000D+00 -0.235477D+00  0.000000D+00  0.000000D+00
                21            22            23 
      1   0.000000D+00  0.000000D+00  0.175441D-02
      2   0.000000D+00  0.000000D+00  0.120415D-01
      3   0.943275D-03  0.000000D+00  0.000000D+00
      4   0.000000D+00  0.943275D-03  0.000000D+00
      5   0.000000D+00  0.000000D+00 -0.562563D-02
      6   0.000000D+00  0.000000D+00  0.951695D-01
      7   0.223420D-01  0.000000D+00  0.000000D+00
      8   0.000000D+00  0.223420D-01  0.000000D+00
      9   0.000000D+00  0.000000D+00 -0.107917D+00
     10   0.000000D+00  0.000000D+00  0.135269D+00
     11  -0.651520D-01  0.000000D+00  0.000000D+00
     12   0.000000D+00 -0.651520D-01  0.000000D+00
     13   0.000000D+00  0.000000D+00  0.000000D+00
     14   0.000000D+00  0.000000D+00  0.000000D+00
     15   0.000000D+00  0.000000D+00  0.179613D+00
     16   0.161618D+00  0.000000D+00  0.000000D+00
     17   0.000000D+00  0.161618D+00  0.000000D+00
     18   0.000000D+00  0.000000D+00 -0.235477D+00
     19   0.000000D+00  0.000000D+00  0.000000D+00
     20   0.000000D+00  0.000000D+00  0.000000D+00
     21   0.100000D+01  0.000000D+00  0.000000D+00
     22   0.000000D+00  0.100000D+01  0.000000D+00
     23   0.000000D+00  0.000000D+00  0.100000D+01
 Entering OneElI...
 Overlap between basis sets.
 Requested accuracy = 0.1000D-12
 PrsmSu:  NPrtUS=   1 ThrOK=F IAlg=1
 PRISM was handed  8586783029 working-precision words and   697 shell-pairs
 IPart=  0 NShTot=         697 NBatch=          84 AvBLen=         8.3
 CnvPC2: ToCart=F DoDens=F IPureD=0 IPureF=0.
 Transformed matrix in CnvPC2: 
                 1             2             3             4             5 
      1   0.999763D+00  0.391742D+00  0.000000D+00  0.000000D+00  0.000000D+00
      2   0.275582D+00  0.990335D+00  0.000000D+00  0.000000D+00  0.000000D+00
      3   0.000000D+00  0.000000D+00  0.998973D+00  0.000000D+00  0.000000D+00
      4   0.000000D+00  0.000000D+00  0.000000D+00  0.998973D+00  0.000000D+00
      5   0.000000D+00  0.000000D+00  0.000000D+00  0.000000D+00  0.998973D+00
      6   0.100511D-01  0.304962D+00  0.000000D+00  0.000000D+00  0.000000D+00
      7   0.000000D+00  0.000000D+00 -0.314491D+00  0.000000D+00  0.000000D+00
      8   0.000000D+00  0.000000D+00  0.000000D+00 -0.314491D+00  0.000000D+00
      9   0.000000D+00  0.000000D+00  0.000000D+00  0.000000D+00 -0.314491D+00
     10   0.000000D+00  0.000000D+00  0.000000D+00  0.000000D+00  0.000000D+00
     11   0.000000D+00  0.000000D+00  0.000000D+00  0.000000D+00  0.000000D+00
     12   0.000000D+00  0.000000D+00  0.000000D+00  0.000000D+00  0.000000D+00
     13   0.000000D+00  0.000000D+00  0.000000D+00  0.000000D+00  0.000000D+00
     14   0.000000D+00  0.000000D+00  0.000000D+00  0.000000D+00  0.000000D+00
     15   0.000000D+00  0.000000D+00  0.000000D+00  0.000000D+00  0.000000D+00
     16   0.000000D+00  0.000000D+00  0.000000D+00  0.000000D+00  0.000000D+00
     17   0.000000D+00  0.000000D+00  0.000000D+00  0.000000D+00  0.000000D+00
     18   0.000000D+00  0.000000D+00  0.000000D+00  0.000000D+00  0.000000D+00
     19   0.000000D+00  0.000000D+00  0.000000D+00  0.000000D+00  0.000000D+00
     20   0.110987D-03  0.986296D-02  0.000000D+00  0.000000D+00  0.000000D+00
     21   0.787383D-02  0.511906D-01  0.000000D+00  0.000000D+00  0.000000D+00
     22   0.394592D-02  0.257618D-01  0.000000D+00  0.000000D+00  0.000000D+00
     23   0.173653D-02  0.113583D-01  0.000000D+00  0.000000D+00  0.000000D+00
     24   0.000000D+00  0.000000D+00 -0.186792D-01  0.000000D+00  0.000000D+00
     25   0.000000D+00  0.000000D+00  0.000000D+00 -0.186792D-01  0.000000D+00
     26   0.000000D+00  0.000000D+00  0.000000D+00  0.000000D+00 -0.186792D-01
     27   0.000000D+00  0.000000D+00  0.114793D-01  0.000000D+00  0.000000D+00
     28   0.000000D+00  0.000000D+00  0.000000D+00  0.114793D-01  0.000000D+00
     29   0.000000D+00  0.000000D+00  0.000000D+00  0.000000D+00  0.114793D-01
     30   0.285296D+00  0.954345D+00  0.000000D+00  0.000000D+00  0.000000D+00
     31   0.179228D+00  0.790394D+00  0.000000D+00  0.000000D+00  0.000000D+00
     32   0.110035D+00  0.578852D+00  0.000000D+00  0.000000D+00  0.000000D+00
     33   0.667292D-01  0.388922D+00  0.000000D+00  0.000000D+00  0.000000D+00
     34   0.402094D-01  0.247841D+00  0.000000D+00  0.000000D+00  0.000000D+00
     35   0.241500D-01  0.153302D+00  0.000000D+00  0.000000D+00  0.000000D+00
     36   0.000000D+00  0.000000D+00  0.426895D+00  0.000000D+00  0.000000D+00
     37   0.000000D+00  0.000000D+00  0.000000D+00  0.426895D+00  0.000000D+00
     38   0.000000D+00  0.000000D+00  0.000000D+00  0.000000D+00  0.426895D+00
     39   0.000000D+00  0.000000D+00  0.265399D+00  0.000000D+00  0.000000D+00
     40   0.000000D+00  0.000000D+00  0.000000D+00  0.265399D+00  0.000000D+00
     41   0.000000D+00  0.000000D+00  0.000000D+00  0.000000D+00  0.265399D+00
     42   0.000000D+00  0.000000D+00  0.153563D+00  0.000000D+00  0.000000D+00
     43   0.000000D+00  0.000000D+00  0.000000D+00  0.153563D+00  0.000000D+00
     44   0.000000D+00  0.000000D+00  0.000000D+00  0.000000D+00  0.153563D+00
     45   0.000000D+00  0.000000D+00  0.845580D-01  0.000000D+00  0.000000D+00
     46   0.000000D+00  0.000000D+00  0.000000D+00  0.845580D-01  0.000000D+00
     47   0.000000D+00  0.000000D+00  0.000000D+00  0.000000D+00  0.845580D-01
     48   0.000000D+00  0.000000D+00  0.450930D-01  0.000000D+00  0.000000D+00
     49   0.000000D+00  0.000000D+00  0.000000D+00  0.450930D-01  0.000000D+00
     50   0.000000D+00  0.000000D+00  0.000000D+00  0.000000D+00  0.450930D-01
     51   0.000000D+00  0.000000D+00  0.235742D-01  0.000000D+00  0.000000D+00
     52   0.000000D+00  0.000000D+00  0.000000D+00  0.235742D-01  0.000000D+00
     53   0.000000D+00  0.000000D+00  0.000000D+00  0.000000D+00  0.235742D-01
     54   0.000000D+00  0.000000D+00  0.000000D+00  0.000000D+00  0.000000D+00
     55   0.000000D+00  0.000000D+00  0.000000D+00  0.000000D+00  0.000000D+00
     56   0.000000D+00  0.000000D+00  0.000000D+00  0.000000D+00  0.000000D+00
     57   0.000000D+00  0.000000D+00  0.000000D+00  0.000000D+00  0.000000D+00
     58   0.000000D+00  0.000000D+00  0.000000D+00  0.000000D+00  0.000000D+00
     59   0.000000D+00  0.000000D+00  0.000000D+00  0.000000D+00  0.000000D+00
     60   0.000000D+00  0.000000D+00  0.000000D+00  0.000000D+00  0.000000D+00
     61   0.000000D+00  0.000000D+00  0.000000D+00  0.000000D+00  0.000000D+00
     62   0.000000D+00  0.000000D+00  0.000000D+00  0.000000D+00  0.000000D+00
     63   0.000000D+00  0.000000D+00  0.000000D+00  0.000000D+00  0.000000D+00
     64   0.000000D+00  0.000000D+00  0.000000D+00  0.000000D+00  0.000000D+00
     65   0.000000D+00  0.000000D+00  0.000000D+00  0.000000D+00  0.000000D+00
     66   0.000000D+00  0.000000D+00  0.000000D+00  0.000000D+00  0.000000D+00
     67   0.000000D+00  0.000000D+00  0.000000D+00  0.000000D+00  0.000000D+00
     68   0.000000D+00  0.000000D+00  0.000000D+00  0.000000D+00  0.000000D+00
     69   0.000000D+00  0.000000D+00  0.000000D+00  0.000000D+00  0.000000D+00
     70   0.000000D+00  0.000000D+00  0.000000D+00  0.000000D+00  0.000000D+00
     71   0.000000D+00  0.000000D+00  0.000000D+00  0.000000D+00  0.000000D+00
     72   0.000000D+00  0.000000D+00  0.000000D+00  0.000000D+00  0.000000D+00
     73   0.000000D+00  0.000000D+00  0.000000D+00  0.000000D+00  0.000000D+00
     74   0.000000D+00  0.000000D+00  0.000000D+00  0.000000D+00  0.000000D+00
     75   0.000000D+00  0.000000D+00  0.000000D+00  0.000000D+00  0.000000D+00
     76   0.000000D+00  0.000000D+00  0.000000D+00  0.000000D+00  0.000000D+00
     77   0.000000D+00  0.000000D+00  0.000000D+00  0.000000D+00  0.000000D+00
     78   0.000000D+00  0.000000D+00  0.000000D+00  0.000000D+00  0.000000D+00
     79   0.000000D+00  0.000000D+00  0.000000D+00  0.000000D+00  0.000000D+00
     80   0.000000D+00  0.000000D+00  0.000000D+00  0.000000D+00  0.000000D+00
     81   0.000000D+00  0.000000D+00  0.000000D+00  0.000000D+00  0.000000D+00
     82   0.000000D+00  0.000000D+00  0.000000D+00  0.000000D+00  0.000000D+00
     83   0.000000D+00  0.000000D+00  0.000000D+00  0.000000D+00  0.000000D+00
     84   0.000000D+00  0.000000D+00  0.000000D+00  0.000000D+00  0.000000D+00
     85   0.000000D+00  0.000000D+00  0.000000D+00  0.000000D+00  0.000000D+00
     86   0.000000D+00  0.000000D+00  0.000000D+00  0.000000D+00  0.000000D+00
     87   0.000000D+00  0.000000D+00  0.000000D+00  0.000000D+00  0.000000D+00
     88   0.000000D+00  0.000000D+00  0.000000D+00  0.000000D+00  0.000000D+00
     89   0.000000D+00  0.000000D+00  0.000000D+00  0.000000D+00  0.000000D+00
     90   0.000000D+00  0.000000D+00  0.000000D+00  0.000000D+00  0.000000D+00
     91   0.000000D+00  0.000000D+00  0.000000D+00  0.000000D+00  0.000000D+00
     92   0.000000D+00  0.000000D+00  0.000000D+00  0.000000D+00  0.000000D+00
     93   0.000000D+00  0.000000D+00  0.000000D+00  0.000000D+00  0.000000D+00
     94   0.000000D+00  0.000000D+00  0.000000D+00  0.000000D+00  0.000000D+00
     95   0.000000D+00  0.000000D+00  0.000000D+00  0.000000D+00  0.000000D+00
     96   0.000000D+00  0.000000D+00  0.000000D+00  0.000000D+00  0.000000D+00
     97   0.000000D+00  0.000000D+00  0.000000D+00  0.000000D+00  0.000000D+00
     98   0.000000D+00  0.000000D+00  0.000000D+00  0.000000D+00  0.000000D+00
     99   0.000000D+00  0.000000D+00  0.000000D+00  0.000000D+00  0.000000D+00
    100   0.000000D+00  0.000000D+00  0.000000D+00  0.000000D+00  0.000000D+00
    101   0.000000D+00  0.000000D+00  0.000000D+00  0.000000D+00  0.000000D+00
    102   0.000000D+00  0.000000D+00  0.000000D+00  0.000000D+00  0.000000D+00
    103   0.000000D+00  0.000000D+00  0.000000D+00  0.000000D+00  0.000000D+00
    104   0.000000D+00  0.000000D+00  0.000000D+00  0.000000D+00  0.000000D+00
    105   0.000000D+00  0.000000D+00  0.000000D+00  0.000000D+00  0.000000D+00
    106   0.000000D+00  0.000000D+00  0.000000D+00  0.000000D+00  0.000000D+00
    107   0.000000D+00  0.000000D+00  0.000000D+00  0.000000D+00  0.000000D+00
    108   0.000000D+00  0.000000D+00  0.000000D+00  0.000000D+00  0.000000D+00
    109   0.000000D+00  0.000000D+00  0.000000D+00  0.000000D+00  0.000000D+00
    110   0.000000D+00  0.000000D+00  0.000000D+00  0.000000D+00  0.000000D+00
    111   0.000000D+00  0.000000D+00  0.000000D+00  0.000000D+00  0.000000D+00
    112   0.000000D+00  0.000000D+00  0.000000D+00  0.000000D+00  0.000000D+00
    113   0.000000D+00  0.000000D+00  0.000000D+00  0.000000D+00  0.000000D+00
    114   0.000000D+00  0.000000D+00  0.000000D+00  0.000000D+00  0.000000D+00
    115   0.000000D+00  0.000000D+00  0.000000D+00  0.000000D+00  0.000000D+00
    116   0.000000D+00  0.000000D+00  0.000000D+00  0.000000D+00  0.000000D+00
    117   0.000000D+00  0.000000D+00  0.000000D+00  0.000000D+00  0.000000D+00
    118   0.000000D+00  0.000000D+00  0.000000D+00  0.000000D+00  0.000000D+00
    119   0.000000D+00  0.000000D+00  0.000000D+00  0.000000D+00  0.000000D+00
    120   0.000000D+00  0.000000D+00  0.000000D+00  0.000000D+00  0.000000D+00
    121   0.000000D+00  0.000000D+00  0.000000D+00  0.000000D+00  0.000000D+00
    122   0.000000D+00  0.000000D+00  0.000000D+00  0.000000D+00  0.000000D+00
    123   0.000000D+00  0.000000D+00  0.000000D+00  0.000000D+00  0.000000D+00
    124   0.000000D+00  0.000000D+00  0.000000D+00  0.000000D+00  0.000000D+00
    125   0.000000D+00  0.000000D+00  0.000000D+00  0.000000D+00  0.000000D+00
    126   0.000000D+00  0.000000D+00  0.000000D+00  0.000000D+00  0.000000D+00
    127   0.000000D+00  0.000000D+00  0.000000D+00  0.000000D+00  0.000000D+00
    128   0.000000D+00  0.000000D+00  0.000000D+00  0.000000D+00  0.000000D+00
    129   0.000000D+00  0.000000D+00  0.000000D+00  0.000000D+00  0.000000D+00
    130   0.000000D+00  0.000000D+00  0.000000D+00  0.000000D+00  0.000000D+00
    131   0.000000D+00  0.000000D+00  0.000000D+00  0.000000D+00  0.000000D+00
    132   0.000000D+00  0.000000D+00  0.000000D+00  0.000000D+00  0.000000D+00
    133   0.000000D+00  0.000000D+00  0.000000D+00  0.000000D+00  0.000000D+00
    134   0.000000D+00  0.000000D+00  0.000000D+00  0.000000D+00  0.000000D+00
    135   0.000000D+00  0.000000D+00  0.000000D+00  0.000000D+00  0.000000D+00
    136   0.000000D+00  0.000000D+00  0.000000D+00  0.000000D+00  0.000000D+00
    137   0.000000D+00  0.000000D+00  0.000000D+00  0.000000D+00  0.000000D+00
    138   0.000000D+00  0.000000D+00  0.000000D+00  0.000000D+00  0.000000D+00
    139   0.000000D+00  0.000000D+00  0.000000D+00  0.000000D+00  0.000000D+00
    140   0.000000D+00  0.000000D+00  0.000000D+00  0.000000D+00  0.000000D+00
    141   0.000000D+00  0.000000D+00  0.000000D+00  0.000000D+00  0.000000D+00
    142   0.000000D+00  0.000000D+00  0.000000D+00  0.000000D+00  0.000000D+00
    143   0.000000D+00  0.000000D+00  0.000000D+00  0.000000D+00  0.000000D+00
    144   0.000000D+00  0.000000D+00  0.000000D+00  0.000000D+00  0.000000D+00
    145   0.000000D+00  0.000000D+00  0.000000D+00  0.000000D+00  0.000000D+00
    146   0.000000D+00  0.000000D+00  0.000000D+00  0.000000D+00  0.000000D+00
    147   0.000000D+00  0.000000D+00  0.000000D+00  0.000000D+00  0.000000D+00
    148   0.000000D+00  0.000000D+00  0.000000D+00  0.000000D+00  0.000000D+00
    149   0.000000D+00  0.000000D+00  0.000000D+00  0.000000D+00  0.000000D+00
    150   0.000000D+00  0.000000D+00  0.000000D+00  0.000000D+00  0.000000D+00
    151   0.000000D+00  0.000000D+00  0.000000D+00  0.000000D+00  0.000000D+00
    152   0.000000D+00  0.000000D+00  0.000000D+00  0.000000D+00  0.000000D+00
    153   0.000000D+00  0.000000D+00  0.000000D+00  0.000000D+00  0.000000D+00
    154   0.000000D+00  0.000000D+00  0.000000D+00  0.000000D+00  0.000000D+00
    155   0.000000D+00  0.000000D+00  0.000000D+00  0.000000D+00  0.000000D+00
    156   0.000000D+00  0.000000D+00  0.000000D+00  0.000000D+00  0.000000D+00
    157   0.000000D+00  0.000000D+00  0.000000D+00  0.000000D+00  0.000000D+00
    158   0.000000D+00  0.000000D+00  0.000000D+00  0.000000D+00  0.000000D+00
    159   0.000000D+00  0.000000D+00  0.000000D+00  0.000000D+00  0.000000D+00
    160   0.000000D+00  0.000000D+00  0.000000D+00  0.000000D+00  0.000000D+00
    161   0.000000D+00  0.000000D+00  0.000000D+00  0.000000D+00  0.000000D+00
    162   0.000000D+00  0.000000D+00  0.000000D+00  0.000000D+00  0.000000D+00
    163   0.000000D+00  0.000000D+00  0.000000D+00  0.000000D+00  0.000000D+00
    164   0.000000D+00  0.000000D+00  0.000000D+00  0.000000D+00  0.000000D+00
    165   0.000000D+00  0.000000D+00  0.000000D+00  0.000000D+00  0.000000D+00
    166   0.000000D+00  0.000000D+00  0.000000D+00  0.000000D+00  0.000000D+00
    167   0.000000D+00  0.000000D+00  0.000000D+00  0.000000D+00  0.000000D+00
    168   0.000000D+00  0.000000D+00  0.000000D+00  0.000000D+00  0.000000D+00
    169   0.000000D+00  0.000000D+00  0.000000D+00  0.000000D+00  0.000000D+00
    170   0.000000D+00  0.000000D+00  0.000000D+00  0.000000D+00  0.000000D+00
    171   0.000000D+00  0.000000D+00  0.000000D+00  0.000000D+00  0.000000D+00
    172   0.000000D+00  0.000000D+00  0.000000D+00  0.000000D+00  0.000000D+00
    173   0.000000D+00  0.000000D+00  0.000000D+00  0.000000D+00  0.000000D+00
    174   0.000000D+00  0.000000D+00  0.000000D+00  0.000000D+00  0.000000D+00
    175   0.000000D+00  0.000000D+00  0.000000D+00  0.000000D+00  0.000000D+00
    176   0.000000D+00  0.000000D+00  0.000000D+00  0.000000D+00  0.000000D+00
    177   0.000000D+00  0.000000D+00  0.000000D+00  0.000000D+00  0.000000D+00
    178   0.000000D+00  0.000000D+00  0.000000D+00  0.000000D+00  0.000000D+00
    179   0.000000D+00  0.000000D+00  0.000000D+00  0.000000D+00  0.000000D+00
    180   0.000000D+00  0.000000D+00  0.000000D+00  0.000000D+00  0.000000D+00
    181   0.000000D+00  0.000000D+00  0.000000D+00  0.000000D+00  0.000000D+00
    182   0.000000D+00  0.000000D+00  0.000000D+00  0.000000D+00  0.000000D+00
    183   0.000000D+00  0.000000D+00  0.000000D+00  0.000000D+00  0.000000D+00
    184   0.000000D+00  0.000000D+00  0.000000D+00  0.000000D+00  0.000000D+00
    185   0.000000D+00  0.000000D+00  0.000000D+00  0.000000D+00  0.000000D+00
    186   0.000000D+00  0.000000D+00  0.000000D+00  0.000000D+00  0.000000D+00
    187   0.000000D+00  0.000000D+00  0.000000D+00  0.000000D+00  0.000000D+00
    188   0.000000D+00  0.000000D+00  0.000000D+00  0.000000D+00  0.000000D+00
    189   0.000000D+00  0.000000D+00  0.000000D+00  0.000000D+00  0.000000D+00
    190   0.000000D+00  0.000000D+00  0.000000D+00  0.000000D+00  0.000000D+00
    191   0.000000D+00  0.000000D+00  0.000000D+00  0.000000D+00  0.000000D+00
    192   0.000000D+00  0.000000D+00  0.000000D+00  0.000000D+00  0.000000D+00
    193   0.000000D+00  0.000000D+00  0.000000D+00  0.000000D+00  0.000000D+00
    194   0.000000D+00  0.000000D+00  0.000000D+00  0.000000D+00  0.000000D+00
    195   0.000000D+00  0.000000D+00  0.000000D+00  0.000000D+00  0.000000D+00
    196   0.000000D+00  0.000000D+00  0.000000D+00  0.000000D+00  0.000000D+00
    197   0.000000D+00  0.000000D+00  0.000000D+00  0.000000D+00  0.000000D+00
    198   0.000000D+00  0.000000D+00  0.000000D+00  0.000000D+00  0.000000D+00
    199   0.000000D+00  0.000000D+00  0.000000D+00  0.000000D+00  0.000000D+00
    200   0.000000D+00  0.000000D+00  0.000000D+00  0.000000D+00  0.000000D+00
    201   0.000000D+00  0.000000D+00  0.000000D+00  0.000000D+00  0.000000D+00
    202   0.000000D+00  0.000000D+00  0.000000D+00  0.000000D+00  0.000000D+00
    203   0.000000D+00  0.000000D+00  0.000000D+00  0.000000D+00  0.000000D+00
    204   0.000000D+00  0.000000D+00  0.000000D+00  0.000000D+00  0.000000D+00
    205   0.000000D+00  0.000000D+00  0.000000D+00  0.000000D+00  0.000000D+00
    206   0.000000D+00  0.000000D+00  0.000000D+00  0.000000D+00  0.000000D+00
    207   0.000000D+00  0.000000D+00  0.000000D+00  0.000000D+00  0.000000D+00
    208   0.000000D+00  0.000000D+00  0.000000D+00  0.000000D+00  0.000000D+00
    209   0.000000D+00  0.000000D+00  0.000000D+00  0.000000D+00  0.000000D+00
    210   0.000000D+00  0.000000D+00  0.000000D+00  0.000000D+00  0.000000D+00
    211   0.000000D+00  0.000000D+00  0.000000D+00  0.000000D+00  0.000000D+00
    212   0.000000D+00  0.000000D+00  0.000000D+00  0.000000D+00  0.000000D+00
    213   0.000000D+00  0.000000D+00  0.000000D+00  0.000000D+00  0.000000D+00
    214   0.000000D+00  0.000000D+00  0.000000D+00  0.000000D+00  0.000000D+00
    215   0.000000D+00  0.000000D+00  0.000000D+00  0.000000D+00  0.000000D+00
    216   0.000000D+00  0.000000D+00  0.000000D+00  0.000000D+00  0.000000D+00
    217   0.000000D+00  0.000000D+00  0.000000D+00  0.000000D+00  0.000000D+00
    218   0.000000D+00  0.000000D+00  0.000000D+00  0.000000D+00  0.000000D+00
    219   0.000000D+00  0.000000D+00  0.000000D+00  0.000000D+00  0.000000D+00
    220   0.000000D+00  0.000000D+00  0.000000D+00  0.000000D+00  0.000000D+00
    221   0.000000D+00  0.000000D+00  0.000000D+00  0.000000D+00  0.000000D+00
    222   0.000000D+00  0.000000D+00  0.000000D+00  0.000000D+00  0.000000D+00
    223   0.000000D+00  0.000000D+00  0.000000D+00  0.000000D+00  0.000000D+00
    224   0.000000D+00  0.000000D+00  0.000000D+00  0.000000D+00  0.000000D+00
    225   0.000000D+00  0.000000D+00  0.000000D+00  0.000000D+00  0.000000D+00
    226   0.000000D+00  0.000000D+00  0.000000D+00  0.000000D+00  0.000000D+00
    227   0.000000D+00  0.000000D+00  0.000000D+00  0.000000D+00  0.000000D+00
    228   0.000000D+00  0.000000D+00  0.000000D+00  0.000000D+00  0.000000D+00
    229   0.000000D+00  0.000000D+00  0.000000D+00  0.000000D+00  0.000000D+00
    230   0.000000D+00  0.000000D+00  0.000000D+00  0.000000D+00  0.000000D+00
    231   0.000000D+00  0.000000D+00  0.000000D+00  0.000000D+00  0.000000D+00
    232   0.000000D+00  0.000000D+00  0.000000D+00  0.000000D+00  0.000000D+00
    233   0.000000D+00  0.000000D+00  0.000000D+00  0.000000D+00  0.000000D+00
    234   0.000000D+00  0.000000D+00  0.000000D+00  0.000000D+00  0.000000D+00
    235   0.000000D+00  0.000000D+00  0.000000D+00  0.000000D+00  0.000000D+00
    236   0.000000D+00  0.000000D+00  0.000000D+00  0.000000D+00  0.000000D+00
    237   0.000000D+00  0.000000D+00  0.000000D+00  0.000000D+00  0.000000D+00
    238   0.000000D+00  0.000000D+00  0.000000D+00  0.000000D+00  0.000000D+00
    239   0.000000D+00  0.000000D+00  0.000000D+00  0.000000D+00  0.000000D+00
    240   0.000000D+00  0.000000D+00  0.000000D+00  0.000000D+00  0.000000D+00
    241   0.000000D+00  0.000000D+00  0.000000D+00  0.000000D+00  0.000000D+00
    242   0.000000D+00  0.000000D+00  0.000000D+00  0.000000D+00  0.000000D+00
    243   0.000000D+00  0.000000D+00  0.000000D+00  0.000000D+00  0.000000D+00
    244   0.000000D+00  0.000000D+00  0.000000D+00  0.000000D+00  0.000000D+00
    245   0.000000D+00  0.000000D+00  0.000000D+00  0.000000D+00  0.000000D+00
    246   0.000000D+00  0.000000D+00  0.000000D+00  0.000000D+00  0.000000D+00
    247   0.000000D+00  0.000000D+00  0.000000D+00  0.000000D+00  0.000000D+00
    248   0.000000D+00  0.000000D+00  0.000000D+00  0.000000D+00  0.000000D+00
    249   0.000000D+00  0.000000D+00  0.000000D+00  0.000000D+00  0.000000D+00
    250   0.000000D+00  0.000000D+00  0.000000D+00  0.000000D+00  0.000000D+00
    251   0.000000D+00  0.000000D+00  0.000000D+00  0.000000D+00  0.000000D+00
    252   0.000000D+00  0.000000D+00  0.000000D+00  0.000000D+00  0.000000D+00
    253   0.000000D+00  0.000000D+00  0.000000D+00  0.000000D+00  0.000000D+00
    254   0.000000D+00  0.000000D+00  0.000000D+00  0.000000D+00  0.000000D+00
    255   0.000000D+00  0.000000D+00  0.000000D+00  0.000000D+00  0.000000D+00
    256   0.000000D+00  0.000000D+00  0.000000D+00  0.000000D+00  0.000000D+00
    257   0.000000D+00  0.000000D+00  0.000000D+00  0.000000D+00  0.000000D+00
    258   0.000000D+00  0.000000D+00  0.000000D+00  0.000000D+00  0.000000D+00
    259   0.000000D+00  0.000000D+00  0.000000D+00  0.000000D+00  0.000000D+00
    260   0.000000D+00  0.000000D+00  0.000000D+00  0.000000D+00  0.000000D+00
    261   0.000000D+00  0.000000D+00  0.000000D+00  0.000000D+00  0.000000D+00
    262   0.000000D+00  0.000000D+00  0.000000D+00  0.000000D+00  0.000000D+00
    263   0.000000D+00  0.000000D+00  0.000000D+00  0.000000D+00  0.000000D+00
    264   0.000000D+00  0.000000D+00  0.000000D+00  0.000000D+00  0.000000D+00
    265   0.000000D+00  0.000000D+00  0.000000D+00  0.000000D+00  0.000000D+00
    266   0.000000D+00  0.000000D+00  0.000000D+00  0.000000D+00  0.000000D+00
    267   0.000000D+00  0.000000D+00  0.000000D+00  0.000000D+00  0.000000D+00
    268   0.000000D+00  0.000000D+00  0.000000D+00  0.000000D+00  0.000000D+00
    269   0.000000D+00  0.000000D+00  0.000000D+00  0.000000D+00  0.000000D+00
    270   0.000000D+00  0.000000D+00  0.000000D+00  0.000000D+00  0.000000D+00
    271   0.000000D+00  0.000000D+00  0.000000D+00  0.000000D+00  0.000000D+00
    272   0.000000D+00  0.000000D+00  0.000000D+00  0.000000D+00  0.000000D+00
    273   0.000000D+00  0.000000D+00  0.000000D+00  0.000000D+00  0.000000D+00
    274   0.000000D+00  0.000000D+00  0.000000D+00  0.000000D+00  0.000000D+00
    275   0.000000D+00  0.000000D+00  0.000000D+00  0.000000D+00  0.000000D+00
    276   0.000000D+00  0.000000D+00  0.000000D+00  0.000000D+00  0.000000D+00
    277   0.000000D+00  0.000000D+00  0.000000D+00  0.000000D+00  0.000000D+00
    278   0.000000D+00  0.000000D+00  0.000000D+00  0.000000D+00  0.000000D+00
    279   0.000000D+00  0.000000D+00  0.000000D+00  0.000000D+00  0.000000D+00
    280   0.000000D+00  0.000000D+00  0.000000D+00  0.000000D+00  0.000000D+00
    281   0.000000D+00  0.000000D+00  0.000000D+00  0.000000D+00  0.000000D+00
    282   0.000000D+00  0.000000D+00  0.000000D+00  0.000000D+00  0.000000D+00
    283   0.000000D+00  0.000000D+00  0.000000D+00  0.000000D+00  0.000000D+00
    284   0.000000D+00  0.000000D+00  0.000000D+00  0.000000D+00  0.000000D+00
    285   0.000000D+00  0.000000D+00  0.000000D+00  0.000000D+00  0.000000D+00
    286   0.000000D+00  0.000000D+00  0.000000D+00  0.000000D+00  0.000000D+00
    287   0.000000D+00  0.000000D+00  0.000000D+00  0.000000D+00  0.000000D+00
    288   0.000000D+00  0.000000D+00  0.000000D+00  0.000000D+00  0.000000D+00
    289   0.000000D+00  0.000000D+00  0.000000D+00  0.000000D+00  0.000000D+00
    290   0.000000D+00  0.000000D+00  0.000000D+00  0.000000D+00  0.000000D+00
    291   0.000000D+00  0.000000D+00  0.000000D+00  0.000000D+00  0.000000D+00
    292   0.000000D+00  0.000000D+00  0.000000D+00  0.000000D+00  0.000000D+00
    293   0.000000D+00  0.000000D+00  0.000000D+00  0.000000D+00  0.000000D+00
    294   0.000000D+00  0.000000D+00  0.000000D+00  0.000000D+00  0.000000D+00
    295   0.000000D+00  0.000000D+00  0.000000D+00  0.000000D+00  0.000000D+00
    296   0.000000D+00  0.000000D+00  0.000000D+00  0.000000D+00  0.000000D+00
    297   0.000000D+00  0.000000D+00  0.000000D+00  0.000000D+00  0.000000D+00
    298   0.000000D+00  0.000000D+00  0.000000D+00  0.000000D+00  0.000000D+00
    299   0.000000D+00  0.000000D+00  0.000000D+00  0.000000D+00  0.000000D+00
    300   0.000000D+00  0.000000D+00  0.000000D+00  0.000000D+00  0.000000D+00
    301   0.000000D+00  0.000000D+00  0.000000D+00  0.000000D+00  0.000000D+00
    302   0.000000D+00  0.000000D+00  0.000000D+00  0.000000D+00  0.000000D+00
    303   0.000000D+00  0.000000D+00  0.000000D+00  0.000000D+00  0.000000D+00
    304   0.000000D+00  0.000000D+00  0.000000D+00  0.000000D+00  0.000000D+00
    305   0.000000D+00  0.000000D+00  0.000000D+00  0.000000D+00  0.000000D+00
    306   0.000000D+00  0.000000D+00  0.000000D+00  0.000000D+00  0.000000D+00
    307   0.000000D+00  0.000000D+00  0.000000D+00  0.000000D+00  0.000000D+00
    308   0.000000D+00  0.000000D+00  0.000000D+00  0.000000D+00  0.000000D+00
    309   0.000000D+00  0.000000D+00  0.000000D+00  0.000000D+00  0.000000D+00
    310   0.000000D+00  0.000000D+00  0.000000D+00  0.000000D+00  0.000000D+00
    311   0.000000D+00  0.000000D+00  0.000000D+00  0.000000D+00  0.000000D+00
    312   0.000000D+00  0.000000D+00  0.000000D+00  0.000000D+00  0.000000D+00
    313   0.000000D+00  0.000000D+00  0.000000D+00  0.000000D+00  0.000000D+00
    314   0.000000D+00  0.000000D+00  0.000000D+00  0.000000D+00  0.000000D+00
    315   0.000000D+00  0.000000D+00  0.000000D+00  0.000000D+00  0.000000D+00
    316   0.000000D+00  0.000000D+00  0.000000D+00  0.000000D+00  0.000000D+00
    317   0.000000D+00  0.000000D+00  0.000000D+00  0.000000D+00  0.000000D+00
    318   0.000000D+00  0.000000D+00  0.000000D+00  0.000000D+00  0.000000D+00
    319   0.000000D+00  0.000000D+00  0.000000D+00  0.000000D+00  0.000000D+00
    320   0.000000D+00  0.000000D+00  0.000000D+00  0.000000D+00  0.000000D+00
    321   0.000000D+00  0.000000D+00  0.000000D+00  0.000000D+00  0.000000D+00
    322   0.000000D+00  0.000000D+00  0.000000D+00  0.000000D+00  0.000000D+00
    323   0.000000D+00  0.000000D+00  0.000000D+00  0.000000D+00  0.000000D+00
    324   0.000000D+00  0.000000D+00  0.000000D+00  0.000000D+00  0.000000D+00
    325   0.000000D+00  0.000000D+00  0.000000D+00  0.000000D+00  0.000000D+00
    326   0.000000D+00  0.000000D+00  0.000000D+00  0.000000D+00  0.000000D+00
    327   0.000000D+00  0.000000D+00  0.000000D+00  0.000000D+00  0.000000D+00
    328   0.000000D+00  0.000000D+00  0.000000D+00  0.000000D+00  0.000000D+00
    329   0.000000D+00  0.000000D+00  0.000000D+00  0.000000D+00  0.000000D+00
    330   0.000000D+00  0.000000D+00  0.000000D+00  0.000000D+00  0.000000D+00
    331   0.000000D+00  0.000000D+00  0.000000D+00  0.000000D+00  0.000000D+00
    332   0.000000D+00  0.000000D+00  0.000000D+00  0.000000D+00  0.000000D+00
    333   0.000000D+00  0.000000D+00  0.000000D+00  0.000000D+00  0.000000D+00
    334   0.000000D+00  0.000000D+00  0.000000D+00  0.000000D+00  0.000000D+00
    335   0.000000D+00  0.000000D+00  0.000000D+00  0.000000D+00  0.000000D+00
    336   0.000000D+00  0.000000D+00  0.000000D+00  0.000000D+00  0.000000D+00
    337   0.000000D+00  0.000000D+00  0.000000D+00  0.000000D+00  0.000000D+00
    338   0.000000D+00  0.000000D+00  0.000000D+00  0.000000D+00  0.000000D+00
    339   0.000000D+00  0.000000D+00  0.000000D+00  0.000000D+00  0.000000D+00
    340   0.000000D+00  0.000000D+00  0.000000D+00  0.000000D+00  0.000000D+00
    341   0.000000D+00  0.000000D+00  0.000000D+00  0.000000D+00  0.000000D+00
    342   0.000000D+00  0.000000D+00  0.000000D+00  0.000000D+00  0.000000D+00
    343   0.000000D+00  0.000000D+00  0.000000D+00  0.000000D+00  0.000000D+00
    344   0.000000D+00  0.000000D+00  0.000000D+00  0.000000D+00  0.000000D+00
    345   0.000000D+00  0.000000D+00  0.000000D+00  0.000000D+00  0.000000D+00
    346   0.000000D+00  0.000000D+00  0.000000D+00  0.000000D+00  0.000000D+00
    347   0.000000D+00  0.000000D+00  0.000000D+00  0.000000D+00  0.000000D+00
    348   0.000000D+00  0.000000D+00  0.000000D+00  0.000000D+00  0.000000D+00
    349   0.000000D+00  0.000000D+00  0.000000D+00  0.000000D+00  0.000000D+00
    350   0.000000D+00  0.000000D+00  0.000000D+00  0.000000D+00  0.000000D+00
    351   0.000000D+00  0.000000D+00  0.000000D+00  0.000000D+00  0.000000D+00
    352   0.000000D+00  0.000000D+00  0.000000D+00  0.000000D+00  0.000000D+00
    353   0.000000D+00  0.000000D+00  0.000000D+00  0.000000D+00  0.000000D+00
    354   0.000000D+00  0.000000D+00  0.000000D+00  0.000000D+00  0.000000D+00
    355   0.000000D+00  0.000000D+00  0.000000D+00  0.000000D+00  0.000000D+00
    356   0.000000D+00  0.000000D+00  0.000000D+00  0.000000D+00  0.000000D+00
    357   0.120079D-02  0.820938D-02  0.000000D+00  0.000000D+00 -0.315187D-02
    358   0.589716D-02  0.383672D-01  0.000000D+00  0.000000D+00 -0.327384D-02
    359   0.000000D+00  0.000000D+00  0.187814D-02  0.000000D+00  0.000000D+00
    360   0.000000D+00  0.000000D+00  0.000000D+00  0.187814D-02  0.000000D+00
    361   0.359963D-02  0.239038D-01  0.000000D+00  0.000000D+00 -0.697078D-02
    362   0.000000D+00  0.000000D+00  0.348682D-02  0.000000D+00  0.000000D+00
    363   0.000000D+00  0.000000D+00  0.000000D+00  0.348682D-02  0.000000D+00
    364   0.683165D-02  0.442771D-01  0.000000D+00  0.000000D+00  0.711820D-03
    365   0.000000D+00  0.000000D+00  0.000000D+00  0.000000D+00  0.000000D+00
    366   0.000000D+00  0.000000D+00  0.000000D+00  0.000000D+00  0.000000D+00
    367   0.327344D-05  0.565897D-04  0.000000D+00  0.000000D+00 -0.759333D-04
    368   0.289596D-03  0.236570D-02  0.000000D+00  0.000000D+00 -0.181213D-02
    369   0.228364D-02  0.155055D-01  0.000000D+00  0.000000D+00 -0.635076D-02
    370   0.514647D-02  0.336169D-01  0.000000D+00  0.000000D+00 -0.715997D-02
    371   0.000000D+00  0.000000D+00  0.000000D+00  0.000000D+00  0.000000D+00
    372   0.000000D+00  0.000000D+00  0.000000D+00  0.000000D+00  0.000000D+00
    373   0.000000D+00  0.000000D+00  0.000000D+00  0.000000D+00  0.000000D+00
    374   0.000000D+00  0.000000D+00  0.000000D+00  0.000000D+00  0.000000D+00
    375   0.000000D+00  0.000000D+00  0.000000D+00  0.000000D+00  0.000000D+00
    376   0.000000D+00  0.000000D+00  0.000000D+00  0.000000D+00  0.000000D+00
    377   0.000000D+00  0.000000D+00  0.153941D-04  0.000000D+00  0.000000D+00
    378   0.000000D+00  0.000000D+00  0.000000D+00  0.153941D-04  0.000000D+00
    379   0.121320D-04  0.208762D-03  0.000000D+00  0.000000D+00 -0.279674D-03
    380   0.000000D+00  0.000000D+00  0.952801D-03  0.000000D+00  0.000000D+00
    381   0.000000D+00  0.000000D+00  0.000000D+00  0.952801D-03  0.000000D+00
    382   0.163488D-02  0.122559D-01  0.000000D+00  0.000000D+00 -0.803120D-02
    383   0.000000D+00  0.000000D+00  0.470514D-02  0.000000D+00  0.000000D+00
    384   0.000000D+00  0.000000D+00  0.000000D+00  0.470514D-02  0.000000D+00
    385   0.919319D-02  0.597641D-01  0.000000D+00  0.000000D+00 -0.161586D-01
    386   0.000000D+00  0.000000D+00  0.601825D-02  0.000000D+00  0.000000D+00
    387   0.000000D+00  0.000000D+00  0.000000D+00  0.601825D-02  0.000000D+00
    388   0.118786D-01  0.763635D-01  0.000000D+00  0.000000D+00 -0.630866D-02
    389   0.000000D+00  0.000000D+00  0.000000D+00  0.000000D+00  0.000000D+00
    390   0.000000D+00  0.000000D+00  0.000000D+00  0.000000D+00  0.000000D+00
    391   0.000000D+00  0.000000D+00  0.000000D+00  0.000000D+00  0.000000D+00
    392   0.000000D+00  0.000000D+00  0.000000D+00  0.000000D+00  0.000000D+00
    393   0.000000D+00  0.000000D+00  0.000000D+00  0.000000D+00  0.000000D+00
    394   0.000000D+00  0.000000D+00  0.000000D+00  0.000000D+00  0.000000D+00
    395   0.000000D+00  0.000000D+00  0.000000D+00  0.000000D+00  0.000000D+00
    396   0.000000D+00  0.000000D+00  0.000000D+00  0.000000D+00  0.000000D+00
    397   0.000000D+00  0.000000D+00  0.000000D+00  0.000000D+00  0.000000D+00
    398   0.000000D+00  0.000000D+00  0.000000D+00  0.000000D+00  0.000000D+00
    399   0.000000D+00  0.000000D+00  0.000000D+00  0.000000D+00 -0.202777D-05
    400   0.000000D+00  0.000000D+00  0.000000D+00  0.000000D+00  0.000000D+00
    401   0.000000D+00  0.000000D+00  0.000000D+00  0.000000D+00  0.000000D+00
    402   0.000000D+00  0.000000D+00  0.000000D+00  0.000000D+00  0.000000D+00
    403   0.000000D+00  0.000000D+00  0.000000D+00  0.000000D+00  0.000000D+00
    404   0.375331D-04  0.593234D-03  0.000000D+00  0.000000D+00 -0.771303D-03
    405   0.000000D+00  0.000000D+00  0.760974D-04  0.000000D+00  0.000000D+00
    406   0.000000D+00  0.000000D+00  0.000000D+00  0.760974D-04  0.000000D+00
    407   0.000000D+00  0.000000D+00  0.000000D+00  0.000000D+00  0.000000D+00
    408   0.000000D+00  0.000000D+00  0.000000D+00  0.000000D+00  0.000000D+00
    409   0.274921D-02  0.203962D-01  0.000000D+00  0.000000D+00 -0.135798D-01
    410   0.000000D+00  0.000000D+00  0.274910D-02  0.000000D+00  0.000000D+00
    411   0.000000D+00  0.000000D+00  0.000000D+00  0.274910D-02  0.000000D+00
    412   0.000000D+00  0.000000D+00  0.000000D+00  0.000000D+00  0.000000D+00
    413   0.000000D+00  0.000000D+00  0.000000D+00  0.000000D+00  0.000000D+00
    414   0.134402D-01  0.858829D-01  0.000000D+00  0.000000D+00 -0.235769D-01
    415   0.000000D+00  0.000000D+00  0.117304D-01  0.000000D+00  0.000000D+00
    416   0.000000D+00  0.000000D+00  0.000000D+00  0.117304D-01  0.000000D+00
    417   0.000000D+00  0.000000D+00  0.000000D+00  0.000000D+00  0.000000D+00
    418   0.000000D+00  0.000000D+00  0.000000D+00  0.000000D+00  0.000000D+00
    419   0.164891D-01  0.104194D+00  0.000000D+00  0.000000D+00 -0.656855D-02
    420   0.000000D+00  0.000000D+00  0.142464D-01  0.000000D+00  0.000000D+00
    421   0.000000D+00  0.000000D+00  0.000000D+00  0.142464D-01  0.000000D+00
    422   0.000000D+00  0.000000D+00  0.000000D+00  0.000000D+00  0.000000D+00
    423   0.000000D+00  0.000000D+00  0.000000D+00  0.000000D+00  0.000000D+00
    424   0.000000D+00  0.000000D+00  0.000000D+00  0.000000D+00  0.000000D+00
    425   0.000000D+00  0.000000D+00  0.000000D+00  0.000000D+00  0.000000D+00
    426   0.000000D+00  0.000000D+00  0.000000D+00  0.000000D+00  0.000000D+00
    427   0.000000D+00  0.000000D+00  0.000000D+00  0.000000D+00  0.000000D+00
    428   0.000000D+00  0.000000D+00  0.000000D+00  0.000000D+00  0.000000D+00
    429   0.000000D+00  0.000000D+00  0.000000D+00  0.000000D+00  0.000000D+00
    430   0.000000D+00  0.000000D+00  0.000000D+00  0.000000D+00  0.000000D+00
    431   0.000000D+00  0.000000D+00  0.000000D+00  0.000000D+00  0.000000D+00
    432   0.000000D+00  0.000000D+00  0.000000D+00  0.000000D+00  0.000000D+00
    433   0.000000D+00  0.000000D+00  0.000000D+00  0.000000D+00  0.000000D+00
    434   0.000000D+00  0.000000D+00  0.000000D+00  0.000000D+00  0.000000D+00
    435   0.000000D+00  0.000000D+00  0.000000D+00  0.000000D+00  0.000000D+00
    436   0.000000D+00  0.000000D+00  0.000000D+00  0.000000D+00  0.000000D+00
    437   0.000000D+00  0.000000D+00  0.000000D+00  0.000000D+00  0.000000D+00
    438   0.114501D-05  0.554505D-04  0.000000D+00  0.000000D+00 -0.959013D-04
    439   0.000000D+00  0.000000D+00  0.968288D-05  0.000000D+00  0.000000D+00
    440   0.000000D+00  0.000000D+00  0.000000D+00  0.968288D-05  0.000000D+00
    441   0.000000D+00  0.000000D+00  0.000000D+00  0.000000D+00  0.000000D+00
    442   0.000000D+00  0.000000D+00  0.000000D+00  0.000000D+00  0.000000D+00
    443   0.000000D+00  0.000000D+00  0.000000D+00  0.000000D+00  0.000000D+00
    444   0.000000D+00  0.000000D+00  0.000000D+00  0.000000D+00  0.000000D+00
    445   0.820048D-03  0.761050D-02  0.000000D+00  0.000000D+00 -0.726567D-02
    446   0.000000D+00  0.000000D+00  0.142584D-02  0.000000D+00  0.000000D+00
    447   0.000000D+00  0.000000D+00  0.000000D+00  0.142584D-02  0.000000D+00
    448   0.000000D+00  0.000000D+00  0.000000D+00  0.000000D+00  0.000000D+00
    449   0.000000D+00  0.000000D+00  0.000000D+00  0.000000D+00  0.000000D+00
    450   0.000000D+00  0.000000D+00  0.000000D+00  0.000000D+00  0.000000D+00
    451   0.000000D+00  0.000000D+00  0.000000D+00  0.000000D+00  0.000000D+00
    452   0.116548D-01  0.751929D-01  0.000000D+00  0.000000D+00 -0.312300D-01
    453   0.000000D+00  0.000000D+00  0.145125D-01  0.000000D+00  0.000000D+00
    454   0.000000D+00  0.000000D+00  0.000000D+00  0.145125D-01  0.000000D+00
    455   0.000000D+00  0.000000D+00  0.000000D+00  0.000000D+00  0.000000D+00
    456   0.000000D+00  0.000000D+00  0.000000D+00  0.000000D+00  0.000000D+00
    457   0.000000D+00  0.000000D+00  0.000000D+00  0.000000D+00  0.000000D+00
    458   0.000000D+00  0.000000D+00  0.000000D+00  0.000000D+00  0.000000D+00
    459   0.215010D-01  0.132467D+00  0.000000D+00  0.000000D+00 -0.136602D-01
    460   0.000000D+00  0.000000D+00  0.256775D-01  0.000000D+00  0.000000D+00
    461   0.000000D+00  0.000000D+00  0.000000D+00  0.256775D-01  0.000000D+00
    462   0.000000D+00  0.000000D+00  0.000000D+00  0.000000D+00  0.000000D+00
    463   0.000000D+00  0.000000D+00  0.000000D+00  0.000000D+00  0.000000D+00
    464   0.000000D+00  0.000000D+00  0.000000D+00  0.000000D+00  0.000000D+00
    465   0.000000D+00  0.000000D+00  0.000000D+00  0.000000D+00  0.000000D+00
    466   0.000000D+00  0.000000D+00  0.000000D+00  0.000000D+00  0.000000D+00
    467   0.000000D+00  0.000000D+00  0.000000D+00  0.000000D+00  0.000000D+00
    468   0.000000D+00  0.000000D+00  0.000000D+00  0.000000D+00  0.000000D+00
    469   0.000000D+00  0.000000D+00  0.000000D+00  0.000000D+00  0.000000D+00
    470   0.000000D+00  0.000000D+00  0.000000D+00  0.000000D+00  0.000000D+00
    471   0.000000D+00  0.000000D+00  0.000000D+00  0.000000D+00  0.000000D+00
    472   0.000000D+00  0.000000D+00  0.000000D+00  0.000000D+00  0.000000D+00
    473   0.000000D+00  0.000000D+00  0.000000D+00  0.000000D+00  0.000000D+00
    474   0.000000D+00  0.000000D+00  0.000000D+00  0.000000D+00  0.000000D+00
    475   0.000000D+00  0.000000D+00  0.000000D+00  0.000000D+00  0.000000D+00
    476   0.000000D+00  0.000000D+00  0.000000D+00  0.000000D+00  0.000000D+00
    477   0.000000D+00  0.000000D+00  0.000000D+00  0.000000D+00  0.000000D+00
    478   0.000000D+00  0.000000D+00  0.000000D+00  0.000000D+00  0.000000D+00
    479   0.000000D+00  0.000000D+00  0.000000D+00  0.000000D+00  0.000000D+00
    480   0.000000D+00  0.000000D+00  0.000000D+00  0.000000D+00  0.000000D+00
    481   0.000000D+00  0.000000D+00  0.000000D+00  0.000000D+00  0.000000D+00
    482   0.000000D+00  0.000000D+00  0.000000D+00  0.000000D+00  0.000000D+00
    483   0.000000D+00  0.000000D+00  0.000000D+00  0.000000D+00  0.000000D+00
    484   0.318456D-04  0.659992D-03  0.000000D+00  0.000000D+00 -0.950553D-03
    485   0.000000D+00  0.000000D+00  0.152778D-03  0.000000D+00  0.000000D+00
    486   0.000000D+00  0.000000D+00  0.000000D+00  0.152778D-03  0.000000D+00
    487   0.000000D+00  0.000000D+00  0.000000D+00  0.000000D+00  0.000000D+00
    488   0.000000D+00  0.000000D+00  0.000000D+00  0.000000D+00  0.000000D+00
    489   0.000000D+00  0.000000D+00  0.000000D+00  0.000000D+00  0.000000D+00
    490   0.000000D+00  0.000000D+00  0.000000D+00  0.000000D+00  0.000000D+00
[...]
         |

                     Sum of ab pair energies =    -0.231172 A.U.
                     Sum of ba pair energies =    -0.079592 A.U.
                     Sum of aa pair energies =    -0.116234 A.U.
                     Sum of bb pair energies =    -0.050020 A.U.

           Sum of intraorbital pair energies =    -0.106639 A.U.
           Sum of interorbital pair energies =    -0.370379 A.U.
                                                  ----------
                         Total pair energies =    -0.477018 A.U.

                         Single Excitations  =    -0.004956 A.U.

                          Total second order =    -0.481974 A.U.

                         E2(CBS) - E2(Dir) =      -0.003530 A.U.

 E2(CBS)=      -0.483533 CBS-Int=       0.001559 OIii=       1.597238

 **********************************************************************

            Population analysis using the SCF density.

 **********************************************************************

 Orbital symmetries:
       Occupied  (SG) (SG) (SG) (PI) (PI) (SG) (SG) (SG) (PI) (PI)
                 (SG) (SG) (?A) (?A) (?B) (?B) (?B) (?A)
       Virtual   (?B) (?B) (?A) (?A) (SG) (?B) (?B) (?A) (?A) (?B)
                 (?B) (?A) (?A) (?A) (SG) (SG) (?A) (?A) (?B) (?B)
                 (?C) (?C) (?D) (?D) (?D) (?D) (?C) (?A) (?A) (?B)
                 (?B) (?A) (?B) (?A) (?E) (?E) (?E) (?A) (?A) (SG)
                 (SG) (PI) (PI) (SG) (PHI) (PHI) (?F) (?F) (?G)
                 (?G) (PI) (PI) (?G) (?H) (?H) (?H) (PHI) (PHI)
                 (PI) (PI) (?A) (?A) (?A) (?I) (?I) (?I) (?A) (DLTA)
                 (DLTA) (PI) (PI) (SG) (?F) (?F) (?J) (?J) (?K)
                 (?D) (?D) (?D) (?D) (?K) (?K) (SG) (PI) (PI) (SG)
                 (PI) (PI) (?L) (?L) (?L) (SG) (?F) (?F) (?D) (?D)
                 (?D) (?D) (?L) (?L) (?L) (SG) (?F) (?F) (PI) (PI)
                 (?L) (?L) (SG) (DLTA) (DLTA) (?L) (?L) (?L) (?L)
                 (?L) (?L) (DLTA) (DLTA) (PHI) (PHI) (SG) (?J)
                 (?J) (SG) (SG) (PI) (PI) (DLTA) (DLTA) (SG) (?F)
                 (?F) (?D) (?D) (?D) (?D) (?L) (?L) (?L) (?L) (?L)
                 (?L) (PI) (PI) (SG) (?J) (?J) (PI) (PI) (?L) (?L)
                 (?L) (?F) (?F) (PHI) (PHI) (?J) (?J) (PI) (PI)
                 (?F) (?F) (SG) (PI) (PI) (?L) (?L) (?L) (DLTA)
                 (DLTA) (PI) (PI) (SG) (PHI) (PHI) (PI) (PI) (?F)
                 (?F) (SG) (SG) (PHI) (PHI) (SG) (?L) (?L) (?J)
                 (?J) (SG) (PI) (PI) (DLTA) (DLTA) (?L) (?D) (?D)
                 (PHI) (PHI) (?L) (?L) (?D) (?F) (?F) (?D) (SG)
                 (SG) (SG) (PI) (PI) (DLTA) (DLTA) (PHI) (PHI)
                 (?F) (?F) (SG) (?L) (?L) (?L) (?J) (?J) (?D) (?D)
                 (SG) (?D) (?D) (PI) (PI) (?L) (?L) (?L) (?L) (SG)
                 (PI) (DLTA) (DLTA) (PI) (PHI) (PHI) (PI) (PI)
                 (DLTA) (DLTA) (SG) (SG) (SG) (SG) (?J) (?J) (?L)
                 (PI) (PI) (?L) (?L) (?L) (?L) (?D) (?D) (?L) (?L)
                 (?D) (?D) (?J) (?J) (?L) (?F) (?F) (PI) (PI) (PI)
                 (PI) (?J) (?J) (?F) (?F) (PHI) (PHI) (PI) (PI)
                 (?L) (?L) (?L) (?L) (PHI) (PHI) (DLTA) (DLTA)
                 (?F) (?F) (SG) (PI) (PI) (PHI) (PHI) (SG) (PI)
                 (PI) (DLTA) (DLTA) (PHI) (PHI) (PI) (PI) (SG)
                 (SG) (?L) (?L) (?L) (DLTA) (DLTA) (PHI) (PHI)
                 (?F) (?F) (?D) (?D) (?D) (?D) (SG) (PI) (?L) (?L)
                 (PI) (?L) (PI) (PI) (?L) (?L) (?L) (?L) (PHI)
                 (PHI) (?L) (?L) (PI) (PI) (?L) (?L) (?L) (?L)
                 (?J) (?J) (?L) (?L) (SG) (SG) (?J) (?J) (?F) (?F)
                 (SG) (PI) (PI) (PHI) (PHI) (SG) (DLTA) (DLTA)
                 (PI) (PI) (?L) (?L) (?L) (PI) (PI) (?J) (?J) (?F)
                 (?F) (SG) (SG) (?J) (?J) (PHI) (PHI) (?F) (?F)
                 (SG) (?D) (?D) (?L) (?L) (?D) (?D) (?L) (?L) (?L)
                 (PI) (PI) (SG) (PI) (PI) (?J) (?J) (?F) (?F) (PHI)
                 (PHI) (?F) (?F) (?L) (?L) (?L) (PHI) (PHI) (PHI)
                 (PHI) (?L) (?L) (?L) (PI) (PI) (PI) (PI) (DLTA)
                 (DLTA) (SG) (PI) (PI) (SG) (DLTA) (DLTA) (PI)
                 (PI) (PI) (PI) (SG) (SG) (?F) (?F) (PHI) (PHI)
                 (PHI) (PHI) (DLTA) (DLTA) (PI) (PI) (?L) (?L)
                 (PI) (PI) (?L) (?L) (PI) (PI) (PHI) (PHI) (?L)
                 (?L) (?L) (SG) (DLTA) (DLTA) (PI) (PI) (SG) (PI)
                 (PI) (SG) (?L) (?L) (?L) (?L) (?L) (?L) (?L) (?L)
                 (?L) (?L) (?L) (?L) (?L) (?L) (PI) (PI) (?L) (SG)
                 (SG) (?J) (?J) (?F) (?F) (PHI) (PHI) (?L) (?L)
                 (?L) (PI) (PI) (SG) (SG) (SG) (PI) (PI) (PI) (PI)
                 (?F) (?F) (?D) (?D) (?D) (?L) (?D) (?L) (?L) (?J)
                 (?J) (?F) (?F) (PHI) (PHI) (?L) (?L) (?L) (PI)
                 (PI) (DLTA) (DLTA) (PI) (PI) (PHI) (PHI) (SG)
                 (DLTA) (DLTA) (PI) (PI) (SG) (?F) (?F) (PHI) (PHI)
                 (?J) (?J) (?L) (?L) (?L) (?L) (DLTA) (DLTA) (?D)
                 (?D) (?L) (?L) (?L) (?D) (?D) (PI) (PI) (SG) (DLTA)
                 (DLTA) (?J) (?J) (?F) (?F) (PHI) (PHI) (?L) (?L)
                 (PI) (?L) (PI) (PI) (PI) (SG) (PI) (PI) (SG) (?F)
                 (?F) (PHI) (PHI) (DLTA) (DLTA) (PHI) (PHI) (PI)
                 (PI) (SG) (DLTA) (DLTA) (PI) (PI) (SG) (SG) (SG)
 Unable to determine electronic state:  an orbital has unidentified symmetry.
 Alpha  occ. eigenvalues -- -220.62651 -26.52083 -22.44886 -22.44742 -22.44034
 Alpha  occ. eigenvalues --  -20.47007  -3.64888  -2.45761  -2.42198  -2.39801
 Alpha  occ. eigenvalues --   -1.14795  -0.60707  -0.57895  -0.56656  -0.47766
 Alpha  occ. eigenvalues --   -0.41618  -0.37652  -0.31725
 Alpha virt. eigenvalues --   -0.00481   0.01381   0.01998   0.04464   0.05789
 Alpha virt. eigenvalues --    0.10658   0.12350   0.13019   0.13232   0.13987
 Alpha virt. eigenvalues --    0.14028   0.14076   0.18118   0.18348   0.19404
 Alpha virt. eigenvalues --    0.21436   0.24824   0.26491   0.31943   0.33142
 Alpha virt. eigenvalues --    0.38264   0.38267   0.38875   0.38959   0.39562
 Alpha virt. eigenvalues --    0.39562   0.40228   0.44363   0.44419   0.44839
 Alpha virt. eigenvalues --    0.44957   0.52000   0.52480   0.53252   0.55773
 Alpha virt. eigenvalues --    0.57151   0.57158   0.61063   0.61521   0.66319
 Alpha virt. eigenvalues --    0.72486   0.77007   0.77103   0.78633   0.84489
 Alpha virt. eigenvalues --    0.84489   0.85532   0.85532   0.89798   0.89799
 Alpha virt. eigenvalues --    0.92000   0.92010   0.93944   0.98904   1.02046
 Alpha virt. eigenvalues --    1.02052   1.03495   1.03496   1.07407   1.07467
 Alpha virt. eigenvalues --    1.12394   1.13149   1.13207   1.13726   1.13728
 Alpha virt. eigenvalues --    1.15212   1.15453   1.25205   1.25214   1.27408
 Alpha virt. eigenvalues --    1.27469   1.32002   1.33241   1.33241   1.33418
 Alpha virt. eigenvalues --    1.33418   1.34241   1.36779   1.37167   1.41415
 Alpha virt. eigenvalues --    1.41415   1.41515   1.41520   1.46905   1.48344
 Alpha virt. eigenvalues --    1.48364   1.52663   1.62750   1.63535   1.66122
 Alpha virt. eigenvalues --    1.66133   1.72962   1.87387   1.95497   1.95497
 Alpha virt. eigenvalues --    2.00381   2.00633   2.03790   2.03790   2.11637
 Alpha virt. eigenvalues --    2.11900   2.12279   2.20977   2.22795   2.22795
 Alpha virt. eigenvalues --    2.24288   2.24526   2.33042   2.33046   2.38194
 Alpha virt. eigenvalues --    2.39488   2.39499   2.44278   2.44605   2.44842
 Alpha virt. eigenvalues --    2.45739   2.46188   2.46201   2.47246   2.47258
 Alpha virt. eigenvalues --    2.52459   2.52459   2.56196   2.57742   2.57742
 Alpha virt. eigenvalues --    2.59284   2.59284   2.62037   2.62660   2.71482
 Alpha virt. eigenvalues --    2.71517   2.74963   2.75987   2.75987   2.84521
 Alpha virt. eigenvalues --    2.85193   2.87270   2.87285   2.87561   2.87567
 Alpha virt. eigenvalues --    2.89061   2.94346   2.96132   2.96201   3.01807
 Alpha virt. eigenvalues --    3.01890   3.10451   3.20091   3.20091   3.23551
 Alpha virt. eigenvalues --    3.25023   3.25566   3.25628   3.27814   3.29004
 Alpha virt. eigenvalues --    3.29004   3.47986   3.47986   3.51009   3.51009
 Alpha virt. eigenvalues --    3.54256   3.54429   3.82731   3.82832   3.82832
 Alpha virt. eigenvalues --    3.87580   3.88175   4.03001   4.04905   4.04929
 Alpha virt. eigenvalues --    4.10385   4.10403   4.20901   4.21074   4.25788
 Alpha virt. eigenvalues --    4.32066   4.32066   4.47243   4.47668   4.50484
 Alpha virt. eigenvalues --    4.50484   4.67969   4.67969   4.70455   4.70776
 Alpha virt. eigenvalues --    4.70776   4.75471   4.75471   4.77661   4.77661
 Alpha virt. eigenvalues --    4.77826   4.82827   4.83002   4.85027   4.85034
 Alpha virt. eigenvalues --    4.98381   4.98384   5.00441   5.06514   5.06514
 Alpha virt. eigenvalues --    5.08210   5.08223   5.08574   5.08663   5.08663
 Alpha virt. eigenvalues --    5.09884   5.15961   5.15961   5.19894   5.22203
 Alpha virt. eigenvalues --    5.22984   5.30265   5.30269   5.32657   5.32657
 Alpha virt. eigenvalues --    5.35096   5.35096   5.54272   5.56455   5.56482
 Alpha virt. eigenvalues --    5.60597   5.65103   5.65103   5.65644   5.66061
 Alpha virt. eigenvalues --    5.66357   5.66986   5.67010   5.83531   5.83584
 Alpha virt. eigenvalues --    5.91180   5.91187   5.92915   5.92915   5.99592
 Alpha virt. eigenvalues --    6.25485   6.25981   6.26016   6.26035   6.31973
 Alpha virt. eigenvalues --    6.31973   6.46120   6.46125   6.49836   6.49872
 Alpha virt. eigenvalues --    6.69076   6.87348   6.93138   6.93138   6.94216
 Alpha virt. eigenvalues --    6.94216   7.07947   7.13502   7.13514   7.20141
 Alpha virt. eigenvalues --    7.20167   7.27426   7.27426   7.56492   7.56493
 Alpha virt. eigenvalues --    7.57729   7.57744   7.62115   7.62383   7.67466
 Alpha virt. eigenvalues --    7.67466   7.67785   7.91977   7.91977   8.06862
 Alpha virt. eigenvalues --    8.07440   8.32765   8.33384   8.38487   8.38487
 Alpha virt. eigenvalues --    8.55377   8.55377   8.66603   8.66603   8.71554
 Alpha virt. eigenvalues --    8.72630   8.76951   8.93967   8.94120   8.95569
 Alpha virt. eigenvalues --    8.99110   8.99110   9.35859   9.35876   9.60924
 Alpha virt. eigenvalues --    9.61082   9.61082   9.91897   9.93182   9.99197
 Alpha virt. eigenvalues --    9.99198  10.10953  10.16704  10.17969  10.20818
 Alpha virt. eigenvalues --   10.20818  10.21380  10.21380  10.49957  10.51117
 Alpha virt. eigenvalues --   10.56508  10.68133  10.82647  10.84663  10.84689
 Alpha virt. eigenvalues --   11.10490  11.10496  11.17810  11.17810  11.22821
 Alpha virt. eigenvalues --   11.22821  11.42221  11.42230  11.43310  11.44046
 Alpha virt. eigenvalues --   11.53970  11.76753  11.76772  11.78927  11.79590
 Alpha virt. eigenvalues --   11.85863  12.30498  12.30589  12.39644  12.39653
 Alpha virt. eigenvalues --   12.46757  13.06751  13.11722  13.11722  13.16176
 Alpha virt. eigenvalues --   13.16192  13.23080  13.23754  13.34841  13.34841
 Alpha virt. eigenvalues --   13.37831  13.37831  13.40508  13.40508  13.56817
 Alpha virt. eigenvalues --   13.56817  13.58654  13.58654  13.70838  13.70838
 Alpha virt. eigenvalues --   13.99257  13.99257  14.07564  14.15305  14.16727
 Alpha virt. eigenvalues --   14.53440  14.53440  15.01997  15.42143  15.42173
 Alpha virt. eigenvalues --   15.56464  15.57661  15.67957  15.67977  15.88985
 Alpha virt. eigenvalues --   16.23641  16.24235  17.15628  17.15628  17.22278
 Alpha virt. eigenvalues --   17.22278  17.26372  17.26372  17.28840  17.28840
 Alpha virt. eigenvalues --   17.43116  17.43116  17.44510  17.44510  17.46499
 Alpha virt. eigenvalues --   17.69191  17.70690  17.82106  17.82174  17.88253
 Alpha virt. eigenvalues --   17.88254  17.91245  18.11803  18.11833  18.32350
 Alpha virt. eigenvalues --   18.33751  18.74246  18.96026  18.97387  19.56888
 Alpha virt. eigenvalues --   19.56888  19.62906  19.62906  19.83551  19.83551
 Alpha virt. eigenvalues --   19.95461  19.95461  20.04159  20.09214  20.09414
 Alpha virt. eigenvalues --   20.14609  20.14609  20.35611  20.35611  20.42545
 Alpha virt. eigenvalues --   20.42579  20.46154  20.47448  20.48881  20.94958
 Alpha virt. eigenvalues --   20.96288  20.97129  20.97130  21.25870  22.21908
 Alpha virt. eigenvalues --   22.23080  22.25332  22.36839  22.36841  23.17208
 Alpha virt. eigenvalues --   23.18185  23.33865  23.36133  23.53903  24.31183
 Alpha virt. eigenvalues --   24.95354  24.95354  25.01606  25.01606  25.07969
 Alpha virt. eigenvalues --   25.07969  25.20444  25.20445  25.38408  25.38408
 Alpha virt. eigenvalues --   25.38755  25.38755  25.39857  25.39857  25.42140
 Alpha virt. eigenvalues --   25.42140  25.43636  25.44736  25.62043  25.62043
 Alpha virt. eigenvalues --   25.63673  25.63678  25.72403  25.89900  26.27727
 Alpha virt. eigenvalues --   26.27741  26.34501  26.35684  27.16227  27.17781
 Alpha virt. eigenvalues --   27.19287  28.12072  28.64231  28.64231  28.64421
 Alpha virt. eigenvalues --   28.64421  28.65133  28.65133  28.65340  28.65341
 Alpha virt. eigenvalues --   28.66052  28.66052  28.72124  28.72126  28.95520
 Alpha virt. eigenvalues --   28.95621  29.23399  29.26073  29.29982  34.01366
 Alpha virt. eigenvalues --   34.01366  34.05260  34.05260  34.11320  34.11320
 Alpha virt. eigenvalues --   34.21144  34.21144  34.52551  34.52586  34.65479
 Alpha virt. eigenvalues --   34.80961  34.82137  35.15467  37.30931  37.30931
 Alpha virt. eigenvalues --   37.31774  37.31774  37.32098  37.32098  37.35261
 Alpha virt. eigenvalues --   37.35261  37.42084  37.42090  37.68086  37.70386
 Alpha virt. eigenvalues --   37.70969  37.71371  37.75236  38.99443  38.99443
 Alpha virt. eigenvalues --   39.06940  39.06940  39.22398  39.22398  39.46519
 Alpha virt. eigenvalues --   39.46585  39.54893  39.60246  39.61436  39.91664
 Alpha virt. eigenvalues --   39.91670  40.50402  40.51474  41.69498  41.69498
 Alpha virt. eigenvalues --   41.88113  42.09974  42.09975  42.50209  42.51246
 Alpha virt. eigenvalues --   42.76355  42.86627  42.86627  43.00569  43.00569
 Alpha virt. eigenvalues --   43.13289  43.13289  43.14359  43.14359  43.17192
 Alpha virt. eigenvalues --   43.17192  43.33270  43.33277  43.37487  43.37498
 Alpha virt. eigenvalues --   43.40167  43.46696  43.47060  43.53719  43.56509
 Alpha virt. eigenvalues --   44.01143  44.02311  44.18445  46.86243  46.86247
 Alpha virt. eigenvalues --   46.93644  46.93644  46.96189  46.96189  47.11159
 Alpha virt. eigenvalues --   47.11160  47.20764  47.24123  47.24536  47.25889
 Alpha virt. eigenvalues --   47.26930  47.88265  47.90488  48.70263  52.96002
 Alpha virt. eigenvalues --   52.96823  55.39542  58.08903  58.08903  58.15816
 Alpha virt. eigenvalues --   58.15817  58.43118  58.43140  58.87075  58.87075
 Alpha virt. eigenvalues --   59.10797  59.12697  59.24735  59.32905  59.32911
 Alpha virt. eigenvalues --   59.65409  59.66957  60.53498 108.49825 595.79843
          Condensed to atoms (all electrons):
              1          2
     1  Cr  23.263503  -0.021020
     2  O   -0.021020   8.778536
 Mulliken atomic charges:
              1
     1  Cr   0.757516
     2  O   -0.757516
 Sum of Mulliken atomic charges =   0.00000
 Mulliken charges with hydrogens summed into heavy atoms:
              1
     1  Cr   0.757516
     2  O   -0.757516
 Sum of Mulliken charges with hydrogens summed into heavy atoms =   0.00000
          Atomic-Atomic Spin Densities.
              1          2
     1  Cr   4.471986  -0.379699
     2  O   -0.379699   0.287411
 Mulliken atomic spin densities:
              1
     1  Cr   4.092288
     2  O   -0.092288
 Sum of Mulliken atomic spin densities =   4.00000
 Electronic spatial extent (au):  <R**2>=            104.2906
 Charge=              0.0000 electrons
 Dipole moment (field-independent basis, Debye):
    X=              0.0000    Y=              0.0000    Z=              6.7877  Tot=              6.7877
 Quadrupole moment (field-independent basis, Debye-Ang):
   XX=            -20.8732   YY=            -19.7807   ZZ=            -23.8939
   XY=              0.0000   XZ=              0.0000   YZ=              0.0000
 Traceless Quadrupole moment (field-independent basis, Debye-Ang):
   XX=              0.6427   YY=              1.7352   ZZ=             -2.3780
   XY=              0.0000   XZ=              0.0000   YZ=              0.0000
 Octapole moment (field-independent basis, Debye-Ang**2):
  XXX=              0.0000  YYY=              0.0000  ZZZ=             15.3113  XYY=              0.0000
  XXY=              0.0000  XXZ=              2.4345  XZZ=              0.0000  YZZ=              0.0000
  YYZ=              3.0764  XYZ=              0.0000
 Hexadecapole moment (field-independent basis, Debye-Ang**3):
 XXXX=            -28.6507 YYYY=            -25.7647 ZZZZ=           -102.0402 XXXY=              0.0000
 XXXZ=              0.0000 YYYX=              0.0000 YYYZ=              0.0000 ZZZX=              0.0000
 ZZZY=              0.0000 XXYY=             -9.0674 XXZZ=            -22.2988 YYZZ=            -20.6275
 XXYZ=              0.0000 YYXZ=              0.0000 ZZXY=              0.0000
 N-N= 6.267860829690D+01 E-N=-4.123173444000D+03  KE= 1.667634239614D+03
                          Isotropic Fermi Contact Couplings
        Atom                 a.u.       MegaHertz       Gauss      10(-4) cm-1
     1  Cr(53)             2.29110    -145.00577     -51.74166     -48.36872
     2  O(17)              0.00408      -0.61901      -0.22088      -0.20648
 --------------------------------------------------------
       Center         ----  Spin Dipole Couplings  ----
                      3XX-RR        3YY-RR        3ZZ-RR
 --------------------------------------------------------
     1   Atom        2.421341     -0.093710     -2.327631
     2   Atom        0.098695     -0.212240      0.113546
 --------------------------------------------------------
                        XY            XZ            YZ
 --------------------------------------------------------
     1   Atom        0.000000      0.000000      0.000000
     2   Atom        0.000000      0.000000      0.000000
 --------------------------------------------------------


 ---------------------------------------------------------------------------------
              Anisotropic Spin Dipole Couplings in Principal Axis System
 ---------------------------------------------------------------------------------

       Atom             a.u.   MegaHertz   Gauss  10(-4) cm-1        Axes

              Baa    -2.3276    70.339    25.099    23.463  0.0000  0.0000  1.0000
     1 Cr(53) Bbb    -0.0937     2.832     1.010     0.945  0.0000  1.0000  0.0000
              Bcc     2.4213   -73.171   -26.109   -24.407  1.0000  0.0000  0.0000
 
              Baa    -0.2122    15.358     5.480     5.123  0.0000  1.0000  0.0000
     2 O(17)  Bbb     0.0987    -7.141    -2.548    -2.382  1.0000  0.0000  0.0000
              Bcc     0.1135    -8.216    -2.932    -2.741  0.0000  0.0000  1.0000
 

 ---------------------------------------------------------------------------------


 Test job not archived.
 1\1\GINC-N37\SP\ROMP2-FC\Gen\Cr1O1(5)\ROOT\12-Nov-2013\0\\# ROMP2 Gen 
 GFinput Int=NoBasisTransform Int(Grid=Ultrafine) IOp(3/32=2,5/6=10,8/1
 1=1,9/33=1) Maxdisk=128GB CBSextrapolate(Nmin=25,MinPop) SCF=Symm Gues
 s=Read\\CrO 5Pi\\0,5\Cr\O,1,1.621\\Version=EM64L-G09RevA.02\HF=-1118.1
 377999\MP2=-1118.617803\E2(CBS)=-0.4835333\CBS-Int=-0.4819745\OIii=1.5
 972384\RMSD=3.254e-11\PG=C*V [C*(O1Cr1)]\\@


 ALMOST ANYTHING IS EASIER TO GET INTO THAN OUT OF.

                         -- AGNES ALLEN'S LAW FROM
                PAUL DICKSON'S "THE OFFICIAL RULES"
 Job cpu time: 10 days  2 hours 53 minutes 20.5 seconds.
 File lengths (MBytes):  RWF=  59903 Int=      0 D2E=      0 Chk=     30 Scr=      1
 Normal termination of Gaussian 09 at Tue Nov 12 11:36:45 2013.
