 Entering Gaussian System, Link 0=g09
 AtFile(1): 5ZaPa-NR.gbs
 Initial command:
 /share/apps/gaussian/g09root/g09/l1.exe /localscratch/825627/Gau-30087.inp -scrdir=/localscratch/825627/
 Entering Link 1 = /share/apps/gaussian/g09root/g09/l1.exe PID=     30088.
  
 Copyright (c) 1988,1990,1992,1993,1995,1998,2003,2009, Gaussian, Inc.
                  All Rights Reserved.
  
 This is part of the Gaussian(R) 09 program.  It is based on
 the Gaussian(R) 03 system (copyright 2003, Gaussian, Inc.),
 the Gaussian(R) 98 system (copyright 1998, Gaussian, Inc.),
 the Gaussian(R) 94 system (copyright 1995, Gaussian, Inc.),
 the Gaussian 92(TM) system (copyright 1992, Gaussian, Inc.),
 the Gaussian 90(TM) system (copyright 1990, Gaussian, Inc.),
 the Gaussian 88(TM) system (copyright 1988, Gaussian, Inc.),
 the Gaussian 86(TM) system (copyright 1986, Carnegie Mellon
 University), and the Gaussian 82(TM) system (copyright 1983,
 Carnegie Mellon University). Gaussian is a federally registered
 trademark of Gaussian, Inc.
  
 This software contains proprietary and confidential information,
 including trade secrets, belonging to Gaussian, Inc.
  
 This software is provided under written license and may be
 used, copied, transmitted, or stored only in accord with that
 written license.
  
 The following legend is applicable only to US Government
 contracts under FAR:
  
                    RESTRICTED RIGHTS LEGEND
  
 Use, reproduction and disclosure by the US Government is
 subject to restrictions as set forth in subparagraphs (a)
 and (c) of the Commercial Computer Software - Restricted
 Rights clause in FAR 52.227-19.
  
 Gaussian, Inc.
 340 Quinnipiac St., Bldg. 40, Wallingford CT 06492
  
  
 ---------------------------------------------------------------
 Warning -- This program may not be used in any manner that
 competes with the business of Gaussian, Inc. or will provide
 assistance to any competitor of Gaussian, Inc.  The licensee
 of this program is prohibited from giving any competitor of
 Gaussian, Inc. access to this program.  By using this program,
 the user acknowledges that Gaussian, Inc. is engaged in the
 business of creating and licensing software in the field of
 computational chemistry and represents and warrants to the
 licensee that it is not a competitor of Gaussian, Inc. and that
 it will not use this program in any manner prohibited above.
 ---------------------------------------------------------------
  

 Cite this work as:
 Gaussian 09, Revision A.02,
 M. J. Frisch, G. W. Trucks, H. B. Schlegel, G. E. Scuseria, 
 M. A. Robb, J. R. Cheeseman, G. Scalmani, V. Barone, B. Mennucci, 
 G. A. Petersson, H. Nakatsuji, M. Caricato, X. Li, H. P. Hratchian, 
 A. F. Izmaylov, J. Bloino, G. Zheng, J. L. Sonnenberg, M. Hada, 
 M. Ehara, K. Toyota, R. Fukuda, J. Hasegawa, M. Ishida, T. Nakajima, 
 Y. Honda, O. Kitao, H. Nakai, T. Vreven, J. A. Montgomery, Jr., 
 J. E. Peralta, F. Ogliaro, M. Bearpark, J. J. Heyd, E. Brothers, 
 K. N. Kudin, V. N. Staroverov, R. Kobayashi, J. Normand, 
 K. Raghavachari, A. Rendell, J. C. Burant, S. S. Iyengar, J. Tomasi, 
 M. Cossi, N. Rega, J. M. Millam, M. Klene, J. E. Knox, J. B. Cross, 
 V. Bakken, C. Adamo, J. Jaramillo, R. Gomperts, R. E. Stratmann, 
 O. Yazyev, A. J. Austin, R. Cammi, C. Pomelli, J. W. Ochterski, 
 R. L. Martin, K. Morokuma, V. G. Zakrzewski, G. A. Voth, 
 P. Salvador, J. J. Dannenberg, S. Dapprich, A. D. Daniels, 
 O. Farkas, J. B. Foresman, J. V. Ortiz, J. Cioslowski, 
 and D. J. Fox, Gaussian, Inc., Wallingford CT, 2009.
 
 ******************************************
 Gaussian 09:  EM64L-G09RevA.02 11-Jun-2009
                 3-Mar-2013 
 ******************************************
 % Mem=6GB
 % Nproc=8
 Will use up to    8 processors via shared memory.
 ----------------------------------------------------------------------
 # ROMP2(RW) Gen GFinput Int=NoBasisTransform Int(Grid=Ultrafine) IOp(3
 /32=2,5/6=10,8/11=1,9/33=1) Maxdisk=128GB CBSextrapolate(Nmin=15,MinPo
 p)
 ----------------------------------------------------------------------
 1/38=1/1;
 2/12=2,17=6,18=5,40=1/2;
 3/5=7,11=2,16=1,24=10,25=1,30=1,32=2,60=-1,75=-5,116=101/1,2,3;
 4//1;
 5/5=2,6=10,38=5/2;
 8/5=-1,10=91,11=1/1;
 9/16=-3,33=1,75=2,81=15,83=4/6,4;
 6/7=2,8=2,9=2,10=2/1;
 99/5=1,9=1/99;
 ---
 Cu2
 ---
 Symbolic Z-matrix:
 Charge =  0 Multiplicity = 1
 Cu
 Cu                   1     2.2197 
 
                          Input orientation:                          
 ---------------------------------------------------------------------
 Center     Atomic      Atomic             Coordinates (Angstroms)
 Number     Number       Type             X           Y           Z
 ---------------------------------------------------------------------
      1         29           0        0.000000    0.000000    0.000000
      2         29           0        0.000000    0.000000    2.219700
 ---------------------------------------------------------------------
 Stoichiometry    Cu2
 Framework group  D*H[C*(Cu.Cu)]
 Deg. of freedom     1
 Full point group                 D*H     NOp   8
 Largest Abelian subgroup         D2H     NOp   8
 Largest concise Abelian subgroup C2      NOp   2
                         Standard orientation:                         
 ---------------------------------------------------------------------
 Center     Atomic      Atomic             Coordinates (Angstroms)
 Number     Number       Type             X           Y           Z
 ---------------------------------------------------------------------
      1         29           0        0.000000    0.000000    1.109850
      2         29           0        0.000000    0.000000   -1.109850
 ---------------------------------------------------------------------
 Rotational constants (GHZ):      0.0000000      3.2598954      3.2598954
 General basis read from cards:  (5D, 7F)
 AO basis set in the form of general basis input (Overlap normalization):
      1 0
 S  14 1.00       0.000000000000
      0.8402368130D+07  0.4495451541D-05
      0.1499175380D+07  0.2993150523D-04
      0.3361771310D+06  0.1716430009D-03
      0.9082944750D+05  0.7719337365D-03
      0.2851646180D+05  0.2913908729D-02
      0.1008788440D+05  0.9513900729D-02
      0.3918229760D+04  0.2751083748D-01
      0.1635336590D+04  0.7063461106D-01
      0.7205327280D+03  0.1571324578D+00
      0.3303380560D+03  0.2819689805D+00
      0.1557562660D+03  0.3473354915D+00
      0.7481699500D+02  0.2125638237D+00
      0.3632772200D+02  0.3740805331D-01
      0.1771216400D+02  0.1611668977D-02
 S  13 1.00       0.000000000000
      0.2851646180D+05 -0.2534520257D-05
      0.1008788440D+05 -0.2350961456D-04
      0.3918229760D+04 -0.1924580869D-03
      0.1635336590D+04 -0.1187310070D-02
      0.7205327280D+03 -0.6204186736D-02
      0.3303380560D+03 -0.2542947587D-01
      0.1557562660D+03 -0.7374476523D-01
      0.7481699500D+02 -0.9049529883D-01
      0.3632772200D+02  0.1328329583D+00
      0.1771216400D+02  0.5374741540D+00
      0.8619410000D+01  0.4088786350D+00
      0.4161641000D+01  0.5763100607D-01
      0.1980803000D+01  0.4869027456D-02
 P  14 1.00       0.000000000000
      0.3381028780D+05  0.1936608565D-04
      0.8292051090D+04  0.1716012589D-03
      0.2628568950D+04  0.1055268258D-02
      0.9948254180D+03  0.4760088149D-02
      0.4240651370D+03  0.1724353175D-01
      0.1954596450D+03  0.5198162427D-01
      0.9482522800D+02  0.1295338919D+00
      0.4761999800D+02  0.2492308529D+00
      0.2450717200D+02  0.3433368640D+00
      0.1283478400D+02  0.2783658477D+00
      0.6788476000D+01  0.1003249288D+00
      0.3583564000D+01  0.1289157176D-01
      0.1851366000D+01  0.6235121598D-03
      0.9074300000D+00  0.1107974373D-04
 S  10 1.00       0.000000000000
      0.1557562660D+03  0.1206357601D-02
      0.7481699500D+02  0.2602891789D-02
      0.3632772200D+02 -0.4187811245D-02
      0.1771216400D+02 -0.1165754180D+00
      0.8619410000D+01 -0.2121738687D+00
      0.4161641000D+01  0.2136924384D+00
      0.1980803000D+01  0.6282563289D+00
      0.9225340000D+00  0.3566921078D+00
      0.4166750000D+00  0.2590726741D-01
      0.1805080000D+00  0.2580769947D-02
 P  12 1.00       0.000000000000
      0.9948254180D+03 -0.7979310181D-05
      0.4240651370D+03 -0.8474553395D-04
      0.1954596450D+03 -0.5906342945D-03
      0.9482522800D+02 -0.3024507687D-02
      0.4761999800D+02 -0.9766806547D-02
      0.2450717200D+02 -0.2143461859D-01
      0.1283478400D+02 -0.3915214381D-02
      0.6788476000D+01  0.1365104616D+00
      0.3583564000D+01  0.3294932668D+00
      0.1851366000D+01  0.3946671365D+00
      0.9074300000D+00  0.2338368359D+00
      0.4029500000D+00  0.3840759902D-01
 D  12 1.00       0.000000000000
      0.8878567430D+03  0.8180571260D-04
      0.2725098280D+03  0.7941531731D-03
      0.1045657370D+03  0.4782232775D-02
      0.4626767400D+02  0.1885761118D-01
      0.2226577600D+02  0.5401471734D-01
      0.1119206400D+02  0.1248964939D+00
      0.5722106000D+01  0.2172944458D+00
      0.2925693000D+01  0.2785700897D+00
      0.1478926000D+01  0.2810504827D+00
      0.7315810000D+00  0.2258419628D+00
      0.3494920000D+00  0.1256545229D+00
      0.1579830000D+00  0.2934524637D-01
 D   1 1.00       0.000000000000
      0.4653323174D-01  0.1000000000D+01
 F   1 1.00       0.000000000000
      0.1072579568D+00  0.1000000000D+01
 G   1 1.00       0.000000000000
      0.1539822902D+00  0.1000000000D+01
 S   8 1.00       0.000000000000
      0.1771216400D+02  0.1212391372D-02
      0.8619410000D+01  0.2822289199D-02
      0.4161641000D+01 -0.6981486427D-02
      0.1980803000D+01 -0.5266192959D-01
      0.9225340000D+00 -0.1417012435D+00
      0.4166750000D+00 -0.5936074976D-01
      0.1805080000D+00  0.6168389260D+00
      0.7398800000D-01  0.5427903735D+00
 S   1 1.00       0.000000000000
      0.1617240521D-01  0.1000000000D+01
 P   8 1.00       0.000000000000
      0.2450717200D+02  0.6885358750D-02
      0.1283478400D+02 -0.9751178383D-02
      0.6788476000D+01 -0.1366510809D-01
      0.3583564000D+01 -0.1121818533D+00
      0.1851366000D+01 -0.4260596234D-01
      0.9074300000D+00 -0.1507594076D+00
      0.4029500000D+00  0.3686100466D+00
      0.1155799270D+00  0.8010514133D+00
 P   1 1.00       0.000000000000
      0.3202091161D-01  0.1000000000D+01
 S   1 1.00       0.000000000000
      0.1157157000D+01  0.1000000000D+01
 S   1 1.00       0.000000000000
      0.5218530000D+00  0.1000000000D+01
 S   1 1.00       0.000000000000
      0.2353450000D+00  0.1000000000D+01
 S   1 1.00       0.000000000000
      0.1061360000D+00  0.1000000000D+01
 P   1 1.00       0.000000000000
      0.2902609000D+01  0.1000000000D+01
 P   1 1.00       0.000000000000
      0.1353228000D+01  0.1000000000D+01
 P   1 1.00       0.000000000000
      0.6308890000D+00  0.1000000000D+01
 P   1 1.00       0.000000000000
      0.2941270000D+00  0.1000000000D+01
 D   1 1.00       0.000000000000
      0.2923029000D+01  0.1000000000D+01
 D   1 1.00       0.000000000000
      0.1067912000D+01  0.1000000000D+01
 D   1 1.00       0.000000000000
      0.3901550000D+00  0.1000000000D+01
 D   1 1.00       0.000000000000
      0.1425410000D+00  0.1000000000D+01
 F   1 1.00       0.000000000000
      0.1059210900D+02  0.1000000000D+01
 F   1 1.00       0.000000000000
      0.3723445000D+01  0.1000000000D+01
 F   1 1.00       0.000000000000
      0.1308903000D+01  0.1000000000D+01
 F   1 1.00       0.000000000000
      0.4601190000D+00  0.1000000000D+01
 G   1 1.00       0.000000000000
      0.8171741000D+01  0.1000000000D+01
 G   1 1.00       0.000000000000
      0.2756585000D+01  0.1000000000D+01
 G   1 1.00       0.000000000000
      0.9298830000D+00  0.1000000000D+01
 H   1 1.00       0.000000000000
      0.6310269000D+01  0.1000000000D+01
 H   1 1.00       0.000000000000
      0.1956322000D+01  0.1000000000D+01
 I   1 1.00       0.000000000000
      0.4640283740D+01  0.1000000000D+01
 ****
      2 0
 S  14 1.00       0.000000000000
      0.8402368130D+07  0.4495451541D-05
      0.1499175380D+07  0.2993150523D-04
      0.3361771310D+06  0.1716430009D-03
      0.9082944750D+05  0.7719337365D-03
      0.2851646180D+05  0.2913908729D-02
      0.1008788440D+05  0.9513900729D-02
      0.3918229760D+04  0.2751083748D-01
      0.1635336590D+04  0.7063461106D-01
      0.7205327280D+03  0.1571324578D+00
      0.3303380560D+03  0.2819689805D+00
      0.1557562660D+03  0.3473354915D+00
      0.7481699500D+02  0.2125638237D+00
      0.3632772200D+02  0.3740805331D-01
      0.1771216400D+02  0.1611668977D-02
 S  13 1.00       0.000000000000
      0.2851646180D+05 -0.2534520257D-05
      0.1008788440D+05 -0.2350961456D-04
      0.3918229760D+04 -0.1924580869D-03
      0.1635336590D+04 -0.1187310070D-02
      0.7205327280D+03 -0.6204186736D-02
      0.3303380560D+03 -0.2542947587D-01
      0.1557562660D+03 -0.7374476523D-01
      0.7481699500D+02 -0.9049529883D-01
      0.3632772200D+02  0.1328329583D+00
      0.1771216400D+02  0.5374741540D+00
      0.8619410000D+01  0.4088786350D+00
      0.4161641000D+01  0.5763100607D-01
      0.1980803000D+01  0.4869027456D-02
 P  14 1.00       0.000000000000
      0.3381028780D+05  0.1936608565D-04
      0.8292051090D+04  0.1716012589D-03
      0.2628568950D+04  0.1055268258D-02
      0.9948254180D+03  0.4760088149D-02
      0.4240651370D+03  0.1724353175D-01
      0.1954596450D+03  0.5198162427D-01
      0.9482522800D+02  0.1295338919D+00
      0.4761999800D+02  0.2492308529D+00
      0.2450717200D+02  0.3433368640D+00
      0.1283478400D+02  0.2783658477D+00
      0.6788476000D+01  0.1003249288D+00
      0.3583564000D+01  0.1289157176D-01
      0.1851366000D+01  0.6235121598D-03
      0.9074300000D+00  0.1107974373D-04
 S  10 1.00       0.000000000000
      0.1557562660D+03  0.1206357601D-02
      0.7481699500D+02  0.2602891789D-02
      0.3632772200D+02 -0.4187811245D-02
      0.1771216400D+02 -0.1165754180D+00
      0.8619410000D+01 -0.2121738687D+00
      0.4161641000D+01  0.2136924384D+00
      0.1980803000D+01  0.6282563289D+00
      0.9225340000D+00  0.3566921078D+00
      0.4166750000D+00  0.2590726741D-01
      0.1805080000D+00  0.2580769947D-02
 P  12 1.00       0.000000000000
      0.9948254180D+03 -0.7979310181D-05
      0.4240651370D+03 -0.8474553395D-04
      0.1954596450D+03 -0.5906342945D-03
      0.9482522800D+02 -0.3024507687D-02
      0.4761999800D+02 -0.9766806547D-02
      0.2450717200D+02 -0.2143461859D-01
      0.1283478400D+02 -0.3915214381D-02
      0.6788476000D+01  0.1365104616D+00
      0.3583564000D+01  0.3294932668D+00
      0.1851366000D+01  0.3946671365D+00
      0.9074300000D+00  0.2338368359D+00
      0.4029500000D+00  0.3840759902D-01
 D  12 1.00       0.000000000000
      0.8878567430D+03  0.8180571260D-04
      0.2725098280D+03  0.7941531731D-03
      0.1045657370D+03  0.4782232775D-02
      0.4626767400D+02  0.1885761118D-01
      0.2226577600D+02  0.5401471734D-01
      0.1119206400D+02  0.1248964939D+00
      0.5722106000D+01  0.2172944458D+00
      0.2925693000D+01  0.2785700897D+00
      0.1478926000D+01  0.2810504827D+00
      0.7315810000D+00  0.2258419628D+00
      0.3494920000D+00  0.1256545229D+00
      0.1579830000D+00  0.2934524637D-01
 D   1 1.00       0.000000000000
      0.4653323174D-01  0.1000000000D+01
 F   1 1.00       0.000000000000
      0.1072579568D+00  0.1000000000D+01
 G   1 1.00       0.000000000000
      0.1539822902D+00  0.1000000000D+01
 S   8 1.00       0.000000000000
      0.1771216400D+02  0.1212391372D-02
      0.8619410000D+01  0.2822289199D-02
      0.4161641000D+01 -0.6981486427D-02
      0.1980803000D+01 -0.5266192959D-01
      0.9225340000D+00 -0.1417012435D+00
      0.4166750000D+00 -0.5936074976D-01
      0.1805080000D+00  0.6168389260D+00
      0.7398800000D-01  0.5427903735D+00
 S   1 1.00       0.000000000000
      0.1617240521D-01  0.1000000000D+01
 P   8 1.00       0.000000000000
      0.2450717200D+02  0.6885358750D-02
      0.1283478400D+02 -0.9751178383D-02
      0.6788476000D+01 -0.1366510809D-01
      0.3583564000D+01 -0.1121818533D+00
      0.1851366000D+01 -0.4260596234D-01
      0.9074300000D+00 -0.1507594076D+00
      0.4029500000D+00  0.3686100466D+00
      0.1155799270D+00  0.8010514133D+00
 P   1 1.00       0.000000000000
      0.3202091161D-01  0.1000000000D+01
 S   1 1.00       0.000000000000
      0.1157157000D+01  0.1000000000D+01
 S   1 1.00       0.000000000000
      0.5218530000D+00  0.1000000000D+01
 S   1 1.00       0.000000000000
      0.2353450000D+00  0.1000000000D+01
 S   1 1.00       0.000000000000
      0.1061360000D+00  0.1000000000D+01
 P   1 1.00       0.000000000000
      0.2902609000D+01  0.1000000000D+01
 P   1 1.00       0.000000000000
      0.1353228000D+01  0.1000000000D+01
 P   1 1.00       0.000000000000
      0.6308890000D+00  0.1000000000D+01
 P   1 1.00       0.000000000000
      0.2941270000D+00  0.1000000000D+01
 D   1 1.00       0.000000000000
      0.2923029000D+01  0.1000000000D+01
 D   1 1.00       0.000000000000
      0.1067912000D+01  0.1000000000D+01
 D   1 1.00       0.000000000000
      0.3901550000D+00  0.1000000000D+01
 D   1 1.00       0.000000000000
      0.1425410000D+00  0.1000000000D+01
 F   1 1.00       0.000000000000
      0.1059210900D+02  0.1000000000D+01
 F   1 1.00       0.000000000000
      0.3723445000D+01  0.1000000000D+01
 F   1 1.00       0.000000000000
      0.1308903000D+01  0.1000000000D+01
 F   1 1.00       0.000000000000
      0.4601190000D+00  0.1000000000D+01
 G   1 1.00       0.000000000000
      0.8171741000D+01  0.1000000000D+01
 G   1 1.00       0.000000000000
      0.2756585000D+01  0.1000000000D+01
 G   1 1.00       0.000000000000
      0.9298830000D+00  0.1000000000D+01
 H   1 1.00       0.000000000000
      0.6310269000D+01  0.1000000000D+01
 H   1 1.00       0.000000000000
      0.1956322000D+01  0.1000000000D+01
 I   1 1.00       0.000000000000
      0.4640283740D+01  0.1000000000D+01
 ****

 There are    61 symmetry adapted basis functions of AG  symmetry.
 There are    26 symmetry adapted basis functions of B1G symmetry.
 There are    41 symmetry adapted basis functions of B2G symmetry.
 There are    41 symmetry adapted basis functions of B3G symmetry.
 There are    26 symmetry adapted basis functions of AU  symmetry.
 There are    61 symmetry adapted basis functions of B1U symmetry.
 There are    41 symmetry adapted basis functions of B2U symmetry.
 There are    41 symmetry adapted basis functions of B3U symmetry.
 Integral buffers will be    131072 words long.
 Raffenetti 2 integral format.
 Two-electron integral symmetry is turned on.
   338 basis functions,   898 primitive gaussians,   498 cartesian basis functions
    29 alpha electrons       29 beta electrons
       nuclear repulsion energy       200.4946760482 Hartrees.
 NAtoms=    2 NActive=    2 NUniq=    1 SFac= 3.00D+00 NAtFMM=   80 NAOKFM=F Big=F
 One-electron integrals computed using PRISM.
 NBasis=   338 RedAO= F  NBF=    61    26    41    41    26    61    41    41
 NBsUse=   338 1.00D-04 NBFU=    61    26    41    41    26    61    41    41
 Harris functional with IExCor=  205 diagonalized for initial guess.
 ExpMin= 1.62D-02 ExpMax= 8.40D+06 ExpMxC= 3.92D+03 IAcc=3 IRadAn=         5 AccDes= 0.00D+00
 HarFok:  IExCor=  205 AccDes= 0.00D+00 IRadAn=         5 IDoV= 1
 ScaDFX=  1.000000  1.000000  1.000000  1.000000
 FoFCou: FMM=F IPFlag=           0 FMFlag=      100000 FMFlg1=           0
         NFxFlg=           0 DoJE=T BraDBF=F KetDBF=T FulRan=T
         Omega=  0.000000  0.000000  1.000000  0.000000  0.000000 ICntrl=     500 IOpCl=  0
         NMat0=    1 NMatS0=    1 NMatT0=    0 NMatD0=    1 NMtDS0=    0 NMtDT0=    0
         I1Cent=           4 NGrid=           0.
 Petite list used in FoFCou.
 Initial guess orbital symmetries:
       Occupied  (SGU) (SGG) (SGU) (SGG) (SGU) (SGG) (PIU) (PIU)
                 (PIG) (PIG) (SGG) (SGU) (SGG) (SGU) (PIU) (PIU)
                 (PIG) (PIG) (SGG) (PIU) (PIU) (SGG) (DLTG) (DLTG)
                 (DLTU) (DLTU) (SGU) (PIG) (PIG)
       Virtual   (SGU) (PIU) (PIU) (SGG) (PIG) (PIG) (SGG) (SGU)
                 (DLTG) (DLTG) (PIU) (PIU) (SGG) (SGU) (PIG) (PIG)
                 (DLTU) (DLTU) (PIU) (PIU) (SGU) (SGG) (PIG) (PIG)
                 (SGG) (SGU) (PHIU) (PHIU) (DLTG) (DLTG) (PIU)
                 (PIU) (DLTU) (DLTU) (PIG) (PIG) (DLTG) (DLTG)
                 (SGG) (PHIG) (PHIG) (SGG) (SGU) (PIU) (PIU) (SGU)
                 (DLTU) (DLTU) (PIU) (PIU) (?A) (?A) (PIG) (PIG)
                 (PHIU) (PHIU) (SGG) (SGU) (?B) (?B) (DLTG) (DLTG)
                 (SGG) (PIG) (PIG) (DLTU) (DLTU) (PIG) (PIG) (PIU)
                 (PIU) (PHIG) (PHIG) (SGG) (SGU) (SGG) (SGU) (DLTG)
                 (DLTG) (PIU) (PIU) (DLTG) (DLTG) (PHIU) (PHIU)
                 (DLTU) (DLTU) (PHIG) (PHIG) (PIU) (PIU) (PIG)
                 (PIG) (SGU) (DLTU) (DLTU) (SGG) (PIG) (PIG) (SGU)
                 (SGG) (SGU) (PIU) (PIU) (PIG) (PIG) (SGG) (SGU)
                 (SGU) (PIU) (PIU) (SGG) (DLTG) (DLTG) (PHIU) (PHIU)
                 (?A) (?A) (?B) (?B) (PHIG) (PHIG) (DLTU) (DLTU)
                 (PIG) (PIG) (SGU) (DLTG) (DLTG) (PHIU) (PHIU)
                 (DLTG) (DLTG) (PHIG) (PHIG) (PIU) (PIU) (PIU)
                 (PIU) (DLTU) (DLTU) (DLTU) (DLTU) (SGG) (PIG)
                 (PIG) (SGU) (SGG) (PIG) (PIG) (SGU) (PIG) (PIG)
                 (PIU) (PIU) (SGG) (SGU) (SGG) (SGU) (SGG) (DLTG)
                 (DLTG) (PIU) (PIU) (PHIU) (PHIU) (PHIG) (PHIG)
                 (?A) (?A) (?B) (?B) (DLTU) (DLTU) (?C) (?C) (?D)
                 (?D) (PIG) (PIG) (SGU) (DLTG) (DLTG) (PHIU) (PHIU)
                 (PHIG) (PHIG) (PIU) (PIU) (DLTU) (DLTU) (SGU)
                 (PIG) (PIG) (SGG) (PIU) (PIU) (DLTG) (DLTG) (PHIU)
                 (PHIU) (?A) (?A) (?B) (?B) (PHIG) (PHIG) (SGG)
                 (DLTU) (DLTU) (PIG) (PIG) (SGU) (DLTG) (DLTG)
                 (DLTU) (DLTU) (PIU) (PIU) (PIG) (PIG) (SGG) (SGU)
                 (PIG) (PIG) (PIU) (PIU) (SGG) (SGU) (?E) (?F)
                 (?F) (?G) (?G) (?H) (DLTG) (DLTU) (DLTG) (DLTU)
                 (?F) (?F) (?G) (?G) (?E) (?H) (?E) (?H) (?F) (?F)
                 (?G) (?G) (?H) (?H) (?H) (?H) (DLTG) (DLTG) (PHIU)
                 (PHIU) (PHIG) (PHIG) (PIU) (PIU) (DLTU) (DLTU)
                 (PIG) (PIG) (SGU) (SGG) (SGG) (DLTG) (DLTG) (?H)
                 (?H) (PHIG) (PHIG) (?H) (?H) (?A) (?B) (?A) (?B)
                 (DLTU) (DLTU) (?C) (?C) (?D) (?D) (PIG) (PIG)
                 (SGU) (PIU) (PIU) (SGG) (DLTG) (DLTG) (PHIU) (PHIU)
                 (?A) (?A) (?B) (?B) (PHIG) (PHIG) (DLTU) (DLTU)
                 (PIG) (PIG) (SGU)
 The electronic state of the initial guess is 1-SGG.
 Requested convergence on RMS density matrix=1.00D-10 within 128 cycles.
 Requested convergence on MAX density matrix=1.00D-08.
 Requested convergence on             energy=1.00D-08.
 No special actions if energy rises.
 Initial convergence to 1.0D-05 achieved.  Increase integral accuracy.
 SCF Done:  E(ROHF) =  -3277.94083359     A.U. after   21 cycles
             Convg  =    0.2440D-10             -V/T =  2.0000
 <Sx>= 0.0000 <Sy>= 0.0000 <Sz>= 0.0000 <S**2>= 0.0000 S= 0.0000
 <L.S>= 0.000000000000E+00
 Annihilation of the first spin contaminant:
 S**2 before annihilation     0.0000,   after     0.0000
 GenMOA:  NOpAll=  8 NOp2=8 NOpUse=  8 JSym2X=1
 <Sx>= 0.0000 <Sy>= 0.0000 <Sz>= 0.0000 <S**2>= 0.0000 S= 0.0000
 Range of M.O.s used for correlation:    19   338
 NBasis=   338 NAE=    29 NBE=    29 NFC=    18 NFV=     0
 NROrb=    320 NOA=    11 NOB=    11 NVA=   309 NVB=   309

 **** Warning!!: The largest alpha MO coefficient is  0.67441466D+02


 **** Warning!!: The largest beta MO coefficient is  0.67441466D+02

 Singles contribution to E2=   -0.5989550118D-15
 Disk-based method using OVN memory for 11 occupieds at a time.
 Permanent disk used for amplitudes and <ij||ab> integrals=    33575322 words.
 Estimated scratch disk usage=   539347779 words.
 IUseRI=2 ITolRI= 6 IR12RI=0
 Actual    scratch disk usage=   536713539 words.
 GetIJB would need an additional   874287299 words of memory to use all   8 processors.
 JobTyp=2 Pass  1:  I=   1 to  11 NPSUse=  1 ParTrn=F ParDer=F DoDerP=F.
 (rs|ai) integrals will be sorted in core.
 T,EIJ(AA): I=   1 J=   2      0.8915280E-03     -0.5652421E-02
 T,EIJ(AA): I=   1 J=   3      0.8915280E-03     -0.5652421E-02
 T,EIJ(AA): I=   1 J=   4      0.5941138E-03     -0.3530085E-02
 T,EIJ(AA): I=   1 J=   5      0.5941138E-03     -0.3530085E-02
 T,EIJ(AA): I=   1 J=   6      0.6103085E-03     -0.3591197E-02
 T,EIJ(AA): I=   1 J=   7      0.6103085E-03     -0.3591197E-02
 T,EIJ(AA): I=   1 J=   8      0.9595419E-03     -0.5983634E-02
 T,EIJ(AA): I=   1 J=   9      0.9595419E-03     -0.5983634E-02
 T,EIJ(AA): I=   1 J=  10      0.7382079E-04     -0.2642319E-03
 T,EIJ(AA): I=   1 J=  11      0.4504322E-03     -0.1437103E-02
 T,EIJ(AA): I=   2 J=   3      0.7116172E-03     -0.4224486E-02
 T,EIJ(AA): I=   2 J=   4      0.6910505E-03     -0.4237906E-02
 T,EIJ(AA): I=   2 J=   5      0.6910505E-03     -0.4237906E-02
 T,EIJ(AA): I=   2 J=   6      0.6900991E-03     -0.4295093E-02
 T,EIJ(AA): I=   2 J=   7      0.6900991E-03     -0.4295093E-02
 T,EIJ(AA): I=   2 J=   8      0.2052048E-04     -0.7229094E-04
 T,EIJ(AA): I=   2 J=   9      0.6980000E-03     -0.4373970E-02
 T,EIJ(AA): I=   2 J=  10      0.9186098E-03     -0.5870373E-02
 T,EIJ(AA): I=   2 J=  11      0.4963345E-03     -0.1460514E-02
 T,EIJ(AA): I=   3 J=   4      0.6910505E-03     -0.4237906E-02
 T,EIJ(AA): I=   3 J=   5      0.6910505E-03     -0.4237906E-02
 T,EIJ(AA): I=   3 J=   6      0.6900991E-03     -0.4295093E-02
 T,EIJ(AA): I=   3 J=   7      0.6900991E-03     -0.4295093E-02
 T,EIJ(AA): I=   3 J=   8      0.6980000E-03     -0.4373970E-02
 T,EIJ(AA): I=   3 J=   9      0.2052048E-04     -0.7229094E-04
 T,EIJ(AA): I=   3 J=  10      0.9186098E-03     -0.5870373E-02
 T,EIJ(AA): I=   3 J=  11      0.4963345E-03     -0.1460514E-02
 T,EIJ(AA): I=   4 J=   5      0.9875871E-03     -0.6522502E-02
 T,EIJ(AA): I=   4 J=   6      0.4932469E-05     -0.1611257E-04
 T,EIJ(AA): I=   4 J=   7      0.9847779E-03     -0.6610177E-02
 T,EIJ(AA): I=   4 J=   8      0.7343878E-03     -0.4523780E-02
 T,EIJ(AA): I=   4 J=   9      0.7343878E-03     -0.4523780E-02
 T,EIJ(AA): I=   4 J=  10      0.6683020E-03     -0.3826789E-02
 T,EIJ(AA): I=   4 J=  11      0.4703087E-03     -0.1427919E-02
 T,EIJ(AA): I=   5 J=   6      0.9847779E-03     -0.6610177E-02
 T,EIJ(AA): I=   5 J=   7      0.4932469E-05     -0.1611257E-04
 T,EIJ(AA): I=   5 J=   8      0.7343878E-03     -0.4523780E-02
 T,EIJ(AA): I=   5 J=   9      0.7343878E-03     -0.4523780E-02
 T,EIJ(AA): I=   5 J=  10      0.6683020E-03     -0.3826789E-02
 T,EIJ(AA): I=   5 J=  11      0.4703087E-03     -0.1427919E-02
 T,EIJ(AA): I=   6 J=   7      0.1017196E-02     -0.6752393E-02
 T,EIJ(AA): I=   6 J=   8      0.7870432E-03     -0.4681958E-02
 T,EIJ(AA): I=   6 J=   9      0.7870432E-03     -0.4681958E-02
 T,EIJ(AA): I=   6 J=  10      0.7016545E-03     -0.3948815E-02
 T,EIJ(AA): I=   6 J=  11      0.5767085E-03     -0.1588518E-02
 T,EIJ(AA): I=   7 J=   8      0.7870432E-03     -0.4681958E-02
 T,EIJ(AA): I=   7 J=   9      0.7870432E-03     -0.4681958E-02
 T,EIJ(AA): I=   7 J=  10      0.7016545E-03     -0.3948815E-02
 T,EIJ(AA): I=   7 J=  11      0.5767085E-03     -0.1588518E-02
 T,EIJ(AA): I=   8 J=   9      0.8929031E-03     -0.4951287E-02
 T,EIJ(AA): I=   8 J=  10      0.1111329E-02     -0.6541221E-02
 T,EIJ(AA): I=   8 J=  11      0.6949882E-03     -0.1828444E-02
 T,EIJ(AA): I=   9 J=  10      0.1111329E-02     -0.6541221E-02
 T,EIJ(AA): I=   9 J=  11      0.6949882E-03     -0.1828444E-02
 T,EIJ(AA): I=  10 J=  11      0.7962343E-03     -0.1887458E-02
 T,EIJ(AB): I=   1 J=   1      0.1825514E-02     -0.1064618E-01
 T,EIJ(AB): I=   1 J=   2      0.1057539E-02     -0.6337111E-02
 T,EIJ(AB): I=   1 J=   3      0.1057539E-02     -0.6337111E-02
 T,EIJ(AB): I=   1 J=   4      0.8379748E-03     -0.5325330E-02
 T,EIJ(AB): I=   1 J=   5      0.8379748E-03     -0.5325330E-02
 T,EIJ(AB): I=   1 J=   6      0.8548527E-03     -0.5406807E-02
 T,EIJ(AB): I=   1 J=   7      0.8548527E-03     -0.5406807E-02
 T,EIJ(AB): I=   1 J=   8      0.1046245E-02     -0.6472386E-02
 T,EIJ(AB): I=   1 J=   9      0.1046245E-02     -0.6472386E-02
 T,EIJ(AB): I=   1 J=  10      0.1494224E-02     -0.1002044E-01
 T,EIJ(AB): I=   1 J=  11      0.9656791E-03     -0.2493683E-02
 T,EIJ(AB): I=   2 J=   1      0.1057539E-02     -0.6337111E-02
 T,EIJ(AB): I=   2 J=   2      0.1635915E-02     -0.1004342E-01
 T,EIJ(AB): I=   2 J=   3      0.9484870E-03     -0.5660860E-02
 T,EIJ(AB): I=   2 J=   4      0.9158304E-03     -0.5666336E-02
 T,EIJ(AB): I=   2 J=   5      0.9158304E-03     -0.5666336E-02
 T,EIJ(AB): I=   2 J=   6      0.8907756E-03     -0.5689939E-02
 T,EIJ(AB): I=   2 J=   7      0.8907756E-03     -0.5689939E-02
 T,EIJ(AB): I=   2 J=   8      0.1494486E-02     -0.1015273E-01
 T,EIJ(AB): I=   2 J=   9      0.9003604E-03     -0.5789088E-02
 T,EIJ(AB): I=   2 J=  10      0.1018165E-02     -0.6389159E-02
 T,EIJ(AB): I=   2 J=  11      0.1008398E-02     -0.2469455E-02
 T,EIJ(AB): I=   3 J=   1      0.1057539E-02     -0.6337111E-02
 T,EIJ(AB): I=   3 J=   2      0.9484870E-03     -0.5660860E-02
 T,EIJ(AB): I=   3 J=   3      0.1635915E-02     -0.1004342E-01
 T,EIJ(AB): I=   3 J=   4      0.9158304E-03     -0.5666336E-02
 T,EIJ(AB): I=   3 J=   5      0.9158304E-03     -0.5666336E-02
 T,EIJ(AB): I=   3 J=   6      0.8907756E-03     -0.5689939E-02
 T,EIJ(AB): I=   3 J=   7      0.8907756E-03     -0.5689939E-02
 T,EIJ(AB): I=   3 J=   8      0.9003604E-03     -0.5789088E-02
 T,EIJ(AB): I=   3 J=   9      0.1494486E-02     -0.1015273E-01
 T,EIJ(AB): I=   3 J=  10      0.1018165E-02     -0.6389159E-02
 T,EIJ(AB): I=   3 J=  11      0.1008398E-02     -0.2469455E-02
 T,EIJ(AB): I=   4 J=   1      0.8379748E-03     -0.5325330E-02
 T,EIJ(AB): I=   4 J=   2      0.9158304E-03     -0.5666336E-02
 T,EIJ(AB): I=   4 J=   3      0.9158304E-03     -0.5666336E-02
 T,EIJ(AB): I=   4 J=   4      0.1541518E-02     -0.1014067E-01
 T,EIJ(AB): I=   4 J=   5      0.1039492E-02     -0.6619761E-02
 T,EIJ(AB): I=   4 J=   6      0.1520231E-02     -0.1024807E-01
 T,EIJ(AB): I=   4 J=   7      0.1037955E-02     -0.6708406E-02
 T,EIJ(AB): I=   4 J=   8      0.9484966E-03     -0.5988934E-02
 T,EIJ(AB): I=   4 J=   9      0.9484966E-03     -0.5988934E-02
 T,EIJ(AB): I=   4 J=  10      0.9801705E-03     -0.5830330E-02
 T,EIJ(AB): I=   4 J=  11      0.9662166E-03     -0.2288364E-02
 T,EIJ(AB): I=   5 J=   1      0.8379748E-03     -0.5325330E-02
 T,EIJ(AB): I=   5 J=   2      0.9158304E-03     -0.5666336E-02
 T,EIJ(AB): I=   5 J=   3      0.9158304E-03     -0.5666336E-02
 T,EIJ(AB): I=   5 J=   4      0.1039492E-02     -0.6619761E-02
 T,EIJ(AB): I=   5 J=   5      0.1541518E-02     -0.1014067E-01
 T,EIJ(AB): I=   5 J=   6      0.1037955E-02     -0.6708406E-02
 T,EIJ(AB): I=   5 J=   7      0.1520231E-02     -0.1024807E-01
 T,EIJ(AB): I=   5 J=   8      0.9484966E-03     -0.5988934E-02
 T,EIJ(AB): I=   5 J=   9      0.9484966E-03     -0.5988934E-02
 T,EIJ(AB): I=   5 J=  10      0.9801705E-03     -0.5830330E-02
 T,EIJ(AB): I=   5 J=  11      0.9662166E-03     -0.2288364E-02
 T,EIJ(AB): I=   6 J=   1      0.8548527E-03     -0.5406807E-02
 T,EIJ(AB): I=   6 J=   2      0.8907756E-03     -0.5689939E-02
 T,EIJ(AB): I=   6 J=   3      0.8907756E-03     -0.5689939E-02
 T,EIJ(AB): I=   6 J=   4      0.1520231E-02     -0.1024807E-01
 T,EIJ(AB): I=   6 J=   5      0.1037955E-02     -0.6708406E-02
 T,EIJ(AB): I=   6 J=   6      0.1573860E-02     -0.1046333E-01
 T,EIJ(AB): I=   6 J=   7      0.1071282E-02     -0.6852450E-02
 T,EIJ(AB): I=   6 J=   8      0.1008586E-02     -0.6172280E-02
 T,EIJ(AB): I=   6 J=   9      0.1008586E-02     -0.6172280E-02
 T,EIJ(AB): I=   6 J=  10      0.1015837E-02     -0.5986206E-02
 T,EIJ(AB): I=   6 J=  11      0.8449707E-03     -0.2166234E-02
 T,EIJ(AB): I=   7 J=   1      0.8548527E-03     -0.5406807E-02
 T,EIJ(AB): I=   7 J=   2      0.8907756E-03     -0.5689939E-02
 T,EIJ(AB): I=   7 J=   3      0.8907756E-03     -0.5689939E-02
 T,EIJ(AB): I=   7 J=   4      0.1037955E-02     -0.6708406E-02
 T,EIJ(AB): I=   7 J=   5      0.1520231E-02     -0.1024807E-01
 T,EIJ(AB): I=   7 J=   6      0.1071282E-02     -0.6852450E-02
 T,EIJ(AB): I=   7 J=   7      0.1573860E-02     -0.1046333E-01
 T,EIJ(AB): I=   7 J=   8      0.1008586E-02     -0.6172280E-02
 T,EIJ(AB): I=   7 J=   9      0.1008586E-02     -0.6172280E-02
 T,EIJ(AB): I=   7 J=  10      0.1015837E-02     -0.5986206E-02
 T,EIJ(AB): I=   7 J=  11      0.8449707E-03     -0.2166234E-02
 T,EIJ(AB): I=   8 J=   1      0.1046245E-02     -0.6472386E-02
 T,EIJ(AB): I=   8 J=   2      0.1494486E-02     -0.1015273E-01
 T,EIJ(AB): I=   8 J=   3      0.9003604E-03     -0.5789088E-02
 T,EIJ(AB): I=   8 J=   4      0.9484966E-03     -0.5988934E-02
 T,EIJ(AB): I=   8 J=   5      0.9484966E-03     -0.5988934E-02
 T,EIJ(AB): I=   8 J=   6      0.1008586E-02     -0.6172280E-02
 T,EIJ(AB): I=   8 J=   7      0.1008586E-02     -0.6172280E-02
 T,EIJ(AB): I=   8 J=   8      0.1813504E-02     -0.1117194E-01
 T,EIJ(AB): I=   8 J=   9      0.1130026E-02     -0.6486903E-02
 T,EIJ(AB): I=   8 J=  10      0.1219997E-02     -0.7105491E-02
 T,EIJ(AB): I=   8 J=  11      0.9179124E-03     -0.2222211E-02
 T,EIJ(AB): I=   9 J=   1      0.1046245E-02     -0.6472386E-02
 T,EIJ(AB): I=   9 J=   2      0.9003604E-03     -0.5789088E-02
 T,EIJ(AB): I=   9 J=   3      0.1494486E-02     -0.1015273E-01
 T,EIJ(AB): I=   9 J=   4      0.9484966E-03     -0.5988934E-02
 T,EIJ(AB): I=   9 J=   5      0.9484966E-03     -0.5988934E-02
 T,EIJ(AB): I=   9 J=   6      0.1008586E-02     -0.6172280E-02
 T,EIJ(AB): I=   9 J=   7      0.1008586E-02     -0.6172280E-02
 T,EIJ(AB): I=   9 J=   8      0.1130026E-02     -0.6486903E-02
 T,EIJ(AB): I=   9 J=   9      0.1813504E-02     -0.1117194E-01
 T,EIJ(AB): I=   9 J=  10      0.1219997E-02     -0.7105491E-02
 T,EIJ(AB): I=   9 J=  11      0.9179124E-03     -0.2222211E-02
 T,EIJ(AB): I=  10 J=   1      0.1494224E-02     -0.1002044E-01
 T,EIJ(AB): I=  10 J=   2      0.1018165E-02     -0.6389159E-02
 T,EIJ(AB): I=  10 J=   3      0.1018165E-02     -0.6389159E-02
 T,EIJ(AB): I=  10 J=   4      0.9801705E-03     -0.5830330E-02
 T,EIJ(AB): I=  10 J=   5      0.9801705E-03     -0.5830330E-02
 T,EIJ(AB): I=  10 J=   6      0.1015837E-02     -0.5986206E-02
 T,EIJ(AB): I=  10 J=   7      0.1015837E-02     -0.5986206E-02
 T,EIJ(AB): I=  10 J=   8      0.1219997E-02     -0.7105491E-02
 T,EIJ(AB): I=  10 J=   9      0.1219997E-02     -0.7105491E-02
 T,EIJ(AB): I=  10 J=  10      0.1851987E-02     -0.1116373E-01
 T,EIJ(AB): I=  10 J=  11      0.1081451E-02     -0.2484498E-02
 T,EIJ(AB): I=  11 J=   1      0.9656791E-03     -0.2493683E-02
 T,EIJ(AB): I=  11 J=   2      0.1008398E-02     -0.2469455E-02
 T,EIJ(AB): I=  11 J=   3      0.1008398E-02     -0.2469455E-02
 T,EIJ(AB): I=  11 J=   4      0.9662166E-03     -0.2288364E-02
 T,EIJ(AB): I=  11 J=   5      0.9662166E-03     -0.2288364E-02
 T,EIJ(AB): I=  11 J=   6      0.8449707E-03     -0.2166234E-02
 T,EIJ(AB): I=  11 J=   7      0.8449707E-03     -0.2166234E-02
 T,EIJ(AB): I=  11 J=   8      0.9179124E-03     -0.2222211E-02
 T,EIJ(AB): I=  11 J=   9      0.9179124E-03     -0.2222211E-02
 T,EIJ(AB): I=  11 J=  10      0.1081451E-02     -0.2484498E-02
 T,EIJ(AB): I=  11 J=  11      0.2317074E-01     -0.2007553E-01
 Actual    scratch disk usage=   536713539 words.
 GetIJB would need an additional   874287299 words of memory to use all   8 processors.
 JobTyp=3 Pass  1:  I=   1 to  11 NPSUse=  1 ParTrn=F ParDer=F DoDerP=F.
 (rs|ai) integrals will be sorted in core.
 T,EIJ(BB): I=   1 J=   2      0.8915280E-03     -0.5652421E-02
 T,EIJ(BB): I=   1 J=   3      0.8915280E-03     -0.5652421E-02
 T,EIJ(BB): I=   1 J=   4      0.5941138E-03     -0.3530085E-02
 T,EIJ(BB): I=   1 J=   5      0.5941138E-03     -0.3530085E-02
 T,EIJ(BB): I=   1 J=   6      0.6103085E-03     -0.3591197E-02
 T,EIJ(BB): I=   1 J=   7      0.6103085E-03     -0.3591197E-02
 T,EIJ(BB): I=   1 J=   8      0.9595419E-03     -0.5983634E-02
 T,EIJ(BB): I=   1 J=   9      0.9595419E-03     -0.5983634E-02
 T,EIJ(BB): I=   1 J=  10      0.7382079E-04     -0.2642319E-03
 T,EIJ(BB): I=   1 J=  11      0.4504322E-03     -0.1437103E-02
 T,EIJ(BB): I=   2 J=   3      0.7116172E-03     -0.4224486E-02
 T,EIJ(BB): I=   2 J=   4      0.6910505E-03     -0.4237906E-02
 T,EIJ(BB): I=   2 J=   5      0.6910505E-03     -0.4237906E-02
 T,EIJ(BB): I=   2 J=   6      0.6900991E-03     -0.4295093E-02
 T,EIJ(BB): I=   2 J=   7      0.6900991E-03     -0.4295093E-02
 T,EIJ(BB): I=   2 J=   8      0.2052048E-04     -0.7229094E-04
 T,EIJ(BB): I=   2 J=   9      0.6980000E-03     -0.4373970E-02
 T,EIJ(BB): I=   2 J=  10      0.9186098E-03     -0.5870373E-02
 T,EIJ(BB): I=   2 J=  11      0.4963345E-03     -0.1460514E-02
 T,EIJ(BB): I=   3 J=   4      0.6910505E-03     -0.4237906E-02
 T,EIJ(BB): I=   3 J=   5      0.6910505E-03     -0.4237906E-02
 T,EIJ(BB): I=   3 J=   6      0.6900991E-03     -0.4295093E-02
 T,EIJ(BB): I=   3 J=   7      0.6900991E-03     -0.4295093E-02
 T,EIJ(BB): I=   3 J=   8      0.6980000E-03     -0.4373970E-02
 T,EIJ(BB): I=   3 J=   9      0.2052048E-04     -0.7229094E-04
 T,EIJ(BB): I=   3 J=  10      0.9186098E-03     -0.5870373E-02
 T,EIJ(BB): I=   3 J=  11      0.4963345E-03     -0.1460514E-02
 T,EIJ(BB): I=   4 J=   5      0.9875871E-03     -0.6522502E-02
 T,EIJ(BB): I=   4 J=   6      0.4932469E-05     -0.1611257E-04
 T,EIJ(BB): I=   4 J=   7      0.9847779E-03     -0.6610177E-02
 T,EIJ(BB): I=   4 J=   8      0.7343878E-03     -0.4523780E-02
 T,EIJ(BB): I=   4 J=   9      0.7343878E-03     -0.4523780E-02
 T,EIJ(BB): I=   4 J=  10      0.6683020E-03     -0.3826789E-02
 T,EIJ(BB): I=   4 J=  11      0.4703087E-03     -0.1427919E-02
 T,EIJ(BB): I=   5 J=   6      0.9847779E-03     -0.6610177E-02
 T,EIJ(BB): I=   5 J=   7      0.4932469E-05     -0.1611257E-04
 T,EIJ(BB): I=   5 J=   8      0.7343878E-03     -0.4523780E-02
 T,EIJ(BB): I=   5 J=   9      0.7343878E-03     -0.4523780E-02
 T,EIJ(BB): I=   5 J=  10      0.6683020E-03     -0.3826789E-02
 T,EIJ(BB): I=   5 J=  11      0.4703087E-03     -0.1427919E-02
 T,EIJ(BB): I=   6 J=   7      0.1017196E-02     -0.6752393E-02
 T,EIJ(BB): I=   6 J=   8      0.7870432E-03     -0.4681958E-02
 T,EIJ(BB): I=   6 J=   9      0.7870432E-03     -0.4681958E-02
 T,EIJ(BB): I=   6 J=  10      0.7016545E-03     -0.3948815E-02
 T,EIJ(BB): I=   6 J=  11      0.5767085E-03     -0.1588518E-02
 T,EIJ(BB): I=   7 J=   8      0.7870432E-03     -0.4681958E-02
 T,EIJ(BB): I=   7 J=   9      0.7870432E-03     -0.4681958E-02
 T,EIJ(BB): I=   7 J=  10      0.7016545E-03     -0.3948815E-02
 T,EIJ(BB): I=   7 J=  11      0.5767085E-03     -0.1588518E-02
 T,EIJ(BB): I=   8 J=   9      0.8929031E-03     -0.4951287E-02
 T,EIJ(BB): I=   8 J=  10      0.1111329E-02     -0.6541221E-02
 T,EIJ(BB): I=   8 J=  11      0.6949882E-03     -0.1828444E-02
 T,EIJ(BB): I=   9 J=  10      0.1111329E-02     -0.6541221E-02
 T,EIJ(BB): I=   9 J=  11      0.6949882E-03     -0.1828444E-02
 T,EIJ(BB): I=  10 J=  11      0.7962343E-03     -0.1887458E-02
 Spin components of T(2) and E(2):
     alpha-alpha T2 =       0.3734402948D-01 E2=     -0.2096393667D+00
     alpha-beta  T2 =       0.1524338725D+00 E2=     -0.7584907957D+00
     beta-beta   T2 =       0.3734402948D-01 E2=     -0.2096393667D+00
 ANorm=    0.1107755357D+01
 E2 =    -0.1177769529D+01 EUMP2 =    -0.32791186031148D+04

 Complete Basis Set (CBS) Extrapolation:
 M. R. Nyden and G. A. Petersson, JCP 75, 1843 (1981)
 G. A. Petersson and M. A. Al-Laham, JCP 94, 6081 (1991)
 G. A. Petersson, T. Tensfeldt, and J. A. Montgomery, JCP 94, 6091 (1991)
 J. A. Montgomery, J. W. Ochterski, and G. A. Petersson, JCP 101, 5900 (1994)
 
 Minimum Number of PNO for Extrapolation =  15
 Absolute Overlaps: IRadAn =         5
 LocTrn: ILocal=3 LocCor=F DoCore=F.
 Entering OneElI...
 Overlap between basis sets.
 Requested accuracy = 0.1000D-12
 PrsmSu:  NPrtUS=   1 ThrOK=F IAlg=1
 PRISM was handed   804806590 working-precision words and    92 shell-pairs
 IPart=  0 NShTot=          92 NBatch=          13 AvBLen=         7.1
 CnvPC2: ToCart=F DoDens=F IPureD=0 IPureF=0.
 Transformed matrix in CnvPC2: 
                 1             2             3             4             5 
      1   0.100000D+01  0.395295D+00  0.000000D+00  0.000000D+00  0.000000D+00
      2   0.395295D+00  0.100000D+01  0.000000D+00  0.000000D+00  0.000000D+00
      3   0.000000D+00  0.000000D+00  0.100000D+01  0.000000D+00  0.000000D+00
      4   0.000000D+00  0.000000D+00  0.000000D+00  0.100000D+01  0.000000D+00
      5   0.000000D+00  0.000000D+00  0.000000D+00  0.000000D+00  0.100000D+01
      6   0.269395D-01  0.325658D+00  0.000000D+00  0.000000D+00  0.000000D+00
      7   0.000000D+00  0.000000D+00  0.338598D+00  0.000000D+00  0.000000D+00
      8   0.000000D+00  0.000000D+00  0.000000D+00  0.338598D+00  0.000000D+00
      9   0.000000D+00  0.000000D+00  0.000000D+00  0.000000D+00  0.338598D+00
     10   0.000000D+00  0.000000D+00  0.000000D+00  0.000000D+00  0.000000D+00
     11   0.000000D+00  0.000000D+00  0.000000D+00  0.000000D+00  0.000000D+00
     12   0.000000D+00  0.000000D+00  0.000000D+00  0.000000D+00  0.000000D+00
     13   0.000000D+00  0.000000D+00  0.000000D+00  0.000000D+00  0.000000D+00
     14   0.000000D+00  0.000000D+00  0.000000D+00  0.000000D+00  0.000000D+00
     15  -0.337940D-03  0.252773D-02  0.000000D+00  0.000000D+00  0.000000D+00
     16   0.000000D+00  0.000000D+00  0.922601D-02  0.000000D+00  0.000000D+00
     17   0.000000D+00  0.000000D+00  0.000000D+00  0.922601D-02  0.000000D+00
     18   0.000000D+00  0.000000D+00  0.000000D+00  0.000000D+00  0.922601D-02
     19   0.000000D+00  0.000000D+00  0.000000D+00  0.000000D+00  0.000000D+00
     20   0.000000D+00  0.000000D+00  0.000000D+00  0.000000D+00  0.000000D+00
     21   0.000000D+00  0.000000D+00  0.000000D+00  0.000000D+00  0.000000D+00
     22   0.000000D+00  0.000000D+00  0.000000D+00  0.000000D+00  0.000000D+00
     23   0.000000D+00  0.000000D+00  0.000000D+00  0.000000D+00  0.000000D+00
     24   0.000000D+00  0.000000D+00  0.000000D+00  0.000000D+00  0.000000D+00
     25   0.000000D+00  0.000000D+00  0.000000D+00  0.000000D+00  0.000000D+00
     26   0.000000D+00  0.000000D+00  0.000000D+00  0.000000D+00  0.000000D+00
     27   0.000000D+00  0.000000D+00  0.000000D+00  0.000000D+00  0.000000D+00
     28   0.000000D+00  0.000000D+00  0.000000D+00  0.000000D+00  0.000000D+00
     29   0.000000D+00  0.000000D+00  0.000000D+00  0.000000D+00  0.000000D+00
     30   0.000000D+00  0.000000D+00  0.000000D+00  0.000000D+00  0.000000D+00
     31   0.000000D+00  0.000000D+00  0.000000D+00  0.000000D+00  0.000000D+00
     32   0.000000D+00  0.000000D+00  0.000000D+00  0.000000D+00  0.000000D+00
     33   0.218305D-02  0.136888D-01  0.000000D+00  0.000000D+00 -0.227351D-02
     34   0.000000D+00  0.000000D+00  0.106300D-02  0.000000D+00  0.000000D+00
     35   0.000000D+00  0.000000D+00  0.000000D+00  0.106300D-02  0.000000D+00
     36   0.367967D-02  0.230639D-01  0.000000D+00  0.000000D+00 -0.385271D-02
                 6             7             8             9            10 
      1   0.269395D-01  0.000000D+00  0.000000D+00  0.000000D+00  0.000000D+00
      2   0.325658D+00  0.000000D+00  0.000000D+00  0.000000D+00  0.000000D+00
      3   0.000000D+00  0.338598D+00  0.000000D+00  0.000000D+00  0.000000D+00
      4   0.000000D+00  0.000000D+00  0.338598D+00  0.000000D+00  0.000000D+00
      5   0.000000D+00  0.000000D+00  0.000000D+00  0.338598D+00  0.000000D+00
      6   0.100000D+01  0.000000D+00  0.000000D+00  0.000000D+00  0.000000D+00
      7   0.000000D+00  0.100000D+01  0.000000D+00  0.000000D+00  0.000000D+00
      8   0.000000D+00  0.000000D+00  0.100000D+01  0.000000D+00  0.000000D+00
      9   0.000000D+00  0.000000D+00  0.000000D+00  0.100000D+01  0.000000D+00
     10   0.000000D+00  0.000000D+00  0.000000D+00  0.000000D+00  0.100000D+01
     11   0.000000D+00  0.000000D+00  0.000000D+00  0.000000D+00  0.000000D+00
     12   0.000000D+00  0.000000D+00  0.000000D+00  0.000000D+00  0.000000D+00
     13   0.000000D+00  0.000000D+00  0.000000D+00  0.000000D+00  0.000000D+00
     14   0.000000D+00  0.000000D+00  0.000000D+00  0.000000D+00  0.000000D+00
     15   0.146677D+00  0.000000D+00  0.000000D+00  0.000000D+00  0.000000D+00
     16   0.000000D+00  0.163922D+00  0.000000D+00  0.000000D+00  0.000000D+00
     17   0.000000D+00  0.000000D+00  0.163922D+00  0.000000D+00  0.000000D+00
     18   0.000000D+00  0.000000D+00  0.000000D+00  0.163922D+00  0.000000D+00
     19   0.000000D+00  0.000000D+00  0.000000D+00  0.000000D+00  0.000000D+00
     20   0.000000D+00  0.000000D+00  0.000000D+00  0.000000D+00  0.000000D+00
     21   0.000000D+00  0.000000D+00  0.000000D+00  0.000000D+00  0.000000D+00
     22   0.000000D+00  0.000000D+00  0.000000D+00  0.000000D+00  0.000000D+00
     23   0.000000D+00  0.000000D+00  0.000000D+00  0.000000D+00  0.000000D+00
     24   0.693054D-05  0.000000D+00  0.000000D+00 -0.178093D-04  0.740586D-04
     25   0.000000D+00  0.195251D-05  0.000000D+00  0.000000D+00  0.000000D+00
     26   0.000000D+00  0.000000D+00  0.195251D-05  0.000000D+00  0.000000D+00
     27   0.178093D-04  0.000000D+00  0.000000D+00 -0.439697D-04  0.161910D-03
     28   0.740586D-04  0.000000D+00  0.000000D+00 -0.161910D-03  0.438634D-03
     29   0.000000D+00  0.141732D-04  0.000000D+00  0.000000D+00  0.000000D+00
     30   0.000000D+00  0.000000D+00  0.141732D-04  0.000000D+00  0.000000D+00
     31   0.000000D+00  0.000000D+00  0.000000D+00  0.000000D+00  0.000000D+00
     32   0.000000D+00  0.000000D+00  0.000000D+00  0.000000D+00  0.000000D+00
     33   0.766031D-01  0.000000D+00  0.000000D+00 -0.362864D-01  0.118259D-01
     34   0.000000D+00  0.178586D-01  0.000000D+00  0.000000D+00  0.000000D+00
     35   0.000000D+00  0.000000D+00  0.178586D-01  0.000000D+00  0.000000D+00
     36   0.127911D+00  0.000000D+00  0.000000D+00 -0.605208D-01  0.224828D-01
                11            12            13            14            15 
      1   0.000000D+00  0.000000D+00  0.000000D+00  0.000000D+00 -0.337940D-03
      2   0.000000D+00  0.000000D+00  0.000000D+00  0.000000D+00  0.252773D-02
      3   0.000000D+00  0.000000D+00  0.000000D+00  0.000000D+00  0.000000D+00
      4   0.000000D+00  0.000000D+00  0.000000D+00  0.000000D+00  0.000000D+00
      5   0.000000D+00  0.000000D+00  0.000000D+00  0.000000D+00  0.000000D+00
      6   0.000000D+00  0.000000D+00  0.000000D+00  0.000000D+00  0.146677D+00
      7   0.000000D+00  0.000000D+00  0.000000D+00  0.000000D+00  0.000000D+00
      8   0.000000D+00  0.000000D+00  0.000000D+00  0.000000D+00  0.000000D+00
      9   0.000000D+00  0.000000D+00  0.000000D+00  0.000000D+00  0.000000D+00
     10   0.000000D+00  0.000000D+00  0.000000D+00  0.000000D+00  0.000000D+00
     11   0.100000D+01  0.000000D+00  0.000000D+00  0.000000D+00  0.000000D+00
     12   0.000000D+00  0.100000D+01  0.000000D+00  0.000000D+00  0.000000D+00
     13   0.000000D+00  0.000000D+00  0.100000D+01  0.000000D+00  0.000000D+00
     14   0.000000D+00  0.000000D+00  0.000000D+00  0.100000D+01  0.000000D+00
     15   0.000000D+00  0.000000D+00  0.000000D+00  0.000000D+00  0.100000D+01
     16   0.000000D+00  0.000000D+00  0.000000D+00  0.000000D+00  0.000000D+00
     17   0.000000D+00  0.000000D+00  0.000000D+00  0.000000D+00  0.000000D+00
     18   0.000000D+00  0.000000D+00  0.000000D+00  0.000000D+00  0.000000D+00
     19   0.000000D+00  0.000000D+00  0.000000D+00  0.000000D+00  0.218305D-02
     20   0.000000D+00  0.000000D+00  0.000000D+00  0.000000D+00  0.136888D-01
     21   0.000000D+00  0.000000D+00  0.000000D+00  0.000000D+00  0.000000D+00
     22   0.000000D+00  0.000000D+00  0.000000D+00  0.000000D+00  0.000000D+00
     23   0.000000D+00  0.000000D+00  0.000000D+00  0.000000D+00  0.227351D-02
     24   0.000000D+00  0.000000D+00  0.000000D+00  0.000000D+00  0.766031D-01
     25  -0.141732D-04  0.000000D+00  0.000000D+00  0.000000D+00  0.000000D+00
     26   0.000000D+00 -0.141732D-04  0.000000D+00  0.000000D+00  0.000000D+00
     27   0.000000D+00  0.000000D+00  0.000000D+00  0.000000D+00  0.362864D-01
     28   0.000000D+00  0.000000D+00  0.000000D+00  0.000000D+00  0.118259D-01
     29  -0.754514D-04  0.000000D+00  0.000000D+00  0.000000D+00  0.000000D+00
     30   0.000000D+00 -0.754514D-04  0.000000D+00  0.000000D+00  0.000000D+00
     31   0.000000D+00  0.000000D+00  0.390974D-05  0.000000D+00  0.000000D+00
     32   0.000000D+00  0.000000D+00  0.000000D+00  0.390974D-05  0.000000D+00
     33   0.000000D+00  0.000000D+00  0.000000D+00  0.000000D+00  0.443504D+00
     34  -0.133286D-01  0.000000D+00  0.000000D+00  0.000000D+00  0.000000D+00
     35   0.000000D+00 -0.133286D-01  0.000000D+00  0.000000D+00  0.000000D+00
     36   0.000000D+00  0.000000D+00  0.000000D+00  0.000000D+00  0.463624D+00
                16            17            18            19            20 
      1   0.000000D+00  0.000000D+00  0.000000D+00  0.000000D+00  0.000000D+00
      2   0.000000D+00  0.000000D+00  0.000000D+00  0.000000D+00  0.000000D+00
      3   0.922601D-02  0.000000D+00  0.000000D+00  0.000000D+00  0.000000D+00
      4   0.000000D+00  0.922601D-02  0.000000D+00  0.000000D+00  0.000000D+00
      5   0.000000D+00  0.000000D+00  0.922601D-02  0.000000D+00  0.000000D+00
      6   0.000000D+00  0.000000D+00  0.000000D+00  0.000000D+00  0.000000D+00
      7   0.163922D+00  0.000000D+00  0.000000D+00  0.000000D+00  0.000000D+00
      8   0.000000D+00  0.163922D+00  0.000000D+00  0.000000D+00  0.000000D+00
      9   0.000000D+00  0.000000D+00  0.163922D+00  0.000000D+00  0.000000D+00
     10   0.000000D+00  0.000000D+00  0.000000D+00  0.000000D+00  0.000000D+00
     11   0.000000D+00  0.000000D+00  0.000000D+00  0.000000D+00  0.000000D+00
     12   0.000000D+00  0.000000D+00  0.000000D+00  0.000000D+00  0.000000D+00
     13   0.000000D+00  0.000000D+00  0.000000D+00  0.000000D+00  0.000000D+00
     14   0.000000D+00  0.000000D+00  0.000000D+00  0.000000D+00  0.000000D+00
     15   0.000000D+00  0.000000D+00  0.000000D+00  0.218305D-02  0.136888D-01
     16   0.100000D+01  0.000000D+00  0.000000D+00  0.000000D+00  0.000000D+00
     17   0.000000D+00  0.100000D+01  0.000000D+00  0.000000D+00  0.000000D+00
     18   0.000000D+00  0.000000D+00  0.100000D+01 -0.367967D-02 -0.230639D-01
     19   0.000000D+00  0.000000D+00 -0.367967D-02  0.100000D+01  0.395295D+00
     20   0.000000D+00  0.000000D+00 -0.230639D-01  0.395295D+00  0.100000D+01
     21   0.106300D-02  0.000000D+00  0.000000D+00  0.000000D+00  0.000000D+00
     22   0.000000D+00  0.106300D-02  0.000000D+00  0.000000D+00  0.000000D+00
     23   0.000000D+00  0.000000D+00 -0.385271D-02  0.000000D+00  0.000000D+00
     24   0.000000D+00  0.000000D+00 -0.127911D+00  0.269395D-01  0.325658D+00
     25   0.178586D-01  0.000000D+00  0.000000D+00  0.000000D+00  0.000000D+00
     26   0.000000D+00  0.178586D-01  0.000000D+00  0.000000D+00  0.000000D+00
     27   0.000000D+00  0.000000D+00 -0.605208D-01  0.000000D+00  0.000000D+00
     28   0.000000D+00  0.000000D+00 -0.224828D-01  0.000000D+00  0.000000D+00
     29   0.133286D-01  0.000000D+00  0.000000D+00  0.000000D+00  0.000000D+00
     30   0.000000D+00  0.133286D-01  0.000000D+00  0.000000D+00  0.000000D+00
     31   0.000000D+00  0.000000D+00  0.000000D+00  0.000000D+00  0.000000D+00
     32   0.000000D+00  0.000000D+00  0.000000D+00  0.000000D+00  0.000000D+00
     33   0.000000D+00  0.000000D+00 -0.463624D+00 -0.337940D-03  0.252773D-02
     34   0.294269D+00  0.000000D+00  0.000000D+00  0.000000D+00  0.000000D+00
     35   0.000000D+00  0.294269D+00  0.000000D+00  0.000000D+00  0.000000D+00
     36   0.000000D+00  0.000000D+00 -0.401159D+00  0.000000D+00  0.000000D+00
                21            22            23            24            25 
      1   0.000000D+00  0.000000D+00  0.000000D+00  0.000000D+00  0.000000D+00
      2   0.000000D+00  0.000000D+00  0.000000D+00  0.000000D+00  0.000000D+00
      3   0.000000D+00  0.000000D+00  0.000000D+00  0.000000D+00  0.000000D+00
      4   0.000000D+00  0.000000D+00  0.000000D+00  0.000000D+00  0.000000D+00
      5   0.000000D+00  0.000000D+00  0.000000D+00  0.000000D+00  0.000000D+00
      6   0.000000D+00  0.000000D+00  0.000000D+00  0.693054D-05  0.000000D+00
      7   0.000000D+00  0.000000D+00  0.000000D+00  0.000000D+00  0.195251D-05
      8   0.000000D+00  0.000000D+00  0.000000D+00  0.000000D+00  0.000000D+00
      9   0.000000D+00  0.000000D+00  0.000000D+00 -0.178093D-04  0.000000D+00
     10   0.000000D+00  0.000000D+00  0.000000D+00  0.740586D-04  0.000000D+00
     11   0.000000D+00  0.000000D+00  0.000000D+00  0.000000D+00 -0.141732D-04
     12   0.000000D+00  0.000000D+00  0.000000D+00  0.000000D+00  0.000000D+00
     13   0.000000D+00  0.000000D+00  0.000000D+00  0.000000D+00  0.000000D+00
     14   0.000000D+00  0.000000D+00  0.000000D+00  0.000000D+00  0.000000D+00
     15   0.000000D+00  0.000000D+00  0.227351D-02  0.766031D-01  0.000000D+00
     16   0.106300D-02  0.000000D+00  0.000000D+00  0.000000D+00  0.178586D-01
     17   0.000000D+00  0.106300D-02  0.000000D+00  0.000000D+00  0.000000D+00
     18   0.000000D+00  0.000000D+00 -0.385271D-02 -0.127911D+00  0.000000D+00
     19   0.000000D+00  0.000000D+00  0.000000D+00  0.269395D-01  0.000000D+00
     20   0.000000D+00  0.000000D+00  0.000000D+00  0.325658D+00  0.000000D+00
     21   0.100000D+01  0.000000D+00  0.000000D+00  0.000000D+00  0.338598D+00
     22   0.000000D+00  0.100000D+01  0.000000D+00  0.000000D+00  0.000000D+00
     23   0.000000D+00  0.000000D+00  0.100000D+01  0.000000D+00  0.000000D+00
     24   0.000000D+00  0.000000D+00  0.000000D+00  0.100000D+01  0.000000D+00
     25   0.338598D+00  0.000000D+00  0.000000D+00  0.000000D+00  0.100000D+01
     26   0.000000D+00  0.338598D+00  0.000000D+00  0.000000D+00  0.000000D+00
     27   0.000000D+00  0.000000D+00  0.338598D+00  0.000000D+00  0.000000D+00
     28   0.000000D+00  0.000000D+00  0.000000D+00  0.000000D+00  0.000000D+00
     29   0.000000D+00  0.000000D+00  0.000000D+00  0.000000D+00  0.000000D+00
     30   0.000000D+00  0.000000D+00  0.000000D+00  0.000000D+00  0.000000D+00
     31   0.000000D+00  0.000000D+00  0.000000D+00  0.000000D+00  0.000000D+00
     32   0.000000D+00  0.000000D+00  0.000000D+00  0.000000D+00  0.000000D+00
     33   0.000000D+00  0.000000D+00  0.000000D+00  0.146677D+00  0.000000D+00
     34   0.922601D-02  0.000000D+00  0.000000D+00  0.000000D+00  0.163922D+00
     35   0.000000D+00  0.922601D-02  0.000000D+00  0.000000D+00  0.000000D+00
     36   0.000000D+00  0.000000D+00  0.922601D-02  0.000000D+00  0.000000D+00
                26            27            28            29            30 
      1   0.000000D+00  0.000000D+00  0.000000D+00  0.000000D+00  0.000000D+00
      2   0.000000D+00  0.000000D+00  0.000000D+00  0.000000D+00  0.000000D+00
      3   0.000000D+00  0.000000D+00  0.000000D+00  0.000000D+00  0.000000D+00
      4   0.000000D+00  0.000000D+00  0.000000D+00  0.000000D+00  0.000000D+00
      5   0.000000D+00  0.000000D+00  0.000000D+00  0.000000D+00  0.000000D+00
      6   0.000000D+00  0.178093D-04  0.740586D-04  0.000000D+00  0.000000D+00
      7   0.000000D+00  0.000000D+00  0.000000D+00  0.141732D-04  0.000000D+00
      8   0.195251D-05  0.000000D+00  0.000000D+00  0.000000D+00  0.141732D-04
      9   0.000000D+00 -0.439697D-04 -0.161910D-03  0.000000D+00  0.000000D+00
     10   0.000000D+00  0.161910D-03  0.438634D-03  0.000000D+00  0.000000D+00
     11   0.000000D+00  0.000000D+00  0.000000D+00 -0.754514D-04  0.000000D+00
     12  -0.141732D-04  0.000000D+00  0.000000D+00  0.000000D+00 -0.754514D-04
     13   0.000000D+00  0.000000D+00  0.000000D+00  0.000000D+00  0.000000D+00
     14   0.000000D+00  0.000000D+00  0.000000D+00  0.000000D+00  0.000000D+00
     15   0.000000D+00  0.362864D-01  0.118259D-01  0.000000D+00  0.000000D+00
     16   0.000000D+00  0.000000D+00  0.000000D+00  0.133286D-01  0.000000D+00
     17   0.178586D-01  0.000000D+00  0.000000D+00  0.000000D+00  0.133286D-01
     18   0.000000D+00 -0.605208D-01 -0.224828D-01  0.000000D+00  0.000000D+00
     19   0.000000D+00  0.000000D+00  0.000000D+00  0.000000D+00  0.000000D+00
     20   0.000000D+00  0.000000D+00  0.000000D+00  0.000000D+00  0.000000D+00
     21   0.000000D+00  0.000000D+00  0.000000D+00  0.000000D+00  0.000000D+00
     22   0.338598D+00  0.000000D+00  0.000000D+00  0.000000D+00  0.000000D+00
     23   0.000000D+00  0.338598D+00  0.000000D+00  0.000000D+00  0.000000D+00
     24   0.000000D+00  0.000000D+00  0.000000D+00  0.000000D+00  0.000000D+00
     25   0.000000D+00  0.000000D+00  0.000000D+00  0.000000D+00  0.000000D+00
     26   0.100000D+01  0.000000D+00  0.000000D+00  0.000000D+00  0.000000D+00
     27   0.000000D+00  0.100000D+01  0.000000D+00  0.000000D+00  0.000000D+00
     28   0.000000D+00  0.000000D+00  0.100000D+01  0.000000D+00  0.000000D+00
     29   0.000000D+00  0.000000D+00  0.000000D+00  0.100000D+01  0.000000D+00
     30   0.000000D+00  0.000000D+00  0.000000D+00  0.000000D+00  0.100000D+01
     31   0.000000D+00  0.000000D+00  0.000000D+00  0.000000D+00  0.000000D+00
     32   0.000000D+00  0.000000D+00  0.000000D+00  0.000000D+00  0.000000D+00
     33   0.000000D+00  0.000000D+00  0.000000D+00  0.000000D+00  0.000000D+00
     34   0.000000D+00  0.000000D+00  0.000000D+00  0.000000D+00  0.000000D+00
     35   0.163922D+00  0.000000D+00  0.000000D+00  0.000000D+00  0.000000D+00
     36   0.000000D+00  0.163922D+00  0.000000D+00  0.000000D+00  0.000000D+00
                31            32            33            34            35 
      1   0.000000D+00  0.000000D+00  0.218305D-02  0.000000D+00  0.000000D+00
      2   0.000000D+00  0.000000D+00  0.136888D-01  0.000000D+00  0.000000D+00
      3   0.000000D+00  0.000000D+00  0.000000D+00  0.106300D-02  0.000000D+00
      4   0.000000D+00  0.000000D+00  0.000000D+00  0.000000D+00  0.106300D-02
      5   0.000000D+00  0.000000D+00 -0.227351D-02  0.000000D+00  0.000000D+00
      6   0.000000D+00  0.000000D+00  0.766031D-01  0.000000D+00  0.000000D+00
      7   0.000000D+00  0.000000D+00  0.000000D+00  0.178586D-01  0.000000D+00
      8   0.000000D+00  0.000000D+00  0.000000D+00  0.000000D+00  0.178586D-01
      9   0.000000D+00  0.000000D+00 -0.362864D-01  0.000000D+00  0.000000D+00
     10   0.000000D+00  0.000000D+00  0.118259D-01  0.000000D+00  0.000000D+00
     11   0.000000D+00  0.000000D+00  0.000000D+00 -0.133286D-01  0.000000D+00
     12   0.000000D+00  0.000000D+00  0.000000D+00  0.000000D+00 -0.133286D-01
     13   0.390974D-05  0.000000D+00  0.000000D+00  0.000000D+00  0.000000D+00
     14   0.000000D+00  0.390974D-05  0.000000D+00  0.000000D+00  0.000000D+00
     15   0.000000D+00  0.000000D+00  0.443504D+00  0.000000D+00  0.000000D+00
     16   0.000000D+00  0.000000D+00  0.000000D+00  0.294269D+00  0.000000D+00
     17   0.000000D+00  0.000000D+00  0.000000D+00  0.000000D+00  0.294269D+00
     18   0.000000D+00  0.000000D+00 -0.463624D+00  0.000000D+00  0.000000D+00
     19   0.000000D+00  0.000000D+00 -0.337940D-03  0.000000D+00  0.000000D+00
     20   0.000000D+00  0.000000D+00  0.252773D-02  0.000000D+00  0.000000D+00
     21   0.000000D+00  0.000000D+00  0.000000D+00  0.922601D-02  0.000000D+00
     22   0.000000D+00  0.000000D+00  0.000000D+00  0.000000D+00  0.922601D-02
     23   0.000000D+00  0.000000D+00  0.000000D+00  0.000000D+00  0.000000D+00
     24   0.000000D+00  0.000000D+00  0.146677D+00  0.000000D+00  0.000000D+00
     25   0.000000D+00  0.000000D+00  0.000000D+00  0.163922D+00  0.000000D+00
     26   0.000000D+00  0.000000D+00  0.000000D+00  0.000000D+00  0.163922D+00
     27   0.000000D+00  0.000000D+00  0.000000D+00  0.000000D+00  0.000000D+00
     28   0.000000D+00  0.000000D+00  0.000000D+00  0.000000D+00  0.000000D+00
     29   0.000000D+00  0.000000D+00  0.000000D+00  0.000000D+00  0.000000D+00
     30   0.000000D+00  0.000000D+00  0.000000D+00  0.000000D+00  0.000000D+00
     31   0.100000D+01  0.000000D+00  0.000000D+00  0.000000D+00  0.000000D+00
     32   0.000000D+00  0.100000D+01  0.000000D+00  0.000000D+00  0.000000D+00
     33   0.000000D+00  0.000000D+00  0.100000D+01  0.000000D+00  0.000000D+00
     34   0.000000D+00  0.000000D+00  0.000000D+00  0.100000D+01  0.000000D+00
     35   0.000000D+00  0.000000D+00  0.000000D+00  0.000000D+00  0.100000D+01
     36   0.000000D+00  0.000000D+00  0.000000D+00  0.000000D+00  0.000000D+00
                36 
      1   0.367967D-02
      2   0.230639D-01
      3   0.000000D+00
      4   0.000000D+00
      5  -0.385271D-02
      6   0.127911D+00
      7   0.000000D+00
      8   0.000000D+00
      9  -0.605208D-01
     10   0.224828D-01
     11   0.000000D+00
     12   0.000000D+00
     13   0.000000D+00
     14   0.000000D+00
     15   0.463624D+00
     16   0.000000D+00
     17   0.000000D+00
     18  -0.401159D+00
     19   0.000000D+00
     20   0.000000D+00
     21   0.000000D+00
     22   0.000000D+00
     23   0.922601D-02
     24   0.000000D+00
     25   0.000000D+00
     26   0.000000D+00
     27   0.163922D+00
     28   0.000000D+00
     29   0.000000D+00
     30   0.000000D+00
     31   0.000000D+00
     32   0.000000D+00
     33   0.000000D+00
     34   0.000000D+00
     35   0.000000D+00
     36   0.100000D+01
 Entering OneElI...
 Overlap between basis sets.
 Requested accuracy = 0.1000D-12
 PrsmSu:  NPrtUS=   1 ThrOK=F IAlg=1
 PRISM was handed   804403088 working-precision words and   674 shell-pairs
 IPart=  0 NShTot=         674 NBatch=          83 AvBLen=         8.1
 CnvPC2: ToCart=F DoDens=F IPureD=0 IPureF=0.
 Transformed matrix in CnvPC2: 
                 1             2             3             4             5 
      1   0.999790D+00  0.404284D+00  0.000000D+00  0.000000D+00  0.000000D+00
      2   0.284615D+00  0.989072D+00  0.000000D+00  0.000000D+00  0.000000D+00
      3   0.000000D+00  0.000000D+00  0.999182D+00  0.000000D+00  0.000000D+00
      4   0.000000D+00  0.000000D+00  0.000000D+00  0.999182D+00  0.000000D+00
      5   0.000000D+00  0.000000D+00  0.000000D+00  0.000000D+00  0.999182D+00
      6   0.120768D-01  0.314332D+00  0.000000D+00  0.000000D+00  0.000000D+00
      7   0.000000D+00  0.000000D+00  0.329950D+00  0.000000D+00  0.000000D+00
      8   0.000000D+00  0.000000D+00  0.000000D+00  0.329950D+00  0.000000D+00
      9   0.000000D+00  0.000000D+00  0.000000D+00  0.000000D+00  0.329950D+00
     10   0.000000D+00  0.000000D+00  0.000000D+00  0.000000D+00  0.000000D+00
     11   0.000000D+00  0.000000D+00  0.000000D+00  0.000000D+00  0.000000D+00
     12   0.000000D+00  0.000000D+00  0.000000D+00  0.000000D+00  0.000000D+00
     13   0.000000D+00  0.000000D+00  0.000000D+00  0.000000D+00  0.000000D+00
     14   0.000000D+00  0.000000D+00  0.000000D+00  0.000000D+00  0.000000D+00
     15   0.000000D+00  0.000000D+00  0.000000D+00  0.000000D+00  0.000000D+00
     16   0.000000D+00  0.000000D+00  0.000000D+00  0.000000D+00  0.000000D+00
     17   0.000000D+00  0.000000D+00  0.000000D+00  0.000000D+00  0.000000D+00
     18   0.000000D+00  0.000000D+00  0.000000D+00  0.000000D+00  0.000000D+00
     19   0.000000D+00  0.000000D+00  0.000000D+00  0.000000D+00  0.000000D+00
     20   0.000000D+00  0.000000D+00  0.000000D+00  0.000000D+00  0.000000D+00
     21   0.000000D+00  0.000000D+00  0.000000D+00  0.000000D+00  0.000000D+00
     22   0.000000D+00  0.000000D+00  0.000000D+00  0.000000D+00  0.000000D+00
     23   0.000000D+00  0.000000D+00  0.000000D+00  0.000000D+00  0.000000D+00
     24   0.000000D+00  0.000000D+00  0.000000D+00  0.000000D+00  0.000000D+00
     25   0.000000D+00  0.000000D+00  0.000000D+00  0.000000D+00  0.000000D+00
     26   0.000000D+00  0.000000D+00  0.000000D+00  0.000000D+00  0.000000D+00
     27   0.000000D+00  0.000000D+00  0.000000D+00  0.000000D+00  0.000000D+00
     28   0.000000D+00  0.000000D+00  0.000000D+00  0.000000D+00  0.000000D+00
     29   0.000000D+00  0.000000D+00  0.000000D+00  0.000000D+00  0.000000D+00
     30   0.000000D+00  0.000000D+00  0.000000D+00  0.000000D+00  0.000000D+00
     31   0.000000D+00  0.000000D+00  0.000000D+00  0.000000D+00  0.000000D+00
     32   0.000000D+00  0.000000D+00  0.000000D+00  0.000000D+00  0.000000D+00
     33   0.000000D+00  0.000000D+00  0.000000D+00  0.000000D+00  0.000000D+00
     34   0.000000D+00  0.000000D+00  0.000000D+00  0.000000D+00  0.000000D+00
     35   0.000000D+00  0.000000D+00  0.000000D+00  0.000000D+00  0.000000D+00
     36   0.749747D-04  0.810723D-02  0.000000D+00  0.000000D+00  0.000000D+00
     37   0.293269D-02  0.183150D-01  0.000000D+00  0.000000D+00  0.000000D+00
     38   0.000000D+00  0.000000D+00 -0.637003D-01  0.000000D+00  0.000000D+00
     39   0.000000D+00  0.000000D+00  0.000000D+00 -0.637003D-01  0.000000D+00
     40   0.000000D+00  0.000000D+00  0.000000D+00  0.000000D+00 -0.637003D-01
     41   0.000000D+00  0.000000D+00  0.210717D-02  0.000000D+00  0.000000D+00
     42   0.000000D+00  0.000000D+00  0.000000D+00  0.210717D-02  0.000000D+00
     43   0.000000D+00  0.000000D+00  0.000000D+00  0.000000D+00  0.210717D-02
     44   0.711143D-01  0.395267D+00  0.000000D+00  0.000000D+00  0.000000D+00
     45   0.394507D-01  0.233582D+00  0.000000D+00  0.000000D+00  0.000000D+00
     46   0.217897D-01  0.132925D+00  0.000000D+00  0.000000D+00  0.000000D+00
     47   0.120111D-01  0.742873D-01  0.000000D+00  0.000000D+00  0.000000D+00
     48   0.000000D+00  0.000000D+00  0.372871D+00  0.000000D+00  0.000000D+00
     49   0.000000D+00  0.000000D+00  0.000000D+00  0.372871D+00  0.000000D+00
     50   0.000000D+00  0.000000D+00  0.000000D+00  0.000000D+00  0.372871D+00
     51   0.000000D+00  0.000000D+00  0.180957D+00  0.000000D+00  0.000000D+00
     52   0.000000D+00  0.000000D+00  0.000000D+00  0.180957D+00  0.000000D+00
     53   0.000000D+00  0.000000D+00  0.000000D+00  0.000000D+00  0.180957D+00
     54   0.000000D+00  0.000000D+00  0.786094D-01  0.000000D+00  0.000000D+00
     55   0.000000D+00  0.000000D+00  0.000000D+00  0.786094D-01  0.000000D+00
     56   0.000000D+00  0.000000D+00  0.000000D+00  0.000000D+00  0.786094D-01
     57   0.000000D+00  0.000000D+00  0.321297D-01  0.000000D+00  0.000000D+00
     58   0.000000D+00  0.000000D+00  0.000000D+00  0.321297D-01  0.000000D+00
     59   0.000000D+00  0.000000D+00  0.000000D+00  0.000000D+00  0.321297D-01
     60   0.000000D+00  0.000000D+00  0.000000D+00  0.000000D+00  0.000000D+00
     61   0.000000D+00  0.000000D+00  0.000000D+00  0.000000D+00  0.000000D+00
     62   0.000000D+00  0.000000D+00  0.000000D+00  0.000000D+00  0.000000D+00
     63   0.000000D+00  0.000000D+00  0.000000D+00  0.000000D+00  0.000000D+00
     64   0.000000D+00  0.000000D+00  0.000000D+00  0.000000D+00  0.000000D+00
     65   0.000000D+00  0.000000D+00  0.000000D+00  0.000000D+00  0.000000D+00
     66   0.000000D+00  0.000000D+00  0.000000D+00  0.000000D+00  0.000000D+00
     67   0.000000D+00  0.000000D+00  0.000000D+00  0.000000D+00  0.000000D+00
     68   0.000000D+00  0.000000D+00  0.000000D+00  0.000000D+00  0.000000D+00
     69   0.000000D+00  0.000000D+00  0.000000D+00  0.000000D+00  0.000000D+00
     70   0.000000D+00  0.000000D+00  0.000000D+00  0.000000D+00  0.000000D+00
     71   0.000000D+00  0.000000D+00  0.000000D+00  0.000000D+00  0.000000D+00
     72   0.000000D+00  0.000000D+00  0.000000D+00  0.000000D+00  0.000000D+00
     73   0.000000D+00  0.000000D+00  0.000000D+00  0.000000D+00  0.000000D+00
     74   0.000000D+00  0.000000D+00  0.000000D+00  0.000000D+00  0.000000D+00
     75   0.000000D+00  0.000000D+00  0.000000D+00  0.000000D+00  0.000000D+00
     76   0.000000D+00  0.000000D+00  0.000000D+00  0.000000D+00  0.000000D+00
     77   0.000000D+00  0.000000D+00  0.000000D+00  0.000000D+00  0.000000D+00
     78   0.000000D+00  0.000000D+00  0.000000D+00  0.000000D+00  0.000000D+00
     79   0.000000D+00  0.000000D+00  0.000000D+00  0.000000D+00  0.000000D+00
     80   0.000000D+00  0.000000D+00  0.000000D+00  0.000000D+00  0.000000D+00
     81   0.000000D+00  0.000000D+00  0.000000D+00  0.000000D+00  0.000000D+00
     82   0.000000D+00  0.000000D+00  0.000000D+00  0.000000D+00  0.000000D+00
     83   0.000000D+00  0.000000D+00  0.000000D+00  0.000000D+00  0.000000D+00
     84   0.000000D+00  0.000000D+00  0.000000D+00  0.000000D+00  0.000000D+00
     85   0.000000D+00  0.000000D+00  0.000000D+00  0.000000D+00  0.000000D+00
     86   0.000000D+00  0.000000D+00  0.000000D+00  0.000000D+00  0.000000D+00
     87   0.000000D+00  0.000000D+00  0.000000D+00  0.000000D+00  0.000000D+00
     88   0.000000D+00  0.000000D+00  0.000000D+00  0.000000D+00  0.000000D+00
     89   0.000000D+00  0.000000D+00  0.000000D+00  0.000000D+00  0.000000D+00
     90   0.000000D+00  0.000000D+00  0.000000D+00  0.000000D+00  0.000000D+00
     91   0.000000D+00  0.000000D+00  0.000000D+00  0.000000D+00  0.000000D+00
     92   0.000000D+00  0.000000D+00  0.000000D+00  0.000000D+00  0.000000D+00
     93   0.000000D+00  0.000000D+00  0.000000D+00  0.000000D+00  0.000000D+00
     94   0.000000D+00  0.000000D+00  0.000000D+00  0.000000D+00  0.000000D+00
     95   0.000000D+00  0.000000D+00  0.000000D+00  0.000000D+00  0.000000D+00
     96   0.000000D+00  0.000000D+00  0.000000D+00  0.000000D+00  0.000000D+00
     97   0.000000D+00  0.000000D+00  0.000000D+00  0.000000D+00  0.000000D+00
     98   0.000000D+00  0.000000D+00  0.000000D+00  0.000000D+00  0.000000D+00
     99   0.000000D+00  0.000000D+00  0.000000D+00  0.000000D+00  0.000000D+00
    100   0.000000D+00  0.000000D+00  0.000000D+00  0.000000D+00  0.000000D+00
    101   0.000000D+00  0.000000D+00  0.000000D+00  0.000000D+00  0.000000D+00
    102   0.000000D+00  0.000000D+00  0.000000D+00  0.000000D+00  0.000000D+00
    103   0.000000D+00  0.000000D+00  0.000000D+00  0.000000D+00  0.000000D+00
    104   0.000000D+00  0.000000D+00  0.000000D+00  0.000000D+00  0.000000D+00
    105   0.000000D+00  0.000000D+00  0.000000D+00  0.000000D+00  0.000000D+00
    106   0.000000D+00  0.000000D+00  0.000000D+00  0.000000D+00  0.000000D+00
    107   0.000000D+00  0.000000D+00  0.000000D+00  0.000000D+00  0.000000D+00
    108   0.000000D+00  0.000000D+00  0.000000D+00  0.000000D+00  0.000000D+00
    109   0.000000D+00  0.000000D+00  0.000000D+00  0.000000D+00  0.000000D+00
    110   0.000000D+00  0.000000D+00  0.000000D+00  0.000000D+00  0.000000D+00
    111   0.000000D+00  0.000000D+00  0.000000D+00  0.000000D+00  0.000000D+00
    112   0.000000D+00  0.000000D+00  0.000000D+00  0.000000D+00  0.000000D+00
    113   0.000000D+00  0.000000D+00  0.000000D+00  0.000000D+00  0.000000D+00
    114   0.000000D+00  0.000000D+00  0.000000D+00  0.000000D+00  0.000000D+00
    115   0.000000D+00  0.000000D+00  0.000000D+00  0.000000D+00  0.000000D+00
    116   0.000000D+00  0.000000D+00  0.000000D+00  0.000000D+00  0.000000D+00
    117   0.000000D+00  0.000000D+00  0.000000D+00  0.000000D+00  0.000000D+00
    118   0.000000D+00  0.000000D+00  0.000000D+00  0.000000D+00  0.000000D+00
    119   0.000000D+00  0.000000D+00  0.000000D+00  0.000000D+00  0.000000D+00
    120   0.000000D+00  0.000000D+00  0.000000D+00  0.000000D+00  0.000000D+00
    121   0.000000D+00  0.000000D+00  0.000000D+00  0.000000D+00  0.000000D+00
    122   0.000000D+00  0.000000D+00  0.000000D+00  0.000000D+00  0.000000D+00
    123   0.000000D+00  0.000000D+00  0.000000D+00  0.000000D+00  0.000000D+00
    124   0.000000D+00  0.000000D+00  0.000000D+00  0.000000D+00  0.000000D+00
    125   0.000000D+00  0.000000D+00  0.000000D+00  0.000000D+00  0.000000D+00
    126   0.000000D+00  0.000000D+00  0.000000D+00  0.000000D+00  0.000000D+00
    127   0.000000D+00  0.000000D+00  0.000000D+00  0.000000D+00  0.000000D+00
    128   0.000000D+00  0.000000D+00  0.000000D+00  0.000000D+00  0.000000D+00
    129   0.000000D+00  0.000000D+00  0.000000D+00  0.000000D+00  0.000000D+00
    130   0.000000D+00  0.000000D+00  0.000000D+00  0.000000D+00  0.000000D+00
    131   0.000000D+00  0.000000D+00  0.000000D+00  0.000000D+00  0.000000D+00
    132   0.000000D+00  0.000000D+00  0.000000D+00  0.000000D+00  0.000000D+00
    133   0.000000D+00  0.000000D+00  0.000000D+00  0.000000D+00  0.000000D+00
    134   0.000000D+00  0.000000D+00  0.000000D+00  0.000000D+00  0.000000D+00
    135   0.000000D+00  0.000000D+00  0.000000D+00  0.000000D+00  0.000000D+00
    136   0.000000D+00  0.000000D+00  0.000000D+00  0.000000D+00  0.000000D+00
    137   0.000000D+00  0.000000D+00  0.000000D+00  0.000000D+00  0.000000D+00
    138   0.000000D+00  0.000000D+00  0.000000D+00  0.000000D+00  0.000000D+00
    139   0.000000D+00  0.000000D+00  0.000000D+00  0.000000D+00  0.000000D+00
    140   0.000000D+00  0.000000D+00  0.000000D+00  0.000000D+00  0.000000D+00
    141   0.000000D+00  0.000000D+00  0.000000D+00  0.000000D+00  0.000000D+00
    142   0.000000D+00  0.000000D+00  0.000000D+00  0.000000D+00  0.000000D+00
    143   0.000000D+00  0.000000D+00  0.000000D+00  0.000000D+00  0.000000D+00
    144   0.000000D+00  0.000000D+00  0.000000D+00  0.000000D+00  0.000000D+00
    145   0.000000D+00  0.000000D+00  0.000000D+00  0.000000D+00  0.000000D+00
    146   0.000000D+00  0.000000D+00  0.000000D+00  0.000000D+00  0.000000D+00
    147   0.000000D+00  0.000000D+00  0.000000D+00  0.000000D+00  0.000000D+00
    148   0.000000D+00  0.000000D+00  0.000000D+00  0.000000D+00  0.000000D+00
    149   0.000000D+00  0.000000D+00  0.000000D+00  0.000000D+00  0.000000D+00
    150   0.000000D+00  0.000000D+00  0.000000D+00  0.000000D+00  0.000000D+00
    151   0.000000D+00  0.000000D+00  0.000000D+00  0.000000D+00  0.000000D+00
    152   0.000000D+00  0.000000D+00  0.000000D+00  0.000000D+00  0.000000D+00
    153   0.000000D+00  0.000000D+00  0.000000D+00  0.000000D+00  0.000000D+00
    154   0.000000D+00  0.000000D+00  0.000000D+00  0.000000D+00  0.000000D+00
    155   0.000000D+00  0.000000D+00  0.000000D+00  0.000000D+00  0.000000D+00
    156   0.000000D+00  0.000000D+00  0.000000D+00  0.000000D+00  0.000000D+00
    157   0.000000D+00  0.000000D+00  0.000000D+00  0.000000D+00  0.000000D+00
    158   0.000000D+00  0.000000D+00  0.000000D+00  0.000000D+00  0.000000D+00
    159   0.000000D+00  0.000000D+00  0.000000D+00  0.000000D+00  0.000000D+00
    160   0.000000D+00  0.000000D+00  0.000000D+00  0.000000D+00  0.000000D+00
    161   0.000000D+00  0.000000D+00  0.000000D+00  0.000000D+00  0.000000D+00
    162   0.000000D+00  0.000000D+00  0.000000D+00  0.000000D+00  0.000000D+00
    163   0.000000D+00  0.000000D+00  0.000000D+00  0.000000D+00  0.000000D+00
    164   0.000000D+00  0.000000D+00  0.000000D+00  0.000000D+00  0.000000D+00
    165   0.000000D+00  0.000000D+00  0.000000D+00  0.000000D+00  0.000000D+00
    166   0.000000D+00  0.000000D+00  0.000000D+00  0.000000D+00  0.000000D+00
    167   0.000000D+00  0.000000D+00  0.000000D+00  0.000000D+00  0.000000D+00
    168   0.000000D+00  0.000000D+00  0.000000D+00  0.000000D+00  0.000000D+00
    169   0.000000D+00  0.000000D+00  0.000000D+00  0.000000D+00  0.000000D+00
    170   0.000000D+00  0.000000D+00  0.000000D+00  0.000000D+00  0.000000D+00
    171   0.000000D+00  0.000000D+00  0.000000D+00  0.000000D+00  0.000000D+00
    172   0.000000D+00  0.000000D+00  0.000000D+00  0.000000D+00  0.000000D+00
    173   0.000000D+00  0.000000D+00  0.000000D+00  0.000000D+00  0.000000D+00
    174   0.000000D+00  0.000000D+00  0.000000D+00  0.000000D+00  0.000000D+00
    175   0.251800D-05  0.167053D-04  0.000000D+00  0.000000D+00 -0.638960D-05
    176   0.000000D+00  0.000000D+00  0.184480D-05  0.000000D+00  0.000000D+00
    177   0.000000D+00  0.000000D+00  0.000000D+00  0.184480D-05  0.000000D+00
    178   0.567951D-05  0.404935D-04  0.000000D+00  0.000000D+00 -0.236911D-04
    179   0.303122D-03  0.193624D-02  0.000000D+00  0.000000D+00 -0.543073D-03
    180   0.000000D+00  0.000000D+00  0.154293D-03  0.000000D+00  0.000000D+00
    181   0.000000D+00  0.000000D+00  0.000000D+00  0.154293D-03  0.000000D+00
    182   0.000000D+00  0.000000D+00  0.000000D+00  0.000000D+00  0.000000D+00
    183   0.000000D+00  0.000000D+00  0.000000D+00  0.000000D+00  0.000000D+00
    184   0.539770D-02  0.334657D-01  0.000000D+00  0.000000D+00  0.568364D-03
    185   0.000000D+00  0.000000D+00  0.267428D-02  0.000000D+00  0.000000D+00
    186   0.000000D+00  0.000000D+00  0.000000D+00  0.267428D-02  0.000000D+00
    187   0.000000D+00  0.000000D+00  0.000000D+00  0.000000D+00  0.000000D+00
    188   0.000000D+00  0.000000D+00  0.000000D+00  0.000000D+00  0.000000D+00
    189   0.981147D-02  0.601529D-01  0.000000D+00  0.000000D+00 -0.206923D-02
    190   0.000000D+00  0.000000D+00  0.680526D-02  0.000000D+00  0.000000D+00
    191   0.000000D+00  0.000000D+00  0.000000D+00  0.680526D-02  0.000000D+00
    192   0.000000D+00  0.000000D+00  0.000000D+00  0.000000D+00  0.000000D+00
    193   0.000000D+00  0.000000D+00  0.000000D+00  0.000000D+00  0.000000D+00
    194   0.000000D+00  0.000000D+00  0.000000D+00  0.000000D+00  0.000000D+00
    195   0.000000D+00  0.000000D+00  0.000000D+00  0.000000D+00  0.000000D+00
    196   0.120892D-01  0.733211D-01  0.000000D+00  0.000000D+00 -0.460346D-02
    197   0.000000D+00  0.000000D+00  0.107200D-01  0.000000D+00  0.000000D+00
    198   0.000000D+00  0.000000D+00  0.000000D+00  0.107200D-01  0.000000D+00
    199   0.000000D+00  0.000000D+00  0.000000D+00  0.000000D+00  0.000000D+00
    200   0.000000D+00  0.000000D+00  0.000000D+00  0.000000D+00  0.000000D+00
    201   0.000000D+00  0.000000D+00  0.000000D+00  0.000000D+00  0.000000D+00
    202   0.000000D+00  0.000000D+00  0.000000D+00  0.000000D+00  0.000000D+00
    203   0.000000D+00  0.000000D+00  0.000000D+00  0.000000D+00  0.000000D+00
    204   0.000000D+00  0.000000D+00  0.000000D+00  0.000000D+00  0.000000D+00
    205   0.181590D-02  0.114121D-01  0.000000D+00  0.000000D+00 -0.185669D-02
    206   0.220650D-02  0.137844D-01  0.000000D+00  0.000000D+00 -0.361239D-03
    207   0.000000D+00  0.000000D+00  0.111862D-02  0.000000D+00  0.000000D+00
    208   0.000000D+00  0.000000D+00  0.000000D+00  0.111862D-02  0.000000D+00
    209   0.388591D-02  0.242620D-01  0.000000D+00  0.000000D+00 -0.356387D-02
    210   0.000000D+00  0.000000D+00  0.120114D-02  0.000000D+00  0.000000D+00
    211   0.000000D+00  0.000000D+00  0.000000D+00  0.120114D-02  0.000000D+00
    212   0.418194D-02  0.260456D-01  0.000000D+00  0.000000D+00 -0.149120D-03
    213   0.000000D+00  0.000000D+00  0.000000D+00  0.000000D+00  0.000000D+00
    214   0.422710D-05  0.349200D-04  0.000000D+00  0.000000D+00 -0.277580D-04
    215   0.349532D-03  0.228449D-02  0.000000D+00  0.000000D+00 -0.853684D-03
    216   0.185905D-02  0.116622D-01  0.000000D+00  0.000000D+00 -0.199173D-02
    217   0.000000D+00  0.000000D+00  0.000000D+00  0.000000D+00  0.000000D+00
    218   0.000000D+00  0.000000D+00  0.000000D+00  0.000000D+00  0.000000D+00
    219   0.000000D+00  0.000000D+00  0.000000D+00  0.000000D+00  0.000000D+00
    220   0.000000D+00  0.000000D+00  0.000000D+00  0.000000D+00  0.000000D+00
    221   0.000000D+00  0.000000D+00  0.000000D+00  0.000000D+00  0.000000D+00
    222   0.000000D+00  0.000000D+00  0.000000D+00  0.000000D+00  0.000000D+00
    223   0.000000D+00  0.000000D+00  0.195842D-05  0.000000D+00  0.000000D+00
    224   0.000000D+00  0.000000D+00  0.000000D+00  0.195842D-05  0.000000D+00
    225   0.482590D-05  0.438152D-04  0.000000D+00  0.000000D+00 -0.394990D-04
    226   0.000000D+00  0.000000D+00  0.202807D-03  0.000000D+00  0.000000D+00
[...]
         |
   23    | -0.000192 -0.000064 -0.000037 -0.002665 -0.000074
   23    | -0.000192 -0.000064 -0.000037 -0.002665 -0.000074
         |
   24    | -0.000153 -0.000037 -0.000016 -0.002024 -0.000037
   24    | -0.000153 -0.000037 -0.000016 -0.002024 -0.000037
         |
   25    | -0.018077 -0.010857 -0.006831 -0.001783 -0.010857
   25    |  0.000000 -0.010857 -0.006831 -0.001783 -0.010857
         |
   26    | -0.012074 -0.021385 -0.008864 -0.002665 -0.008933
   26    | -0.012074  0.000000 -0.008864 -0.002665 -0.008933
         |
   27    | -0.010982 -0.012056 -0.021268 -0.002024 -0.008864
   27    | -0.010982 -0.012056  0.000000 -0.002024 -0.008864
         |
   28    | -0.005096 -0.003642 -0.002775 -0.017614 -0.002665
   28    | -0.005096 -0.003642 -0.002775  0.000000 -0.002665
         |

 AB - AA |     25        26        27        28        29
 BA - BB |     25        26        27        28        29
------------------------------------------------------------
   29    | -0.012074 -0.012141 -0.012056 -0.003642 -0.021385
   29    | -0.012074 -0.012141 -0.012056 -0.003642  0.000000
         |

                     Sum of ab pair energies =    -0.503786 A.U.
                     Sum of ba pair energies =    -0.279406 A.U.
                     Sum of aa pair energies =    -0.210620 A.U.
                     Sum of bb pair energies =    -0.210620 A.U.

           Sum of intraorbital pair energies =    -0.224380 A.U.
           Sum of interorbital pair energies =    -0.980053 A.U.
                                                  ----------
                         Total pair energies =    -1.204433 A.U.

                         Single Excitations  =     0.000000 A.U.

                          Total second order =    -1.204433 A.U.



            MP2(CBS) (With Interference Correction) 
            ---------------------------------------

 AB - AA |     19        20        21        22        23        24
 BA - BB |     19        20        21        22        23        24
----------------------------------------------------------------------
   19    | -0.020970 -0.000037 -0.000153 -0.000016 -0.000037 -0.000016
   19    |  0.000000 -0.000037 -0.000153 -0.000016 -0.000037 -0.000016
         |
   20    | -0.000039 -0.021091 -0.010852 -0.008856 -0.008927 -0.008857
   20    | -0.000039  0.000000 -0.010852 -0.008856 -0.008927 -0.008857
         |
   21    | -0.000202 -0.011987 -0.017842 -0.006827 -0.010852 -0.006827
   21    | -0.000202 -0.011987  0.000000 -0.006827 -0.010852 -0.006827
         |
   22    | -0.000018 -0.011939 -0.010881 -0.020970 -0.008856 -0.013252
   22    | -0.000018 -0.011939 -0.010881  0.000000 -0.008856 -0.013252
         |
   23    | -0.000039 -0.012043 -0.011987 -0.011939 -0.021091 -0.008857
   23    | -0.000039 -0.012043 -0.011987 -0.011939  0.000000 -0.008857
         |
   24    | -0.000017 -0.011955 -0.010878 -0.013676 -0.011955 -0.020970
   24    | -0.000017 -0.011955 -0.010878 -0.013676 -0.011955  0.000000
         |
   25    | -0.010876 -0.000258 -0.000640 -0.000203 -0.000258 -0.000202
   25    | -0.010876 -0.000258 -0.000640 -0.000203 -0.000258 -0.000202
         |
   26    | -0.011936 -0.000096 -0.000258 -0.000039 -0.000072 -0.000040
   26    | -0.011936 -0.000096 -0.000258 -0.000039 -0.000072 -0.000040
         |
   27    | -0.013671 -0.000040 -0.000202 -0.000017 -0.000040 -0.000018
   27    | -0.013671 -0.000040 -0.000202 -0.000017 -0.000040 -0.000018
         |
   28    | -0.002753 -0.003601 -0.004966 -0.002754 -0.003601 -0.002753
   28    | -0.002753 -0.003601 -0.004966 -0.002754 -0.003601 -0.002753
         |

 AB - AA |     19        20        21        22        23        24
 BA - BB |     19        20        21        22        23        24
----------------------------------------------------------------------
   29    | -0.011936 -0.000072 -0.000258 -0.000039 -0.000096 -0.000040
   29    | -0.011936 -0.000072 -0.000258 -0.000039 -0.000096 -0.000040
         |

 AB - AA |     25        26        27        28        29
 BA - BB |     25        26        27        28        29
------------------------------------------------------------
   19    | -0.006827 -0.008856 -0.013252 -0.002021 -0.008856
   19    | -0.006827 -0.008856 -0.013252 -0.002021 -0.008856
         |
   20    | -0.000192 -0.000074 -0.000037 -0.002661 -0.000064
   20    | -0.000192 -0.000074 -0.000037 -0.002661 -0.000064
         |
   21    | -0.000252 -0.000192 -0.000153 -0.001768 -0.000192
   21    | -0.000252 -0.000192 -0.000153 -0.001768 -0.000192
         |
   22    | -0.000153 -0.000037 -0.000016 -0.002021 -0.000037
   22    | -0.000153 -0.000037 -0.000016 -0.002021 -0.000037
         |
   23    | -0.000192 -0.000064 -0.000037 -0.002661 -0.000074
   23    | -0.000192 -0.000064 -0.000037 -0.002661 -0.000074
         |
   24    | -0.000153 -0.000037 -0.000016 -0.002021 -0.000037
   24    | -0.000153 -0.000037 -0.000016 -0.002021 -0.000037
         |
   25    | -0.017842 -0.010852 -0.006827 -0.001768 -0.010852
   25    |  0.000000 -0.010852 -0.006827 -0.001768 -0.010852
         |
   26    | -0.011987 -0.021091 -0.008858 -0.002661 -0.008927
   26    | -0.011987  0.000000 -0.008858 -0.002661 -0.008927
         |
   27    | -0.010878 -0.011961 -0.020970 -0.002021 -0.008858
   27    | -0.010878 -0.011961  0.000000 -0.002021 -0.008858
         |
   28    | -0.004966 -0.003601 -0.002753 -0.016546 -0.002661
   28    | -0.004966 -0.003601 -0.002753  0.000000 -0.002661
         |

 AB - AA |     25        26        27        28        29
 BA - BB |     25        26        27        28        29
------------------------------------------------------------
   29    | -0.011987 -0.012043 -0.011961 -0.003601 -0.021091
   29    | -0.011987 -0.012043 -0.011961 -0.003601  0.000000
         |

                     Sum of ab pair energies =    -0.497505 A.U.
                     Sum of ba pair energies =    -0.277029 A.U.
                     Sum of aa pair energies =    -0.210458 A.U.
                     Sum of bb pair energies =    -0.210458 A.U.

           Sum of intraorbital pair energies =    -0.220476 A.U.
           Sum of interorbital pair energies =    -0.974974 A.U.
                                                  ----------
                         Total pair energies =    -1.195450 A.U.

                         Single Excitations  =     0.000000 A.U.

                          Total second order =    -1.195450 A.U.

                         E2(CBS) - E2(Dir) =      -0.026663 A.U.

 E2(CBS)=      -1.204433 CBS-Int=       0.008983 OIii=       5.978150

 **********************************************************************

            Population analysis using the SCF density.

 **********************************************************************

 Orbital symmetries:
       Occupied  (SGU) (SGG) (SGU) (SGG) (PIG) (PIG) (PIU) (PIU)
                 (SGU) (SGG) (SGG) (SGU) (SGG) (PIU) (PIU) (PIG)
                 (PIG) (SGU) (SGG) (PIU) (PIU) (DLTG) (DLTG) (DLTU)
                 (DLTU) (PIG) (PIG) (SGU) (SGG)
       Virtual   (SGU) (SGG) (PIU) (PIU) (SGU) (PIG) (PIG) (SGG)
                 (DLTG) (DLTG) (SGU) (PIU) (PIU) (DLTU) (DLTU)
                 (PIG) (PIG) (SGG) (PIU) (PIU) (SGU) (SGG) (PIG)
                 (PIG) (SGG) (PHIU) (PHIU) (SGU) (DLTU) (DLTU)
                 (DLTG) (DLTG) (PIG) (PIG) (PIU) (PIU) (SGG) (PHIG)
                 (PHIG) (DLTG) (DLTG) (SGU) (PIU) (PIU) (SGG) (DLTU)
                 (DLTU) (SGU) (PIU) (PIU) (?A) (?A) (PHIU) (PHIU)
                 (PIG) (PIG) (?B) (?B) (SGG) (SGU) (SGG) (DLTU)
                 (DLTU) (DLTG) (DLTG) (PIG) (PIG) (PHIG) (PHIG)
                 (PIG) (PIG) (PIU) (PIU) (SGG) (SGU) (SGU) (SGG)
                 (PIU) (PIU) (DLTG) (DLTG) (DLTG) (DLTG) (PHIU)
                 (PHIU) (PHIG) (PHIG) (DLTU) (DLTU) (SGU) (PIU)
                 (PIU) (PIG) (PIG) (DLTU) (DLTU) (SGG) (PIG) (PIG)
                 (SGU) (SGU) (SGG) (PIU) (PIU) (PIG) (PIG) (SGG)
                 (SGU) (SGU) (PIU) (PIU) (SGG) (DLTG) (DLTG) (PHIU)
                 (PHIU) (?A) (?A) (?B) (?B) (PHIG) (PHIG) (DLTU)
                 (DLTU) (PIG) (PIG) (SGU) (DLTG) (DLTG) (PHIU)
                 (PHIU) (PHIG) (PHIG) (PIU) (PIU) (DLTG) (DLTG)
                 (DLTU) (DLTU) (PIU) (PIU) (DLTU) (DLTU) (SGG)
                 (PIG) (PIG) (SGU) (SGG) (PIG) (PIG) (SGU) (PIG)
                 (PIG) (PIU) (PIU) (SGG) (SGU) (SGG) (SGU) (SGG)
                 (DLTG) (DLTG) (PIU) (PIU) (PHIU) (PHIU) (PHIG)
                 (PHIG) (?A) (?A) (?B) (?B) (?C) (?C) (?D) (?D)
                 (DLTU) (DLTU) (PIG) (PIG) (SGU) (DLTG) (DLTG)
                 (PHIU) (PHIU) (PHIG) (PHIG) (PIU) (PIU) (DLTU)
                 (DLTU) (SGU) (PIG) (PIG) (SGG) (PIU) (PIU) (DLTG)
                 (DLTG) (PHIU) (PHIU) (?A) (?A) (?B) (?B) (PHIG)
                 (PHIG) (SGG) (DLTU) (DLTU) (PIG) (PIG) (SGU) (DLTG)
                 (DLTG) (DLTU) (DLTU) (PIU) (PIU) (PIG) (PIG) (SGG)
                 (SGU) (PIG) (PIG) (PIU) (PIU) (SGG) (SGU) (SGG)
                 (PIU) (PIU) (PIG) (PIG) (SGU) (DLTG) (DLTG) (DLTU)
                 (DLTU) (PHIU) (PHIU) (PHIG) (PHIG) (?A) (?A) (?B)
                 (?B) (?D) (?D) (?C) (?C) (?E) (?E) (?F) (?F) (DLTG)
                 (DLTG) (PHIU) (PHIU) (PHIG) (PHIG) (PIU) (PIU)
                 (DLTU) (DLTU) (PIG) (PIG) (SGU) (SGG) (SGG) (DLTG)
                 (DLTG) (PHIU) (PHIU) (PHIG) (PHIG) (?A) (?A) (?B)
                 (?B) (PIU) (PIU) (?C) (?C) (?D) (?D) (DLTU) (DLTU)
                 (PIG) (PIG) (SGU) (PIU) (PIU) (SGG) (DLTG) (DLTG)
                 (?A) (?A) (PHIU) (PHIU) (?B) (?B) (PHIG) (PHIG)
                 (DLTU) (DLTU) (PIG) (PIG) (SGU)
 The electronic state is 1-SGG.
 Alpha  occ. eigenvalues -- -328.78266-328.78266 -40.81022 -40.81022 -35.60881
 Alpha  occ. eigenvalues --  -35.60881 -35.60881 -35.60881 -35.60874 -35.60873
 Alpha  occ. eigenvalues --   -5.00239  -5.00155  -3.31898  -3.31302  -3.31302
 Alpha  occ. eigenvalues --   -3.31245  -3.31245  -3.31197  -0.51065  -0.49883
 Alpha  occ. eigenvalues --   -0.49883  -0.48229  -0.48229  -0.47492  -0.47492
 Alpha  occ. eigenvalues --   -0.46037  -0.46037  -0.45065  -0.23684
 Alpha virt. eigenvalues --    0.00777   0.04165   0.04372   0.04372   0.05683
 Alpha virt. eigenvalues --    0.08001   0.08001   0.09069   0.14393   0.14393
 Alpha virt. eigenvalues --    0.15997   0.16821   0.16821   0.17696   0.17696
 Alpha virt. eigenvalues --    0.18734   0.18734   0.19322   0.22368   0.22368
 Alpha virt. eigenvalues --    0.22570   0.23038   0.34698   0.34698   0.34856
 Alpha virt. eigenvalues --    0.43190   0.43190   0.43342   0.46757   0.46757
 Alpha virt. eigenvalues --    0.47857   0.47857   0.48264   0.48264   0.48704
 Alpha virt. eigenvalues --    0.48704   0.51226   0.52251   0.52251   0.53026
 Alpha virt. eigenvalues --    0.53026   0.59549   0.63521   0.63521   0.65600
 Alpha virt. eigenvalues --    0.71470   0.71470   0.72285   0.78884   0.78884
 Alpha virt. eigenvalues --    0.78950   0.78950   0.85437   0.85437   0.88140
 Alpha virt. eigenvalues --    0.88140   0.89965   0.89965   0.91069   0.95601
 Alpha virt. eigenvalues --    0.98124   0.99857   0.99857   1.01736   1.01736
 Alpha virt. eigenvalues --    1.02134   1.02134   1.04730   1.04730   1.05220
 Alpha virt. eigenvalues --    1.05220   1.12985   1.12985   1.18227   1.19990
 Alpha virt. eigenvalues --    1.48733   1.60944   1.67329   1.67329   1.68092
 Alpha virt. eigenvalues --    1.68092   1.78093   1.78093   1.79670   1.79670
 Alpha virt. eigenvalues --    1.84261   1.84261   1.86762   1.86762   1.93122
 Alpha virt. eigenvalues --    1.93655   1.93655   2.00704   2.00704   2.06359
 Alpha virt. eigenvalues --    2.06359   2.26433   2.38893   2.38893   2.46461
 Alpha virt. eigenvalues --    2.60476   2.64117   2.81528   2.81528   2.85329
 Alpha virt. eigenvalues --    2.85329   3.06385   3.16646   3.63042   4.24792
 Alpha virt. eigenvalues --    4.24792   4.32022   4.38513   4.38513   4.46693
 Alpha virt. eigenvalues --    4.46693   4.47233   4.47233   4.48284   4.48284
 Alpha virt. eigenvalues --    4.50538   4.50538   4.58307   4.58307   4.72230
 Alpha virt. eigenvalues --    4.72230   4.80232   4.94370   4.94370   4.94501
 Alpha virt. eigenvalues --    4.94501   4.97470   4.97470   5.01898   5.01898
 Alpha virt. eigenvalues --    5.05564   5.05564   5.10976   5.10976   5.20314
 Alpha virt. eigenvalues --    5.20314   5.21845   5.21845   5.24271   5.27009
 Alpha virt. eigenvalues --    5.27009   5.27361   5.50916   5.70009   5.70009
 Alpha virt. eigenvalues --    6.98625   7.85822   7.85822   7.86471   7.86471
 Alpha virt. eigenvalues --    8.02329   8.45056   9.78553  10.33152  11.22273
 Alpha virt. eigenvalues --   11.22705  11.22705  11.22846  11.22846  11.23050
 Alpha virt. eigenvalues --   11.23050  11.23223  11.23223  11.23287  11.23287
 Alpha virt. eigenvalues --   11.23296  11.23296  11.23467  11.23467  11.23467
 Alpha virt. eigenvalues --   11.23467  11.23541  11.23541  11.25811  11.25811
 Alpha virt. eigenvalues --   11.31426  12.72066  12.72066  12.72199  12.72199
 Alpha virt. eigenvalues --   12.74060  12.74060  12.76972  12.76972  12.81640
 Alpha virt. eigenvalues --   12.81640  12.90027  12.92541  12.92541  12.98043
 Alpha virt. eigenvalues --   13.14304  13.14304  13.20195  13.20195  13.23348
 Alpha virt. eigenvalues --   13.23348  13.23538  13.23538  13.23991  13.23991
 Alpha virt. eigenvalues --   13.24963  13.24963  13.25666  13.29889  13.29889
 Alpha virt. eigenvalues --   13.55189  13.55189  13.95496  15.90842  15.90842
 Alpha virt. eigenvalues --   16.01629  16.01629  16.01968  16.01968  16.14327
 Alpha virt. eigenvalues --   16.14327  16.17025  16.80694  22.65695  22.65695
 Alpha virt. eigenvalues --   22.66441  22.66441  22.79436  23.32658  31.01649
 Alpha virt. eigenvalues --   31.01661  31.01661  31.01667  31.01667  31.01677
 Alpha virt. eigenvalues --   31.01696  31.01696  31.01696  31.01696  31.01755
 Alpha virt. eigenvalues --   31.01755  31.01755  31.01755  31.01829  31.01829
 Alpha virt. eigenvalues --   31.01829  31.01829  31.01910  31.01910  31.01910
 Alpha virt. eigenvalues --   31.01910  31.01989  31.01989  31.01989  31.01989
 Alpha virt. eigenvalues --   35.36792  35.36792  35.36900  35.36900  35.38028
 Alpha virt. eigenvalues --   35.38028  35.39376  35.39376  35.42903  35.42903
 Alpha virt. eigenvalues --   35.52850  35.52850  35.55103  35.56132  35.89688
 Alpha virt. eigenvalues --   35.89852  35.89852  35.89892  35.89892  35.89928
 Alpha virt. eigenvalues --   35.89928  35.89948  35.89948  35.89949  35.89949
 Alpha virt. eigenvalues --   35.89974  35.89974  35.89990  35.89990  35.89991
 Alpha virt. eigenvalues --   35.89991  35.90063  35.90063  35.91127  35.91127
 Alpha virt. eigenvalues --   35.93643  37.19414  37.19414  37.21516  37.22370
 Alpha virt. eigenvalues --   37.22370  37.23645  37.23645  37.23657  37.23657
 Alpha virt. eigenvalues --   37.23849  37.23849  37.24290  37.24290  37.26229
 Alpha virt. eigenvalues --   37.26229  37.35402  37.35402  37.56441
          Condensed to atoms (all electrons):
              1          2
     1  Cu  28.624376   0.375624
     2  Cu   0.375624  28.624376
 Mulliken atomic charges:
              1
     1  Cu   0.000000
     2  Cu   0.000000
 Sum of Mulliken atomic charges =   0.00000
 Mulliken charges with hydrogens summed into heavy atoms:
              1
     1  Cu   0.000000
     2  Cu   0.000000
 Sum of Mulliken charges with hydrogens summed into heavy atoms =   0.00000
          Atomic-Atomic Spin Densities.
              1          2
     1  Cu   0.000000   0.000000
     2  Cu   0.000000   0.000000
 Mulliken atomic spin densities:
              1
     1  Cu   0.000000
     2  Cu   0.000000
 Sum of Mulliken atomic spin densities =   0.00000
 Electronic spatial extent (au):  <R**2>=            312.3231
 Charge=              0.0000 electrons
 Dipole moment (field-independent basis, Debye):
    X=              0.0000    Y=              0.0000    Z=              0.0000  Tot=              0.0000
 Quadrupole moment (field-independent basis, Debye-Ang):
   XX=            -28.6548   YY=            -28.6548   ZZ=            -19.6228
   XY=              0.0000   XZ=              0.0000   YZ=              0.0000
 Traceless Quadrupole moment (field-independent basis, Debye-Ang):
   XX=             -3.0107   YY=             -3.0107   ZZ=              6.0213
   XY=              0.0000   XZ=              0.0000   YZ=              0.0000
 Octapole moment (field-independent basis, Debye-Ang**2):
  XXX=              0.0000  YYY=              0.0000  ZZZ=              0.0000  XYY=              0.0000
  XXY=              0.0000  XXZ=              0.0000  XZZ=              0.0000  YZZ=              0.0000
  YYZ=              0.0000  XYZ=              0.0000
 Hexadecapole moment (field-independent basis, Debye-Ang**3):
 XXXX=            -56.2898 YYYY=            -56.2898 ZZZZ=           -191.4498 XXXY=              0.0000
 XXXZ=              0.0000 YYYX=              0.0000 YYYZ=              0.0000 ZZZX=              0.0000
 ZZZY=              0.0000 XXYY=            -18.7633 XXZZ=            -43.9827 YYZZ=            -43.9827
 XXYZ=              0.0000 YYXZ=              0.0000 ZZXY=              0.0000
 N-N= 2.004946760482D+02 E-N=-1.238895864224D+04  KE= 4.916917919425D+03
                          Isotropic Fermi Contact Couplings
        Atom                 a.u.       MegaHertz       Gauss      10(-4) cm-1
     1  Cu(63)             0.00000       0.00000       0.00000       0.00000
     2  Cu(63)             0.00000       0.00000       0.00000       0.00000
 --------------------------------------------------------
       Center         ----  Spin Dipole Couplings  ----
                      3XX-RR        3YY-RR        3ZZ-RR
 --------------------------------------------------------
     1   Atom        0.000000      0.000000      0.000000
     2   Atom        0.000000      0.000000      0.000000
 --------------------------------------------------------
                        XY            XZ            YZ
 --------------------------------------------------------
     1   Atom        0.000000      0.000000      0.000000
     2   Atom        0.000000      0.000000      0.000000
 --------------------------------------------------------


 ---------------------------------------------------------------------------------
              Anisotropic Spin Dipole Couplings in Principal Axis System
 ---------------------------------------------------------------------------------

       Atom             a.u.   MegaHertz   Gauss  10(-4) cm-1        Axes

              Baa     0.0000     0.000     0.000     0.000  1.0000  0.0000  0.0000
     1 Cu(63) Bbb     0.0000     0.000     0.000     0.000  0.0000  1.0000  0.0000
              Bcc     0.0000     0.000     0.000     0.000  0.0000  0.0000  1.0000
 
              Baa     0.0000     0.000     0.000     0.000  1.0000  0.0000  0.0000
     2 Cu(63) Bbb     0.0000     0.000     0.000     0.000  0.0000  1.0000  0.0000
              Bcc     0.0000     0.000     0.000     0.000  0.0000  0.0000  1.0000
 

 ---------------------------------------------------------------------------------


 Test job not archived.
 1\1\GINC-C24\SP\ROMP2-RW\Gen\Cu2\GPETERSSON\03-Mar-2013\0\\# ROMP2(RW)
  Gen GFinput Int=NoBasisTransform Int(Grid=Ultrafine) IOp(3/32=2,5/6=1
 0,8/11=1,9/33=1) Maxdisk=128GB CBSextrapolate(Nmin=15,MinPop)\\Cu2\\0,
 1\Cu\Cu,1,2.2197\\Version=EM64L-G09RevA.02\State=1-SGG\HF=-3277.940833
 6\MP2=-3279.1186031\E2(CBS)=-1.204433\CBS-Int=-1.1954498\OIii=5.978149
 7\RMSD=2.440e-11\PG=D*H [C*(Cu1.Cu1)]\\@


 LIVE PURE, SPEAK TRUE, RIGHT WRONG, FOLLOW THE KING...
 ELSE, WHEREFORE BORN......
           IDYLLS OF THE KING, TENNYSON
 Job cpu time:  0 days 12 hours 17 minutes  4.6 seconds.
 File lengths (MBytes):  RWF=   4400 Int=      0 D2E=      0 Chk=     10 Scr=      1
 Normal termination of Gaussian 09 at Sun Mar  3 13:17:49 2013.
