 Entering Gaussian System, Link 0=g09
 AtFile(1): 6ZaP-NR.gbs
 Initial command:
 /share/apps/gaussian/g09root/g09/l1.exe /localscratch/735670/Gau-25450.inp -scrdir=/localscratch/735670/
 Entering Link 1 = /share/apps/gaussian/g09root/g09/l1.exe PID=     25451.
  
 Copyright (c) 1988,1990,1992,1993,1995,1998,2003,2009, Gaussian, Inc.
                  All Rights Reserved.
  
 This is part of the Gaussian(R) 09 program.  It is based on
 the Gaussian(R) 03 system (copyright 2003, Gaussian, Inc.),
 the Gaussian(R) 98 system (copyright 1998, Gaussian, Inc.),
 the Gaussian(R) 94 system (copyright 1995, Gaussian, Inc.),
 the Gaussian 92(TM) system (copyright 1992, Gaussian, Inc.),
 the Gaussian 90(TM) system (copyright 1990, Gaussian, Inc.),
 the Gaussian 88(TM) system (copyright 1988, Gaussian, Inc.),
 the Gaussian 86(TM) system (copyright 1986, Carnegie Mellon
 University), and the Gaussian 82(TM) system (copyright 1983,
 Carnegie Mellon University). Gaussian is a federally registered
 trademark of Gaussian, Inc.
  
 This software contains proprietary and confidential information,
 including trade secrets, belonging to Gaussian, Inc.
  
 This software is provided under written license and may be
 used, copied, transmitted, or stored only in accord with that
 written license.
  
 The following legend is applicable only to US Government
 contracts under FAR:
  
                    RESTRICTED RIGHTS LEGEND
  
 Use, reproduction and disclosure by the US Government is
 subject to restrictions as set forth in subparagraphs (a)
 and (c) of the Commercial Computer Software - Restricted
 Rights clause in FAR 52.227-19.
  
 Gaussian, Inc.
 340 Quinnipiac St., Bldg. 40, Wallingford CT 06492
  
  
 ---------------------------------------------------------------
 Warning -- This program may not be used in any manner that
 competes with the business of Gaussian, Inc. or will provide
 assistance to any competitor of Gaussian, Inc.  The licensee
 of this program is prohibited from giving any competitor of
 Gaussian, Inc. access to this program.  By using this program,
 the user acknowledges that Gaussian, Inc. is engaged in the
 business of creating and licensing software in the field of
 computational chemistry and represents and warrants to the
 licensee that it is not a competitor of Gaussian, Inc. and that
 it will not use this program in any manner prohibited above.
 ---------------------------------------------------------------
  

 Cite this work as:
 Gaussian 09, Revision A.02,
 M. J. Frisch, G. W. Trucks, H. B. Schlegel, G. E. Scuseria, 
 M. A. Robb, J. R. Cheeseman, G. Scalmani, V. Barone, B. Mennucci, 
 G. A. Petersson, H. Nakatsuji, M. Caricato, X. Li, H. P. Hratchian, 
 A. F. Izmaylov, J. Bloino, G. Zheng, J. L. Sonnenberg, M. Hada, 
 M. Ehara, K. Toyota, R. Fukuda, J. Hasegawa, M. Ishida, T. Nakajima, 
 Y. Honda, O. Kitao, H. Nakai, T. Vreven, J. A. Montgomery, Jr., 
 J. E. Peralta, F. Ogliaro, M. Bearpark, J. J. Heyd, E. Brothers, 
 K. N. Kudin, V. N. Staroverov, R. Kobayashi, J. Normand, 
 K. Raghavachari, A. Rendell, J. C. Burant, S. S. Iyengar, J. Tomasi, 
 M. Cossi, N. Rega, J. M. Millam, M. Klene, J. E. Knox, J. B. Cross, 
 V. Bakken, C. Adamo, J. Jaramillo, R. Gomperts, R. E. Stratmann, 
 O. Yazyev, A. J. Austin, R. Cammi, C. Pomelli, J. W. Ochterski, 
 R. L. Martin, K. Morokuma, V. G. Zakrzewski, G. A. Voth, 
 P. Salvador, J. J. Dannenberg, S. Dapprich, A. D. Daniels, 
 O. Farkas, J. B. Foresman, J. V. Ortiz, J. Cioslowski, 
 and D. J. Fox, Gaussian, Inc., Wallingford CT, 2009.
 
 ******************************************
 Gaussian 09:  EM64L-G09RevA.02 11-Jun-2009
                 1-Aug-2012 
 ******************************************
 % Mem=12GB
 % Nproc=8
 Will use up to    8 processors via shared memory.
 ----------------------------------------------------------------------
 # ROMP2(RW) Gen GFinput Int=NoBasisTransform Int(Grid=Ultrafine) IOp(3
 /32=2,5/6=10,8/11=1,9/33=1) Maxdisk=128GB CBSextrapolate(Nmin=20,MinPo
 p)
 ----------------------------------------------------------------------
 1/38=1/1;
 2/12=2,17=6,18=5,40=1/2;
 3/5=7,11=2,16=1,24=10,25=1,30=1,32=2,60=-1,75=-5,116=101/1,2,3;
 4//1;
 5/5=2,6=10,38=5/2;
 8/5=-1,10=91,11=1/1;
 9/16=-3,33=1,75=2,81=20,83=4/6,4;
 6/7=2,8=2,9=2,10=2/1;
 99/5=1,9=1/99;
 ---
 Cu2
 ---
 Symbolic Z-matrix:
 Charge =  0 Multiplicity = 1
 Cu
 Cu                   1     2.2197 
 
                          Input orientation:                          
 ---------------------------------------------------------------------
 Center     Atomic      Atomic             Coordinates (Angstroms)
 Number     Number       Type             X           Y           Z
 ---------------------------------------------------------------------
      1         29           0        0.000000    0.000000    0.000000
      2         29           0        0.000000    0.000000    2.219700
 ---------------------------------------------------------------------
 Stoichiometry    Cu2
 Framework group  D*H[C*(Cu.Cu)]
 Deg. of freedom     1
 Full point group                 D*H     NOp   8
 Largest Abelian subgroup         D2H     NOp   8
 Largest concise Abelian subgroup C2      NOp   2
                         Standard orientation:                         
 ---------------------------------------------------------------------
 Center     Atomic      Atomic             Coordinates (Angstroms)
 Number     Number       Type             X           Y           Z
 ---------------------------------------------------------------------
      1         29           0        0.000000    0.000000    1.109850
      2         29           0        0.000000    0.000000   -1.109850
 ---------------------------------------------------------------------
 Rotational constants (GHZ):      0.0000000      3.2598954      3.2598954
 General basis read from cards:  (5D, 7F)
 AO basis set in the form of general basis input (Overlap normalization):
      1 0
 S  16 1.00       0.000000000000
      0.2170156600D+08  0.1337217075D-05
      0.4116699230D+07  0.8228129759D-05
      0.9442394270D+06  0.4696162218D-04
      0.2547899840D+06  0.2144901418D-03
      0.7890216920D+05  0.8329850422D-03
      0.2742345580D+05  0.2811200361D-02
      0.1048619140D+05  0.8439622788D-02
      0.4333723320D+04  0.2286517954D-01
      0.1905556580D+04  0.5602403200D-01
      0.8791997900D+03  0.1221850373D+00
      0.4205317290D+03  0.2260880834D+00
      0.2063396790D+03  0.3199963738D+00
      0.1029172230D+03  0.2783243088D+00
      0.5177483600D+02  0.1023486250D+00
      0.2609568000D+02  0.8527131959D-02
      0.1310254500D+02  0.1197940299D-02
 S  15 1.00       0.000000000000
      0.7890216920D+05 -0.1257539864D-06
      0.2742345580D+05 -0.2891274016D-05
      0.1048619140D+05 -0.1973789070D-04
      0.4333723320D+04 -0.1493176945D-03
      0.1905556580D+04 -0.7975619770D-03
      0.8791997900D+03 -0.3970991271D-02
      0.4205317290D+03 -0.1559086304D-01
      0.2063396790D+03 -0.4951290382D-01
      0.1029172230D+03 -0.9208923110D-01
      0.5177483600D+02 -0.2001895031D-01
      0.2609568000D+02  0.3206752929D+00
      0.1310254500D+02  0.5501914998D+00
      0.6521631000D+01  0.2350264704D+00
      0.3204345000D+01  0.1789531445D-01
      0.1548463000D+01  0.2777095866D-02
 P  16 1.00       0.000000000000
      0.7195298480D+05  0.5232494546D-05
      0.1733179300D+05  0.4786603468D-04
      0.5473907910D+04  0.2954413513D-03
      0.2083849540D+04  0.1341440521D-02
      0.8981890080D+03  0.4973804715D-02
      0.4193531180D+03  0.1591650800D-01
      0.2059872090D+03  0.4471160735D-01
      0.1046270870D+03  0.1084087937D+00
      0.5448076000D+02  0.2113397684D+00
      0.2898971400D+02  0.3099124349D+00
      0.1574731600D+02  0.2991272244D+00
      0.8714516000D+01  0.1539614451D+00
      0.4882216000D+01  0.3595029550D-01
      0.2731115000D+01  0.3168528559D-02
      0.1488580000D+01  0.7044435932D-04
      0.7607120000D+00 -0.1806835069D-03
 S  11 1.00       0.000000000000
      0.2063396790D+03  0.3773710973D-03
      0.1029172230D+03  0.2245090038D-02
      0.5177483600D+02  0.2178377470D-02
      0.2609568000D+02 -0.3224005463D-01
      0.1310254500D+02 -0.1863442005D+00
      0.6521631000D+01 -0.1080433875D+00
      0.3204345000D+01  0.4070823288D+00
      0.1548463000D+01  0.5900729598D+00
      0.7334970000D+00  0.2150089563D+00
      0.3395350000D+00  0.5043057013D-02
      0.1531240000D+00  0.2963828469D-02
 P  14 1.00       0.000000000000
      0.2083849540D+04  0.1382535086D-05
      0.8981890080D+03  0.1091168547D-04
      0.4193531180D+03  0.8899827733D-04
      0.2059872090D+03  0.4945318377D-03
      0.1046270870D+03  0.2384590350D-02
      0.5448076000D+02  0.7596397865D-02
      0.2898971400D+02  0.1758244559D-01
      0.1574731600D+02  0.1737289711D-01
      0.8714516000D+01 -0.5918999856D-01
      0.4882216000D+01 -0.2201982757D+00
      0.2731115000D+01 -0.3404223630D+00
      0.1488580000D+01 -0.3328355570D+00
      0.7607120000D+00 -0.1650818961D+00
      0.3447750000D+00 -0.2159576525D-01
 D  14 1.00       0.000000000000
      0.1768886590D+04  0.1749760539D-04
      0.5500070190D+03  0.1762687011D-03
      0.2110266260D+03  0.1137566977D-02
      0.9352893700D+02  0.5160725113D-02
      0.4554209700D+02  0.1737008871D-01
      0.2348391400D+02  0.4568130482D-01
      0.1249677800D+02  0.1014441268D+00
      0.6744612000D+01  0.1793508765D+00
      0.3650261000D+01  0.2422350521D+00
      0.1965735000D+01  0.2623880087D+00
      0.1046333000D+01  0.2364294693D+00
      0.5461160000D+00  0.1714135394D+00
      0.2762170000D+00  0.8290541992D-01
      0.1329620000D+00  0.1556998240D-01
 D   1 1.00       0.000000000000
      0.4077654686D-01  0.1000000000D+01
 F   1 1.00       0.000000000000
      0.9311967623D-01  0.1000000000D+01
 G   1 1.00       0.000000000000
      0.1384125054D+00  0.1000000000D+01
 H   1 1.00       0.000000000000
      0.1824427814D+00  0.1000000000D+01
 S   9 1.00       0.000000000000
      0.2609568000D+02  0.1936643569D-03
      0.1310254500D+02  0.3945648807D-02
      0.6521631000D+01  0.1069140062D-02
      0.3204345000D+01 -0.1855128224D-01
      0.1548463000D+01 -0.8108314415D-01
      0.7334970000D+00 -0.1556963659D+00
      0.3395350000D+00  0.6209210833D-01
      0.1531240000D+00  0.6673393997D+00
      0.6706900000D-01  0.4201197099D+00
 S   1 1.00       0.000000000000
      0.1480099390D-01  0.1000000000D+01
 P   9 1.00       0.000000000000
      0.2898971400D+02  0.3390833852D-02
      0.1574731600D+02  0.3722184623D-02
      0.8714516000D+01 -0.2335013420D-01
      0.4882216000D+01 -0.3172601861D-01
      0.2731115000D+01 -0.1258963730D+00
      0.1488580000D+01 -0.2525189805D-01
      0.7607120000D+00 -0.1209337420D+00
      0.3447750000D+00  0.4299066188D+00
      0.1076719270D+00  0.7347341196D+00
 P   1 1.00       0.000000000000
      0.2992204057D-01  0.1000000000D+01
 S   1 1.00       0.000000000000
      0.1333372000D+01  0.1000000000D+01
 S   1 1.00       0.000000000000
      0.6244140000D+00  0.1000000000D+01
 S   1 1.00       0.000000000000
      0.2924120000D+00  0.1000000000D+01
 S   1 1.00       0.000000000000
      0.1369360000D+00  0.1000000000D+01
 S   1 1.00       0.000000000000
      0.6412700000D-01  0.1000000000D+01
 P   1 1.00       0.000000000000
      0.3745508000D+01  0.1000000000D+01
 P   1 1.00       0.000000000000
      0.1870782000D+01  0.1000000000D+01
 P   1 1.00       0.000000000000
      0.9344060000D+00  0.1000000000D+01
 P   1 1.00       0.000000000000
      0.4667110000D+00  0.1000000000D+01
 P   1 1.00       0.000000000000
      0.2331100000D+00  0.1000000000D+01
 D   1 1.00       0.000000000000
      0.4352489000D+01  0.1000000000D+01
 D   1 1.00       0.000000000000
      0.1760656000D+01  0.1000000000D+01
 D   1 1.00       0.000000000000
      0.7122150000D+00  0.1000000000D+01
 D   1 1.00       0.000000000000
      0.2881030000D+00  0.1000000000D+01
 D   1 1.00       0.000000000000
      0.1165430000D+00  0.1000000000D+01
 F   1 1.00       0.000000000000
      0.1380886400D+02  0.1000000000D+01
 F   1 1.00       0.000000000000
      0.5475663000D+01  0.1000000000D+01
 F   1 1.00       0.000000000000
      0.2171278000D+01  0.1000000000D+01
 F   1 1.00       0.000000000000
      0.8609820000D+00  0.1000000000D+01
 F   1 1.00       0.000000000000
      0.3414070000D+00  0.1000000000D+01
 G   1 1.00       0.000000000000
      0.1041730400D+02  0.1000000000D+01
 G   1 1.00       0.000000000000
      0.4015867000D+01  0.1000000000D+01
 G   1 1.00       0.000000000000
      0.1548116000D+01  0.1000000000D+01
 G   1 1.00       0.000000000000
      0.5967980000D+00  0.1000000000D+01
 H   1 1.00       0.000000000000
      0.8739469000D+01  0.1000000000D+01
 H   1 1.00       0.000000000000
      0.3108093000D+01  0.1000000000D+01
 H   1 1.00       0.000000000000
      0.1105358000D+01  0.1000000000D+01
 I   1 1.00       0.000000000000
      0.7399309000D+01  0.1000000000D+01
 I   1 1.00       0.000000000000
      0.2571076000D+01  0.1000000000D+01
 J   1 1.00       0.000000000000
      0.5000165162D+01  0.1000000000D+01
 ****
      2 0
 S  16 1.00       0.000000000000
      0.2170156600D+08  0.1337217075D-05
      0.4116699230D+07  0.8228129759D-05
      0.9442394270D+06  0.4696162218D-04
      0.2547899840D+06  0.2144901418D-03
      0.7890216920D+05  0.8329850422D-03
      0.2742345580D+05  0.2811200361D-02
      0.1048619140D+05  0.8439622788D-02
      0.4333723320D+04  0.2286517954D-01
      0.1905556580D+04  0.5602403200D-01
      0.8791997900D+03  0.1221850373D+00
      0.4205317290D+03  0.2260880834D+00
      0.2063396790D+03  0.3199963738D+00
      0.1029172230D+03  0.2783243088D+00
      0.5177483600D+02  0.1023486250D+00
      0.2609568000D+02  0.8527131959D-02
      0.1310254500D+02  0.1197940299D-02
 S  15 1.00       0.000000000000
      0.7890216920D+05 -0.1257539864D-06
      0.2742345580D+05 -0.2891274016D-05
      0.1048619140D+05 -0.1973789070D-04
      0.4333723320D+04 -0.1493176945D-03
      0.1905556580D+04 -0.7975619770D-03
      0.8791997900D+03 -0.3970991271D-02
      0.4205317290D+03 -0.1559086304D-01
      0.2063396790D+03 -0.4951290382D-01
      0.1029172230D+03 -0.9208923110D-01
      0.5177483600D+02 -0.2001895031D-01
      0.2609568000D+02  0.3206752929D+00
      0.1310254500D+02  0.5501914998D+00
      0.6521631000D+01  0.2350264704D+00
      0.3204345000D+01  0.1789531445D-01
      0.1548463000D+01  0.2777095866D-02
 P  16 1.00       0.000000000000
      0.7195298480D+05  0.5232494546D-05
      0.1733179300D+05  0.4786603468D-04
      0.5473907910D+04  0.2954413513D-03
      0.2083849540D+04  0.1341440521D-02
      0.8981890080D+03  0.4973804715D-02
      0.4193531180D+03  0.1591650800D-01
      0.2059872090D+03  0.4471160735D-01
      0.1046270870D+03  0.1084087937D+00
      0.5448076000D+02  0.2113397684D+00
      0.2898971400D+02  0.3099124349D+00
      0.1574731600D+02  0.2991272244D+00
      0.8714516000D+01  0.1539614451D+00
      0.4882216000D+01  0.3595029550D-01
      0.2731115000D+01  0.3168528559D-02
      0.1488580000D+01  0.7044435932D-04
      0.7607120000D+00 -0.1806835069D-03
 S  11 1.00       0.000000000000
      0.2063396790D+03  0.3773710973D-03
      0.1029172230D+03  0.2245090038D-02
      0.5177483600D+02  0.2178377470D-02
      0.2609568000D+02 -0.3224005463D-01
      0.1310254500D+02 -0.1863442005D+00
      0.6521631000D+01 -0.1080433875D+00
      0.3204345000D+01  0.4070823288D+00
      0.1548463000D+01  0.5900729598D+00
      0.7334970000D+00  0.2150089563D+00
      0.3395350000D+00  0.5043057013D-02
      0.1531240000D+00  0.2963828469D-02
 P  14 1.00       0.000000000000
      0.2083849540D+04  0.1382535086D-05
      0.8981890080D+03  0.1091168547D-04
      0.4193531180D+03  0.8899827733D-04
      0.2059872090D+03  0.4945318377D-03
      0.1046270870D+03  0.2384590350D-02
      0.5448076000D+02  0.7596397865D-02
      0.2898971400D+02  0.1758244559D-01
      0.1574731600D+02  0.1737289711D-01
      0.8714516000D+01 -0.5918999856D-01
      0.4882216000D+01 -0.2201982757D+00
      0.2731115000D+01 -0.3404223630D+00
      0.1488580000D+01 -0.3328355570D+00
      0.7607120000D+00 -0.1650818961D+00
      0.3447750000D+00 -0.2159576525D-01
 D  14 1.00       0.000000000000
      0.1768886590D+04  0.1749760539D-04
      0.5500070190D+03  0.1762687011D-03
      0.2110266260D+03  0.1137566977D-02
      0.9352893700D+02  0.5160725113D-02
      0.4554209700D+02  0.1737008871D-01
      0.2348391400D+02  0.4568130482D-01
      0.1249677800D+02  0.1014441268D+00
      0.6744612000D+01  0.1793508765D+00
      0.3650261000D+01  0.2422350521D+00
      0.1965735000D+01  0.2623880087D+00
      0.1046333000D+01  0.2364294693D+00
      0.5461160000D+00  0.1714135394D+00
      0.2762170000D+00  0.8290541992D-01
      0.1329620000D+00  0.1556998240D-01
 D   1 1.00       0.000000000000
      0.4077654686D-01  0.1000000000D+01
 F   1 1.00       0.000000000000
      0.9311967623D-01  0.1000000000D+01
 G   1 1.00       0.000000000000
      0.1384125054D+00  0.1000000000D+01
 H   1 1.00       0.000000000000
      0.1824427814D+00  0.1000000000D+01
 S   9 1.00       0.000000000000
      0.2609568000D+02  0.1936643569D-03
      0.1310254500D+02  0.3945648807D-02
      0.6521631000D+01  0.1069140062D-02
      0.3204345000D+01 -0.1855128224D-01
      0.1548463000D+01 -0.8108314415D-01
      0.7334970000D+00 -0.1556963659D+00
      0.3395350000D+00  0.6209210833D-01
      0.1531240000D+00  0.6673393997D+00
      0.6706900000D-01  0.4201197099D+00
 S   1 1.00       0.000000000000
      0.1480099390D-01  0.1000000000D+01
 P   9 1.00       0.000000000000
      0.2898971400D+02  0.3390833852D-02
      0.1574731600D+02  0.3722184623D-02
      0.8714516000D+01 -0.2335013420D-01
      0.4882216000D+01 -0.3172601861D-01
      0.2731115000D+01 -0.1258963730D+00
      0.1488580000D+01 -0.2525189805D-01
      0.7607120000D+00 -0.1209337420D+00
      0.3447750000D+00  0.4299066188D+00
      0.1076719270D+00  0.7347341196D+00
 P   1 1.00       0.000000000000
      0.2992204057D-01  0.1000000000D+01
 S   1 1.00       0.000000000000
      0.1333372000D+01  0.1000000000D+01
 S   1 1.00       0.000000000000
      0.6244140000D+00  0.1000000000D+01
 S   1 1.00       0.000000000000
      0.2924120000D+00  0.1000000000D+01
 S   1 1.00       0.000000000000
      0.1369360000D+00  0.1000000000D+01
 S   1 1.00       0.000000000000
      0.6412700000D-01  0.1000000000D+01
 P   1 1.00       0.000000000000
      0.3745508000D+01  0.1000000000D+01
 P   1 1.00       0.000000000000
      0.1870782000D+01  0.1000000000D+01
 P   1 1.00       0.000000000000
      0.9344060000D+00  0.1000000000D+01
 P   1 1.00       0.000000000000
      0.4667110000D+00  0.1000000000D+01
 P   1 1.00       0.000000000000
      0.2331100000D+00  0.1000000000D+01
 D   1 1.00       0.000000000000
      0.4352489000D+01  0.1000000000D+01
 D   1 1.00       0.000000000000
      0.1760656000D+01  0.1000000000D+01
 D   1 1.00       0.000000000000
      0.7122150000D+00  0.1000000000D+01
 D   1 1.00       0.000000000000
      0.2881030000D+00  0.1000000000D+01
 D   1 1.00       0.000000000000
      0.1165430000D+00  0.1000000000D+01
 F   1 1.00       0.000000000000
      0.1380886400D+02  0.1000000000D+01
 F   1 1.00       0.000000000000
      0.5475663000D+01  0.1000000000D+01
 F   1 1.00       0.000000000000
      0.2171278000D+01  0.1000000000D+01
 F   1 1.00       0.000000000000
      0.8609820000D+00  0.1000000000D+01
 F   1 1.00       0.000000000000
      0.3414070000D+00  0.1000000000D+01
 G   1 1.00       0.000000000000
      0.1041730400D+02  0.1000000000D+01
 G   1 1.00       0.000000000000
      0.4015867000D+01  0.1000000000D+01
 G   1 1.00       0.000000000000
      0.1548116000D+01  0.1000000000D+01
 G   1 1.00       0.000000000000
      0.5967980000D+00  0.1000000000D+01
 H   1 1.00       0.000000000000
      0.8739469000D+01  0.1000000000D+01
 H   1 1.00       0.000000000000
      0.3108093000D+01  0.1000000000D+01
 H   1 1.00       0.000000000000
      0.1105358000D+01  0.1000000000D+01
 I   1 1.00       0.000000000000
      0.7399309000D+01  0.1000000000D+01
 I   1 1.00       0.000000000000
      0.2571076000D+01  0.1000000000D+01
 J   1 1.00       0.000000000000
      0.5000165162D+01  0.1000000000D+01
 ****

 There are    84 symmetry adapted basis functions of AG  symmetry.
 There are    40 symmetry adapted basis functions of B1G symmetry.
 There are    60 symmetry adapted basis functions of B2G symmetry.
 There are    60 symmetry adapted basis functions of B3G symmetry.
 There are    40 symmetry adapted basis functions of AU  symmetry.
 There are    84 symmetry adapted basis functions of B1U symmetry.
 There are    60 symmetry adapted basis functions of B2U symmetry.
 There are    60 symmetry adapted basis functions of B3U symmetry.
 Integral buffers will be    131072 words long.
 Raffenetti 2 integral format.
 Two-electron integral symmetry is turned on.
   488 basis functions,  1246 primitive gaussians,   780 cartesian basis functions
    29 alpha electrons       29 beta electrons
       nuclear repulsion energy       200.4946760482 Hartrees.
 NAtoms=    2 NActive=    2 NUniq=    1 SFac= 3.00D+00 NAtFMM=   80 NAOKFM=F Big=F
 One-electron integrals computed using PRISM.
 NBasis=   488 RedAO= F  NBF=    84    40    60    60    40    84    60    60
 NBsUse=   488 1.00D-04 NBFU=    84    40    60    60    40    84    60    60
 Harris functional with IExCor=  205 diagonalized for initial guess.
 ExpMin= 1.48D-02 ExpMax= 2.17D+07 ExpMxC= 4.33D+03 IAcc=3 IRadAn=         5 AccDes= 0.00D+00
 HarFok:  IExCor=  205 AccDes= 0.00D+00 IRadAn=         5 IDoV= 1
 ScaDFX=  1.000000  1.000000  1.000000  1.000000
 FoFCou: FMM=F IPFlag=           0 FMFlag=      100000 FMFlg1=           0
         NFxFlg=           0 DoJE=T BraDBF=F KetDBF=T FulRan=T
         Omega=  0.000000  0.000000  1.000000  0.000000  0.000000 ICntrl=     500 IOpCl=  0
         NMat0=    1 NMatS0=    1 NMatT0=    0 NMatD0=    1 NMtDS0=    0 NMtDT0=    0
         I1Cent=           4 NGrid=           0.
 Petite list used in FoFCou.
 Initial guess orbital symmetries:
       Occupied  (SGU) (SGG) (SGU) (SGG) (SGU) (SGG) (PIG) (PIG)
                 (PIU) (PIU) (SGG) (SGU) (SGG) (SGU) (PIU) (PIU)
                 (PIG) (PIG) (SGG) (PIU) (PIU) (SGG) (DLTG) (DLTG)
                 (DLTU) (DLTU) (SGU) (PIG) (PIG)
       Virtual   (SGU) (PIU) (PIU) (SGG) (PIG) (PIG) (SGG) (SGU)
                 (DLTG) (DLTG) (PIU) (PIU) (SGG) (SGU) (PIG) (PIG)
                 (SGU) (PIU) (PIU) (DLTU) (DLTU) (SGG) (PIG) (PIG)
                 (SGG) (SGU) (PHIU) (PHIU) (DLTG) (DLTG) (PIU)
                 (PIU) (DLTU) (DLTU) (SGU) (SGG) (DLTG) (DLTG)
                 (PHIG) (PHIG) (PIG) (PIG) (SGG) (PIU) (PIU) (SGU)
                 (DLTU) (DLTU) (PIU) (PIU) (PIG) (PIG) (?A) (?A)
                 (PHIU) (PHIU) (?B) (?B) (SGU) (SGG) (PIU) (PIU)
                 (DLTU) (DLTU) (PIG) (PIG) (DLTG) (DLTG) (SGG)
                 (SGU) (PHIG) (PHIG) (PIG) (PIG) (SGU) (SGG) (PIU)
                 (PIU) (DLTG) (DLTG) (PHIG) (PHIG) (?C) (?C) (SGG)
                 (?A) (?A) (PHIU) (PHIU) (DLTU) (DLTU) (?D) (?D)
                 (SGU) (DLTG) (DLTG) (PIU) (PIU) (DLTU) (DLTU)
                 (PIG) (PIG) (?B) (?B) (PHIU) (PHIU) (SGG) (SGU)
                 (PIU) (PIU) (PIG) (PIG) (PHIG) (PHIG) (SGG) (DLTG)
                 (DLTG) (DLTU) (DLTU) (SGU) (PIG) (PIG) (PIU) (PIU)
                 (SGU) (PIG) (PIG) (SGG) (PIU) (PIU) (SGG) (DLTG)
                 (DLTG) (PHIU) (PHIU) (SGU) (?A) (?A) (?B) (?B)
                 (PHIG) (PHIG) (SGG) (DLTU) (DLTU) (DLTG) (DLTG)
                 (PIG) (PIG) (DLTU) (DLTU) (PIU) (PIU) (SGU) (PHIU)
                 (PHIU) (DLTG) (DLTG) (SGG) (PIG) (PIG) (PHIG)
                 (PHIG) (SGU) (SGU) (PIU) (PIU) (DLTU) (DLTU) (PIG)
                 (PIG) (SGG) (PIU) (PIU) (PIG) (PIG) (SGG) (SGU)
                 (SGU) (PIU) (PIU) (DLTG) (DLTG) (SGG) (PHIU) (PHIU)
                 (?A) (?A) (?C) (?C) (?D) (?D) (?B) (?B) (PHIG)
                 (PHIG) (DLTU) (DLTU) (PIG) (PIG) (SGU) (DLTG)
                 (DLTG) (PHIU) (PHIU) (?A) (?A) (?B) (?B) (PIU)
                 (PIU) (SGG) (PHIG) (PHIG) (PHIU) (PHIU) (DLTU)
                 (DLTU) (DLTG) (DLTG) (PHIG) (PHIG) (PIG) (PIG)
                 (SGU) (PIU) (PIU) (DLTU) (DLTU) (SGG) (PIG) (PIG)
                 (DLTG) (DLTG) (DLTU) (DLTU) (PIU) (PIU) (SGG)
                 (SGU) (PIG) (PIG) (SGU) (SGG) (SGU) (PIU) (PIU)
                 (PIG) (PIG) (SGG) (SGU) (PIU) (PIU) (DLTG) (DLTG)
                 (PHIU) (PHIU) (?E) (?E) (DLTU) (DLTU) (?F) (?F)
                 (?F) (?B) (?B) (?C) (?C) (?E) (?E) (?G) (?H) (?G)
                 (?H) (PIG) (PIG) (SGU) (PIU) (PIU) (DLTG) (DLTG)
                 (SGG) (PHIU) (PHIU) (?A) (?A) (?C) (?C) (?D) (?D)
                 (?B) (?B) (PHIG) (PHIG) (DLTU) (DLTU) (PIG) (PIG)
                 (SGU) (DLTG) (DLTG) (PHIU) (PHIU) (PIU) (PIU)
                 (PHIU) (PHIU) (?A) (?A) (SGG) (?B) (?B) (PHIG)
                 (PHIG) (DLTG) (DLTG) (PHIG) (PHIG) (DLTU) (DLTU)
                 (PIG) (PIG) (PIU) (PIU) (DLTU) (DLTU) (SGU) (PIG)
                 (PIG) (SGG) (SGU) (DLTG) (DLTG) (DLTU) (DLTU)
                 (PIU) (PIU) (PIG) (PIG) (SGU) (SGG) (PIU) (PIU)
                 (PIG) (PIG) (SGG) (SGU) (?H) (?H) (?H) (?H) (?H)
                 (?H) (DLTG) (DLTU) (DLTG) (DLTU) (?H) (?H) (?H)
                 (?H) (?H) (?H) (?H) (?H) (?H) (?H) (?H) (?H) (?G)
                 (?H) (?G) (?H) (?H) (?H) (?H) (?H) (DLTG) (DLTG)
                 (PHIU) (PHIU) (?A) (?A) (?B) (?B) (PIU) (PIU)
                 (PHIG) (PHIG) (DLTU) (DLTU) (SGG) (PIG) (PIG)
                 (SGU) (PHIU) (PHIU) (DLTG) (DLTG) (PHIG) (PHIG)
                 (PIU) (PIU) (DLTU) (DLTU) (PIG) (PIG) (SGU) (SGG)
                 (PIU) (PIU) (DLTG) (DLTG) (PHIU) (PHIU) (?A) (?A)
                 (?C) (?C) (?D) (?D) (?B) (?B) (PHIG) (PHIG) (SGG)
                 (DLTU) (DLTU) (PIG) (PIG) (SGU) (?H) (?H) (DLTG)
                 (?H) (?H) (DLTG) (PHIG) (PHIG) (?A) (?A) (?B)
                 (?B) (DLTU) (SGG) (DLTU) (?D) (?D) (?C) (?C) (?G)
                 (?H) (?G) (?H) (PIG) (PIG) (SGU) (SGG) (SGU)
 The electronic state of the initial guess is 1-SGG.
 Requested convergence on RMS density matrix=1.00D-10 within 128 cycles.
 Requested convergence on MAX density matrix=1.00D-08.
 Requested convergence on             energy=1.00D-08.
 No special actions if energy rises.
 Initial convergence to 1.0D-05 achieved.  Increase integral accuracy.
 SCF Done:  E(ROHF) =  -3277.94134805     A.U. after   19 cycles
             Convg  =    0.7541D-10             -V/T =  2.0000
 <Sx>= 0.0000 <Sy>= 0.0000 <Sz>= 0.0000 <S**2>= 0.0000 S= 0.0000
 <L.S>= 0.000000000000E+00
 Annihilation of the first spin contaminant:
 S**2 before annihilation     0.0000,   after     0.0000
 GenMOA:  NOpAll=  8 NOp2=8 NOpUse=  8 JSym2X=1
 <Sx>= 0.0000 <Sy>= 0.0000 <Sz>= 0.0000 <S**2>= 0.0000 S= 0.0000
 Range of M.O.s used for correlation:    29   488
 NBasis=   488 NAE=    29 NBE=    29 NFC=    28 NFV=     0
 NROrb=    460 NOA=     1 NOB=     1 NVA=   459 NVB=   459

 **** Warning!!: The largest alpha MO coefficient is  0.10234677D+04


 **** Warning!!: The largest beta MO coefficient is  0.10234677D+04

 Singles contribution to E2=   -0.2433427069D-16
 Disk-based method using OVN memory for  1 occupieds at a time.
 Permanent disk used for amplitudes and <ij||ab> integrals=      421362 words.
 Estimated scratch disk usage=   175212792 words.
 IUseRI=2 ITolRI= 6 IR12RI=0
 Actual    scratch disk usage=   175212792 words.
 GetIJB would need an additional  1626975775 words of memory to use all   8 processors.
 JobTyp=2 Pass  1:  I=   1 to   1 NPSUse=  1 ParTrn=F ParDer=F DoDerP=F.
 (rs|ai) integrals will be sorted in core.
 T,EIJ(AB): I=   1 J=   1      0.2329172E-01     -0.2037922E-01
 Spin components of T(2) and E(2):
     alpha-alpha T2 =       0.0000000000D+00 E2=      0.0000000000D+00
     alpha-beta  T2 =       0.2329171583D-01 E2=     -0.2037922034D-01
     beta-beta   T2 =       0.0000000000D+00 E2=      0.0000000000D+00
 ANorm=    0.1011578823D+01
 E2 =    -0.2037922034D-01 EUMP2 =    -0.32779617272683D+04

 Complete Basis Set (CBS) Extrapolation:
 M. R. Nyden and G. A. Petersson, JCP 75, 1843 (1981)
 G. A. Petersson and M. A. Al-Laham, JCP 94, 6081 (1991)
 G. A. Petersson, T. Tensfeldt, and J. A. Montgomery, JCP 94, 6091 (1991)
 J. A. Montgomery, J. W. Ochterski, and G. A. Petersson, JCP 101, 5900 (1994)
 
 Minimum Number of PNO for Extrapolation =  20
 Absolute Overlaps: IRadAn =         5
 LocTrn: ILocal=3 LocCor=F DoCore=F.
 Entering OneElI...
 Overlap between basis sets.
 Requested accuracy = 0.1000D-12
 PrsmSu:  NPrtUS=   1 ThrOK=F IAlg=1
 PRISM was handed  1609504852 working-precision words and    92 shell-pairs
 IPart=  0 NShTot=          92 NBatch=          13 AvBLen=         7.1
 CnvPC2: ToCart=F DoDens=F IPureD=0 IPureF=0.
 Transformed matrix in CnvPC2: 
                 1             2             3             4             5 
      1   0.100000D+01  0.395295D+00  0.000000D+00  0.000000D+00  0.000000D+00
      2   0.395295D+00  0.100000D+01  0.000000D+00  0.000000D+00  0.000000D+00
      3   0.000000D+00  0.000000D+00  0.100000D+01  0.000000D+00  0.000000D+00
      4   0.000000D+00  0.000000D+00  0.000000D+00  0.100000D+01  0.000000D+00
      5   0.000000D+00  0.000000D+00  0.000000D+00  0.000000D+00  0.100000D+01
      6   0.269395D-01  0.325658D+00  0.000000D+00  0.000000D+00  0.000000D+00
      7   0.000000D+00  0.000000D+00  0.338598D+00  0.000000D+00  0.000000D+00
      8   0.000000D+00  0.000000D+00  0.000000D+00  0.338598D+00  0.000000D+00
      9   0.000000D+00  0.000000D+00  0.000000D+00  0.000000D+00  0.338598D+00
     10   0.000000D+00  0.000000D+00  0.000000D+00  0.000000D+00  0.000000D+00
     11   0.000000D+00  0.000000D+00  0.000000D+00  0.000000D+00  0.000000D+00
     12   0.000000D+00  0.000000D+00  0.000000D+00  0.000000D+00  0.000000D+00
     13   0.000000D+00  0.000000D+00  0.000000D+00  0.000000D+00  0.000000D+00
     14   0.000000D+00  0.000000D+00  0.000000D+00  0.000000D+00  0.000000D+00
     15  -0.337940D-03  0.252773D-02  0.000000D+00  0.000000D+00  0.000000D+00
     16   0.000000D+00  0.000000D+00  0.922601D-02  0.000000D+00  0.000000D+00
     17   0.000000D+00  0.000000D+00  0.000000D+00  0.922601D-02  0.000000D+00
     18   0.000000D+00  0.000000D+00  0.000000D+00  0.000000D+00  0.922601D-02
     19   0.000000D+00  0.000000D+00  0.000000D+00  0.000000D+00  0.000000D+00
     20   0.000000D+00  0.000000D+00  0.000000D+00  0.000000D+00  0.000000D+00
     21   0.000000D+00  0.000000D+00  0.000000D+00  0.000000D+00  0.000000D+00
     22   0.000000D+00  0.000000D+00  0.000000D+00  0.000000D+00  0.000000D+00
     23   0.000000D+00  0.000000D+00  0.000000D+00  0.000000D+00  0.000000D+00
     24   0.000000D+00  0.000000D+00  0.000000D+00  0.000000D+00  0.000000D+00
     25   0.000000D+00  0.000000D+00  0.000000D+00  0.000000D+00  0.000000D+00
     26   0.000000D+00  0.000000D+00  0.000000D+00  0.000000D+00  0.000000D+00
     27   0.000000D+00  0.000000D+00  0.000000D+00  0.000000D+00  0.000000D+00
     28   0.000000D+00  0.000000D+00  0.000000D+00  0.000000D+00  0.000000D+00
     29   0.000000D+00  0.000000D+00  0.000000D+00  0.000000D+00  0.000000D+00
     30   0.000000D+00  0.000000D+00  0.000000D+00  0.000000D+00  0.000000D+00
     31   0.000000D+00  0.000000D+00  0.000000D+00  0.000000D+00  0.000000D+00
     32   0.000000D+00  0.000000D+00  0.000000D+00  0.000000D+00  0.000000D+00
     33   0.218305D-02  0.136888D-01  0.000000D+00  0.000000D+00 -0.227351D-02
     34   0.000000D+00  0.000000D+00  0.106300D-02  0.000000D+00  0.000000D+00
     35   0.000000D+00  0.000000D+00  0.000000D+00  0.106300D-02  0.000000D+00
     36   0.367967D-02  0.230639D-01  0.000000D+00  0.000000D+00 -0.385271D-02
                 6             7             8             9            10 
      1   0.269395D-01  0.000000D+00  0.000000D+00  0.000000D+00  0.000000D+00
      2   0.325658D+00  0.000000D+00  0.000000D+00  0.000000D+00  0.000000D+00
      3   0.000000D+00  0.338598D+00  0.000000D+00  0.000000D+00  0.000000D+00
      4   0.000000D+00  0.000000D+00  0.338598D+00  0.000000D+00  0.000000D+00
      5   0.000000D+00  0.000000D+00  0.000000D+00  0.338598D+00  0.000000D+00
      6   0.100000D+01  0.000000D+00  0.000000D+00  0.000000D+00  0.000000D+00
      7   0.000000D+00  0.100000D+01  0.000000D+00  0.000000D+00  0.000000D+00
      8   0.000000D+00  0.000000D+00  0.100000D+01  0.000000D+00  0.000000D+00
      9   0.000000D+00  0.000000D+00  0.000000D+00  0.100000D+01  0.000000D+00
     10   0.000000D+00  0.000000D+00  0.000000D+00  0.000000D+00  0.100000D+01
     11   0.000000D+00  0.000000D+00  0.000000D+00  0.000000D+00  0.000000D+00
     12   0.000000D+00  0.000000D+00  0.000000D+00  0.000000D+00  0.000000D+00
     13   0.000000D+00  0.000000D+00  0.000000D+00  0.000000D+00  0.000000D+00
     14   0.000000D+00  0.000000D+00  0.000000D+00  0.000000D+00  0.000000D+00
     15   0.146677D+00  0.000000D+00  0.000000D+00  0.000000D+00  0.000000D+00
     16   0.000000D+00  0.163922D+00  0.000000D+00  0.000000D+00  0.000000D+00
     17   0.000000D+00  0.000000D+00  0.163922D+00  0.000000D+00  0.000000D+00
     18   0.000000D+00  0.000000D+00  0.000000D+00  0.163922D+00  0.000000D+00
     19   0.000000D+00  0.000000D+00  0.000000D+00  0.000000D+00  0.000000D+00
     20   0.000000D+00  0.000000D+00  0.000000D+00  0.000000D+00  0.000000D+00
     21   0.000000D+00  0.000000D+00  0.000000D+00  0.000000D+00  0.000000D+00
     22   0.000000D+00  0.000000D+00  0.000000D+00  0.000000D+00  0.000000D+00
     23   0.000000D+00  0.000000D+00  0.000000D+00  0.000000D+00  0.000000D+00
     24   0.693054D-05  0.000000D+00  0.000000D+00 -0.178093D-04  0.740586D-04
     25   0.000000D+00  0.195251D-05  0.000000D+00  0.000000D+00  0.000000D+00
     26   0.000000D+00  0.000000D+00  0.195251D-05  0.000000D+00  0.000000D+00
     27   0.178093D-04  0.000000D+00  0.000000D+00 -0.439697D-04  0.161910D-03
     28   0.740586D-04  0.000000D+00  0.000000D+00 -0.161910D-03  0.438634D-03
     29   0.000000D+00  0.141732D-04  0.000000D+00  0.000000D+00  0.000000D+00
     30   0.000000D+00  0.000000D+00  0.141732D-04  0.000000D+00  0.000000D+00
     31   0.000000D+00  0.000000D+00  0.000000D+00  0.000000D+00  0.000000D+00
     32   0.000000D+00  0.000000D+00  0.000000D+00  0.000000D+00  0.000000D+00
     33   0.766031D-01  0.000000D+00  0.000000D+00 -0.362864D-01  0.118259D-01
     34   0.000000D+00  0.178586D-01  0.000000D+00  0.000000D+00  0.000000D+00
     35   0.000000D+00  0.000000D+00  0.178586D-01  0.000000D+00  0.000000D+00
     36   0.127911D+00  0.000000D+00  0.000000D+00 -0.605208D-01  0.224828D-01
                11            12            13            14            15 
      1   0.000000D+00  0.000000D+00  0.000000D+00  0.000000D+00 -0.337940D-03
      2   0.000000D+00  0.000000D+00  0.000000D+00  0.000000D+00  0.252773D-02
      3   0.000000D+00  0.000000D+00  0.000000D+00  0.000000D+00  0.000000D+00
      4   0.000000D+00  0.000000D+00  0.000000D+00  0.000000D+00  0.000000D+00
      5   0.000000D+00  0.000000D+00  0.000000D+00  0.000000D+00  0.000000D+00
      6   0.000000D+00  0.000000D+00  0.000000D+00  0.000000D+00  0.146677D+00
      7   0.000000D+00  0.000000D+00  0.000000D+00  0.000000D+00  0.000000D+00
      8   0.000000D+00  0.000000D+00  0.000000D+00  0.000000D+00  0.000000D+00
      9   0.000000D+00  0.000000D+00  0.000000D+00  0.000000D+00  0.000000D+00
     10   0.000000D+00  0.000000D+00  0.000000D+00  0.000000D+00  0.000000D+00
     11   0.100000D+01  0.000000D+00  0.000000D+00  0.000000D+00  0.000000D+00
     12   0.000000D+00  0.100000D+01  0.000000D+00  0.000000D+00  0.000000D+00
     13   0.000000D+00  0.000000D+00  0.100000D+01  0.000000D+00  0.000000D+00
     14   0.000000D+00  0.000000D+00  0.000000D+00  0.100000D+01  0.000000D+00
     15   0.000000D+00  0.000000D+00  0.000000D+00  0.000000D+00  0.100000D+01
     16   0.000000D+00  0.000000D+00  0.000000D+00  0.000000D+00  0.000000D+00
     17   0.000000D+00  0.000000D+00  0.000000D+00  0.000000D+00  0.000000D+00
     18   0.000000D+00  0.000000D+00  0.000000D+00  0.000000D+00  0.000000D+00
     19   0.000000D+00  0.000000D+00  0.000000D+00  0.000000D+00  0.218305D-02
     20   0.000000D+00  0.000000D+00  0.000000D+00  0.000000D+00  0.136888D-01
     21   0.000000D+00  0.000000D+00  0.000000D+00  0.000000D+00  0.000000D+00
     22   0.000000D+00  0.000000D+00  0.000000D+00  0.000000D+00  0.000000D+00
     23   0.000000D+00  0.000000D+00  0.000000D+00  0.000000D+00  0.227351D-02
     24   0.000000D+00  0.000000D+00  0.000000D+00  0.000000D+00  0.766031D-01
     25  -0.141732D-04  0.000000D+00  0.000000D+00  0.000000D+00  0.000000D+00
     26   0.000000D+00 -0.141732D-04  0.000000D+00  0.000000D+00  0.000000D+00
     27   0.000000D+00  0.000000D+00  0.000000D+00  0.000000D+00  0.362864D-01
     28   0.000000D+00  0.000000D+00  0.000000D+00  0.000000D+00  0.118259D-01
     29  -0.754514D-04  0.000000D+00  0.000000D+00  0.000000D+00  0.000000D+00
     30   0.000000D+00 -0.754514D-04  0.000000D+00  0.000000D+00  0.000000D+00
     31   0.000000D+00  0.000000D+00  0.390974D-05  0.000000D+00  0.000000D+00
     32   0.000000D+00  0.000000D+00  0.000000D+00  0.390974D-05  0.000000D+00
     33   0.000000D+00  0.000000D+00  0.000000D+00  0.000000D+00  0.443504D+00
     34  -0.133286D-01  0.000000D+00  0.000000D+00  0.000000D+00  0.000000D+00
     35   0.000000D+00 -0.133286D-01  0.000000D+00  0.000000D+00  0.000000D+00
     36   0.000000D+00  0.000000D+00  0.000000D+00  0.000000D+00  0.463624D+00
                16            17            18            19            20 
      1   0.000000D+00  0.000000D+00  0.000000D+00  0.000000D+00  0.000000D+00
      2   0.000000D+00  0.000000D+00  0.000000D+00  0.000000D+00  0.000000D+00
      3   0.922601D-02  0.000000D+00  0.000000D+00  0.000000D+00  0.000000D+00
      4   0.000000D+00  0.922601D-02  0.000000D+00  0.000000D+00  0.000000D+00
      5   0.000000D+00  0.000000D+00  0.922601D-02  0.000000D+00  0.000000D+00
      6   0.000000D+00  0.000000D+00  0.000000D+00  0.000000D+00  0.000000D+00
      7   0.163922D+00  0.000000D+00  0.000000D+00  0.000000D+00  0.000000D+00
      8   0.000000D+00  0.163922D+00  0.000000D+00  0.000000D+00  0.000000D+00
      9   0.000000D+00  0.000000D+00  0.163922D+00  0.000000D+00  0.000000D+00
     10   0.000000D+00  0.000000D+00  0.000000D+00  0.000000D+00  0.000000D+00
     11   0.000000D+00  0.000000D+00  0.000000D+00  0.000000D+00  0.000000D+00
     12   0.000000D+00  0.000000D+00  0.000000D+00  0.000000D+00  0.000000D+00
     13   0.000000D+00  0.000000D+00  0.000000D+00  0.000000D+00  0.000000D+00
     14   0.000000D+00  0.000000D+00  0.000000D+00  0.000000D+00  0.000000D+00
     15   0.000000D+00  0.000000D+00  0.000000D+00  0.218305D-02  0.136888D-01
     16   0.100000D+01  0.000000D+00  0.000000D+00  0.000000D+00  0.000000D+00
     17   0.000000D+00  0.100000D+01  0.000000D+00  0.000000D+00  0.000000D+00
     18   0.000000D+00  0.000000D+00  0.100000D+01 -0.367967D-02 -0.230639D-01
     19   0.000000D+00  0.000000D+00 -0.367967D-02  0.100000D+01  0.395295D+00
     20   0.000000D+00  0.000000D+00 -0.230639D-01  0.395295D+00  0.100000D+01
     21   0.106300D-02  0.000000D+00  0.000000D+00  0.000000D+00  0.000000D+00
     22   0.000000D+00  0.106300D-02  0.000000D+00  0.000000D+00  0.000000D+00
     23   0.000000D+00  0.000000D+00 -0.385271D-02  0.000000D+00  0.000000D+00
     24   0.000000D+00  0.000000D+00 -0.127911D+00  0.269395D-01  0.325658D+00
     25   0.178586D-01  0.000000D+00  0.000000D+00  0.000000D+00  0.000000D+00
     26   0.000000D+00  0.178586D-01  0.000000D+00  0.000000D+00  0.000000D+00
     27   0.000000D+00  0.000000D+00 -0.605208D-01  0.000000D+00  0.000000D+00
     28   0.000000D+00  0.000000D+00 -0.224828D-01  0.000000D+00  0.000000D+00
     29   0.133286D-01  0.000000D+00  0.000000D+00  0.000000D+00  0.000000D+00
     30   0.000000D+00  0.133286D-01  0.000000D+00  0.000000D+00  0.000000D+00
     31   0.000000D+00  0.000000D+00  0.000000D+00  0.000000D+00  0.000000D+00
     32   0.000000D+00  0.000000D+00  0.000000D+00  0.000000D+00  0.000000D+00
     33   0.000000D+00  0.000000D+00 -0.463624D+00 -0.337940D-03  0.252773D-02
     34   0.294269D+00  0.000000D+00  0.000000D+00  0.000000D+00  0.000000D+00
     35   0.000000D+00  0.294269D+00  0.000000D+00  0.000000D+00  0.000000D+00
     36   0.000000D+00  0.000000D+00 -0.401159D+00  0.000000D+00  0.000000D+00
                21            22            23            24            25 
      1   0.000000D+00  0.000000D+00  0.000000D+00  0.000000D+00  0.000000D+00
      2   0.000000D+00  0.000000D+00  0.000000D+00  0.000000D+00  0.000000D+00
      3   0.000000D+00  0.000000D+00  0.000000D+00  0.000000D+00  0.000000D+00
      4   0.000000D+00  0.000000D+00  0.000000D+00  0.000000D+00  0.000000D+00
      5   0.000000D+00  0.000000D+00  0.000000D+00  0.000000D+00  0.000000D+00
      6   0.000000D+00  0.000000D+00  0.000000D+00  0.693054D-05  0.000000D+00
      7   0.000000D+00  0.000000D+00  0.000000D+00  0.000000D+00  0.195251D-05
      8   0.000000D+00  0.000000D+00  0.000000D+00  0.000000D+00  0.000000D+00
      9   0.000000D+00  0.000000D+00  0.000000D+00 -0.178093D-04  0.000000D+00
     10   0.000000D+00  0.000000D+00  0.000000D+00  0.740586D-04  0.000000D+00
     11   0.000000D+00  0.000000D+00  0.000000D+00  0.000000D+00 -0.141732D-04
     12   0.000000D+00  0.000000D+00  0.000000D+00  0.000000D+00  0.000000D+00
     13   0.000000D+00  0.000000D+00  0.000000D+00  0.000000D+00  0.000000D+00
     14   0.000000D+00  0.000000D+00  0.000000D+00  0.000000D+00  0.000000D+00
     15   0.000000D+00  0.000000D+00  0.227351D-02  0.766031D-01  0.000000D+00
     16   0.106300D-02  0.000000D+00  0.000000D+00  0.000000D+00  0.178586D-01
     17   0.000000D+00  0.106300D-02  0.000000D+00  0.000000D+00  0.000000D+00
     18   0.000000D+00  0.000000D+00 -0.385271D-02 -0.127911D+00  0.000000D+00
     19   0.000000D+00  0.000000D+00  0.000000D+00  0.269395D-01  0.000000D+00
     20   0.000000D+00  0.000000D+00  0.000000D+00  0.325658D+00  0.000000D+00
     21   0.100000D+01  0.000000D+00  0.000000D+00  0.000000D+00  0.338598D+00
     22   0.000000D+00  0.100000D+01  0.000000D+00  0.000000D+00  0.000000D+00
     23   0.000000D+00  0.000000D+00  0.100000D+01  0.000000D+00  0.000000D+00
     24   0.000000D+00  0.000000D+00  0.000000D+00  0.100000D+01  0.000000D+00
     25   0.338598D+00  0.000000D+00  0.000000D+00  0.000000D+00  0.100000D+01
     26   0.000000D+00  0.338598D+00  0.000000D+00  0.000000D+00  0.000000D+00
     27   0.000000D+00  0.000000D+00  0.338598D+00  0.000000D+00  0.000000D+00
     28   0.000000D+00  0.000000D+00  0.000000D+00  0.000000D+00  0.000000D+00
     29   0.000000D+00  0.000000D+00  0.000000D+00  0.000000D+00  0.000000D+00
     30   0.000000D+00  0.000000D+00  0.000000D+00  0.000000D+00  0.000000D+00
     31   0.000000D+00  0.000000D+00  0.000000D+00  0.000000D+00  0.000000D+00
     32   0.000000D+00  0.000000D+00  0.000000D+00  0.000000D+00  0.000000D+00
     33   0.000000D+00  0.000000D+00  0.000000D+00  0.146677D+00  0.000000D+00
     34   0.922601D-02  0.000000D+00  0.000000D+00  0.000000D+00  0.163922D+00
     35   0.000000D+00  0.922601D-02  0.000000D+00  0.000000D+00  0.000000D+00
     36   0.000000D+00  0.000000D+00  0.922601D-02  0.000000D+00  0.000000D+00
                26            27            28            29            30 
      1   0.000000D+00  0.000000D+00  0.000000D+00  0.000000D+00  0.000000D+00
      2   0.000000D+00  0.000000D+00  0.000000D+00  0.000000D+00  0.000000D+00
      3   0.000000D+00  0.000000D+00  0.000000D+00  0.000000D+00  0.000000D+00
      4   0.000000D+00  0.000000D+00  0.000000D+00  0.000000D+00  0.000000D+00
      5   0.000000D+00  0.000000D+00  0.000000D+00  0.000000D+00  0.000000D+00
      6   0.000000D+00  0.178093D-04  0.740586D-04  0.000000D+00  0.000000D+00
      7   0.000000D+00  0.000000D+00  0.000000D+00  0.141732D-04  0.000000D+00
      8   0.195251D-05  0.000000D+00  0.000000D+00  0.000000D+00  0.141732D-04
      9   0.000000D+00 -0.439697D-04 -0.161910D-03  0.000000D+00  0.000000D+00
     10   0.000000D+00  0.161910D-03  0.438634D-03  0.000000D+00  0.000000D+00
     11   0.000000D+00  0.000000D+00  0.000000D+00 -0.754514D-04  0.000000D+00
     12  -0.141732D-04  0.000000D+00  0.000000D+00  0.000000D+00 -0.754514D-04
     13   0.000000D+00  0.000000D+00  0.000000D+00  0.000000D+00  0.000000D+00
     14   0.000000D+00  0.000000D+00  0.000000D+00  0.000000D+00  0.000000D+00
     15   0.000000D+00  0.362864D-01  0.118259D-01  0.000000D+00  0.000000D+00
     16   0.000000D+00  0.000000D+00  0.000000D+00  0.133286D-01  0.000000D+00
     17   0.178586D-01  0.000000D+00  0.000000D+00  0.000000D+00  0.133286D-01
     18   0.000000D+00 -0.605208D-01 -0.224828D-01  0.000000D+00  0.000000D+00
     19   0.000000D+00  0.000000D+00  0.000000D+00  0.000000D+00  0.000000D+00
     20   0.000000D+00  0.000000D+00  0.000000D+00  0.000000D+00  0.000000D+00
     21   0.000000D+00  0.000000D+00  0.000000D+00  0.000000D+00  0.000000D+00
     22   0.338598D+00  0.000000D+00  0.000000D+00  0.000000D+00  0.000000D+00
     23   0.000000D+00  0.338598D+00  0.000000D+00  0.000000D+00  0.000000D+00
     24   0.000000D+00  0.000000D+00  0.000000D+00  0.000000D+00  0.000000D+00
     25   0.000000D+00  0.000000D+00  0.000000D+00  0.000000D+00  0.000000D+00
     26   0.100000D+01  0.000000D+00  0.000000D+00  0.000000D+00  0.000000D+00
     27   0.000000D+00  0.100000D+01  0.000000D+00  0.000000D+00  0.000000D+00
     28   0.000000D+00  0.000000D+00  0.100000D+01  0.000000D+00  0.000000D+00
     29   0.000000D+00  0.000000D+00  0.000000D+00  0.100000D+01  0.000000D+00
     30   0.000000D+00  0.000000D+00  0.000000D+00  0.000000D+00  0.100000D+01
     31   0.000000D+00  0.000000D+00  0.000000D+00  0.000000D+00  0.000000D+00
     32   0.000000D+00  0.000000D+00  0.000000D+00  0.000000D+00  0.000000D+00
     33   0.000000D+00  0.000000D+00  0.000000D+00  0.000000D+00  0.000000D+00
     34   0.000000D+00  0.000000D+00  0.000000D+00  0.000000D+00  0.000000D+00
     35   0.163922D+00  0.000000D+00  0.000000D+00  0.000000D+00  0.000000D+00
     36   0.000000D+00  0.163922D+00  0.000000D+00  0.000000D+00  0.000000D+00
                31            32            33            34            35 
      1   0.000000D+00  0.000000D+00  0.218305D-02  0.000000D+00  0.000000D+00
      2   0.000000D+00  0.000000D+00  0.136888D-01  0.000000D+00  0.000000D+00
      3   0.000000D+00  0.000000D+00  0.000000D+00  0.106300D-02  0.000000D+00
      4   0.000000D+00  0.000000D+00  0.000000D+00  0.000000D+00  0.106300D-02
      5   0.000000D+00  0.000000D+00 -0.227351D-02  0.000000D+00  0.000000D+00
      6   0.000000D+00  0.000000D+00  0.766031D-01  0.000000D+00  0.000000D+00
      7   0.000000D+00  0.000000D+00  0.000000D+00  0.178586D-01  0.000000D+00
      8   0.000000D+00  0.000000D+00  0.000000D+00  0.000000D+00  0.178586D-01
      9   0.000000D+00  0.000000D+00 -0.362864D-01  0.000000D+00  0.000000D+00
     10   0.000000D+00  0.000000D+00  0.118259D-01  0.000000D+00  0.000000D+00
     11   0.000000D+00  0.000000D+00  0.000000D+00 -0.133286D-01  0.000000D+00
     12   0.000000D+00  0.000000D+00  0.000000D+00  0.000000D+00 -0.133286D-01
     13   0.390974D-05  0.000000D+00  0.000000D+00  0.000000D+00  0.000000D+00
     14   0.000000D+00  0.390974D-05  0.000000D+00  0.000000D+00  0.000000D+00
     15   0.000000D+00  0.000000D+00  0.443504D+00  0.000000D+00  0.000000D+00
     16   0.000000D+00  0.000000D+00  0.000000D+00  0.294269D+00  0.000000D+00
     17   0.000000D+00  0.000000D+00  0.000000D+00  0.000000D+00  0.294269D+00
     18   0.000000D+00  0.000000D+00 -0.463624D+00  0.000000D+00  0.000000D+00
     19   0.000000D+00  0.000000D+00 -0.337940D-03  0.000000D+00  0.000000D+00
     20   0.000000D+00  0.000000D+00  0.252773D-02  0.000000D+00  0.000000D+00
     21   0.000000D+00  0.000000D+00  0.000000D+00  0.922601D-02  0.000000D+00
     22   0.000000D+00  0.000000D+00  0.000000D+00  0.000000D+00  0.922601D-02
     23   0.000000D+00  0.000000D+00  0.000000D+00  0.000000D+00  0.000000D+00
     24   0.000000D+00  0.000000D+00  0.146677D+00  0.000000D+00  0.000000D+00
     25   0.000000D+00  0.000000D+00  0.000000D+00  0.163922D+00  0.000000D+00
     26   0.000000D+00  0.000000D+00  0.000000D+00  0.000000D+00  0.163922D+00
     27   0.000000D+00  0.000000D+00  0.000000D+00  0.000000D+00  0.000000D+00
     28   0.000000D+00  0.000000D+00  0.000000D+00  0.000000D+00  0.000000D+00
     29   0.000000D+00  0.000000D+00  0.000000D+00  0.000000D+00  0.000000D+00
     30   0.000000D+00  0.000000D+00  0.000000D+00  0.000000D+00  0.000000D+00
     31   0.100000D+01  0.000000D+00  0.000000D+00  0.000000D+00  0.000000D+00
     32   0.000000D+00  0.100000D+01  0.000000D+00  0.000000D+00  0.000000D+00
     33   0.000000D+00  0.000000D+00  0.100000D+01  0.000000D+00  0.000000D+00
     34   0.000000D+00  0.000000D+00  0.000000D+00  0.100000D+01  0.000000D+00
     35   0.000000D+00  0.000000D+00  0.000000D+00  0.000000D+00  0.100000D+01
     36   0.000000D+00  0.000000D+00  0.000000D+00  0.000000D+00  0.000000D+00
                36 
      1   0.367967D-02
      2   0.230639D-01
      3   0.000000D+00
      4   0.000000D+00
      5  -0.385271D-02
      6   0.127911D+00
      7   0.000000D+00
      8   0.000000D+00
      9  -0.605208D-01
     10   0.224828D-01
     11   0.000000D+00
     12   0.000000D+00
     13   0.000000D+00
     14   0.000000D+00
     15   0.463624D+00
     16   0.000000D+00
     17   0.000000D+00
     18  -0.401159D+00
     19   0.000000D+00
     20   0.000000D+00
     21   0.000000D+00
     22   0.000000D+00
     23   0.922601D-02
     24   0.000000D+00
     25   0.000000D+00
     26   0.000000D+00
     27   0.163922D+00
     28   0.000000D+00
     29   0.000000D+00
     30   0.000000D+00
     31   0.000000D+00
     32   0.000000D+00
     33   0.000000D+00
     34   0.000000D+00
     35   0.000000D+00
     36   0.100000D+01
 Entering OneElI...
 Overlap between basis sets.
 Requested accuracy = 0.1000D-12
 PrsmSu:  NPrtUS=   1 ThrOK=F IAlg=1
 PRISM was handed  1608675300 working-precision words and   842 shell-pairs
 IPart=  0 NShTot=         842 NBatch=          89 AvBLen=         9.5
 CnvPC2: ToCart=F DoDens=F IPureD=0 IPureF=0.
 Transformed matrix in CnvPC2: 
                 1             2             3             4             5 
      1   0.999784D+00  0.404783D+00  0.000000D+00  0.000000D+00  0.000000D+00
      2   0.284542D+00  0.989059D+00  0.000000D+00  0.000000D+00  0.000000D+00
      3   0.000000D+00  0.000000D+00  0.999193D+00  0.000000D+00  0.000000D+00
      4   0.000000D+00  0.000000D+00  0.000000D+00  0.999193D+00  0.000000D+00
      5   0.000000D+00  0.000000D+00  0.000000D+00  0.000000D+00  0.999193D+00
      6   0.121477D-01  0.314508D+00  0.000000D+00  0.000000D+00  0.000000D+00
      7   0.000000D+00  0.000000D+00 -0.329543D+00  0.000000D+00  0.000000D+00
      8   0.000000D+00  0.000000D+00  0.000000D+00 -0.329543D+00  0.000000D+00
      9   0.000000D+00  0.000000D+00  0.000000D+00  0.000000D+00 -0.329543D+00
     10   0.000000D+00  0.000000D+00  0.000000D+00  0.000000D+00  0.000000D+00
     11   0.000000D+00  0.000000D+00  0.000000D+00  0.000000D+00  0.000000D+00
     12   0.000000D+00  0.000000D+00  0.000000D+00  0.000000D+00  0.000000D+00
     13   0.000000D+00  0.000000D+00  0.000000D+00  0.000000D+00  0.000000D+00
     14   0.000000D+00  0.000000D+00  0.000000D+00  0.000000D+00  0.000000D+00
     15   0.000000D+00  0.000000D+00  0.000000D+00  0.000000D+00  0.000000D+00
     16   0.000000D+00  0.000000D+00  0.000000D+00  0.000000D+00  0.000000D+00
     17   0.000000D+00  0.000000D+00  0.000000D+00  0.000000D+00  0.000000D+00
     18   0.000000D+00  0.000000D+00  0.000000D+00  0.000000D+00  0.000000D+00
     19   0.000000D+00  0.000000D+00  0.000000D+00  0.000000D+00  0.000000D+00
     20   0.000000D+00  0.000000D+00  0.000000D+00  0.000000D+00  0.000000D+00
     21   0.000000D+00  0.000000D+00  0.000000D+00  0.000000D+00  0.000000D+00
     22   0.000000D+00  0.000000D+00  0.000000D+00  0.000000D+00  0.000000D+00
     23   0.000000D+00  0.000000D+00  0.000000D+00  0.000000D+00  0.000000D+00
     24   0.000000D+00  0.000000D+00  0.000000D+00  0.000000D+00  0.000000D+00
     25   0.000000D+00  0.000000D+00  0.000000D+00  0.000000D+00  0.000000D+00
     26   0.000000D+00  0.000000D+00  0.000000D+00  0.000000D+00  0.000000D+00
     27   0.000000D+00  0.000000D+00  0.000000D+00  0.000000D+00  0.000000D+00
     28   0.000000D+00  0.000000D+00  0.000000D+00  0.000000D+00  0.000000D+00
     29   0.000000D+00  0.000000D+00  0.000000D+00  0.000000D+00  0.000000D+00
     30   0.000000D+00  0.000000D+00  0.000000D+00  0.000000D+00  0.000000D+00
     31   0.000000D+00  0.000000D+00  0.000000D+00  0.000000D+00  0.000000D+00
     32   0.000000D+00  0.000000D+00  0.000000D+00  0.000000D+00  0.000000D+00
     33   0.000000D+00  0.000000D+00  0.000000D+00  0.000000D+00  0.000000D+00
     34   0.000000D+00  0.000000D+00  0.000000D+00  0.000000D+00  0.000000D+00
     35   0.000000D+00  0.000000D+00  0.000000D+00  0.000000D+00  0.000000D+00
     36   0.000000D+00  0.000000D+00  0.000000D+00  0.000000D+00  0.000000D+00
     37   0.000000D+00  0.000000D+00  0.000000D+00  0.000000D+00  0.000000D+00
     38   0.000000D+00  0.000000D+00  0.000000D+00  0.000000D+00  0.000000D+00
     39   0.000000D+00  0.000000D+00  0.000000D+00  0.000000D+00  0.000000D+00
     40   0.000000D+00  0.000000D+00  0.000000D+00  0.000000D+00  0.000000D+00
     41   0.000000D+00  0.000000D+00  0.000000D+00  0.000000D+00  0.000000D+00
     42   0.000000D+00  0.000000D+00  0.000000D+00  0.000000D+00  0.000000D+00
     43   0.000000D+00  0.000000D+00  0.000000D+00  0.000000D+00  0.000000D+00
     44   0.000000D+00  0.000000D+00  0.000000D+00  0.000000D+00  0.000000D+00
     45   0.000000D+00  0.000000D+00  0.000000D+00  0.000000D+00  0.000000D+00
     46   0.000000D+00  0.000000D+00  0.000000D+00  0.000000D+00  0.000000D+00
     47  -0.300837D-04  0.603386D-02  0.000000D+00  0.000000D+00  0.000000D+00
     48   0.274417D-02  0.171402D-01  0.000000D+00  0.000000D+00  0.000000D+00
     49   0.000000D+00  0.000000D+00 -0.664367D-01  0.000000D+00  0.000000D+00
     50   0.000000D+00  0.000000D+00  0.000000D+00 -0.664367D-01  0.000000D+00
     51   0.000000D+00  0.000000D+00  0.000000D+00  0.000000D+00 -0.664367D-01
     52   0.000000D+00  0.000000D+00  0.193671D-02  0.000000D+00  0.000000D+00
     53   0.000000D+00  0.000000D+00  0.000000D+00  0.193671D-02  0.000000D+00
     54   0.000000D+00  0.000000D+00  0.000000D+00  0.000000D+00  0.193671D-02
     55   0.789161D-01  0.431304D+00  0.000000D+00  0.000000D+00  0.000000D+00
     56   0.450748D-01  0.264100D+00  0.000000D+00  0.000000D+00  0.000000D+00
     57   0.256244D-01  0.155380D+00  0.000000D+00  0.000000D+00  0.000000D+00
     58   0.145347D-01  0.895990D-01  0.000000D+00  0.000000D+00  0.000000D+00
     59   0.823570D-02  0.511672D-01  0.000000D+00  0.000000D+00  0.000000D+00
     60   0.000000D+00  0.000000D+00  0.458072D+00  0.000000D+00  0.000000D+00
     61   0.000000D+00  0.000000D+00  0.000000D+00  0.458072D+00  0.000000D+00
     62   0.000000D+00  0.000000D+00  0.000000D+00  0.000000D+00  0.458072D+00
     63   0.000000D+00  0.000000D+00  0.250185D+00  0.000000D+00  0.000000D+00
     64   0.000000D+00  0.000000D+00  0.000000D+00  0.250185D+00  0.000000D+00
     65   0.000000D+00  0.000000D+00  0.000000D+00  0.000000D+00  0.250185D+00
     66   0.000000D+00  0.000000D+00  0.121986D+00  0.000000D+00  0.000000D+00
     67   0.000000D+00  0.000000D+00  0.000000D+00  0.121986D+00  0.000000D+00
     68   0.000000D+00  0.000000D+00  0.000000D+00  0.000000D+00  0.121986D+00
     69   0.000000D+00  0.000000D+00  0.554956D-01  0.000000D+00  0.000000D+00
     70   0.000000D+00  0.000000D+00  0.000000D+00  0.554956D-01  0.000000D+00
     71   0.000000D+00  0.000000D+00  0.000000D+00  0.000000D+00  0.554956D-01
     72   0.000000D+00  0.000000D+00  0.242911D-01  0.000000D+00  0.000000D+00
     73   0.000000D+00  0.000000D+00  0.000000D+00  0.242911D-01  0.000000D+00
     74   0.000000D+00  0.000000D+00  0.000000D+00  0.000000D+00  0.242911D-01
     75   0.000000D+00  0.000000D+00  0.000000D+00  0.000000D+00  0.000000D+00
     76   0.000000D+00  0.000000D+00  0.000000D+00  0.000000D+00  0.000000D+00
     77   0.000000D+00  0.000000D+00  0.000000D+00  0.000000D+00  0.000000D+00
     78   0.000000D+00  0.000000D+00  0.000000D+00  0.000000D+00  0.000000D+00
     79   0.000000D+00  0.000000D+00  0.000000D+00  0.000000D+00  0.000000D+00
     80   0.000000D+00  0.000000D+00  0.000000D+00  0.000000D+00  0.000000D+00
     81   0.000000D+00  0.000000D+00  0.000000D+00  0.000000D+00  0.000000D+00
     82   0.000000D+00  0.000000D+00  0.000000D+00  0.000000D+00  0.000000D+00
     83   0.000000D+00  0.000000D+00  0.000000D+00  0.000000D+00  0.000000D+00
     84   0.000000D+00  0.000000D+00  0.000000D+00  0.000000D+00  0.000000D+00
     85   0.000000D+00  0.000000D+00  0.000000D+00  0.000000D+00  0.000000D+00
     86   0.000000D+00  0.000000D+00  0.000000D+00  0.000000D+00  0.000000D+00
     87   0.000000D+00  0.000000D+00  0.000000D+00  0.000000D+00  0.000000D+00
     88   0.000000D+00  0.000000D+00  0.000000D+00  0.000000D+00  0.000000D+00
     89   0.000000D+00  0.000000D+00  0.000000D+00  0.000000D+00  0.000000D+00
     90   0.000000D+00  0.000000D+00  0.000000D+00  0.000000D+00  0.000000D+00
     91   0.000000D+00  0.000000D+00  0.000000D+00  0.000000D+00  0.000000D+00
     92   0.000000D+00  0.000000D+00  0.000000D+00  0.000000D+00  0.000000D+00
     93   0.000000D+00  0.000000D+00  0.000000D+00  0.000000D+00  0.000000D+00
     94   0.000000D+00  0.000000D+00  0.000000D+00  0.000000D+00  0.000000D+00
     95   0.000000D+00  0.000000D+00  0.000000D+00  0.000000D+00  0.000000D+00
     96   0.000000D+00  0.000000D+00  0.000000D+00  0.000000D+00  0.000000D+00
     97   0.000000D+00  0.000000D+00  0.000000D+00  0.000000D+00  0.000000D+00
     98   0.000000D+00  0.000000D+00  0.000000D+00  0.000000D+00  0.000000D+00
     99   0.000000D+00  0.000000D+00  0.000000D+00  0.000000D+00  0.000000D+00
    100   0.000000D+00  0.000000D+00  0.000000D+00  0.000000D+00  0.000000D+00
    101   0.000000D+00  0.000000D+00  0.000000D+00  0.000000D+00  0.000000D+00
    102   0.000000D+00  0.000000D+00  0.000000D+00  0.000000D+00  0.000000D+00
    103   0.000000D+00  0.000000D+00  0.000000D+00  0.000000D+00  0.000000D+00
    104   0.000000D+00  0.000000D+00  0.000000D+00  0.000000D+00  0.000000D+00
    105   0.000000D+00  0.000000D+00  0.000000D+00  0.000000D+00  0.000000D+00
    106   0.000000D+00  0.000000D+00  0.000000D+00  0.000000D+00  0.000000D+00
    107   0.000000D+00  0.000000D+00  0.000000D+00  0.000000D+00  0.000000D+00
    108   0.000000D+00  0.000000D+00  0.000000D+00  0.000000D+00  0.000000D+00
    109   0.000000D+00  0.000000D+00  0.000000D+00  0.000000D+00  0.000000D+00
    110   0.000000D+00  0.000000D+00  0.000000D+00  0.000000D+00  0.000000D+00
    111   0.000000D+00  0.000000D+00  0.000000D+00  0.000000D+00  0.000000D+00
    112   0.000000D+00  0.000000D+00  0.000000D+00  0.000000D+00  0.000000D+00
    113   0.000000D+00  0.000000D+00  0.000000D+00  0.000000D+00  0.000000D+00
    114   0.000000D+00  0.000000D+00  0.000000D+00  0.000000D+00  0.000000D+00
    115   0.000000D+00  0.000000D+00  0.000000D+00  0.000000D+00  0.000000D+00
    116   0.000000D+00  0.000000D+00  0.000000D+00  0.000000D+00  0.000000D+00
    117   0.000000D+00  0.000000D+00  0.000000D+00  0.000000D+00  0.000000D+00
    118   0.000000D+00  0.000000D+00  0.000000D+00  0.000000D+00  0.000000D+00
    119   0.000000D+00  0.000000D+00  0.000000D+00  0.000000D+00  0.000000D+00
    120   0.000000D+00  0.000000D+00  0.000000D+00  0.000000D+00  0.000000D+00
    121   0.000000D+00  0.000000D+00  0.000000D+00  0.000000D+00  0.000000D+00
    122   0.000000D+00  0.000000D+00  0.000000D+00  0.000000D+00  0.000000D+00
    123   0.000000D+00  0.000000D+00  0.000000D+00  0.000000D+00  0.000000D+00
    124   0.000000D+00  0.000000D+00  0.000000D+00  0.000000D+00  0.000000D+00
    125   0.000000D+00  0.000000D+00  0.000000D+00  0.000000D+00  0.000000D+00
    126   0.000000D+00  0.000000D+00  0.000000D+00  0.000000D+00  0.000000D+00
    127   0.000000D+00  0.000000D+00  0.000000D+00  0.000000D+00  0.000000D+00
    128   0.000000D+00  0.000000D+00  0.000000D+00  0.000000D+00  0.000000D+00
    129   0.000000D+00  0.000000D+00  0.000000D+00  0.000000D+00  0.000000D+00
    130   0.000000D+00  0.000000D+00  0.000000D+00  0.000000D+00  0.000000D+00
    131   0.000000D+00  0.000000D+00  0.000000D+00  0.000000D+00  0.000000D+00
    132   0.000000D+00  0.000000D+00  0.000000D+00  0.000000D+00  0.000000D+00
    133   0.000000D+00  0.000000D+00  0.000000D+00  0.000000D+00  0.000000D+00
    134   0.000000D+00  0.000000D+00  0.000000D+00  0.000000D+00  0.000000D+00
    135   0.000000D+00  0.000000D+00  0.000000D+00  0.000000D+00  0.000000D+00
    136   0.000000D+00  0.000000D+00  0.000000D+00  0.000000D+00  0.000000D+00
    137   0.000000D+00  0.000000D+00  0.000000D+00  0.000000D+00  0.000000D+00
    138   0.000000D+00  0.000000D+00  0.000000D+00  0.000000D+00  0.000000D+00
    139   0.000000D+00  0.000000D+00  0.000000D+00  0.000000D+00  0.000000D+00
    140   0.000000D+00  0.000000D+00  0.000000D+00  0.000000D+00  0.000000D+00
    141   0.000000D+00  0.000000D+00  0.000000D+00  0.000000D+00  0.000000D+00
    142   0.000000D+00  0.000000D+00  0.000000D+00  0.000000D+00  0.000000D+00
    143   0.000000D+00  0.000000D+00  0.000000D+00  0.000000D+00  0.000000D+00
    144   0.000000D+00  0.000000D+00  0.000000D+00  0.000000D+00  0.000000D+00
    145   0.000000D+00  0.000000D+00  0.000000D+00  0.000000D+00  0.000000D+00
    146   0.000000D+00  0.000000D+00  0.000000D+00  0.000000D+00  0.000000D+00
    147   0.000000D+00  0.000000D+00  0.000000D+00  0.000000D+00  0.000000D+00
    148   0.000000D+00  0.000000D+00  0.000000D+00  0.000000D+00  0.000000D+00
    149   0.000000D+00  0.000000D+00  0.000000D+00  0.000000D+00  0.000000D+00
    150   0.000000D+00  0.000000D+00  0.000000D+00  0.000000D+00  0.000000D+00
    151   0.000000D+00  0.000000D+00  0.000000D+00  0.000000D+00  0.000000D+00
    152   0.000000D+00  0.000000D+00  0.000000D+00  0.000000D+00  0.000000D+00
    153   0.000000D+00  0.000000D+00  0.000000D+00  0.000000D+00  0.000000D+00
    154   0.000000D+00  0.000000D+00  0.000000D+00  0.000000D+00  0.000000D+00
    155   0.000000D+00  0.000000D+00  0.000000D+00  0.000000D+00  0.000000D+00
    156   0.000000D+00  0.000000D+00  0.000000D+00  0.000000D+00  0.000000D+00
    157   0.000000D+00  0.000000D+00  0.000000D+00  0.000000D+00  0.000000D+00
    158   0.000000D+00  0.000000D+00  0.000000D+00  0.000000D+00  0.000000D+00
    159   0.000000D+00  0.000000D+00  0.000000D+00  0.000000D+00  0.000000D+00
    160   0.000000D+00  0.000000D+00  0.000000D+00  0.000000D+00  0.000000D+00
    161   0.000000D+00  0.000000D+00  0.000000D+00  0.000000D+00  0.000000D+00
    162   0.000000D+00  0.000000D+00  0.000000D+00  0.000000D+00  0.000000D+00
    163   0.000000D+00  0.000000D+00  0.000000D+00  0.000000D+00  0.000000D+00
    164   0.000000D+00  0.000000D+00  0.000000D+00  0.000000D+00  0.000000D+00
    165   0.000000D+00  0.000000D+00  0.000000D+00  0.000000D+00  0.000000D+00
    166   0.000000D+00  0.000000D+00  0.000000D+00  0.000000D+00  0.000000D+00
    167   0.000000D+00  0.000000D+00  0.000000D+00  0.000000D+00  0.000000D+00
    168   0.000000D+00  0.000000D+00  0.000000D+00  0.000000D+00  0.000000D+00
    169   0.000000D+00  0.000000D+00  0.000000D+00  0.000000D+00  0.000000D+00
    170   0.000000D+00  0.000000D+00  0.000000D+00  0.000000D+00  0.000000D+00
    171   0.000000D+00  0.000000D+00  0.000000D+00  0.000000D+00  0.000000D+00
    172   0.000000D+00  0.000000D+00  0.000000D+00  0.000000D+00  0.000000D+00
    173   0.000000D+00  0.000000D+00  0.000000D+00  0.000000D+00  0.000000D+00
    174   0.000000D+00  0.000000D+00  0.000000D+00  0.000000D+00  0.000000D+00
    175   0.000000D+00  0.000000D+00  0.000000D+00  0.000000D+00  0.000000D+00
    176   0.000000D+00  0.000000D+00  0.000000D+00  0.000000D+00  0.000000D+00
    177   0.000000D+00  0.000000D+00  0.000000D+00  0.000000D+00  0.000000D+00
    178   0.000000D+00  0.000000D+00  0.000000D+00  0.000000D+00  0.000000D+00
    179   0.000000D+00  0.000000D+00  0.000000D+00  0.000000D+00  0.000000D+00
    180   0.000000D+00  0.000000D+00  0.000000D+00  0.000000D+00  0.000000D+00
    181   0.000000D+00  0.000000D+00  0.000000D+00  0.000000D+00  0.000000D+00
    182   0.000000D+00  0.000000D+00  0.000000D+00  0.000000D+00  0.000000D+00
    183   0.000000D+00  0.000000D+00  0.000000D+00  0.000000D+00  0.000000D+00
    184   0.000000D+00  0.000000D+00  0.000000D+00  0.000000D+00  0.000000D+00
    185   0.000000D+00  0.000000D+00  0.000000D+00  0.000000D+00  0.000000D+00
    186   0.000000D+00  0.000000D+00  0.000000D+00  0.000000D+00  0.000000D+00
    187   0.000000D+00  0.000000D+00  0.000000D+00  0.000000D+00  0.000000D+00
    188   0.000000D+00  0.000000D+00  0.000000D+00  0.000000D+00  0.000000D+00
    189   0.000000D+00  0.000000D+00  0.000000D+00  0.000000D+00  0.000000D+00
    190   0.000000D+00  0.000000D+00  0.000000D+00  0.000000D+00  0.000000D+00
    191   0.000000D+00  0.000000D+00  0.000000D+00  0.000000D+00  0.000000D+00
    192   0.000000D+00  0.000000D+00  0.000000D+00  0.000000D+00  0.000000D+00
    193   0.000000D+00  0.000000D+00  0.000000D+00  0.000000D+00  0.000000D+00
    194   0.000000D+00  0.000000D+00  0.000000D+00  0.000000D+00  0.000000D+00
    195   0.000000D+00  0.000000D+00  0.000000D+00  0.000000D+00  0.000000D+00
    196   0.000000D+00  0.000000D+00  0.000000D+00  0.000000D+00  0.000000D+00
    197   0.000000D+00  0.000000D+00  0.000000D+00  0.000000D+00  0.000000D+00
    198   0.000000D+00  0.000000D+00  0.000000D+00  0.000000D+00  0.000000D+00
    199   0.000000D+00  0.000000D+00  0.000000D+00  0.000000D+00  0.000000D+00
    200   0.000000D+00  0.000000D+00  0.000000D+00  0.000000D+00  0.000000D+00
    201   0.000000D+00  0.000000D+00  0.000000D+00  0.000000D+00  0.000000D+00
    202   0.000000D+00  0.000000D+00  0.000000D+00  0.000000D+00  0.000000D+00
    203   0.000000D+00  0.000000D+00  0.000000D+00  0.000000D+00  0.000000D+00
    204   0.000000D+00  0.000000D+00  0.000000D+00  0.000000D+00  0.000000D+00
    205   0.000000D+00  0.000000D+00  0.000000D+00  0.000000D+00  0.000000D+00
    206   0.000000D+00  0.000000D+00  0.000000D+00  0.000000D+00  0.000000D+00
    207   0.000000D+00  0.000000D+00  0.000000D+00  0.000000D+00  0.000000D+00
    208   0.000000D+00  0.000000D+00  0.000000D+00  0.000000D+00  0.000000D+00
    209   0.000000D+00  0.000000D+00  0.000000D+00  0.000000D+00  0.000000D+00
    210   0.000000D+00  0.000000D+00  0.000000D+00  0.000000D+00  0.000000D+00
    211   0.000000D+00  0.000000D+00  0.000000D+00  0.000000D+00  0.000000D+00
    212   0.000000D+00  0.000000D+00  0.000000D+00  0.000000D+00  0.000000D+00
    213   0.000000D+00  0.000000D+00  0.000000D+00  0.000000D+00  0.000000D+00
    214   0.000000D+00  0.000000D+00  0.000000D+00  0.000000D+00  0.000000D+00
    215   0.000000D+00  0.000000D+00  0.000000D+00  0.000000D+00  0.000000D+00
    216   0.000000D+00  0.000000D+00  0.000000D+00  0.000000D+00  0.000000D+00
    217   0.000000D+00  0.000000D+00  0.000000D+00  0.000000D+00  0.000000D+00
    218   0.000000D+00  0.000000D+00  0.000000D+00  0.000000D+00  0.000000D+00
    219   0.000000D+00  0.000000D+00  0.000000D+00  0.000000D+00  0.000000D+00
    220   0.000000D+00  0.000000D+00  0.000000D+00  0.000000D+00  0.000000D+00
    221   0.000000D+00  0.000000D+00  0.000000D+00  0.000000D+00  0.000000D+00
    222   0.000000D+00  0.000000D+00  0.000000D+00  0.000000D+00  0.000000D+00
    223   0.000000D+00  0.000000D+00  0.000000D+00  0.000000D+00  0.000000D+00
    224   0.000000D+00  0.000000D+00  0.000000D+00  0.000000D+00  0.000000D+00
    225   0.000000D+00  0.000000D+00  0.000000D+00  0.000000D+00  0.000000D+00
    226   0.000000D+00  0.000000D+00  0.000000D+00  0.000000D+00  0.000000D+00
    227   0.000000D+00  0.000000D+00  0.000000D+00  0.000000D+00  0.000000D+00
    228   0.000000D+00  0.000000D+00  0.000000D+00  0.000000D+00  0.000000D+00
    229   0.000000D+00  0.000000D+00  0.000000D+00  0.000000D+00  0.000000D+00
    230   0.000000D+00  0.000000D+00  0.000000D+00  0.000000D+00  0.000000D+00
    231   0.000000D+00  0.000000D+00  0.000000D+00  0.000000D+00  0.000000D+00
    232   0.000000D+00  0.000000D+00  0.000000D+00  0.000000D+00  0.000000D+00
    233   0.000000D+00  0.000000D+00  0.000000D+00  0.000000D+00  0.000000D+00
    234   0.000000D+00  0.000000D+00  0.000000D+00  0.000000D+00  0.000000D+00
    235   0.000000D+00  0.000000D+00  0.000000D+00  0.000000D+00  0.000000D+00
    236   0.000000D+00  0.000000D+00  0.000000D+00  0.000000D+00  0.000000D+00
    237   0.000000D+00  0.000000D+00  0.000000D+00  0.000000D+00  0.000000D+00
    238   0.000000D+00  0.000000D+00  0.000000D+00  0.000000D+00  0.000000D+00
    239   0.000000D+00  0.000000D+00  0.000000D+00  0.000000D+00  0.000000D+00
    240   0.000000D+00  0.000000D+00  0.000000D+00  0.000000D+00  0.000000D+00
    241   0.000000D+00  0.000000D+00  0.000000D+00  0.000000D+00  0.000000D+00
    242   0.000000D+00  0.000000D+00  0.000000D+00  0.000000D+00  0.000000D+00
    243   0.000000D+00  0.000000D+00  0.000000D+00  0.000000D+00  0.000000D+00
    244   0.000000D+00  0.000000D+00  0.000000D+00  0.000000D+00  0.000000D+00
    245   0.000000D+00  0.000000D+00  0.000000D+00  0.000000D+00  0.000000D+00
    246   0.000000D+00  0.000000D+00  0.000000D+00  0.000000D+00  0.000000D+00
    247   0.000000D+00  0.000000D+00  0.000000D+00  0.000000D+00  0.000000D+00
    248   0.000000D+00  0.000000D+00  0.000000D+00  0.000000D+00  0.000000D+00
    249   0.000000D+00  0.000000D+00  0.000000D+00  0.000000D+00  0.000000D+00
    250   0.358020D-05  0.230618D-04  0.000000D+00  0.000000D+00 -0.667447D-05
    251   0.000000D+00  0.000000D+00 -0.231274D-05  0.000000D+00  0.000000D+00
    252   0.000000D+00  0.000000D+00  0.000000D+00 -0.231274D-05  0.000000D+00
    253  -0.736212D-05 -0.506048D-04  0.000000D+00  0.000000D+00  0.257286D-04
    254   0.304412D-03  0.194266D-02  0.000000D+00  0.000000D+00 -0.545967D-03
    255   0.000000D+00  0.000000D+00  0.154818D-03  0.000000D+00  0.000000D+00
    256   0.000000D+00  0.000000D+00  0.000000D+00  0.154818D-03  0.000000D+00
    257   0.000000D+00  0.000000D+00  0.000000D+00  0.000000D+00  0.000000D+00
    258   0.000000D+00  0.000000D+00  0.000000D+00  0.000000D+00  0.000000D+00
    259   0.474102D-02  0.294182D-01  0.000000D+00  0.000000D+00  0.772751D-03
    260   0.000000D+00  0.000000D+00  0.235066D-02  0.000000D+00  0.000000D+00
    261   0.000000D+00  0.000000D+00  0.000000D+00  0.235066D-02  0.000000D+00
    262   0.000000D+00  0.000000D+00  0.000000D+00  0.000000D+00  0.000000D+00
    263   0.000000D+00  0.000000D+00  0.000000D+00  0.000000D+00  0.000000D+00
    264   0.915582D-02  0.561895D-01  0.000000D+00  0.000000D+00 -0.660495D-03
    265   0.000000D+00  0.000000D+00  0.635625D-02  0.000000D+00  0.000000D+00
    266   0.000000D+00  0.000000D+00  0.000000D+00  0.635625D-02  0.000000D+00
    267   0.000000D+00  0.000000D+00  0.000000D+00  0.000000D+00  0.000000D+00
    268   0.000000D+00  0.000000D+00  0.000000D+00  0.000000D+00  0.000000D+00
    269   0.000000D+00  0.000000D+00  0.000000D+00  0.000000D+00  0.000000D+00
    270   0.000000D+00  0.000000D+00  0.000000D+00  0.000000D+00  0.000000D+00
    271   0.118599D-01  0.719613D-01  0.000000D+00  0.000000D+00 -0.273358D-02
    272   0.000000D+00  0.000000D+00  0.105207D-01  0.000000D+00  0.000000D+00
    273   0.000000D+00  0.000000D+00  0.000000D+00  0.105207D-01  0.000000D+00
    274   0.000000D+00  0.000000D+00  0.000000D+00  0.000000D+00  0.000000D+00
    275   0.000000D+00  0.000000D+00  0.000000D+00  0.000000D+00  0.000000D+00
    276   0.000000D+00  0.000000D+00  0.000000D+00  0.000000D+00  0.000000D+00
    277   0.000000D+00  0.000000D+00  0.000000D+00  0.000000D+00  0.000000D+00
    278   0.000000D+00  0.000000D+00  0.000000D+00  0.000000D+00  0.000000D+00
    279   0.000000D+00  0.000000D+00  0.000000D+00  0.000000D+00  0.000000D+00
    280   0.139319D-01  0.834659D-01  0.000000D+00  0.000000D+00 -0.515933D-02
    281   0.000000D+00  0.000000D+00  0.149636D-01  0.000000D+00  0.000000D+00
    282   0.000000D+00  0.000000D+00  0.000000D+00  0.149636D-01  0.000000D+00
    283   0.000000D+00  0.000000D+00  0.000000D+00  0.000000D+00  0.000000D+00
    284   0.000000D+00  0.000000D+00  0.000000D+00  0.000000D+00  0.000000D+00
    285   0.000000D+00  0.000000D+00  0.000000D+00  0.000000D+00  0.000000D+00
    286   0.000000D+00  0.000000D+00  0.000000D+00  0.000000D+00  0.000000D+00
    287   0.000000D+00  0.000000D+00  0.000000D+00  0.000000D+00  0.000000D+00
    288   0.000000D+00  0.000000D+00  0.000000D+00  0.000000D+00  0.000000D+00
    289   0.000000D+00  0.000000D+00  0.000000D+00  0.000000D+00  0.000000D+00
    290   0.000000D+00  0.000000D+00  0.000000D+00  0.000000D+00  0.000000D+00
    291   0.182008D-02  0.114371D-01  0.000000D+00  0.000000D+00 -0.187292D-02
    292   0.211507D-02  0.132145D-01  0.000000D+00  0.000000D+00 -0.316966D-03
    293   0.000000D+00  0.000000D+00  0.110634D-02  0.000000D+00  0.000000D+00
    294   0.000000D+00  0.000000D+00  0.000000D+00  0.110634D-02  0.000000D+00
    295   0.384059D-02  0.239972D-01  0.000000D+00  0.000000D+00 -0.341496D-02
    296   0.000000D+00  0.000000D+00  0.114531D-02  0.000000D+00  0.000000D+00
    297   0.000000D+00  0.000000D+00  0.000000D+00  0.114531D-02  0.000000D+00
    298   0.398680D-02  0.248355D-01  0.000000D+00  0.000000D+00 -0.579833D-04
    299   0.000000D+00  0.000000D+00  0.000000D+00  0.000000D+00  0.000000D+00
    300   0.000000D+00  0.761752D-05  0.000000D+00  0.000000D+00 -0.711660D-05
    301   0.151277D-03  0.101988D-02  0.000000D+00  0.000000D+00 -0.470206D-03
    302   0.130992D-02  0.826732D-02  0.000000D+00  0.000000D+00 -0.181652D-02
    303   0.266655D-02  0.166532D-01  0.000000D+00  0.000000D+00 -0.172444D-02
    304   0.000000D+00  0.000000D+00  0.000000D+00  0.000000D+00  0.000000D+00
    305   0.000000D+00  0.000000D+00  0.000000D+00  0.000000D+00  0.000000D+00
    306   0.000000D+00  0.000000D+00  0.000000D+00  0.000000D+00  0.000000D+00
    307   0.000000D+00  0.000000D+00  0.000000D+00  0.000000D+00  0.000000D+00
    308   0.000000D+00  0.000000D+00  0.000000D+00  0.000000D+00  0.000000D+00
    309   0.000000D+00  0.000000D+00  0.000000D+00  0.000000D+00  0.000000D+00
    310   0.000000D+00  0.000000D+00  0.000000D+00  0.000000D+00  0.000000D+00
    311   0.000000D+00  0.000000D+00  0.000000D+00  0.000000D+00  0.000000D+00
    312   0.000000D+00  0.000000D+00  0.000000D+00  0.000000D+00  0.000000D+00
    313   0.000000D+00  0.000000D+00  0.198247D-04  0.000000D+00  0.000000D+00
    314   0.000000D+00  0.000000D+00  0.000000D+00  0.198247D-04  0.000000D+00
    315   0.581183D-04  0.437111D-03  0.000000D+00  0.000000D+00 -0.294675D-03
    316   0.000000D+00  0.000000D+00  0.430774D-03  0.000000D+00  0.000000D+00
    317   0.000000D+00  0.000000D+00  0.000000D+00  0.430774D-03  0.000000D+00
    318   0.145897D-02  0.936754D-02  0.000000D+00  0.000000D+00 -0.304293D-02
    319   0.000000D+00  0.000000D+00  0.000000D+00  0.000000D+00  0.000000D+00
    320   0.000000D+00  0.000000D+00  0.000000D+00  0.000000D+00  0.000000D+00
    321   0.000000D+00  0.000000D+00  0.000000D+00  0.000000D+00  0.000000D+00
    322   0.000000D+00  0.000000D+00  0.000000D+00  0.000000D+00  0.000000D+00
    323   0.000000D+00  0.000000D+00  0.000000D+00  0.000000D+00  0.000000D+00
    324   0.000000D+00  0.000000D+00  0.000000D+00  0.000000D+00  0.000000D+00
    325   0.000000D+00  0.000000D+00  0.000000D+00  0.000000D+00  0.000000D+00
    326   0.000000D+00  0.000000D+00  0.000000D+00  0.000000D+00  0.000000D+00
    327   0.000000D+00  0.000000D+00  0.000000D+00  0.000000D+00  0.000000D+00
    328   0.000000D+00  0.000000D+00  0.000000D+00  0.000000D+00  0.000000D+00
    329   0.553510D-05  0.536245D-04  0.000000D+00  0.000000D+00 -0.518873D-04
    330   0.000000D+00  0.000000D+00  0.413264D-05  0.000000D+00  0.000000D+00
    331   0.000000D+00  0.000000D+00  0.000000D+00  0.413264D-05  0.000000D+00
    332   0.000000D+00  0.000000D+00  0.000000D+00  0.000000D+00  0.000000D+00
    333   0.000000D+00  0.000000D+00  0.000000D+00  0.000000D+00  0.000000D+00
    334   0.187945D-02  0.121266D-01  0.000000D+00  0.000000D+00 -0.441823D-02
    335   0.000000D+00  0.000000D+00  0.965451D-03  0.000000D+00  0.000000D+00
    336   0.000000D+00  0.000000D+00  0.000000D+00  0.965451D-03  0.000000D+00
    337   0.000000D+00  0.000000D+00  0.000000D+00  0.000000D+00  0.000000D+00
    338   0.000000D+00  0.000000D+00  0.000000D+00  0.000000D+00  0.000000D+00
    339   0.784947D-02  0.485097D-01  0.000000D+00  0.000000D+00 -0.462571D-02
    340   0.000000D+00  0.000000D+00  0.387766D-02  0.000000D+00  0.000000D+00
    341   0.000000D+00  0.000000D+00  0.000000D+00  0.387766D-02  0.000000D+00
    342   0.000000D+00  0.000000D+00  0.000000D+00  0.000000D+00  0.000000D+00
    343   0.000000D+00  0.000000D+00  0.000000D+00  0.000000D+00  0.000000D+00
    344   0.000000D+00  0.000000D+00  0.000000D+00  0.000000D+00  0.000000D+00
    345   0.000000D+00  0.000000D+00  0.000000D+00  0.000000D+00  0.000000D+00
    346   0.000000D+00  0.000000D+00  0.000000D+00  0.000000D+00  0.000000D+00
    347   0.000000D+00  0.000000D+00  0.000000D+00  0.000000D+00  0.000000D+00
    348   0.000000D+00  0.000000D+00  0.000000D+00  0.000000D+00  0.000000D+00
    349   0.000000D+00  0.000000D+00  0.000000D+00  0.000000D+00  0.000000D+00
    350   0.000000D+00  0.000000D+00  0.000000D+00  0.000000D+00  0.000000D+00
    351   0.000000D+00  0.000000D+00  0.000000D+00  0.000000D+00  0.000000D+00
    352   0.000000D+00  0.000000D+00  0.000000D+00  0.000000D+00  0.000000D+00
    353   0.000000D+00  0.000000D+00  0.000000D+00  0.000000D+00  0.000000D+00
    354   0.000000D+00  0.000000D+00  0.000000D+00  0.000000D+00  0.000000D+00
    355   0.000000D+00  0.000000D+00  0.000000D+00  0.000000D+00  0.000000D+00
    356   0.000000D+00  0.000000D+00  0.000000D+00  0.000000D+00  0.000000D+00
    357   0.000000D+00  0.000000D+00  0.000000D+00  0.000000D+00  0.000000D+00
    358   0.000000D+00  0.000000D+00  0.000000D+00  0.000000D+00  0.000000D+00
    359   0.000000D+00  0.000000D+00  0.000000D+00  0.000000D+00  0.000000D+00
    360   0.000000D+00  0.000000D+00  0.000000D+00  0.000000D+00  0.000000D+00
    361   0.000000D+00  0.000000D+00  0.000000D+00  0.000000D+00  0.000000D+00
    362   0.000000D+00  0.000000D+00  0.000000D+00  0.000000D+00  0.000000D+00
    363   0.000000D+00  0.000000D+00  0.000000D+00  0.000000D+00  0.000000D+00
    364   0.000000D+00  0.000000D+00  0.000000D+00  0.000000D+00  0.000000D+00
    365   0.200603D-05  0.232438D-04  0.000000D+00  0.000000D+00 -0.259289D-04
    366   0.000000D+00  0.000000D+00  0.250415D-05  0.000000D+00  0.000000D+00
    367   0.000000D+00  0.000000D+00  0.000000D+00  0.250415D-05  0.000000D+00
    368   0.000000D+00  0.000000D+00  0.000000D+00  0.000000D+00  0.000000D+00
    369   0.000000D+00  0.000000D+00  0.000000D+00  0.000000D+00  0.000000D+00
    370   0.000000D+00  0.000000D+00  0.000000D+00  0.000000D+00  0.000000D+00
[...]

 AB - AA |     29
 BA - BB |     29
--------------------
   29    |  1.000000
   29    |  0.000000
         |

                    Interference Factors
                    --------------------

 AB - AA |     29
 BA - BB |     29
--------------------
   29    |  0.099189
   29    |  0.000000
         |

          Overlap/Interference Sums
          -------------------------

                                      Alpha        Beta
          Overlap                     1.0000      0.0000
          Interference                0.0992      0.0000
          Overlap*Interference        0.0992      0.0000
          Intra-orbital Ovlp*Inf      0.0992      0.0000

              Number of PNO for a Closed Shell
              --------------------------------

 AB - AA |      29
 BA - BB |      29
--------------------
   29    |      20
   29    |       0
         |

                   MP2(N) Pair Energies
                   --------------------

 AB - AA |     29
 BA - BB |     29
--------------------
   29    | -0.018923
   29    |  0.000000
         |

                     Delta Factors
                     -------------

 AB - AA |     29
 BA - BB |     29
--------------------
   29    |  1.301586
   29    |  0.000000
         |

                   MP2(CBS) Pair Energies
                   ----------------------

 AB - AA |     29
 BA - BB |     29
--------------------
   29    | -0.021215
   29    |  0.000000
         |

                     Sum of ab pair energies =    -0.021215 A.U.
                     Sum of ba pair energies =     0.000000 A.U.
                     Sum of aa pair energies =     0.000000 A.U.
                     Sum of bb pair energies =     0.000000 A.U.

           Sum of intraorbital pair energies =    -0.021215 A.U.
           Sum of interorbital pair energies =     0.000000 A.U.
                                                  ----------
                         Total pair energies =    -0.021215 A.U.

                         Single Excitations  =     0.000000 A.U.

                          Total second order =    -0.021215 A.U.



            MP2(CBS) (With Interference Correction) 
            ---------------------------------------

 AB - AA |     29
 BA - BB |     29
--------------------
   29    | -0.020462
   29    |  0.000000
         |

                     Sum of ab pair energies =    -0.020462 A.U.
                     Sum of ba pair energies =     0.000000 A.U.
                     Sum of aa pair energies =     0.000000 A.U.
                     Sum of bb pair energies =     0.000000 A.U.

           Sum of intraorbital pair energies =    -0.020462 A.U.
           Sum of interorbital pair energies =     0.000000 A.U.
                                                  ----------
                         Total pair energies =    -0.020462 A.U.

                         Single Excitations  =     0.000000 A.U.

                          Total second order =    -0.020462 A.U.

                         E2(CBS) - E2(Dir) =      -0.000836 A.U.

 E2(CBS)=      -0.021215 CBS-Int=       0.000753 OIii=       0.099189

 **********************************************************************

            Population analysis using the SCF density.

 **********************************************************************

 Orbital symmetries:
       Occupied  (SGU) (SGG) (SGU) (SGG) (PIG) (PIG) (PIU) (PIU)
                 (SGU) (SGG) (SGG) (SGU) (SGG) (PIU) (PIU) (PIG)
                 (PIG) (SGU) (SGG) (PIU) (PIU) (DLTG) (DLTG) (DLTU)
                 (DLTU) (PIG) (PIG) (SGU) (SGG)
       Virtual   (SGU) (SGG) (PIU) (PIU) (SGU) (PIG) (PIG) (SGG)
                 (DLTG) (DLTG) (SGU) (PIU) (PIU) (DLTU) (DLTU)
                 (SGG) (SGU) (PIG) (PIG) (SGG) (PIU) (PIU) (PIG)
                 (PIG) (SGG) (SGU) (PHIU) (PHIU) (PIU) (PIU) (DLTU)
                 (DLTU) (DLTG) (DLTG) (PHIG) (PHIG) (PIG) (PIG)
                 (SGG) (DLTG) (DLTG) (SGU) (SGU) (PIU) (PIU) (SGG)
                 (DLTU) (DLTU) (PIU) (PIU) (?A) (?A) (PIG) (PIG)
                 (PHIU) (PHIU) (?B) (?B) (SGU) (DLTU) (DLTU) (SGG)
                 (PIU) (PIU) (PIG) (PIG) (DLTG) (DLTG) (PHIG) (PHIG)
                 (SGG) (PIG) (PIG) (SGU) (SGU) (SGG) (PHIG) (PHIG)
                 (?C) (?C) (PIU) (PIU) (DLTG) (DLTG) (?A) (?A)
                 (?D) (?D) (DLTU) (DLTU) (PHIU) (PHIU) (SGU) (SGG)
                 (DLTG) (DLTG) (PIU) (PIU) (?B) (?B) (DLTU) (DLTU)
                 (PIG) (PIG) (PHIU) (PHIU) (SGG) (PIG) (PIG) (SGU)
                 (PIU) (PIU) (PHIG) (PHIG) (DLTG) (DLTG) (SGG)
                 (DLTU) (DLTU) (SGU) (PIG) (PIG) (PIU) (PIU) (SGU)
                 (PIG) (PIG) (SGG) (PIU) (PIU) (DLTG) (DLTG) (SGG)
                 (PHIU) (PHIU) (?A) (?A) (SGU) (?B) (?B) (PHIG)
                 (PHIG) (SGG) (DLTU) (DLTU) (DLTG) (DLTG) (PIG)
                 (PIG) (DLTU) (DLTU) (PHIU) (PHIU) (PIU) (PIU)
                 (SGU) (DLTG) (DLTG) (SGG) (PHIG) (PHIG) (PIG)
                 (PIG) (SGU) (SGU) (PIU) (PIU) (DLTU) (DLTU) (PIG)
                 (PIG) (SGG) (PIU) (PIU) (PIG) (PIG) (SGU) (SGG)
                 (SGU) (PIU) (PIU) (DLTG) (DLTG) (SGG) (PHIU) (PHIU)
                 (?A) (?A) (?C) (?C) (?D) (?D) (?B) (?B) (PHIG)
                 (PHIG) (DLTU) (DLTU) (PIG) (PIG) (SGU) (DLTG)
                 (DLTG) (PHIU) (PHIU) (?A) (?A) (?B) (?B) (PIU)
                 (PIU) (PHIG) (PHIG) (SGG) (DLTU) (DLTU) (PHIU)
                 (PHIU) (DLTG) (DLTG) (PHIG) (PHIG) (PIG) (PIG)
                 (SGU) (PIU) (PIU) (DLTU) (DLTU) (SGG) (PIG) (PIG)
                 (DLTG) (DLTG) (DLTU) (DLTU) (SGG) (SGU) (PIU)
                 (PIU) (PIG) (PIG) (SGU) (SGG) (SGU) (PIU) (PIU)
                 (PIG) (PIG) (SGG) (SGU) (PIU) (PIU) (DLTG) (DLTG)
                 (PHIU) (PHIU) (PHIG) (PHIG) (SGG) (?A) (?A) (?B)
                 (?B) (DLTU) (DLTU) (?D) (?D) (?C) (?C) (?E) (?E)
                 (?F) (?F) (PIG) (PIG) (SGU) (PIU) (PIU) (DLTG)
                 (DLTG) (SGG) (PHIU) (PHIU) (?A) (?A) (?C) (?C)
                 (?D) (?D) (?B) (?B) (PHIG) (PHIG) (DLTU) (DLTU)
                 (PIG) (PIG) (SGU) (DLTG) (DLTG) (PHIU) (PHIU)
                 (PIU) (PIU) (?A) (?A) (?B) (?B) (PHIU) (PHIU)
                 (PHIG) (PHIG) (SGG) (DLTG) (DLTG) (PHIG) (PHIG)
                 (DLTU) (DLTU) (PIG) (PIG) (PIU) (PIU) (DLTU) (DLTU)
                 (SGU) (PIG) (PIG) (SGG) (SGU) (DLTG) (DLTG) (DLTU)
                 (DLTU) (PIU) (PIU) (PIG) (PIG) (SGU) (SGG) (PIU)
                 (PIU) (PIG) (PIG) (SGG) (SGU) (PIU) (PIU) (PIG)
                 (PIG) (DLTG) (DLTG) (DLTU) (DLTU) (SGG) (SGU)
                 (PHIU) (PHIU) (PHIG) (PHIG) (?A) (?A) (?B) (?B)
                 (?C) (?C) (?D) (?D) (?E) (?E) (?F) (?F) (?G) (?G)
                 (?H) (?H) (DLTG) (DLTG) (PHIU) (PHIU) (?A) (?A)
                 (?B) (?B) (PHIG) (PHIG) (PIU) (PIU) (DLTU) (DLTU)
                 (SGG) (PIG) (PIG) (SGU) (PHIU) (PHIU) (DLTG) (DLTG)
                 (PHIG) (PHIG) (PIU) (PIU) (DLTU) (DLTU) (PIG)
                 (PIG) (SGG) (SGU) (PIU) (PIU) (DLTG) (DLTG) (PHIU)
                 (PHIU) (?C) (?C) (?A) (?A) (?D) (?D) (?B) (?B)
                 (PHIG) (PHIG) (DLTU) (DLTU) (SGG) (PIG) (PIG)
                 (SGU) (PHIU) (PHIU) (PHIG) (PHIG) (DLTG) (DLTG)
                 (PIU) (PIU) (?A) (?A) (?B) (?B) (DLTU) (DLTU)
                 (?C) (?C) (?D) (?D) (?E) (?E) (?F) (?F) (SGG)
                 (PIG) (PIG) (SGU) (SGG) (SGU)
 The electronic state is 1-SGG.
 Alpha  occ. eigenvalues -- -328.78275-328.78275 -40.81038 -40.81038 -35.60895
 Alpha  occ. eigenvalues --  -35.60895 -35.60895 -35.60895 -35.60890 -35.60888
 Alpha  occ. eigenvalues --   -5.00251  -5.00167  -3.31912  -3.31316  -3.31316
 Alpha  occ. eigenvalues --   -3.31259  -3.31259  -3.31211  -0.51080  -0.49899
 Alpha  occ. eigenvalues --   -0.49899  -0.48244  -0.48244  -0.47506  -0.47506
 Alpha  occ. eigenvalues --   -0.46051  -0.46051  -0.45078  -0.23696
 Alpha virt. eigenvalues --    0.00706   0.03686   0.04130   0.04130   0.04878
 Alpha virt. eigenvalues --    0.07410   0.07410   0.07977   0.12509   0.12509
 Alpha virt. eigenvalues --    0.14317   0.14512   0.14512   0.15406   0.15406
 Alpha virt. eigenvalues --    0.16280   0.16792   0.17096   0.17096   0.19051
 Alpha virt. eigenvalues --    0.19548   0.19548   0.30257   0.30257   0.35409
 Alpha virt. eigenvalues --    0.36484   0.37484   0.37484   0.38242   0.38242
 Alpha virt. eigenvalues --    0.38251   0.38251   0.41416   0.41416   0.42796
 Alpha virt. eigenvalues --    0.42796   0.42815   0.42815   0.42816   0.44125
 Alpha virt. eigenvalues --    0.44125   0.44417   0.49874   0.54113   0.54113
 Alpha virt. eigenvalues --    0.54362   0.59520   0.59520   0.68349   0.68349
 Alpha virt. eigenvalues --    0.70720   0.70720   0.71543   0.71543   0.75830
 Alpha virt. eigenvalues --    0.75830   0.81152   0.81152   0.84740   0.86621
 Alpha virt. eigenvalues --    0.86621   0.87298   0.89437   0.89437   0.90669
 Alpha virt. eigenvalues --    0.90669   0.90909   0.90909   0.91351   0.91351
 Alpha virt. eigenvalues --    0.91865   0.92687   0.92687   0.96485   0.99825
 Alpha virt. eigenvalues --    1.10714   1.10828   1.10828   1.12771   1.12771
 Alpha virt. eigenvalues --    1.13759   1.13759   1.16700   1.16700   1.18536
 Alpha virt. eigenvalues --    1.18536   1.24572   1.24572   1.25794   1.25794
 Alpha virt. eigenvalues --    1.25966   1.25966   1.26547   1.29963   1.35567
 Alpha virt. eigenvalues --    1.35567   1.36758   1.36758   1.41481   1.41481
 Alpha virt. eigenvalues --    1.42758   1.42758   1.47938   1.47938   1.51728
 Alpha virt. eigenvalues --    1.51728   1.57905   1.65589   1.65589   1.70784
 Alpha virt. eigenvalues --    1.72978   1.72978   1.74364   1.74364   1.81006
 Alpha virt. eigenvalues --    1.81006   1.86361   1.89729   1.89729   1.91885
 Alpha virt. eigenvalues --    2.01720   2.01720   2.05888   2.05888   2.15827
 Alpha virt. eigenvalues --    2.18245   2.18245   2.33637   2.86544   2.86544
 Alpha virt. eigenvalues --    2.87286   2.87286   2.90979   2.96588   2.96588
 Alpha virt. eigenvalues --    2.98712   2.98712   2.99681   3.02252   3.02252
 Alpha virt. eigenvalues --    3.12498   3.12498   3.28827   3.32730   3.32730
 Alpha virt. eigenvalues --    3.46089   3.46089   3.50143   3.50143   3.57026
 Alpha virt. eigenvalues --    3.57026   3.61321   3.61321   3.64180   3.64180
 Alpha virt. eigenvalues --    3.66393   3.67575   3.67575   3.70704   3.77295
 Alpha virt. eigenvalues --    3.77295   3.77375   3.77375   3.82687   3.89960
 Alpha virt. eigenvalues --    3.94885   3.94885   4.00923   4.00923   4.44443
 Alpha virt. eigenvalues --    4.44443   4.66671   5.08299   5.08299   5.10760
 Alpha virt. eigenvalues --    5.10760   5.20341   5.26781   5.79724   6.30435
 Alpha virt. eigenvalues --    6.30435   6.35736   6.35736   6.44075   6.49636
 Alpha virt. eigenvalues --    6.49636   6.53274   6.53274   6.53368   6.53368
 Alpha virt. eigenvalues --    6.54056   6.54056   6.55130   6.55130   6.59037
 Alpha virt. eigenvalues --    6.59037   6.78410   6.78410   7.11862   7.11862
 Alpha virt. eigenvalues --    7.20846   8.04971   8.04971   8.05671   8.05671
 Alpha virt. eigenvalues --    8.06901   8.06901   8.08858   8.08858   8.11637
 Alpha virt. eigenvalues --    8.11637   8.14604   8.14604   8.18925   8.31946
 Alpha virt. eigenvalues --    8.31946   8.35191   8.35191   8.39311   8.39311
 Alpha virt. eigenvalues --    8.45786   8.45786   8.55892   8.55892   8.60680
 Alpha virt. eigenvalues --    8.63052   8.63052   8.63873   8.63873   8.74965
 Alpha virt. eigenvalues --    8.89450   8.89450   9.15366   9.15366   9.18741
 Alpha virt. eigenvalues --    9.18741   9.24616   9.25902   9.30396   9.30396
 Alpha virt. eigenvalues --    9.45155   9.45155   9.58943  10.16784  11.33133
 Alpha virt. eigenvalues --   12.55661  12.55661  12.57022  12.57022  12.75268
 Alpha virt. eigenvalues --   13.54353  17.48023  17.48023  17.48240  17.48240
 Alpha virt. eigenvalues --   17.48259  17.48259  17.48315  17.48315  17.48383
 Alpha virt. eigenvalues --   17.48409  17.48409  17.48418  17.48418  17.48420
 Alpha virt. eigenvalues --   17.48420  17.48559  17.48559  17.48559  17.48559
 Alpha virt. eigenvalues --   17.48701  17.48701  17.48701  17.48701  17.49241
 Alpha virt. eigenvalues --   17.49241  17.49925  18.66713  18.66713  18.69395
 Alpha virt. eigenvalues --   18.69395  18.71736  18.74490  18.74490  18.75656
 Alpha virt. eigenvalues --   18.75656  18.75694  18.75694  18.75948  18.75948
 Alpha virt. eigenvalues --   18.76284  18.76284  18.77571  18.77571  18.85041
 Alpha virt. eigenvalues --   18.85041  19.01233  19.01233  19.07686  19.86621
 Alpha virt. eigenvalues --   19.86621  19.88178  19.88178  19.88663  19.88663
 Alpha virt. eigenvalues --   19.88809  19.88809  19.89871  19.89871  19.91228
 Alpha virt. eigenvalues --   19.91228  19.92792  19.92792  19.93939  19.95504
 Alpha virt. eigenvalues --   19.95504  19.99006  19.99006  19.99855  19.99855
 Alpha virt. eigenvalues --   20.07296  20.07296  20.12823  20.12823  20.14309
 Alpha virt. eigenvalues --   20.14309  20.17809  20.38919  20.38919  20.48801
 Alpha virt. eigenvalues --   20.69315  26.37042  26.37042  26.39390  26.39390
 Alpha virt. eigenvalues --   26.47292  26.47292  26.51923  26.51923  26.70839
 Alpha virt. eigenvalues --   26.71771  33.43083  33.43083  33.43638  33.43638
 Alpha virt. eigenvalues --   33.63341  34.17803  39.11717  39.11717  39.11723
 Alpha virt. eigenvalues --   39.11723  39.11748  39.11748  39.11748  39.11748
 Alpha virt. eigenvalues --   39.11788  39.11796  39.11796  39.11796  39.11796
 Alpha virt. eigenvalues --   39.11799  39.11860  39.11860  39.11860  39.11860
 Alpha virt. eigenvalues --   39.11932  39.11932  39.11932  39.11932  39.12009
 Alpha virt. eigenvalues --   39.12009  39.12009  39.12009  39.12083  39.12083
 Alpha virt. eigenvalues --   39.12083  39.12083  50.22056  50.22056  50.22557
 Alpha virt. eigenvalues --   50.22557  50.22852  50.22852  50.23438  50.23438
 Alpha virt. eigenvalues --   50.25216  50.25216  50.25418  50.25418  50.30770
 Alpha virt. eigenvalues --   50.30770  50.35581  50.41540  50.41540  50.50317
 Alpha virt. eigenvalues --   50.79978  50.79978  50.82005  50.82005  50.85075
 Alpha virt. eigenvalues --   50.85075  50.89446  50.89446  50.92400  50.92400
 Alpha virt. eigenvalues --   50.93522  50.93522  50.95161  50.96038  51.06673
 Alpha virt. eigenvalues --   51.06673  51.07254  51.07254  51.09034  51.09034
 Alpha virt. eigenvalues --   51.09337  51.09337  51.09369  51.09369  51.09435
 Alpha virt. eigenvalues --   51.09435  51.09583  51.09583  51.10046  51.10046
 Alpha virt. eigenvalues --   51.13669  51.13669  51.17521  51.24445  51.24445
 Alpha virt. eigenvalues --   51.30046  51.32890  51.32890  51.32896  51.32896
 Alpha virt. eigenvalues --   51.32920  51.32920  51.32920  51.32920  51.32922
 Alpha virt. eigenvalues --   51.32922  51.32925  51.32925  51.32944  51.32944
 Alpha virt. eigenvalues --   51.32957  51.32957  51.32958  51.32958  51.32982
 Alpha virt. eigenvalues --   51.32982  51.32982  51.32982  51.33042  51.34204
 Alpha virt. eigenvalues --   51.34204  51.41304  75.67889 137.48245
          Condensed to atoms (all electrons):
              1          2
     1  Cu  28.654234   0.345766
     2  Cu   0.345766  28.654234
 Mulliken atomic charges:
              1
     1  Cu   0.000000
     2  Cu   0.000000
 Sum of Mulliken atomic charges =   0.00000
 Mulliken charges with hydrogens summed into heavy atoms:
              1
     1  Cu   0.000000
     2  Cu   0.000000
 Sum of Mulliken charges with hydrogens summed into heavy atoms =   0.00000
          Atomic-Atomic Spin Densities.
              1          2
     1  Cu   0.000000   0.000000
     2  Cu   0.000000   0.000000
 Mulliken atomic spin densities:
              1
     1  Cu   0.000000
     2  Cu   0.000000
 Sum of Mulliken atomic spin densities =   0.00000
 Electronic spatial extent (au):  <R**2>=            312.2553
 Charge=              0.0000 electrons
 Dipole moment (field-independent basis, Debye):
    X=              0.0000    Y=              0.0000    Z=              0.0000  Tot=              0.0000
 Quadrupole moment (field-independent basis, Debye-Ang):
   XX=            -28.5944   YY=            -28.5944   ZZ=            -19.6525
   XY=              0.0000   XZ=              0.0000   YZ=              0.0000
 Traceless Quadrupole moment (field-independent basis, Debye-Ang):
   XX=             -2.9806   YY=             -2.9806   ZZ=              5.9613
   XY=              0.0000   XZ=              0.0000   YZ=              0.0000
 Octapole moment (field-independent basis, Debye-Ang**2):
  XXX=              0.0000  YYY=              0.0000  ZZZ=              0.0000  XYY=              0.0000
  XXY=              0.0000  XXZ=              0.0000  XZZ=              0.0000  YZZ=              0.0000
  YYZ=              0.0000  XYZ=              0.0000
 Hexadecapole moment (field-independent basis, Debye-Ang**3):
 XXXX=            -54.5682 YYYY=            -54.5682 ZZZZ=           -190.9905 XXXY=              0.0000
 XXXZ=              0.0000 YYYX=              0.0000 YYYZ=              0.0000 ZZZX=              0.0000
 ZZZY=              0.0000 XXYY=            -18.1894 XXZZ=            -44.0385 YYZZ=            -44.0385
 XXYZ=              0.0000 YYXZ=              0.0000 ZZXY=              0.0000
 N-N= 2.004946760482D+02 E-N=-1.238897803190D+04  KE= 4.916947842284D+03
                          Isotropic Fermi Contact Couplings
        Atom                 a.u.       MegaHertz       Gauss      10(-4) cm-1
     1  Cu(63)             0.00000       0.00000       0.00000       0.00000
     2  Cu(63)             0.00000       0.00000       0.00000       0.00000
 --------------------------------------------------------
       Center         ----  Spin Dipole Couplings  ----
                      3XX-RR        3YY-RR        3ZZ-RR
 --------------------------------------------------------
     1   Atom        0.000000      0.000000      0.000000
     2   Atom        0.000000      0.000000      0.000000
 --------------------------------------------------------
                        XY            XZ            YZ
 --------------------------------------------------------
     1   Atom        0.000000      0.000000      0.000000
     2   Atom        0.000000      0.000000      0.000000
 --------------------------------------------------------


 ---------------------------------------------------------------------------------
              Anisotropic Spin Dipole Couplings in Principal Axis System
 ---------------------------------------------------------------------------------

       Atom             a.u.   MegaHertz   Gauss  10(-4) cm-1        Axes

              Baa     0.0000     0.000     0.000     0.000  1.0000  0.0000  0.0000
     1 Cu(63) Bbb     0.0000     0.000     0.000     0.000  0.0000  1.0000  0.0000
              Bcc     0.0000     0.000     0.000     0.000  0.0000  0.0000  1.0000
 
              Baa     0.0000     0.000     0.000     0.000  1.0000  0.0000  0.0000
     2 Cu(63) Bbb     0.0000     0.000     0.000     0.000  0.0000  1.0000  0.0000
              Bcc     0.0000     0.000     0.000     0.000  0.0000  0.0000  1.0000
 

 ---------------------------------------------------------------------------------


 Test job not archived.
 1\1\GINC-C32\SP\ROMP2-RW\Gen\Cu2\GPETERSSON\02-Aug-2012\0\\# ROMP2(RW)
  Gen GFinput Int=NoBasisTransform Int(Grid=Ultrafine) IOp(3/32=2,5/6=1
 0,8/11=1,9/33=1) Maxdisk=128GB CBSextrapolate(Nmin=20,MinPop)\\Cu2\\0,
 1\Cu\Cu,1,2.2197\\Version=EM64L-G09RevA.02\State=1-SGG\HF=-3277.941348
 \MP2=-3277.9617273\E2(CBS)=-0.021215\CBS-Int=-0.0204621\OIii=0.0991892
 \RMSD=7.541e-11\PG=D*H [C*(Cu1.Cu1)]\\@


 QED = W**5 (WHICH WAS WHAT WE WANTED)
 Job cpu time:  2 days  1 hours 40 minutes 33.5 seconds.
 File lengths (MBytes):  RWF=   1517 Int=      0 D2E=      0 Chk=     19 Scr=      1
 Normal termination of Gaussian 09 at Thu Aug  2 01:29:39 2012.
