 Entering Gaussian System, Link 0=g09
 AtFile(1): 7ZaPa-NR.gbs
 Initial command:
 /share/apps/gaussian/g09root/g09/l1.exe /localscratch/74314/Gau-10319.inp -scrdir=/localscratch/74314/
 Entering Link 1 = /share/apps/gaussian/g09root/g09/l1.exe PID=     10320.
  
 Copyright (c) 1988,1990,1992,1993,1995,1998,2003,2009, Gaussian, Inc.
                  All Rights Reserved.
  
 This is part of the Gaussian(R) 09 program.  It is based on
 the Gaussian(R) 03 system (copyright 2003, Gaussian, Inc.),
 the Gaussian(R) 98 system (copyright 1998, Gaussian, Inc.),
 the Gaussian(R) 94 system (copyright 1995, Gaussian, Inc.),
 the Gaussian 92(TM) system (copyright 1992, Gaussian, Inc.),
 the Gaussian 90(TM) system (copyright 1990, Gaussian, Inc.),
 the Gaussian 88(TM) system (copyright 1988, Gaussian, Inc.),
 the Gaussian 86(TM) system (copyright 1986, Carnegie Mellon
 University), and the Gaussian 82(TM) system (copyright 1983,
 Carnegie Mellon University). Gaussian is a federally registered
 trademark of Gaussian, Inc.
  
 This software contains proprietary and confidential information,
 including trade secrets, belonging to Gaussian, Inc.
  
 This software is provided under written license and may be
 used, copied, transmitted, or stored only in accord with that
 written license.
  
 The following legend is applicable only to US Government
 contracts under FAR:
  
                    RESTRICTED RIGHTS LEGEND
  
 Use, reproduction and disclosure by the US Government is
 subject to restrictions as set forth in subparagraphs (a)
 and (c) of the Commercial Computer Software - Restricted
 Rights clause in FAR 52.227-19.
  
 Gaussian, Inc.
 340 Quinnipiac St., Bldg. 40, Wallingford CT 06492
  
  
 ---------------------------------------------------------------
 Warning -- This program may not be used in any manner that
 competes with the business of Gaussian, Inc. or will provide
 assistance to any competitor of Gaussian, Inc.  The licensee
 of this program is prohibited from giving any competitor of
 Gaussian, Inc. access to this program.  By using this program,
 the user acknowledges that Gaussian, Inc. is engaged in the
 business of creating and licensing software in the field of
 computational chemistry and represents and warrants to the
 licensee that it is not a competitor of Gaussian, Inc. and that
 it will not use this program in any manner prohibited above.
 ---------------------------------------------------------------
  

 Cite this work as:
 Gaussian 09, Revision A.02,
 M. J. Frisch, G. W. Trucks, H. B. Schlegel, G. E. Scuseria, 
 M. A. Robb, J. R. Cheeseman, G. Scalmani, V. Barone, B. Mennucci, 
 G. A. Petersson, H. Nakatsuji, M. Caricato, X. Li, H. P. Hratchian, 
 A. F. Izmaylov, J. Bloino, G. Zheng, J. L. Sonnenberg, M. Hada, 
 M. Ehara, K. Toyota, R. Fukuda, J. Hasegawa, M. Ishida, T. Nakajima, 
 Y. Honda, O. Kitao, H. Nakai, T. Vreven, J. A. Montgomery, Jr., 
 J. E. Peralta, F. Ogliaro, M. Bearpark, J. J. Heyd, E. Brothers, 
 K. N. Kudin, V. N. Staroverov, R. Kobayashi, J. Normand, 
 K. Raghavachari, A. Rendell, J. C. Burant, S. S. Iyengar, J. Tomasi, 
 M. Cossi, N. Rega, J. M. Millam, M. Klene, J. E. Knox, J. B. Cross, 
 V. Bakken, C. Adamo, J. Jaramillo, R. Gomperts, R. E. Stratmann, 
 O. Yazyev, A. J. Austin, R. Cammi, C. Pomelli, J. W. Ochterski, 
 R. L. Martin, K. Morokuma, V. G. Zakrzewski, G. A. Voth, 
 P. Salvador, J. J. Dannenberg, S. Dapprich, A. D. Daniels, 
 O. Farkas, J. B. Foresman, J. V. Ortiz, J. Cioslowski, 
 and D. J. Fox, Gaussian, Inc., Wallingford CT, 2009.
 
 ******************************************
 Gaussian 09:  EM64L-G09RevA.02 11-Jun-2009
                20-Dec-2013 
 ******************************************
 % Mem=128GB
 % Nproc=16
 Will use up to   16 processors via shared memory.
 % Chk=FeO-_4Dlt.chk
 ----------------------------------------------------------------------
 # ROMP2 Gen GFinput Int=NoBasisTransform Int(Grid=Ultrafine) IOp(3/32=
 2,5/6=10,8/11=1,9/33=1) Maxdisk=128GB CBSextrapolate(Nmin=25,MinPop) G
 uess=Read
 ----------------------------------------------------------------------
 1/38=1/1;
 2/12=2,17=6,18=5,40=1/2;
 3/5=7,11=2,16=1,24=10,25=1,30=1,32=2,60=-1,75=-5,116=101/1,2,3;
 4/5=1/1;
 5/5=2,6=10,38=6/2;
 8/5=-1,10=1,11=1/1;
 9/16=-3,33=1,75=2,81=25,83=4/6,4;
 6/7=2,8=2,9=2,10=2/1;
 99/5=1,9=1/99;
 -----------
 FeO- 4Delta
 -----------
 Symbolic Z-matrix:
 Charge = -1 Multiplicity = 4
 Fe
 O                    1     1.6514 
 
                          Input orientation:                          
 ---------------------------------------------------------------------
 Center     Atomic      Atomic             Coordinates (Angstroms)
 Number     Number       Type             X           Y           Z
 ---------------------------------------------------------------------
      1         26           0        0.000000    0.000000    0.000000
      2          8           0        0.000000    0.000000    1.651400
 ---------------------------------------------------------------------
 Stoichiometry    FeO(1-,4)
 Framework group  C*V[C*(OFe)]
 Deg. of freedom     1
 Full point group                 C*V     NOp   4
 Largest Abelian subgroup         C2V     NOp   4
 Largest concise Abelian subgroup C1      NOp   1
                         Standard orientation:                         
 ---------------------------------------------------------------------
 Center     Atomic      Atomic             Coordinates (Angstroms)
 Number     Number       Type             X           Y           Z
 ---------------------------------------------------------------------
      1         26           0        0.000000    0.000000    0.388565
      2          8           0        0.000000    0.000000   -1.262835
 ---------------------------------------------------------------------
 Rotational constants (GHZ):      0.0000000     14.8989861     14.8989861
 General basis read from cards:  (5D, 7F)
 AO basis set in the form of general basis input (Overlap normalization):
      1 0
 S  18 1.00       0.000000000000
      0.3679908010D+08  0.5246525779D-06
      0.7007499740D+07  0.3205323710D-05
      0.1615267170D+07  0.1817794055D-04
      0.4380081930D+06  0.8251990165D-04
      0.1362076970D+06  0.3193139663D-03
      0.4748660160D+05  0.1077167614D-02
      0.1819376500D+05  0.3251297832D-02
      0.7527862930D+04  0.8938974005D-02
      0.3313123440D+04  0.2264639738D-01
      0.1530957300D+04  0.5285557615D-01
      0.7345721380D+03  0.1117990410D+00
      0.3625782400D+03  0.2052670512D+00
      0.1826831850D+03  0.2991925419D+00
      0.9336030800D+02  0.2886284298D+00
      0.4814529200D+02  0.1355435806D+00
      0.2495042300D+02  0.1904267785D-01
      0.1295098900D+02  0.1380530182D-02
      0.6715542000D+01  0.7072308891D-04
 S  15 1.00       0.000000000000
      0.4748660160D+05 -0.4291060608D-06
      0.1819376500D+05 -0.3486399443D-05
      0.7527862930D+04 -0.2506847707D-04
      0.3313123440D+04 -0.1463900194D-03
      0.1530957300D+04 -0.7518443997D-03
      0.7345721380D+03 -0.3359417820D-02
      0.3625782400D+03 -0.1289313634D-01
      0.1826831850D+03 -0.4009165057D-01
      0.9336030800D+02 -0.8290907760D-01
      0.4814529200D+02 -0.5355204226D-01
      0.2495042300D+02  0.1896147085D+00
      0.1295098900D+02  0.5043963595D+00
      0.6715542000D+01  0.3710755734D+00
      0.3471108000D+01  0.6918046104D-01
      0.1785023000D+01  0.4542685995D-02
 P  17 1.00       0.000000000000
      0.9477071260D+05  0.2021473248D-05
      0.2466162970D+05  0.1659709316D-04
      0.7845366870D+04  0.1061986816D-03
      0.2918116380D+04  0.5150925035D-03
      0.1223298510D+04  0.2041321452D-02
      0.5609995510D+03  0.6838499315D-02
      0.2748515630D+03  0.1988977219D-01
      0.1412274430D+03  0.5071716126D-01
      0.7504252200D+02  0.1118998333D+00
      0.4080154700D+02  0.2031273462D+00
      0.2252163400D+02  0.2909778346D+00
      0.1254407400D+02  0.2929605951D+00
      0.7014084000D+01  0.1658875836D+00
      0.3917603000D+01  0.4235005371D-01
      0.2173122000D+01  0.4143286470D-02
      0.1188398000D+01  0.2981068382D-03
      0.6344300000D+00 -0.4034404942D-04
 S  11 1.00       0.000000000000
      0.1826831850D+03  0.2328241386D-03
      0.9336030800D+02  0.1695974138D-02
      0.4814529200D+02  0.2330669571D-02
      0.2495042300D+02 -0.1023786693D-01
      0.1295098900D+02 -0.1152141442D+00
      0.6715542000D+01 -0.1975352366D+00
      0.3471108000D+01  0.1283113023D+00
      0.1785023000D+01  0.5299851597D+00
      0.9116570000D+00  0.4508458582D+00
      0.4615500000D+00  0.1029628904D+00
      0.2311410000D+00  0.3008913567D-02
 P  13 1.00       0.000000000000
      0.2748515630D+03  0.1067224468D-03
      0.1412274430D+03  0.5048759358D-03
      0.7504252200D+02  0.2318980838D-02
      0.4080154700D+02  0.6707700036D-02
      0.2252163400D+02  0.1481136020D-01
      0.1254407400D+02  0.1815342303D-01
      0.7014084000D+01 -0.4381948697D-01
      0.3917603000D+01 -0.2011090130D+00
      0.2173122000D+01 -0.3395543592D+00
      0.1188398000D+01 -0.3360986563D+00
      0.6344300000D+00 -0.1795527607D+00
      0.3263170000D+00 -0.3468202451D-01
      0.1589300000D+00 -0.2052673364D-02
 D  16 1.00       0.000000000000
      0.1977944560D+04  0.7016488493D-05
      0.6419371770D+03  0.6551060463D-04
      0.2524793120D+03  0.4140247632D-03
      0.1138980230D+03  0.1884577761D-02
      0.5643097700D+02  0.6717804883D-02
      0.2970386600D+02  0.1892134411D-01
      0.1621034000D+02  0.4459232402D-01
      0.9016312000D+01  0.9323366244D-01
      0.5054277000D+01  0.1618005551D+00
      0.2836335000D+01  0.2220922831D+00
      0.1587508000D+01  0.2488844601D+00
      0.8843430000D+00  0.2342972611D+00
      0.4893610000D+00  0.1810381421D+00
      0.2681320000D+00  0.1032241930D+00
      0.1446160000D+00  0.3212805131D-01
      0.7600900000D-01  0.2745407961D-02
 D   1 1.00       0.000000000000
      0.6183152300D-01  0.1000000000D+01
 D   1 1.00       0.000000000000
      0.1918900000D-01  0.1000000000D+01
 S  11 1.00       0.000000000000
      0.4814529200D+02  0.4880450140D-05
      0.2495042300D+02 -0.2199069784D-04
      0.1295098900D+02  0.1353730264D-02
      0.6715542000D+01  0.4275240213D-02
      0.3471108000D+01 -0.6781871279D-02
      0.1785023000D+01 -0.3786946225D-01
      0.9116570000D+00 -0.1222900237D+00
      0.4615500000D+00 -0.1355067164D+00
      0.2311410000D+00  0.2217206124D+00
      0.1142030000D+00  0.6582469233D+00
      0.5549100000D-01  0.3115752723D+00
 S   1 1.00       0.000000000000
      0.4735071724D-01  0.1000000000D+01
 S   1 1.00       0.000000000000
      0.1958600000D-01  0.1000000000D+01
 S   1 1.00       0.000000000000
      0.6159000000D-02  0.1000000000D+01
 P  11 1.00       0.000000000000
      0.4080154700D+02  0.1840515098D-02
      0.2252163400D+02  0.1939795962D-02
      0.1254407400D+02  0.4811884259D-02
      0.7014084000D+01 -0.1274268689D-01
      0.3917603000D+01 -0.5673872032D-01
      0.2173122000D+01 -0.9367932008D-01
      0.1188398000D+01 -0.1116552113D+00
      0.6344300000D+00 -0.2912213139D-01
      0.3263170000D+00  0.1754648102D+00
      0.1589300000D+00  0.5707932468D+00
      0.6903212240D-01  0.3779162688D+00
 P   1 1.00       0.000000000000
      0.6500654514D-01  0.1000000000D+01
 P   1 1.00       0.000000000000
      0.1654400000D-01  0.1000000000D+01
 S   1 1.00       0.000000000000
      0.7277524000D+01  0.1000000000D+01
 S   1 1.00       0.000000000000
      0.3653063000D+01  0.1000000000D+01
 S   1 1.00       0.000000000000
      0.1833710000D+01  0.1000000000D+01
 S   1 1.00       0.000000000000
      0.9204590000D+00  0.1000000000D+01
 S   1 1.00       0.000000000000
      0.4620380000D+00  0.1000000000D+01
 S   1 1.00       0.000000000000
      0.2319270000D+00  0.1000000000D+01
 P   1 1.00       0.000000000000
      0.2853063000D+01  0.1000000000D+01
 P   1 1.00       0.000000000000
      0.1721786000D+01  0.1000000000D+01
 P   1 1.00       0.000000000000
      0.1039075000D+01  0.1000000000D+01
 P   1 1.00       0.000000000000
      0.6270680000D+00  0.1000000000D+01
 P   1 1.00       0.000000000000
      0.3784270000D+00  0.1000000000D+01
 P   1 1.00       0.000000000000
      0.2283760000D+00  0.1000000000D+01
 D   1 1.00       0.000000000000
      0.6966258000D+01  0.1000000000D+01
 D   1 1.00       0.000000000000
      0.3216105000D+01  0.1000000000D+01
 D   1 1.00       0.000000000000
      0.1484776000D+01  0.1000000000D+01
 D   1 1.00       0.000000000000
      0.6854750000D+00  0.1000000000D+01
 D   1 1.00       0.000000000000
      0.3164620000D+00  0.1000000000D+01
 D   1 1.00       0.000000000000
      0.1461010000D+00  0.1000000000D+01
 F   1 1.00       0.000000000000
      0.1509559400D+02  0.1000000000D+01
 F   1 1.00       0.000000000000
      0.6947198000D+01  0.1000000000D+01
 F   1 1.00       0.000000000000
      0.3197195000D+01  0.1000000000D+01
 F   1 1.00       0.000000000000
      0.1471393000D+01  0.1000000000D+01
 F   1 1.00       0.000000000000
      0.6771550000D+00  0.1000000000D+01
 F   1 1.00       0.000000000000
      0.3116360000D+00  0.1000000000D+01
 F   1 1.00       0.000000000000
      0.1434190000D+00  0.1000000000D+01
 G   1 1.00       0.000000000000
      0.1093412100D+02  0.1000000000D+01
 G   1 1.00       0.000000000000
      0.5019704000D+01  0.1000000000D+01
 G   1 1.00       0.000000000000
      0.2304477000D+01  0.1000000000D+01
 G   1 1.00       0.000000000000
      0.1057954000D+01  0.1000000000D+01
 G   1 1.00       0.000000000000
      0.4856920000D+00  0.1000000000D+01
 G   1 1.00       0.000000000000
      0.2229740000D+00  0.1000000000D+01
 H   1 1.00       0.000000000000
      0.9556846000D+01  0.1000000000D+01
 H   1 1.00       0.000000000000
      0.4177104000D+01  0.1000000000D+01
 H   1 1.00       0.000000000000
      0.1825728000D+01  0.1000000000D+01
 H   1 1.00       0.000000000000
      0.7979890000D+00  0.1000000000D+01
 H   1 1.00       0.000000000000
      0.3487840000D+00  0.1000000000D+01
 I   1 1.00       0.000000000000
      0.7536263000D+01  0.1000000000D+01
 I   1 1.00       0.000000000000
      0.3135657000D+01  0.1000000000D+01
 I   1 1.00       0.000000000000
      0.1304671000D+01  0.1000000000D+01
 I   1 1.00       0.000000000000
      0.5428420000D+00  0.1000000000D+01
 J   1 1.00       0.000000000000
      0.5682391000D+01  0.1000000000D+01
 J   1 1.00       0.000000000000
      0.2253825000D+01  0.1000000000D+01
 J   1 1.00       0.000000000000
      0.8939410000D+00  0.1000000000D+01
 K   1 1.00       0.000000000000
      0.4351707775D+01  0.1000000000D+01
 ****
      2 0
 S  16 1.00       0.000000000000
      0.1411246410D+07  0.1627429822D-05
      0.2499102240D+06  0.1092621996D-04
      0.5603410580D+05  0.6238741867D-04
      0.1521153640D+05  0.2783303491D-03
      0.4812287750D+04  0.1040541872D-02
      0.1717755460D+04  0.3380392793D-02
      0.6733958240D+03  0.9828484765D-02
      0.2835101840D+03  0.2605310129D-01
      0.1258620070D+03  0.6280818057D-01
      0.5804472200D+02  0.1348202075D+00
      0.2747198500D+02  0.2435563460D+00
      0.1321062900D+02  0.3323287378D+00
      0.6399806000D+01  0.2607930483D+00
      0.3099614000D+01  0.7430834326D-01
      0.1489856000D+01  0.4189538074D-02
      0.7052010000D+00  0.8706455725D-03
 S  11 1.00       0.000000000000
      0.2835101840D+03 -0.1122588094D-03
      0.1258620070D+03 -0.5559335617D-03
      0.5804472200D+02 -0.2851687904D-02
      0.2747198500D+02 -0.1133494995D-01
      0.1321062900D+02 -0.3657977704D-01
      0.6399806000D+01 -0.7288994197D-01
      0.3099614000D+01 -0.1062032356D-01
      0.1489856000D+01  0.2196705572D+00
      0.7052010000D+00  0.4294832072D+00
      0.3258480000D+00  0.3775832849D+00
      0.1454600000D+00  0.9640261255D-01
 S   1 1.00       0.000000000000
      0.5814297870D-01  0.1000000000D+01
 P  13 1.00       0.000000000000
      0.2085279200D+04  0.1447911740D-04
      0.5101470830D+03  0.1283233588D-03
      0.1616811510D+03  0.7792790007D-03
      0.6114945200D+02  0.3400506049D-02
      0.2597660200D+02  0.1157685214D-01
      0.1187542600D+02  0.3269740339D-01
      0.5677133000D+01  0.8011404242D-01
      0.2786475000D+01  0.1605265057D+00
      0.1387844000D+01  0.2460495026D+00
      0.6952810000D+00  0.2898982926D+00
      0.3470020000D+00  0.2606799382D+00
      0.1700990000D+00  0.1479363112D+00
      0.8008000000D-01  0.2980261453D-01
 P   1 1.00       0.000000000000
      0.4261436033D-01  0.1000000000D+01
 S   1 1.00       0.000000000000
      0.4249866000D+01  0.1000000000D+01
 S   1 1.00       0.000000000000
      0.2167470000D+01  0.1000000000D+01
 S   1 1.00       0.000000000000
      0.1105429000D+01  0.1000000000D+01
 S   1 1.00       0.000000000000
      0.5637790000D+00  0.1000000000D+01
 S   1 1.00       0.000000000000
      0.2875320000D+00  0.1000000000D+01
 S   1 1.00       0.000000000000
      0.1466440000D+00  0.1000000000D+01
 P   1 1.00       0.000000000000
      0.5659724000D+01  0.1000000000D+01
 P   1 1.00       0.000000000000
      0.2575878000D+01  0.1000000000D+01
 P   1 1.00       0.000000000000
      0.1172344000D+01  0.1000000000D+01
 P   1 1.00       0.000000000000
      0.5335620000D+00  0.1000000000D+01
 P   1 1.00       0.000000000000
      0.2428370000D+00  0.1000000000D+01
 P   1 1.00       0.000000000000
      0.1105210000D+00  0.1000000000D+01
 D   1 1.00       0.000000000000
      0.9464211000D+01  0.1000000000D+01
 D   1 1.00       0.000000000000
      0.4752286000D+01  0.1000000000D+01
 D   1 1.00       0.000000000000
      0.2386276000D+01  0.1000000000D+01
 D   1 1.00       0.000000000000
      0.1198226000D+01  0.1000000000D+01
 D   1 1.00       0.000000000000
      0.6016680000D+00  0.1000000000D+01
 D   1 1.00       0.000000000000
      0.3021170000D+00  0.1000000000D+01
 D   1 1.00       0.000000000000
      0.1517020000D+00  0.1000000000D+01
 F   1 1.00       0.000000000000
      0.7001836000D+01  0.1000000000D+01
 F   1 1.00       0.000000000000
      0.3552509000D+01  0.1000000000D+01
 F   1 1.00       0.000000000000
      0.1802430000D+01  0.1000000000D+01
 F   1 1.00       0.000000000000
      0.9144960000D+00  0.1000000000D+01
 F   1 1.00       0.000000000000
      0.4639860000D+00  0.1000000000D+01
 F   1 1.00       0.000000000000
      0.2354110000D+00  0.1000000000D+01
 G   1 1.00       0.000000000000
      0.6472481000D+01  0.1000000000D+01
 G   1 1.00       0.000000000000
      0.3119071000D+01  0.1000000000D+01
 G   1 1.00       0.000000000000
      0.1503072000D+01  0.1000000000D+01
 G   1 1.00       0.000000000000
      0.7243260000D+00  0.1000000000D+01
 G   1 1.00       0.000000000000
      0.3490500000D+00  0.1000000000D+01
 H   1 1.00       0.000000000000
      0.5355083000D+01  0.1000000000D+01
 H   1 1.00       0.000000000000
      0.2414696000D+01  0.1000000000D+01
 H   1 1.00       0.000000000000
      0.1088827000D+01  0.1000000000D+01
 H   1 1.00       0.000000000000
      0.4909703000D+00  0.1000000000D+01
 I   1 1.00       0.000000000000
      0.4322113000D+01  0.1000000000D+01
 I   1 1.00       0.000000000000
      0.1716263000D+01  0.1000000000D+01
 I   1 1.00       0.000000000000
      0.6815089000D+00  0.1000000000D+01
 J   1 1.00       0.000000000000
      0.3060973723D+01  0.1000000000D+01
 ****

 There are   208 symmetry adapted basis functions of A1  symmetry.
 There are   106 symmetry adapted basis functions of A2  symmetry.
 There are   151 symmetry adapted basis functions of B1  symmetry.
 There are   151 symmetry adapted basis functions of B2  symmetry.
 Integral buffers will be    131072 words long.
 Raffenetti 2 integral format.
 Two-electron integral symmetry is turned on.
   616 basis functions,  1360 primitive gaussians,  1044 cartesian basis functions
    19 alpha electrons       16 beta electrons
       nuclear repulsion energy        66.6518465464 Hartrees.
 NAtoms=    2 NActive=    2 NUniq=    2 SFac= 7.50D-01 NAtFMM=   80 NAOKFM=F Big=F
 One-electron integrals computed using PRISM.
 NBasis=   616 RedAO= F  NBF=   208   106   151   151
 NBsUse=   616 1.00D-04 NBFU=   208   106   151   151
 Initial guess read from the checkpoint file:  FeO-_4Dlt.chk
 B after Tr=     0.000000    0.000000    0.000000
         Rot=    1.000000    0.000000    0.000000    0.000000 Ang=   0.00 deg.
 Initial guess orbital symmetries:
       Occupied  (SG) (SG) (SG) (PI) (PI) (SG) (SG) (SG) (PI) (PI)
                 (SG) (DLTA) (SG) (PI) (PI) (SG) (PI) (PI) (DLTA)
       Virtual   (SG) (PI) (PI) (SG) (SG) (PI) (PI) (DLTA) (DLTA)
                 (SG) (SG) (PI) (PI) (SG) (PI) (PI) (SG) (DLTA)
                 (DLTA) (PI) (PI) (SG) (SG) (PI) (PI) (SG) (SG)
                 (DLTA) (DLTA) (PI) (PI) (PHI) (PHI) (SG) (PI)
                 (PI) (SG) (?A) (?A) (PI) (PI) (?A) (?A) (SG) (PI)
                 (PI) (SG) (PI) (PI) (SG) (PHI) (PHI) (SG) (?B)
                 (?B) (SG) (DLTA) (DLTA) (DLTA) (DLTA) (PI) (PI)
                 (PHI) (PHI) (SG) (PI) (PI) (DLTA) (DLTA) (SG)
                 (PI) (PI) (PHI) (PHI) (SG) (DLTA) (PI) (PI) (DLTA)
                 (SG) (PI) (PI) (DLTA) (DLTA) (PI) (PI) (SG) (?B)
                 (?B) (SG) (PHI) (PHI) (?C) (?C) (PI) (PI) (?B)
                 (?B) (SG) (SG) (DLTA) (DLTA) (PI) (PI) (PHI) (PHI)
                 (DLTA) (DLTA) (SG) (PI) (PI) (PHI) (PHI) (DLTA)
                 (DLTA) (SG) (PI) (PI) (?B) (?B) (PHI) (PHI) (DLTA)
                 (DLTA) (SG) (SG) (DLTA) (DLTA) (PI) (PI) (PHI)
                 (PHI) (?C) (?C) (SG) (?D) (PI) (PI) (?D) (?D)
                 (PI) (PI) (DLTA) (DLTA) (SG) (?E) (?E) (?E) (?E)
                 (DLTA) (DLTA) (SG) (SG) (SG) (?C) (?C) (PI) (PI)
                 (DLTA) (DLTA) (PI) (PI) (?B) (?B) (SG) (DLTA)
                 (DLTA) (SG) (PI) (PI) (?E) (?E) (SG) (?E) (?E)
                 (?B) (?B) (SG) (?E) (?E) (?E) (?E) (PHI) (PHI)
                 (DLTA) (SG) (DLTA) (DLTA) (DLTA) (?C) (?C) (?F)
                 (?F) (?F) (PHI) (PHI) (PI) (PI) (DLTA) (DLTA)
                 (SG) (PI) (PI) (DLTA) (DLTA) (?B) (?B) (SG) (PHI)
                 (PHI) (?E) (?E) (?E) (?E) (DLTA) (DLTA) (SG) (PI)
                 (PI) (DLTA) (DLTA) (SG) (SG) (PI) (PI) (SG) (?C)
                 (?C) (?B) (?B) (PHI) (PHI) (DLTA) (DLTA) (PI)
                 (PI) (SG) (PI) (PI) (DLTA) (DLTA) (PI) (PI) (SG)
                 (PI) (PI) (SG) (PHI) (PHI) (SG) (DLTA) (DLTA)
                 (?B) (?B) (?G) (?G) (PHI) (PHI) (?H) (?G) (?G)
                 (SG) (SG) (?H) (?H) (DLTA) (DLTA) (PHI) (PHI)
                 (DLTA) (DLTA) (PI) (PI) (SG) (PI) (PI) (SG) (?I)
                 (?I) (?C) (?C) (?E) (?E) (?A) (?A) (?I) (?E) (?E)
                 (?A) (?A) (PI) (PI) (?J) (?J) (?J) (PHI) (PHI)
                 (DLTA) (DLTA) (SG) (?E) (?E) (?E) (?E) (DLTA)
                 (DLTA) (SG) (PI) (PI) (?C) (?C) (?B) (?B) (SG)
                 (SG) (PHI) (PHI) (DLTA) (DLTA) (SG) (PI) (PI)
                 (SG) (?C) (?C) (?B) (?B) (PHI) (PHI) (DLTA) (DLTA)
                 (PI) (PI) (SG) (SG) (PI) (PI) (SG) (PHI) (PHI)
                 (DLTA) (DLTA) (PI) (PI) (SG) (?K) (?K) (?L) (?L)
                 (?K) (?K) (?L) (?L) (?L) (?L) (?K) (?K) (?L) (?K)
                 (?K) (?B) (?B) (PHI) (PHI) (?A) (?A) (?A) (?A)
                 (PI) (PI) (SG) (PI) (PI) (SG) (PI) (PI) (SG) (?L)
                 (?L) (?L) (?L) (?L) (?L) (?L) (?L) (?L) (?L) (?L)
                 (?L) (?L) (DLTA) (DLTA) (PI) (PI) (SG) (?L) (?L)
                 (?L) (?L) (?L) (?L) (DLTA) (DLTA) (?L) (?L) (?L)
                 (?B) (?B) (?E) (?E) (DLTA) (DLTA) (?E) (?E) (SG)
                 (PHI) (PHI) (DLTA) (DLTA) (PI) (PI) (SG) (SG)
                 (SG) (SG) (PI) (PI) (SG) (SG) (PI) (PI) (DLTA)
                 (DLTA) (SG) (SG) (PI) (PI) (SG) (SG) (SG) (SG)
                 (PI) (PI) (SG) (PI) (PI) (PI) (PI) (PI) (PI) (DLTA)
                 (DLTA) (SG) (PI) (PI) (DLTA) (DLTA) (DLTA) (DLTA)
                 (PI) (PI) (DLTA) (DLTA) (PHI) (PHI) (SG) (PHI)
                 (PHI) (SG) (PI) (PI) (DLTA) (DLTA) (PHI) (PHI)
                 (?B) (?B) (DLTA) (DLTA) (PHI) (PHI) (?B) (?B)
                 (DLTA) (DLTA) (SG) (PI) (PI) (DLTA) (DLTA) (PHI)
                 (PHI) (?B) (?B) (?C) (?C) (SG) (PI) (PI) (PHI)
                 (PHI) (SG) (PI) (PI) (DLTA) (DLTA) (PHI) (PHI)
                 (?B) (?B) (?C) (?C) (SG) (SG) (?C) (?C) (SG) (PI)
                 (PI) (DLTA) (DLTA) (PHI) (PHI) (?B) (?B) (?C)
                 (?C) (SG) (SG) (?L) (?L) (PI) (PI) (DLTA) (DLTA)
                 (PHI) (PHI) (?B) (?B) (?C) (?C) (SG) (SG) (?L)
                 (?L) (SG) (PI) (PI) (DLTA) (DLTA) (PHI) (PHI)
                 (?B) (?B) (?C) (?C) (SG) (SG) (?L) (?L) (?L) (?L)
                 (PI) (PI) (DLTA) (DLTA) (PHI) (PHI) (SG) (PHI)
                 (PHI) (?B) (?B) (?B) (?B) (?C) (?C) (DLTA) (DLTA)
                 (PHI) (PHI) (?B) (?B) (?C) (?C) (SG) (SG) (SG)
                 (SG) (?B) (?B) (?C) (?C) (SG) (SG) (?L) (?L)
 Requested convergence on RMS density matrix=1.00D-10 within 128 cycles.
 Requested convergence on MAX density matrix=1.00D-08.
 Requested convergence on             energy=1.00D-08.
 No special actions if energy rises.
 Restarting incremental Fock formation.
 SCF Done:  E(ROHF) =  -1337.21773806     A.U. after   23 cycles
             Convg  =    0.4385D-10             -V/T =  2.0001
 <Sx>= 0.0000 <Sy>= 0.0000 <Sz>= 1.5000 <S**2>= 3.7500 S= 1.5000
 <L.S>= 0.000000000000E+00
 Annihilation of the first spin contaminant:
 S**2 before annihilation     3.7500,   after     3.7500
 DiagDN has N=   616 LTot=  1880 but NE2=     3 cannot use DSYEVD.
 GenMOA:  NOpAll=  4 NOp2=4 NOpUse=  4 JSym2X=1
 <Sx>= 0.0000 <Sy>= 0.0000 <Sz>= 1.5000 <S**2>= 3.7500 S= 1.5000
 ExpMin= 6.16D-03 ExpMax= 3.68D+07 ExpMxC= 3.31D+03 IAcc=3 IRadAn=         5 AccDes= 0.00D+00
 HarFok:  IExCor=  205 AccDes= 0.00D+00 IRadAn=         5 IDoV=-2
 ScaDFX=  1.000000  1.000000  1.000000  1.000000
 Range of M.O.s used for correlation:    11   616
 NBasis=   616 NAE=    19 NBE=    16 NFC=    10 NFV=     0
 NROrb=    606 NOA=     9 NOB=     6 NVA=   597 NVB=   600

 **** Warning!!: The largest alpha MO coefficient is  0.27656405D+03


 **** Warning!!: The largest beta MO coefficient is  0.27656368D+03

 Singles contribution to E2=   -0.3873538061D-02
 Disk-based method using OVN memory for  9 occupieds at a time.
 Permanent disk used for amplitudes and <ij||ab> integrals=    56885832 words.
 Estimated scratch disk usage=  9022746568 words.
 IUseRI=2 ITolRI= 6 IR12RI=0
 Actual    scratch disk usage=  8977627431 words.
 JobTyp=2 Pass  1:  I=   1 to   9 NPSUse= 16 ParTrn=T ParDer=T DoDerP=F.
 (rs|ai) integrals will be sorted in core.
 T,EIJ(AA): I=   1 J=   2      0.1302355E-03     -0.7235334E-03
 T,EIJ(AA): I=   1 J=   3      0.1302355E-03     -0.7235334E-03
 T,EIJ(AA): I=   1 J=   4      0.6203325E-04     -0.3534224E-03
 T,EIJ(AA): I=   1 J=   5      0.6766854E-04     -0.3684221E-03
 T,EIJ(AA): I=   1 J=   6      0.8770278E-03     -0.3452122E-02
 T,EIJ(AA): I=   1 J=   7      0.7470873E-03     -0.3326984E-02
 T,EIJ(AA): I=   1 J=   8      0.7470873E-03     -0.3326984E-02
 T,EIJ(AA): I=   1 J=   9      0.1564418E-03     -0.5227013E-03
 T,EIJ(AA): I=   2 J=   3      0.9270032E-03     -0.6548684E-02
 T,EIJ(AA): I=   2 J=   4      0.1023382E-02     -0.7078728E-02
 T,EIJ(AA): I=   2 J=   5      0.1089969E-02     -0.7169248E-02
 T,EIJ(AA): I=   2 J=   6      0.1478033E-02     -0.5766712E-02
 T,EIJ(AA): I=   2 J=   7      0.1080246E-03     -0.4281277E-03
 T,EIJ(AA): I=   2 J=   8      0.2499823E-03     -0.1149552E-02
 T,EIJ(AA): I=   2 J=   9      0.1068076E-02     -0.3442938E-02
 T,EIJ(AA): I=   3 J=   4      0.1023382E-02     -0.7078728E-02
 T,EIJ(AA): I=   3 J=   5      0.1089969E-02     -0.7169248E-02
 T,EIJ(AA): I=   3 J=   6      0.1478033E-02     -0.5766712E-02
 T,EIJ(AA): I=   3 J=   7      0.2499823E-03     -0.1149552E-02
 T,EIJ(AA): I=   3 J=   8      0.1080246E-03     -0.4281277E-03
 T,EIJ(AA): I=   3 J=   9      0.1068076E-02     -0.3442938E-02
 T,EIJ(AA): I=   4 J=   5      0.1769945E-02     -0.1197764E-01
 T,EIJ(AA): I=   4 J=   6      0.1254600E-02     -0.4224293E-02
 T,EIJ(AA): I=   4 J=   7      0.1646897E-03     -0.8288455E-03
 T,EIJ(AA): I=   4 J=   8      0.1646897E-03     -0.8288455E-03
 T,EIJ(AA): I=   4 J=   9      0.1189668E-02     -0.3459638E-02
 T,EIJ(AA): I=   5 J=   6      0.1448127E-02     -0.4510068E-02
 T,EIJ(AA): I=   5 J=   7      0.1857243E-03     -0.8712231E-03
 T,EIJ(AA): I=   5 J=   8      0.1857243E-03     -0.8712231E-03
 T,EIJ(AA): I=   5 J=   9      0.1368724E-02     -0.3685470E-02
 T,EIJ(AA): I=   6 J=   7      0.4025164E-02     -0.1010414E-01
 T,EIJ(AA): I=   6 J=   8      0.4025164E-02     -0.1010414E-01
 T,EIJ(AA): I=   6 J=   9      0.1500515E-02     -0.2493620E-02
 T,EIJ(AA): I=   7 J=   8      0.3318598E-02     -0.9528488E-02
 T,EIJ(AA): I=   7 J=   9      0.1242365E-02     -0.1946602E-02
 T,EIJ(AA): I=   8 J=   9      0.1242365E-02     -0.1946602E-02
 T,EIJ(AB): I=   1 J=   1      0.2101384E-02     -0.1319843E-01
 T,EIJ(AB): I=   1 J=   2      0.9071910E-04     -0.5101437E-03
 T,EIJ(AB): I=   1 J=   3      0.2304145E-02     -0.1104682E-01
 T,EIJ(AB): I=   1 J=   4      0.2286508E-02     -0.1193379E-01
 T,EIJ(AB): I=   1 J=   5      0.2286508E-02     -0.1193379E-01
 T,EIJ(AB): I=   1 J=   6      0.1756086E-03     -0.7072282E-03
 T,EIJ(AB): I=   2 J=   1      0.2103718E-03     -0.1279356E-02
 T,EIJ(AB): I=   2 J=   2      0.1531395E-02     -0.1016454E-01
 T,EIJ(AB): I=   2 J=   3      0.1556778E-02     -0.6203665E-02
 T,EIJ(AB): I=   2 J=   4      0.4040826E-03     -0.1490080E-02
 T,EIJ(AB): I=   2 J=   5      0.6628779E-03     -0.2569566E-02
 T,EIJ(AB): I=   2 J=   6      0.1665316E-02     -0.5074202E-02
 T,EIJ(AB): I=   3 J=   1      0.2103718E-03     -0.1279356E-02
 T,EIJ(AB): I=   3 J=   2      0.1531395E-02     -0.1016454E-01
 T,EIJ(AB): I=   3 J=   3      0.1556778E-02     -0.6203665E-02
 T,EIJ(AB): I=   3 J=   4      0.6628779E-03     -0.2569566E-02
 T,EIJ(AB): I=   3 J=   5      0.4040826E-03     -0.1490080E-02
 T,EIJ(AB): I=   3 J=   6      0.1665316E-02     -0.5074202E-02
 T,EIJ(AB): I=   4 J=   1      0.8422566E-04     -0.5175978E-03
 T,EIJ(AB): I=   4 J=   2      0.1926183E-02     -0.1269153E-01
 T,EIJ(AB): I=   4 J=   3      0.1555091E-02     -0.5682592E-02
 T,EIJ(AB): I=   4 J=   4      0.2993669E-03     -0.1034252E-02
 T,EIJ(AB): I=   4 J=   5      0.2993669E-03     -0.1034252E-02
 T,EIJ(AB): I=   4 J=   6      0.1927991E-02     -0.5475911E-02
 T,EIJ(AB): I=   5 J=   1      0.8607694E-04     -0.5185748E-03
 T,EIJ(AB): I=   5 J=   2      0.3390907E-02     -0.2056648E-01
 T,EIJ(AB): I=   5 J=   3      0.1656990E-02     -0.5796536E-02
 T,EIJ(AB): I=   5 J=   4      0.3444809E-03     -0.1112760E-02
 T,EIJ(AB): I=   5 J=   5      0.3444809E-03     -0.1112760E-02
 T,EIJ(AB): I=   5 J=   6      0.2167193E-02     -0.5840581E-02
 T,EIJ(AB): I=   6 J=   1      0.2238463E-02     -0.1078969E-01
 T,EIJ(AB): I=   6 J=   2      0.1959224E-02     -0.6392600E-02
 T,EIJ(AB): I=   6 J=   3      0.2397149E-01     -0.4275217E-01
 T,EIJ(AB): I=   6 J=   4      0.6834433E-02     -0.1547332E-01
 T,EIJ(AB): I=   6 J=   5      0.6834433E-02     -0.1547332E-01
 T,EIJ(AB): I=   6 J=   6      0.3869508E-02     -0.6169241E-02
 T,EIJ(AB): I=   7 J=   1      0.2173883E-02     -0.1158905E-01
 T,EIJ(AB): I=   7 J=   2      0.2443590E-03     -0.1141814E-02
 T,EIJ(AB): I=   7 J=   3      0.4959343E-02     -0.1332890E-01
 T,EIJ(AB): I=   7 J=   4      0.4598527E-02     -0.1369812E-01
 T,EIJ(AB): I=   7 J=   5      0.7836429E-02     -0.2519706E-01
 T,EIJ(AB): I=   7 J=   6      0.1314204E-02     -0.2196203E-02
 T,EIJ(AB): I=   8 J=   1      0.2173883E-02     -0.1158905E-01
 T,EIJ(AB): I=   8 J=   2      0.2443590E-03     -0.1141814E-02
 T,EIJ(AB): I=   8 J=   3      0.4959343E-02     -0.1332890E-01
 T,EIJ(AB): I=   8 J=   4      0.7836429E-02     -0.2519706E-01
 T,EIJ(AB): I=   8 J=   5      0.4598527E-02     -0.1369812E-01
 T,EIJ(AB): I=   8 J=   6      0.1314204E-02     -0.2196203E-02
 T,EIJ(AB): I=   9 J=   1      0.2401695E-03     -0.1014211E-02
 T,EIJ(AB): I=   9 J=   2      0.2181734E-02     -0.5506634E-02
 T,EIJ(AB): I=   9 J=   3      0.3068659E-02     -0.5524284E-02
 T,EIJ(AB): I=   9 J=   4      0.1598158E-02     -0.2718624E-02
 T,EIJ(AB): I=   9 J=   5      0.1598158E-02     -0.2718624E-02
 T,EIJ(AB): I=   9 J=   6      0.2623894E-01     -0.2240379E-01
 Actual    scratch disk usage=  9022740936 words.
 JobTyp=3 Pass  1:  I=   1 to   6 NPSUse= 16 ParTrn=T ParDer=T DoDerP=F.
 (rs|ai) integrals will be sorted in core.
 T,EIJ(BB): I=   1 J=   2      0.7206574E-04     -0.4028381E-03
 T,EIJ(BB): I=   1 J=   3      0.9201353E-03     -0.3626988E-02
 T,EIJ(BB): I=   1 J=   4      0.8390787E-03     -0.3609014E-02
 T,EIJ(BB): I=   1 J=   5      0.8390787E-03     -0.3609014E-02
 T,EIJ(BB): I=   1 J=   6      0.1289844E-03     -0.4370402E-03
 T,EIJ(BB): I=   2 J=   3      0.1373470E-02     -0.4275508E-02
 T,EIJ(BB): I=   2 J=   4      0.3320922E-03     -0.9772121E-03
 T,EIJ(BB): I=   2 J=   5      0.3320922E-03     -0.9772121E-03
 T,EIJ(BB): I=   2 J=   6      0.1614343E-02     -0.4170510E-02
 T,EIJ(BB): I=   3 J=   4      0.5827462E-02     -0.1246599E-01
 T,EIJ(BB): I=   3 J=   5      0.5827462E-02     -0.1246599E-01
 T,EIJ(BB): I=   3 J=   6      0.1461507E-02     -0.2486337E-02
 T,EIJ(BB): I=   4 J=   5      0.4027361E-02     -0.1081352E-01
 T,EIJ(BB): I=   4 J=   6      0.1282836E-02     -0.1915019E-02
 T,EIJ(BB): I=   5 J=   6      0.1282836E-02     -0.1915019E-02
 Spin components of T(2) and E(2):
     alpha-alpha T2 =       0.3696581748D-01 E2=     -0.1367978359D+00
     alpha-beta  T2 =       0.1582757282D+00 E2=     -0.4355156736D+00
     beta-beta   T2 =       0.2616080559D-01 E2=     -0.6414721819D-01
 ANorm=    0.1107801349D+01
 E2 =    -0.6403342658D+00 EUMP2 =    -0.13378580723265D+04

 Complete Basis Set (CBS) Extrapolation:
 M. R. Nyden and G. A. Petersson, JCP 75, 1843 (1981)
 G. A. Petersson and M. A. Al-Laham, JCP 94, 6081 (1991)
 G. A. Petersson, T. Tensfeldt, and J. A. Montgomery, JCP 94, 6091 (1991)
 J. A. Montgomery, J. W. Ochterski, and G. A. Petersson, JCP 101, 5900 (1994)
 
 Minimum Number of PNO for Extrapolation =  25
 Absolute Overlaps: IRadAn =         5
 LocTrn: ILocal=3 LocCor=F DoCore=F.
 Entering OneElI...
 Overlap between basis sets.
 Requested accuracy = 0.1000D-12
 PrsmSu:  NPrtUS=   1 ThrOK=F IAlg=1
 PRISM was handed 17178008075 working-precision words and    47 shell-pairs
 IPart=  0 NShTot=          47 NBatch=          11 AvBLen=         4.3
 CnvPC2: ToCart=F DoDens=F IPureD=0 IPureF=0.
 Transformed matrix in CnvPC2: 
                 1             2             3             4             5 
      1   0.100000D+01  0.386732D+00  0.000000D+00  0.000000D+00  0.000000D+00
      2   0.386732D+00  0.100000D+01  0.000000D+00  0.000000D+00  0.000000D+00
      3   0.000000D+00  0.000000D+00  0.100000D+01  0.000000D+00  0.000000D+00
      4   0.000000D+00  0.000000D+00  0.000000D+00  0.100000D+01  0.000000D+00
      5   0.000000D+00  0.000000D+00  0.000000D+00  0.000000D+00  0.100000D+01
      6   0.253241D-01  0.317987D+00  0.000000D+00  0.000000D+00  0.000000D+00
      7   0.000000D+00  0.000000D+00  0.330932D+00  0.000000D+00  0.000000D+00
      8   0.000000D+00  0.000000D+00  0.000000D+00  0.330932D+00  0.000000D+00
      9   0.000000D+00  0.000000D+00  0.000000D+00  0.000000D+00  0.330932D+00
     10   0.000000D+00  0.000000D+00  0.000000D+00  0.000000D+00  0.000000D+00
     11   0.000000D+00  0.000000D+00  0.000000D+00  0.000000D+00  0.000000D+00
     12   0.000000D+00  0.000000D+00  0.000000D+00  0.000000D+00  0.000000D+00
     13   0.000000D+00  0.000000D+00  0.000000D+00  0.000000D+00  0.000000D+00
     14   0.000000D+00  0.000000D+00  0.000000D+00  0.000000D+00  0.000000D+00
     15  -0.362126D-03  0.405708D-02  0.000000D+00  0.000000D+00  0.000000D+00
     16   0.000000D+00  0.000000D+00  0.117832D-01  0.000000D+00  0.000000D+00
     17   0.000000D+00  0.000000D+00  0.000000D+00  0.117832D-01  0.000000D+00
     18   0.000000D+00  0.000000D+00  0.000000D+00  0.000000D+00  0.117832D-01
     19   0.000000D+00  0.000000D+00  0.000000D+00  0.000000D+00  0.000000D+00
     20   0.642301D-03  0.444216D-02  0.000000D+00  0.000000D+00 -0.222396D-02
     21   0.000000D+00  0.000000D+00  0.648467D-03  0.000000D+00  0.000000D+00
     22   0.000000D+00  0.000000D+00  0.000000D+00  0.648467D-03  0.000000D+00
     23   0.138215D-02  0.925935D-02  0.000000D+00  0.000000D+00 -0.404647D-02
                 6             7             8             9            10 
      1   0.253241D-01  0.000000D+00  0.000000D+00  0.000000D+00  0.000000D+00
      2   0.317987D+00  0.000000D+00  0.000000D+00  0.000000D+00  0.000000D+00
      3   0.000000D+00  0.330932D+00  0.000000D+00  0.000000D+00  0.000000D+00
      4   0.000000D+00  0.000000D+00  0.330932D+00  0.000000D+00  0.000000D+00
      5   0.000000D+00  0.000000D+00  0.000000D+00  0.330932D+00  0.000000D+00
      6   0.100000D+01  0.000000D+00  0.000000D+00  0.000000D+00  0.000000D+00
      7   0.000000D+00  0.100000D+01  0.000000D+00  0.000000D+00  0.000000D+00
      8   0.000000D+00  0.000000D+00  0.100000D+01  0.000000D+00  0.000000D+00
      9   0.000000D+00  0.000000D+00  0.000000D+00  0.100000D+01  0.000000D+00
     10   0.000000D+00  0.000000D+00  0.000000D+00  0.000000D+00  0.100000D+01
     11   0.000000D+00  0.000000D+00  0.000000D+00  0.000000D+00  0.000000D+00
     12   0.000000D+00  0.000000D+00  0.000000D+00  0.000000D+00  0.000000D+00
     13   0.000000D+00  0.000000D+00  0.000000D+00  0.000000D+00  0.000000D+00
     14   0.000000D+00  0.000000D+00  0.000000D+00  0.000000D+00  0.000000D+00
     15   0.193847D+00  0.000000D+00  0.000000D+00  0.000000D+00  0.000000D+00
     16   0.000000D+00  0.210424D+00  0.000000D+00  0.000000D+00  0.000000D+00
     17   0.000000D+00  0.000000D+00  0.210424D+00  0.000000D+00  0.000000D+00
     18   0.000000D+00  0.000000D+00  0.000000D+00  0.210424D+00  0.000000D+00
     19   0.587309D-04  0.000000D+00  0.000000D+00 -0.171560D-03  0.158688D-02
     20   0.407746D-01  0.000000D+00  0.000000D+00 -0.481199D-01  0.546784D-01
     21   0.000000D+00  0.145948D-01  0.000000D+00  0.000000D+00  0.000000D+00
     22   0.000000D+00  0.000000D+00  0.145948D-01  0.000000D+00  0.000000D+00
     23   0.704356D-01  0.000000D+00  0.000000D+00 -0.764555D-01  0.776529D-01
                11            12            13            14            15 
      1   0.000000D+00  0.000000D+00  0.000000D+00  0.000000D+00 -0.362126D-03
      2   0.000000D+00  0.000000D+00  0.000000D+00  0.000000D+00  0.405708D-02
      3   0.000000D+00  0.000000D+00  0.000000D+00  0.000000D+00  0.000000D+00
      4   0.000000D+00  0.000000D+00  0.000000D+00  0.000000D+00  0.000000D+00
      5   0.000000D+00  0.000000D+00  0.000000D+00  0.000000D+00  0.000000D+00
      6   0.000000D+00  0.000000D+00  0.000000D+00  0.000000D+00  0.193847D+00
      7   0.000000D+00  0.000000D+00  0.000000D+00  0.000000D+00  0.000000D+00
      8   0.000000D+00  0.000000D+00  0.000000D+00  0.000000D+00  0.000000D+00
      9   0.000000D+00  0.000000D+00  0.000000D+00  0.000000D+00  0.000000D+00
     10   0.000000D+00  0.000000D+00  0.000000D+00  0.000000D+00  0.000000D+00
     11   0.100000D+01  0.000000D+00  0.000000D+00  0.000000D+00  0.000000D+00
     12   0.000000D+00  0.100000D+01  0.000000D+00  0.000000D+00  0.000000D+00
     13   0.000000D+00  0.000000D+00  0.100000D+01  0.000000D+00  0.000000D+00
     14   0.000000D+00  0.000000D+00  0.000000D+00  0.100000D+01  0.000000D+00
     15   0.000000D+00  0.000000D+00  0.000000D+00  0.000000D+00  0.100000D+01
     16   0.000000D+00  0.000000D+00  0.000000D+00  0.000000D+00  0.000000D+00
     17   0.000000D+00  0.000000D+00  0.000000D+00  0.000000D+00  0.000000D+00
     18   0.000000D+00  0.000000D+00  0.000000D+00  0.000000D+00  0.000000D+00
     19   0.000000D+00  0.000000D+00  0.000000D+00  0.000000D+00  0.351316D-01
     20   0.000000D+00  0.000000D+00  0.000000D+00  0.000000D+00  0.316332D+00
     21  -0.303981D-01  0.000000D+00  0.000000D+00  0.000000D+00  0.000000D+00
     22   0.000000D+00 -0.303981D-01  0.000000D+00  0.000000D+00  0.000000D+00
     23   0.000000D+00  0.000000D+00  0.000000D+00  0.000000D+00  0.144163D+00
                16            17            18            19            20 
      1   0.000000D+00  0.000000D+00  0.000000D+00  0.000000D+00  0.642301D-03
      2   0.000000D+00  0.000000D+00  0.000000D+00  0.000000D+00  0.444216D-02
      3   0.117832D-01  0.000000D+00  0.000000D+00  0.000000D+00  0.000000D+00
      4   0.000000D+00  0.117832D-01  0.000000D+00  0.000000D+00  0.000000D+00
      5   0.000000D+00  0.000000D+00  0.117832D-01  0.000000D+00 -0.222396D-02
      6   0.000000D+00  0.000000D+00  0.000000D+00  0.587309D-04  0.407746D-01
      7   0.210424D+00  0.000000D+00  0.000000D+00  0.000000D+00  0.000000D+00
      8   0.000000D+00  0.210424D+00  0.000000D+00  0.000000D+00  0.000000D+00
      9   0.000000D+00  0.000000D+00  0.210424D+00 -0.171560D-03 -0.481199D-01
     10   0.000000D+00  0.000000D+00  0.000000D+00  0.158688D-02  0.546784D-01
     11   0.000000D+00  0.000000D+00  0.000000D+00  0.000000D+00  0.000000D+00
     12   0.000000D+00  0.000000D+00  0.000000D+00  0.000000D+00  0.000000D+00
     13   0.000000D+00  0.000000D+00  0.000000D+00  0.000000D+00  0.000000D+00
     14   0.000000D+00  0.000000D+00  0.000000D+00  0.000000D+00  0.000000D+00
     15   0.000000D+00  0.000000D+00  0.000000D+00  0.351316D-01  0.316332D+00
     16   0.100000D+01  0.000000D+00  0.000000D+00  0.000000D+00  0.000000D+00
     17   0.000000D+00  0.100000D+01  0.000000D+00  0.000000D+00  0.000000D+00
     18   0.000000D+00  0.000000D+00  0.100000D+01 -0.611541D-01 -0.475623D+00
     19   0.000000D+00  0.000000D+00 -0.611541D-01  0.100000D+01  0.236704D+00
     20   0.000000D+00  0.000000D+00 -0.475623D+00  0.236704D+00  0.100000D+01
     21   0.162984D+00  0.000000D+00  0.000000D+00  0.000000D+00  0.000000D+00
     22   0.000000D+00  0.162984D+00  0.000000D+00  0.000000D+00  0.000000D+00
     23   0.000000D+00  0.000000D+00 -0.186769D+00  0.000000D+00  0.000000D+00
                21            22            23 
      1   0.000000D+00  0.000000D+00  0.138215D-02
      2   0.000000D+00  0.000000D+00  0.925935D-02
      3   0.648467D-03  0.000000D+00  0.000000D+00
      4   0.000000D+00  0.648467D-03  0.000000D+00
      5   0.000000D+00  0.000000D+00 -0.404647D-02
      6   0.000000D+00  0.000000D+00  0.704356D-01
      7   0.145948D-01  0.000000D+00  0.000000D+00
      8   0.000000D+00  0.145948D-01  0.000000D+00
      9   0.000000D+00  0.000000D+00 -0.764555D-01
     10   0.000000D+00  0.000000D+00  0.776529D-01
     11  -0.303981D-01  0.000000D+00  0.000000D+00
     12   0.000000D+00 -0.303981D-01  0.000000D+00
     13   0.000000D+00  0.000000D+00  0.000000D+00
     14   0.000000D+00  0.000000D+00  0.000000D+00
     15   0.000000D+00  0.000000D+00  0.144163D+00
     16   0.162984D+00  0.000000D+00  0.000000D+00
     17   0.000000D+00  0.162984D+00  0.000000D+00
     18   0.000000D+00  0.000000D+00 -0.186769D+00
     19   0.000000D+00  0.000000D+00  0.000000D+00
     20   0.000000D+00  0.000000D+00  0.000000D+00
     21   0.100000D+01  0.000000D+00  0.000000D+00
     22   0.000000D+00  0.100000D+01  0.000000D+00
     23   0.000000D+00  0.000000D+00  0.100000D+01
 Entering OneElI...
 Overlap between basis sets.
 Requested accuracy = 0.1000D-12
 PrsmSu:  NPrtUS=   1 ThrOK=F IAlg=1
 PRISM was handed 17176658712 working-precision words and   710 shell-pairs
 IPart=  0 NShTot=         710 NBatch=          87 AvBLen=         8.2
 CnvPC2: ToCart=F DoDens=F IPureD=0 IPureF=0.
 Transformed matrix in CnvPC2: 
                 1             2             3             4             5 
      1   0.999777D+00  0.397206D+00  0.000000D+00  0.000000D+00  0.000000D+00
      2   0.279641D+00  0.989856D+00  0.000000D+00  0.000000D+00  0.000000D+00
      3   0.000000D+00  0.000000D+00  0.999083D+00  0.000000D+00  0.000000D+00
      4   0.000000D+00  0.000000D+00  0.000000D+00  0.999083D+00  0.000000D+00
      5   0.000000D+00  0.000000D+00  0.000000D+00  0.000000D+00  0.999083D+00
      6   0.111670D-01  0.310378D+00  0.000000D+00  0.000000D+00  0.000000D+00
      7   0.000000D+00  0.000000D+00 -0.321258D+00  0.000000D+00  0.000000D+00
      8   0.000000D+00  0.000000D+00  0.000000D+00 -0.321258D+00  0.000000D+00
      9   0.000000D+00  0.000000D+00  0.000000D+00  0.000000D+00 -0.321258D+00
     10   0.000000D+00  0.000000D+00  0.000000D+00  0.000000D+00  0.000000D+00
     11   0.000000D+00  0.000000D+00  0.000000D+00  0.000000D+00  0.000000D+00
     12   0.000000D+00  0.000000D+00  0.000000D+00  0.000000D+00  0.000000D+00
     13   0.000000D+00  0.000000D+00  0.000000D+00  0.000000D+00  0.000000D+00
     14   0.000000D+00  0.000000D+00  0.000000D+00  0.000000D+00  0.000000D+00
     15   0.000000D+00  0.000000D+00  0.000000D+00  0.000000D+00  0.000000D+00
     16   0.000000D+00  0.000000D+00  0.000000D+00  0.000000D+00  0.000000D+00
     17   0.000000D+00  0.000000D+00  0.000000D+00  0.000000D+00  0.000000D+00
     18   0.000000D+00  0.000000D+00  0.000000D+00  0.000000D+00  0.000000D+00
     19   0.000000D+00  0.000000D+00  0.000000D+00  0.000000D+00  0.000000D+00
     20   0.000000D+00  0.000000D+00  0.000000D+00  0.000000D+00  0.000000D+00
     21   0.000000D+00  0.000000D+00  0.000000D+00  0.000000D+00  0.000000D+00
     22   0.000000D+00  0.000000D+00  0.000000D+00  0.000000D+00  0.000000D+00
     23   0.000000D+00  0.000000D+00  0.000000D+00  0.000000D+00  0.000000D+00
     24   0.000000D+00  0.000000D+00  0.000000D+00  0.000000D+00  0.000000D+00
     25   0.735832D-04  0.870758D-02  0.000000D+00  0.000000D+00  0.000000D+00
     26   0.773184D-02  0.492875D-01  0.000000D+00  0.000000D+00  0.000000D+00
     27   0.398969D-02  0.255315D-01  0.000000D+00  0.000000D+00  0.000000D+00
     28   0.167573D-02  0.107438D-01  0.000000D+00  0.000000D+00  0.000000D+00
     29   0.000000D+00  0.000000D+00 -0.706283D-01  0.000000D+00  0.000000D+00
     30   0.000000D+00  0.000000D+00  0.000000D+00 -0.706283D-01  0.000000D+00
     31   0.000000D+00  0.000000D+00  0.000000D+00  0.000000D+00 -0.706283D-01
     32   0.000000D+00  0.000000D+00  0.693838D-02  0.000000D+00  0.000000D+00
     33   0.000000D+00  0.000000D+00  0.000000D+00  0.693838D-02  0.000000D+00
     34   0.000000D+00  0.000000D+00  0.000000D+00  0.000000D+00  0.693838D-02
     35   0.000000D+00  0.000000D+00  0.126866D-02  0.000000D+00  0.000000D+00
     36   0.000000D+00  0.000000D+00  0.000000D+00  0.126866D-02  0.000000D+00
     37   0.000000D+00  0.000000D+00  0.000000D+00  0.000000D+00  0.126866D-02
     38   0.302820D+00  0.964300D+00  0.000000D+00  0.000000D+00  0.000000D+00
     39   0.190387D+00  0.807893D+00  0.000000D+00  0.000000D+00  0.000000D+00
     40   0.116722D+00  0.595683D+00  0.000000D+00  0.000000D+00  0.000000D+00
     41   0.706020D-01  0.401223D+00  0.000000D+00  0.000000D+00  0.000000D+00
     42   0.424081D-01  0.255565D+00  0.000000D+00  0.000000D+00  0.000000D+00
     43   0.253823D-01  0.157746D+00  0.000000D+00  0.000000D+00  0.000000D+00
     44   0.000000D+00  0.000000D+00  0.451327D+00  0.000000D+00  0.000000D+00
     45   0.000000D+00  0.000000D+00  0.000000D+00  0.451327D+00  0.000000D+00
     46   0.000000D+00  0.000000D+00  0.000000D+00  0.000000D+00  0.451327D+00
     47   0.000000D+00  0.000000D+00  0.293712D+00  0.000000D+00  0.000000D+00
     48   0.000000D+00  0.000000D+00  0.000000D+00  0.293712D+00  0.000000D+00
     49   0.000000D+00  0.000000D+00  0.000000D+00  0.000000D+00  0.293712D+00
     50   0.000000D+00  0.000000D+00  0.178857D+00  0.000000D+00  0.000000D+00
     51   0.000000D+00  0.000000D+00  0.000000D+00  0.178857D+00  0.000000D+00
     52   0.000000D+00  0.000000D+00  0.000000D+00  0.000000D+00  0.178857D+00
     53   0.000000D+00  0.000000D+00  0.103834D+00  0.000000D+00  0.000000D+00
     54   0.000000D+00  0.000000D+00  0.000000D+00  0.103834D+00  0.000000D+00
     55   0.000000D+00  0.000000D+00  0.000000D+00  0.000000D+00  0.103834D+00
     56   0.000000D+00  0.000000D+00  0.583626D-01  0.000000D+00  0.000000D+00
     57   0.000000D+00  0.000000D+00  0.000000D+00  0.583626D-01  0.000000D+00
     58   0.000000D+00  0.000000D+00  0.000000D+00  0.000000D+00  0.583626D-01
     59   0.000000D+00  0.000000D+00  0.321242D-01  0.000000D+00  0.000000D+00
     60   0.000000D+00  0.000000D+00  0.000000D+00  0.321242D-01  0.000000D+00
     61   0.000000D+00  0.000000D+00  0.000000D+00  0.000000D+00  0.321242D-01
     62   0.000000D+00  0.000000D+00  0.000000D+00  0.000000D+00  0.000000D+00
     63   0.000000D+00  0.000000D+00  0.000000D+00  0.000000D+00  0.000000D+00
     64   0.000000D+00  0.000000D+00  0.000000D+00  0.000000D+00  0.000000D+00
     65   0.000000D+00  0.000000D+00  0.000000D+00  0.000000D+00  0.000000D+00
     66   0.000000D+00  0.000000D+00  0.000000D+00  0.000000D+00  0.000000D+00
     67   0.000000D+00  0.000000D+00  0.000000D+00  0.000000D+00  0.000000D+00
     68   0.000000D+00  0.000000D+00  0.000000D+00  0.000000D+00  0.000000D+00
     69   0.000000D+00  0.000000D+00  0.000000D+00  0.000000D+00  0.000000D+00
     70   0.000000D+00  0.000000D+00  0.000000D+00  0.000000D+00  0.000000D+00
     71   0.000000D+00  0.000000D+00  0.000000D+00  0.000000D+00  0.000000D+00
     72   0.000000D+00  0.000000D+00  0.000000D+00  0.000000D+00  0.000000D+00
     73   0.000000D+00  0.000000D+00  0.000000D+00  0.000000D+00  0.000000D+00
     74   0.000000D+00  0.000000D+00  0.000000D+00  0.000000D+00  0.000000D+00
     75   0.000000D+00  0.000000D+00  0.000000D+00  0.000000D+00  0.000000D+00
     76   0.000000D+00  0.000000D+00  0.000000D+00  0.000000D+00  0.000000D+00
     77   0.000000D+00  0.000000D+00  0.000000D+00  0.000000D+00  0.000000D+00
     78   0.000000D+00  0.000000D+00  0.000000D+00  0.000000D+00  0.000000D+00
     79   0.000000D+00  0.000000D+00  0.000000D+00  0.000000D+00  0.000000D+00
     80   0.000000D+00  0.000000D+00  0.000000D+00  0.000000D+00  0.000000D+00
     81   0.000000D+00  0.000000D+00  0.000000D+00  0.000000D+00  0.000000D+00
     82   0.000000D+00  0.000000D+00  0.000000D+00  0.000000D+00  0.000000D+00
     83   0.000000D+00  0.000000D+00  0.000000D+00  0.000000D+00  0.000000D+00
     84   0.000000D+00  0.000000D+00  0.000000D+00  0.000000D+00  0.000000D+00
     85   0.000000D+00  0.000000D+00  0.000000D+00  0.000000D+00  0.000000D+00
     86   0.000000D+00  0.000000D+00  0.000000D+00  0.000000D+00  0.000000D+00
     87   0.000000D+00  0.000000D+00  0.000000D+00  0.000000D+00  0.000000D+00
     88   0.000000D+00  0.000000D+00  0.000000D+00  0.000000D+00  0.000000D+00
     89   0.000000D+00  0.000000D+00  0.000000D+00  0.000000D+00  0.000000D+00
     90   0.000000D+00  0.000000D+00  0.000000D+00  0.000000D+00  0.000000D+00
     91   0.000000D+00  0.000000D+00  0.000000D+00  0.000000D+00  0.000000D+00
     92   0.000000D+00  0.000000D+00  0.000000D+00  0.000000D+00  0.000000D+00
     93   0.000000D+00  0.000000D+00  0.000000D+00  0.000000D+00  0.000000D+00
     94   0.000000D+00  0.000000D+00  0.000000D+00  0.000000D+00  0.000000D+00
     95   0.000000D+00  0.000000D+00  0.000000D+00  0.000000D+00  0.000000D+00
     96   0.000000D+00  0.000000D+00  0.000000D+00  0.000000D+00  0.000000D+00
     97   0.000000D+00  0.000000D+00  0.000000D+00  0.000000D+00  0.000000D+00
     98   0.000000D+00  0.000000D+00  0.000000D+00  0.000000D+00  0.000000D+00
     99   0.000000D+00  0.000000D+00  0.000000D+00  0.000000D+00  0.000000D+00
    100   0.000000D+00  0.000000D+00  0.000000D+00  0.000000D+00  0.000000D+00
    101   0.000000D+00  0.000000D+00  0.000000D+00  0.000000D+00  0.000000D+00
    102   0.000000D+00  0.000000D+00  0.000000D+00  0.000000D+00  0.000000D+00
    103   0.000000D+00  0.000000D+00  0.000000D+00  0.000000D+00  0.000000D+00
    104   0.000000D+00  0.000000D+00  0.000000D+00  0.000000D+00  0.000000D+00
    105   0.000000D+00  0.000000D+00  0.000000D+00  0.000000D+00  0.000000D+00
    106   0.000000D+00  0.000000D+00  0.000000D+00  0.000000D+00  0.000000D+00
    107   0.000000D+00  0.000000D+00  0.000000D+00  0.000000D+00  0.000000D+00
    108   0.000000D+00  0.000000D+00  0.000000D+00  0.000000D+00  0.000000D+00
    109   0.000000D+00  0.000000D+00  0.000000D+00  0.000000D+00  0.000000D+00
    110   0.000000D+00  0.000000D+00  0.000000D+00  0.000000D+00  0.000000D+00
    111   0.000000D+00  0.000000D+00  0.000000D+00  0.000000D+00  0.000000D+00
    112   0.000000D+00  0.000000D+00  0.000000D+00  0.000000D+00  0.000000D+00
    113   0.000000D+00  0.000000D+00  0.000000D+00  0.000000D+00  0.000000D+00
    114   0.000000D+00  0.000000D+00  0.000000D+00  0.000000D+00  0.000000D+00
    115   0.000000D+00  0.000000D+00  0.000000D+00  0.000000D+00  0.000000D+00
    116   0.000000D+00  0.000000D+00  0.000000D+00  0.000000D+00  0.000000D+00
    117   0.000000D+00  0.000000D+00  0.000000D+00  0.000000D+00  0.000000D+00
    118   0.000000D+00  0.000000D+00  0.000000D+00  0.000000D+00  0.000000D+00
    119   0.000000D+00  0.000000D+00  0.000000D+00  0.000000D+00  0.000000D+00
    120   0.000000D+00  0.000000D+00  0.000000D+00  0.000000D+00  0.000000D+00
    121   0.000000D+00  0.000000D+00  0.000000D+00  0.000000D+00  0.000000D+00
    122   0.000000D+00  0.000000D+00  0.000000D+00  0.000000D+00  0.000000D+00
    123   0.000000D+00  0.000000D+00  0.000000D+00  0.000000D+00  0.000000D+00
    124   0.000000D+00  0.000000D+00  0.000000D+00  0.000000D+00  0.000000D+00
    125   0.000000D+00  0.000000D+00  0.000000D+00  0.000000D+00  0.000000D+00
    126   0.000000D+00  0.000000D+00  0.000000D+00  0.000000D+00  0.000000D+00
    127   0.000000D+00  0.000000D+00  0.000000D+00  0.000000D+00  0.000000D+00
    128   0.000000D+00  0.000000D+00  0.000000D+00  0.000000D+00  0.000000D+00
    129   0.000000D+00  0.000000D+00  0.000000D+00  0.000000D+00  0.000000D+00
    130   0.000000D+00  0.000000D+00  0.000000D+00  0.000000D+00  0.000000D+00
    131   0.000000D+00  0.000000D+00  0.000000D+00  0.000000D+00  0.000000D+00
    132   0.000000D+00  0.000000D+00  0.000000D+00  0.000000D+00  0.000000D+00
    133   0.000000D+00  0.000000D+00  0.000000D+00  0.000000D+00  0.000000D+00
    134   0.000000D+00  0.000000D+00  0.000000D+00  0.000000D+00  0.000000D+00
    135   0.000000D+00  0.000000D+00  0.000000D+00  0.000000D+00  0.000000D+00
    136   0.000000D+00  0.000000D+00  0.000000D+00  0.000000D+00  0.000000D+00
    137   0.000000D+00  0.000000D+00  0.000000D+00  0.000000D+00  0.000000D+00
    138   0.000000D+00  0.000000D+00  0.000000D+00  0.000000D+00  0.000000D+00
    139   0.000000D+00  0.000000D+00  0.000000D+00  0.000000D+00  0.000000D+00
    140   0.000000D+00  0.000000D+00  0.000000D+00  0.000000D+00  0.000000D+00
    141   0.000000D+00  0.000000D+00  0.000000D+00  0.000000D+00  0.000000D+00
    142   0.000000D+00  0.000000D+00  0.000000D+00  0.000000D+00  0.000000D+00
    143   0.000000D+00  0.000000D+00  0.000000D+00  0.000000D+00  0.000000D+00
    144   0.000000D+00  0.000000D+00  0.000000D+00  0.000000D+00  0.000000D+00
    145   0.000000D+00  0.000000D+00  0.000000D+00  0.000000D+00  0.000000D+00
    146   0.000000D+00  0.000000D+00  0.000000D+00  0.000000D+00  0.000000D+00
    147   0.000000D+00  0.000000D+00  0.000000D+00  0.000000D+00  0.000000D+00
    148   0.000000D+00  0.000000D+00  0.000000D+00  0.000000D+00  0.000000D+00
    149   0.000000D+00  0.000000D+00  0.000000D+00  0.000000D+00  0.000000D+00
    150   0.000000D+00  0.000000D+00  0.000000D+00  0.000000D+00  0.000000D+00
    151   0.000000D+00  0.000000D+00  0.000000D+00  0.000000D+00  0.000000D+00
    152   0.000000D+00  0.000000D+00  0.000000D+00  0.000000D+00  0.000000D+00
    153   0.000000D+00  0.000000D+00  0.000000D+00  0.000000D+00  0.000000D+00
    154   0.000000D+00  0.000000D+00  0.000000D+00  0.000000D+00  0.000000D+00
    155   0.000000D+00  0.000000D+00  0.000000D+00  0.000000D+00  0.000000D+00
    156   0.000000D+00  0.000000D+00  0.000000D+00  0.000000D+00  0.000000D+00
    157   0.000000D+00  0.000000D+00  0.000000D+00  0.000000D+00  0.000000D+00
    158   0.000000D+00  0.000000D+00  0.000000D+00  0.000000D+00  0.000000D+00
    159   0.000000D+00  0.000000D+00  0.000000D+00  0.000000D+00  0.000000D+00
    160   0.000000D+00  0.000000D+00  0.000000D+00  0.000000D+00  0.000000D+00
    161   0.000000D+00  0.000000D+00  0.000000D+00  0.000000D+00  0.000000D+00
    162   0.000000D+00  0.000000D+00  0.000000D+00  0.000000D+00  0.000000D+00
    163   0.000000D+00  0.000000D+00  0.000000D+00  0.000000D+00  0.000000D+00
    164   0.000000D+00  0.000000D+00  0.000000D+00  0.000000D+00  0.000000D+00
    165   0.000000D+00  0.000000D+00  0.000000D+00  0.000000D+00  0.000000D+00
    166   0.000000D+00  0.000000D+00  0.000000D+00  0.000000D+00  0.000000D+00
    167   0.000000D+00  0.000000D+00  0.000000D+00  0.000000D+00  0.000000D+00
    168   0.000000D+00  0.000000D+00  0.000000D+00  0.000000D+00  0.000000D+00
    169   0.000000D+00  0.000000D+00  0.000000D+00  0.000000D+00  0.000000D+00
    170   0.000000D+00  0.000000D+00  0.000000D+00  0.000000D+00  0.000000D+00
    171   0.000000D+00  0.000000D+00  0.000000D+00  0.000000D+00  0.000000D+00
    172   0.000000D+00  0.000000D+00  0.000000D+00  0.000000D+00  0.000000D+00
    173   0.000000D+00  0.000000D+00  0.000000D+00  0.000000D+00  0.000000D+00
    174   0.000000D+00  0.000000D+00  0.000000D+00  0.000000D+00  0.000000D+00
    175   0.000000D+00  0.000000D+00  0.000000D+00  0.000000D+00  0.000000D+00
    176   0.000000D+00  0.000000D+00  0.000000D+00  0.000000D+00  0.000000D+00
    177   0.000000D+00  0.000000D+00  0.000000D+00  0.000000D+00  0.000000D+00
    178   0.000000D+00  0.000000D+00  0.000000D+00  0.000000D+00  0.000000D+00
    179   0.000000D+00  0.000000D+00  0.000000D+00  0.000000D+00  0.000000D+00
    180   0.000000D+00  0.000000D+00  0.000000D+00  0.000000D+00  0.000000D+00
    181   0.000000D+00  0.000000D+00  0.000000D+00  0.000000D+00  0.000000D+00
    182   0.000000D+00  0.000000D+00  0.000000D+00  0.000000D+00  0.000000D+00
    183   0.000000D+00  0.000000D+00  0.000000D+00  0.000000D+00  0.000000D+00
    184   0.000000D+00  0.000000D+00  0.000000D+00  0.000000D+00  0.000000D+00
    185   0.000000D+00  0.000000D+00  0.000000D+00  0.000000D+00  0.000000D+00
    186   0.000000D+00  0.000000D+00  0.000000D+00  0.000000D+00  0.000000D+00
    187   0.000000D+00  0.000000D+00  0.000000D+00  0.000000D+00  0.000000D+00
    188   0.000000D+00  0.000000D+00  0.000000D+00  0.000000D+00  0.000000D+00
    189   0.000000D+00  0.000000D+00  0.000000D+00  0.000000D+00  0.000000D+00
    190   0.000000D+00  0.000000D+00  0.000000D+00  0.000000D+00  0.000000D+00
    191   0.000000D+00  0.000000D+00  0.000000D+00  0.000000D+00  0.000000D+00
    192   0.000000D+00  0.000000D+00  0.000000D+00  0.000000D+00  0.000000D+00
    193   0.000000D+00  0.000000D+00  0.000000D+00  0.000000D+00  0.000000D+00
    194   0.000000D+00  0.000000D+00  0.000000D+00  0.000000D+00  0.000000D+00
    195   0.000000D+00  0.000000D+00  0.000000D+00  0.000000D+00  0.000000D+00
    196   0.000000D+00  0.000000D+00  0.000000D+00  0.000000D+00  0.000000D+00
    197   0.000000D+00  0.000000D+00  0.000000D+00  0.000000D+00  0.000000D+00
    198   0.000000D+00  0.000000D+00  0.000000D+00  0.000000D+00  0.000000D+00
    199   0.000000D+00  0.000000D+00  0.000000D+00  0.000000D+00  0.000000D+00
    200   0.000000D+00  0.000000D+00  0.000000D+00  0.000000D+00  0.000000D+00
    201   0.000000D+00  0.000000D+00  0.000000D+00  0.000000D+00  0.000000D+00
    202   0.000000D+00  0.000000D+00  0.000000D+00  0.000000D+00  0.000000D+00
    203   0.000000D+00  0.000000D+00  0.000000D+00  0.000000D+00  0.000000D+00
    204   0.000000D+00  0.000000D+00  0.000000D+00  0.000000D+00  0.000000D+00
    205   0.000000D+00  0.000000D+00  0.000000D+00  0.000000D+00  0.000000D+00
    206   0.000000D+00  0.000000D+00  0.000000D+00  0.000000D+00  0.000000D+00
    207   0.000000D+00  0.000000D+00  0.000000D+00  0.000000D+00  0.000000D+00
    208   0.000000D+00  0.000000D+00  0.000000D+00  0.000000D+00  0.000000D+00
    209   0.000000D+00  0.000000D+00  0.000000D+00  0.000000D+00  0.000000D+00
    210   0.000000D+00  0.000000D+00  0.000000D+00  0.000000D+00  0.000000D+00
    211   0.000000D+00  0.000000D+00  0.000000D+00  0.000000D+00  0.000000D+00
    212   0.000000D+00  0.000000D+00  0.000000D+00  0.000000D+00  0.000000D+00
    213   0.000000D+00  0.000000D+00  0.000000D+00  0.000000D+00  0.000000D+00
    214   0.000000D+00  0.000000D+00  0.000000D+00  0.000000D+00  0.000000D+00
    215   0.000000D+00  0.000000D+00  0.000000D+00  0.000000D+00  0.000000D+00
    216   0.000000D+00  0.000000D+00  0.000000D+00  0.000000D+00  0.000000D+00
    217   0.000000D+00  0.000000D+00  0.000000D+00  0.000000D+00  0.000000D+00
    218   0.000000D+00  0.000000D+00  0.000000D+00  0.000000D+00  0.000000D+00
    219   0.000000D+00  0.000000D+00  0.000000D+00  0.000000D+00  0.000000D+00
    220   0.000000D+00  0.000000D+00  0.000000D+00  0.000000D+00  0.000000D+00
    221   0.000000D+00  0.000000D+00  0.000000D+00  0.000000D+00  0.000000D+00
    222   0.000000D+00  0.000000D+00  0.000000D+00  0.000000D+00  0.000000D+00
    223   0.000000D+00  0.000000D+00  0.000000D+00  0.000000D+00  0.000000D+00
    224   0.000000D+00  0.000000D+00  0.000000D+00  0.000000D+00  0.000000D+00
    225   0.000000D+00  0.000000D+00  0.000000D+00  0.000000D+00  0.000000D+00
    226   0.000000D+00  0.000000D+00  0.000000D+00  0.000000D+00  0.000000D+00
    227   0.000000D+00  0.000000D+00  0.000000D+00  0.000000D+00  0.000000D+00
    228   0.000000D+00  0.000000D+00  0.000000D+00  0.000000D+00  0.000000D+00
    229   0.000000D+00  0.000000D+00  0.000000D+00  0.000000D+00  0.000000D+00
    230   0.000000D+00  0.000000D+00  0.000000D+00  0.000000D+00  0.000000D+00
    231   0.000000D+00  0.000000D+00  0.000000D+00  0.000000D+00  0.000000D+00
    232   0.000000D+00  0.000000D+00  0.000000D+00  0.000000D+00  0.000000D+00
    233   0.000000D+00  0.000000D+00  0.000000D+00  0.000000D+00  0.000000D+00
    234   0.000000D+00  0.000000D+00  0.000000D+00  0.000000D+00  0.000000D+00
    235   0.000000D+00  0.000000D+00  0.000000D+00  0.000000D+00  0.000000D+00
    236   0.000000D+00  0.000000D+00  0.000000D+00  0.000000D+00  0.000000D+00
    237   0.000000D+00  0.000000D+00  0.000000D+00  0.000000D+00  0.000000D+00
    238   0.000000D+00  0.000000D+00  0.000000D+00  0.000000D+00  0.000000D+00
    239   0.000000D+00  0.000000D+00  0.000000D+00  0.000000D+00  0.000000D+00
    240   0.000000D+00  0.000000D+00  0.000000D+00  0.000000D+00  0.000000D+00
    241   0.000000D+00  0.000000D+00  0.000000D+00  0.000000D+00  0.000000D+00
    242   0.000000D+00  0.000000D+00  0.000000D+00  0.000000D+00  0.000000D+00
    243   0.000000D+00  0.000000D+00  0.000000D+00  0.000000D+00  0.000000D+00
    244   0.000000D+00  0.000000D+00  0.000000D+00  0.000000D+00  0.000000D+00
    245   0.000000D+00  0.000000D+00  0.000000D+00  0.000000D+00  0.000000D+00
    246   0.000000D+00  0.000000D+00  0.000000D+00  0.000000D+00  0.000000D+00
    247   0.000000D+00  0.000000D+00  0.000000D+00  0.000000D+00  0.000000D+00
    248   0.000000D+00  0.000000D+00  0.000000D+00  0.000000D+00  0.000000D+00
    249   0.000000D+00  0.000000D+00  0.000000D+00  0.000000D+00  0.000000D+00
    250   0.000000D+00  0.000000D+00  0.000000D+00  0.000000D+00  0.000000D+00
    251   0.000000D+00  0.000000D+00  0.000000D+00  0.000000D+00  0.000000D+00
    252   0.000000D+00  0.000000D+00  0.000000D+00  0.000000D+00  0.000000D+00
    253   0.000000D+00  0.000000D+00  0.000000D+00  0.000000D+00  0.000000D+00
    254   0.000000D+00  0.000000D+00  0.000000D+00  0.000000D+00  0.000000D+00
    255   0.000000D+00  0.000000D+00  0.000000D+00  0.000000D+00  0.000000D+00
    256   0.000000D+00  0.000000D+00  0.000000D+00  0.000000D+00  0.000000D+00
    257   0.000000D+00  0.000000D+00  0.000000D+00  0.000000D+00  0.000000D+00
    258   0.000000D+00  0.000000D+00  0.000000D+00  0.000000D+00  0.000000D+00
    259   0.000000D+00  0.000000D+00  0.000000D+00  0.000000D+00  0.000000D+00
    260   0.000000D+00  0.000000D+00  0.000000D+00  0.000000D+00  0.000000D+00
    261   0.000000D+00  0.000000D+00  0.000000D+00  0.000000D+00  0.000000D+00
    262   0.000000D+00  0.000000D+00  0.000000D+00  0.000000D+00  0.000000D+00
    263   0.000000D+00  0.000000D+00  0.000000D+00  0.000000D+00  0.000000D+00
    264   0.000000D+00  0.000000D+00  0.000000D+00  0.000000D+00  0.000000D+00
    265   0.000000D+00  0.000000D+00  0.000000D+00  0.000000D+00  0.000000D+00
    266   0.000000D+00  0.000000D+00  0.000000D+00  0.000000D+00  0.000000D+00
    267   0.000000D+00  0.000000D+00  0.000000D+00  0.000000D+00  0.000000D+00
    268   0.000000D+00  0.000000D+00  0.000000D+00  0.000000D+00  0.000000D+00
    269   0.000000D+00  0.000000D+00  0.000000D+00  0.000000D+00  0.000000D+00
    270   0.000000D+00  0.000000D+00  0.000000D+00  0.000000D+00  0.000000D+00
    271   0.000000D+00  0.000000D+00  0.000000D+00  0.000000D+00  0.000000D+00
    272   0.000000D+00  0.000000D+00  0.000000D+00  0.000000D+00  0.000000D+00
    273   0.000000D+00  0.000000D+00  0.000000D+00  0.000000D+00  0.000000D+00
    274   0.000000D+00  0.000000D+00  0.000000D+00  0.000000D+00  0.000000D+00
    275   0.000000D+00  0.000000D+00  0.000000D+00  0.000000D+00  0.000000D+00
    276   0.000000D+00  0.000000D+00  0.000000D+00  0.000000D+00  0.000000D+00
    277   0.000000D+00  0.000000D+00  0.000000D+00  0.000000D+00  0.000000D+00
    278   0.000000D+00  0.000000D+00  0.000000D+00  0.000000D+00  0.000000D+00
    279   0.000000D+00  0.000000D+00  0.000000D+00  0.000000D+00  0.000000D+00
    280   0.000000D+00  0.000000D+00  0.000000D+00  0.000000D+00  0.000000D+00
    281   0.000000D+00  0.000000D+00  0.000000D+00  0.000000D+00  0.000000D+00
    282   0.000000D+00  0.000000D+00  0.000000D+00  0.000000D+00  0.000000D+00
    283   0.000000D+00  0.000000D+00  0.000000D+00  0.000000D+00  0.000000D+00
    284   0.000000D+00  0.000000D+00  0.000000D+00  0.000000D+00  0.000000D+00
    285   0.000000D+00  0.000000D+00  0.000000D+00  0.000000D+00  0.000000D+00
    286   0.000000D+00  0.000000D+00  0.000000D+00  0.000000D+00  0.000000D+00
    287   0.000000D+00  0.000000D+00  0.000000D+00  0.000000D+00  0.000000D+00
    288   0.000000D+00  0.000000D+00  0.000000D+00  0.000000D+00  0.000000D+00
    289   0.000000D+00  0.000000D+00  0.000000D+00  0.000000D+00  0.000000D+00
    290   0.000000D+00  0.000000D+00  0.000000D+00  0.000000D+00  0.000000D+00
    291   0.000000D+00  0.000000D+00  0.000000D+00  0.000000D+00  0.000000D+00
    292   0.000000D+00  0.000000D+00  0.000000D+00  0.000000D+00  0.000000D+00
    293   0.000000D+00  0.000000D+00  0.000000D+00  0.000000D+00  0.000000D+00
    294   0.000000D+00  0.000000D+00  0.000000D+00  0.000000D+00  0.000000D+00
    295   0.000000D+00  0.000000D+00  0.000000D+00  0.000000D+00  0.000000D+00
    296   0.000000D+00  0.000000D+00  0.000000D+00  0.000000D+00  0.000000D+00
    297   0.000000D+00  0.000000D+00  0.000000D+00  0.000000D+00  0.000000D+00
    298   0.000000D+00  0.000000D+00  0.000000D+00  0.000000D+00  0.000000D+00
    299   0.000000D+00  0.000000D+00  0.000000D+00  0.000000D+00  0.000000D+00
    300   0.000000D+00  0.000000D+00  0.000000D+00  0.000000D+00  0.000000D+00
    301   0.000000D+00  0.000000D+00  0.000000D+00  0.000000D+00  0.000000D+00
    302   0.000000D+00  0.000000D+00  0.000000D+00  0.000000D+00  0.000000D+00
    303   0.000000D+00  0.000000D+00  0.000000D+00  0.000000D+00  0.000000D+00
    304   0.000000D+00  0.000000D+00  0.000000D+00  0.000000D+00  0.000000D+00
    305   0.000000D+00  0.000000D+00  0.000000D+00  0.000000D+00  0.000000D+00
    306   0.000000D+00  0.000000D+00  0.000000D+00  0.000000D+00  0.000000D+00
    307   0.000000D+00  0.000000D+00  0.000000D+00  0.000000D+00  0.000000D+00
    308   0.000000D+00  0.000000D+00  0.000000D+00  0.000000D+00  0.000000D+00
    309   0.000000D+00  0.000000D+00  0.000000D+00  0.000000D+00  0.000000D+00
    310   0.000000D+00  0.000000D+00  0.000000D+00  0.000000D+00  0.000000D+00
    311   0.000000D+00  0.000000D+00  0.000000D+00  0.000000D+00  0.000000D+00
    312   0.000000D+00  0.000000D+00  0.000000D+00  0.000000D+00  0.000000D+00
    313   0.000000D+00  0.000000D+00  0.000000D+00  0.000000D+00  0.000000D+00
    314   0.000000D+00  0.000000D+00  0.000000D+00  0.000000D+00  0.000000D+00
    315   0.000000D+00  0.000000D+00  0.000000D+00  0.000000D+00  0.000000D+00
    316   0.000000D+00  0.000000D+00  0.000000D+00  0.000000D+00  0.000000D+00
    317   0.000000D+00  0.000000D+00  0.000000D+00  0.000000D+00  0.000000D+00
    318   0.000000D+00  0.000000D+00  0.000000D+00  0.000000D+00  0.000000D+00
    319   0.000000D+00  0.000000D+00  0.000000D+00  0.000000D+00  0.000000D+00
    320   0.000000D+00  0.000000D+00  0.000000D+00  0.000000D+00  0.000000D+00
    321   0.000000D+00  0.000000D+00  0.000000D+00  0.000000D+00  0.000000D+00
    322   0.000000D+00  0.000000D+00  0.000000D+00  0.000000D+00  0.000000D+00
    323   0.000000D+00  0.000000D+00  0.000000D+00  0.000000D+00  0.000000D+00
    324   0.000000D+00  0.000000D+00  0.000000D+00  0.000000D+00  0.000000D+00
    325   0.000000D+00  0.000000D+00  0.000000D+00  0.000000D+00  0.000000D+00
    326   0.000000D+00  0.000000D+00  0.000000D+00  0.000000D+00  0.000000D+00
    327   0.000000D+00  0.000000D+00  0.000000D+00  0.000000D+00  0.000000D+00
    328   0.000000D+00  0.000000D+00  0.000000D+00  0.000000D+00  0.000000D+00
    329   0.000000D+00  0.000000D+00  0.000000D+00  0.000000D+00  0.000000D+00
    330   0.000000D+00  0.000000D+00  0.000000D+00  0.000000D+00  0.000000D+00
    331   0.000000D+00  0.000000D+00  0.000000D+00  0.000000D+00  0.000000D+00
    332   0.000000D+00  0.000000D+00  0.000000D+00  0.000000D+00  0.000000D+00
    333   0.000000D+00  0.000000D+00  0.000000D+00  0.000000D+00  0.000000D+00
    334   0.000000D+00  0.000000D+00  0.000000D+00  0.000000D+00  0.000000D+00
    335   0.000000D+00  0.000000D+00  0.000000D+00  0.000000D+00  0.000000D+00
    336   0.000000D+00  0.000000D+00  0.000000D+00  0.000000D+00  0.000000D+00
    337   0.000000D+00  0.000000D+00  0.000000D+00  0.000000D+00  0.000000D+00
    338   0.000000D+00  0.000000D+00  0.000000D+00  0.000000D+00  0.000000D+00
    339   0.000000D+00  0.000000D+00  0.000000D+00  0.000000D+00  0.000000D+00
    340   0.000000D+00  0.000000D+00  0.000000D+00  0.000000D+00  0.000000D+00
    341   0.000000D+00  0.000000D+00  0.000000D+00  0.000000D+00  0.000000D+00
    342   0.000000D+00  0.000000D+00  0.000000D+00  0.000000D+00  0.000000D+00
    343   0.000000D+00  0.000000D+00  0.000000D+00  0.000000D+00  0.000000D+00
    344   0.000000D+00  0.000000D+00  0.000000D+00  0.000000D+00  0.000000D+00
    345   0.000000D+00  0.000000D+00  0.000000D+00  0.000000D+00  0.000000D+00
    346   0.000000D+00  0.000000D+00  0.000000D+00  0.000000D+00  0.000000D+00
    347   0.000000D+00  0.000000D+00  0.000000D+00  0.000000D+00  0.000000D+00
    348   0.000000D+00  0.000000D+00  0.000000D+00  0.000000D+00  0.000000D+00
    349   0.000000D+00  0.000000D+00  0.000000D+00  0.000000D+00  0.000000D+00
    350   0.000000D+00  0.000000D+00  0.000000D+00  0.000000D+00  0.000000D+00
    351   0.000000D+00  0.000000D+00  0.000000D+00  0.000000D+00  0.000000D+00
    352   0.000000D+00  0.000000D+00  0.000000D+00  0.000000D+00  0.000000D+00
    353   0.000000D+00  0.000000D+00  0.000000D+00  0.000000D+00  0.000000D+00
    354   0.000000D+00  0.000000D+00  0.000000D+00  0.000000D+00  0.000000D+00
    355   0.000000D+00  0.000000D+00  0.000000D+00  0.000000D+00  0.000000D+00
    356   0.000000D+00  0.000000D+00  0.000000D+00  0.000000D+00  0.000000D+00
    357   0.000000D+00  0.000000D+00  0.000000D+00  0.000000D+00  0.000000D+00
    358   0.000000D+00  0.000000D+00  0.000000D+00  0.000000D+00  0.000000D+00
    359   0.000000D+00  0.000000D+00  0.000000D+00  0.000000D+00  0.000000D+00
    360   0.000000D+00  0.000000D+00  0.000000D+00  0.000000D+00  0.000000D+00
    361   0.000000D+00  0.000000D+00  0.000000D+00  0.000000D+00  0.000000D+00
    362   0.000000D+00  0.000000D+00  0.000000D+00  0.000000D+00  0.000000D+00
    363   0.000000D+00  0.000000D+00  0.000000D+00  0.000000D+00  0.000000D+00
    364   0.000000D+00  0.000000D+00  0.000000D+00  0.000000D+00  0.000000D+00
    365   0.969701D-03  0.645251D-02  0.000000D+00  0.000000D+00 -0.225892D-02
    366   0.512063D-02  0.326927D-01  0.000000D+00  0.000000D+00 -0.259014D-02
    367   0.000000D+00  0.000000D+00  0.135679D-02  0.000000D+00  0.000000D+00
    368   0.000000D+00  0.000000D+00  0.000000D+00  0.135679D-02  0.000000D+00
    369   0.297403D-02  0.193188D-01  0.000000D+00  0.000000D+00 -0.512966D-02
    370   0.000000D+00  0.000000D+00  0.272142D-02  0.000000D+00  0.000000D+00
    371   0.000000D+00  0.000000D+00  0.000000D+00  0.272142D-02  0.000000D+00
    372   0.607709D-02  0.386746D-01  0.000000D+00  0.000000D+00  0.471702D-03
    373   0.000000D+00  0.000000D+00  0.000000D+00  0.000000D+00  0.000000D+00
    374   0.000000D+00  0.000000D+00  0.000000D+00  0.000000D+00  0.000000D+00
    375   0.193320D-05  0.292853D-04  0.000000D+00  0.000000D+00 -0.374471D-04
    376   0.209526D-03  0.163510D-02  0.000000D+00  0.000000D+00 -0.117663D-02
    377   0.182696D-02  0.121181D-01  0.000000D+00  0.000000D+00 -0.463031D-02
    378   0.433048D-02  0.277565D-01  0.000000D+00  0.000000D+00 -0.549830D-02
    379   0.000000D+00  0.000000D+00  0.000000D+00  0.000000D+00  0.000000D+00
    380   0.000000D+00  0.000000D+00  0.000000D+00  0.000000D+00  0.000000D+00
    381   0.000000D+00  0.000000D+00  0.000000D+00  0.000000D+00  0.000000D+00
    382   0.000000D+00  0.000000D+00  0.000000D+00  0.000000D+00  0.000000D+00
    383   0.000000D+00  0.000000D+00  0.000000D+00  0.000000D+00  0.000000D+00
    384   0.000000D+00  0.000000D+00  0.000000D+00  0.000000D+00  0.000000D+00
    385   0.000000D+00  0.000000D+00  0.717499D-05  0.000000D+00  0.000000D+00
    386   0.000000D+00  0.000000D+00  0.000000D+00  0.717499D-05  0.000000D+00
    387   0.713027D-05  0.108365D-03  0.000000D+00  0.000000D+00 -0.138875D-03
    388   0.000000D+00  0.000000D+00  0.615546D-03  0.000000D+00  0.000000D+00
    389   0.000000D+00  0.000000D+00  0.000000D+00  0.615546D-03  0.000000D+00
    390   0.121968D-02  0.885090D-02  0.000000D+00  0.000000D+00 -0.546899D-02
    391   0.000000D+00  0.000000D+00  0.342515D-02  0.000000D+00  0.000000D+00
    392   0.000000D+00  0.000000D+00  0.000000D+00  0.342515D-02  0.000000D+00
    393   0.761748D-02  0.486957D-01  0.000000D+00  0.000000D+00 -0.124105D-01
    394   0.000000D+00  0.000000D+00  0.459326D-02  0.000000D+00  0.000000D+00
    395   0.000000D+00  0.000000D+00  0.000000D+00  0.459326D-02  0.000000D+00
    396   0.103165D-01  0.652362D-01  0.000000D+00  0.000000D+00 -0.519190D-02
    397   0.000000D+00  0.000000D+00  0.000000D+00  0.000000D+00  0.000000D+00
    398   0.000000D+00  0.000000D+00  0.000000D+00  0.000000D+00  0.000000D+00
    399   0.000000D+00  0.000000D+00  0.000000D+00  0.000000D+00  0.000000D+00
    400   0.000000D+00  0.000000D+00  0.000000D+00  0.000000D+00  0.000000D+00
    401   0.000000D+00  0.000000D+00  0.000000D+00  0.000000D+00  0.000000D+00
    402   0.000000D+00  0.000000D+00  0.000000D+00  0.000000D+00  0.000000D+00
    403   0.000000D+00  0.000000D+00  0.000000D+00  0.000000D+00  0.000000D+00
    404   0.000000D+00  0.000000D+00  0.000000D+00  0.000000D+00  0.000000D+00
    405   0.000000D+00  0.000000D+00  0.000000D+00  0.000000D+00  0.000000D+00
    406   0.000000D+00  0.000000D+00  0.000000D+00  0.000000D+00  0.000000D+00
    407   0.000000D+00  0.000000D+00  0.000000D+00  0.000000D+00  0.000000D+00
    408   0.000000D+00  0.000000D+00  0.000000D+00  0.000000D+00  0.000000D+00
    409   0.000000D+00  0.000000D+00  0.000000D+00  0.000000D+00  0.000000D+00
    410   0.000000D+00  0.000000D+00  0.000000D+00  0.000000D+00  0.000000D+00
    411   0.000000D+00  0.000000D+00  0.000000D+00  0.000000D+00  0.000000D+00
    412   0.223018D-04  0.316639D-03  0.000000D+00  0.000000D+00 -0.394980D-03
    413   0.000000D+00  0.000000D+00  0.364470D-04  0.000000D+00  0.000000D+00
    414   0.000000D+00  0.000000D+00  0.000000D+00  0.364470D-04  0.000000D+00
    415   0.000000D+00  0.000000D+00  0.000000D+00  0.000000D+00  0.000000D+00
    416   0.000000D+00  0.000000D+00  0.000000D+00  0.000000D+00  0.000000D+00
    417   0.204033D-02  0.147232D-01  0.000000D+00  0.000000D+00 -0.930097D-02
    418   0.000000D+00  0.000000D+00  0.177449D-02  0.000000D+00  0.000000D+00
    419   0.000000D+00  0.000000D+00  0.000000D+00  0.177449D-02  0.000000D+00
    420   0.000000D+00  0.000000D+00  0.000000D+00  0.000000D+00  0.000000D+00
    421   0.000000D+00  0.000000D+00  0.000000D+00  0.000000D+00  0.000000D+00
    422   0.111134D-01  0.701164D-01  0.000000D+00  0.000000D+00 -0.183744D-01
    423   0.000000D+00  0.000000D+00  0.855295D-02  0.000000D+00  0.000000D+00
    424   0.000000D+00  0.000000D+00  0.000000D+00  0.855295D-02  0.000000D+00
    425   0.000000D+00  0.000000D+00  0.000000D+00  0.000000D+00  0.000000D+00
    426   0.000000D+00  0.000000D+00  0.000000D+00  0.000000D+00  0.000000D+00
    427   0.143821D-01  0.896898D-01  0.000000D+00  0.000000D+00 -0.577301D-02
    428   0.000000D+00  0.000000D+00  0.109525D-01  0.000000D+00  0.000000D+00
    429   0.000000D+00  0.000000D+00  0.000000D+00  0.109525D-01  0.000000D+00
    430   0.000000D+00  0.000000D+00  0.000000D+00  0.000000D+00  0.000000D+00
    431   0.000000D+00  0.000000D+00  0.000000D+00  0.000000D+00  0.000000D+00
    432   0.000000D+00  0.000000D+00  0.000000D+00  0.000000D+00  0.000000D+00
    433   0.000000D+00  0.000000D+00  0.000000D+00  0.000000D+00  0.000000D+00
    434   0.000000D+00  0.000000D+00  0.000000D+00  0.000000D+00  0.000000D+00
    435   0.000000D+00  0.000000D+00  0.000000D+00  0.000000D+00  0.000000D+00
    436   0.000000D+00  0.000000D+00  0.000000D+00  0.000000D+00  0.000000D+00
    437   0.000000D+00  0.000000D+00  0.000000D+00  0.000000D+00  0.000000D+00
    438   0.000000D+00  0.000000D+00  0.000000D+00  0.000000D+00  0.000000D+00
    439   0.000000D+00  0.000000D+00  0.000000D+00  0.000000D+00  0.000000D+00
    440   0.000000D+00  0.000000D+00  0.000000D+00  0.000000D+00  0.000000D+00
    441   0.000000D+00  0.000000D+00  0.000000D+00  0.000000D+00  0.000000D+00
    442   0.000000D+00  0.000000D+00  0.000000D+00  0.000000D+00  0.000000D+00
    443   0.000000D+00  0.000000D+00  0.000000D+00  0.000000D+00  0.000000D+00
    444   0.000000D+00  0.000000D+00  0.000000D+00  0.000000D+00  0.000000D+00
    445   0.000000D+00  0.000000D+00  0.000000D+00  0.000000D+00  0.000000D+00
    446   0.000000D+00  0.217747D-04  0.000000D+00  0.000000D+00 -0.366100D-04
    447   0.000000D+00  0.000000D+00  0.341091D-05  0.000000D+00  0.000000D+00
    448   0.000000D+00  0.000000D+00  0.000000D+00  0.341091D-05  0.000000D+00
    449   0.000000D+00  0.000000D+00  0.000000D+00  0.000000D+00  0.000000D+00
    450   0.000000D+00  0.000000D+00  0.000000D+00  0.000000D+00  0.000000D+00
    451   0.000000D+00  0.000000D+00  0.000000D+00  0.000000D+00  0.000000D+00
    452   0.000000D+00  0.000000D+00  0.000000D+00  0.000000D+00  0.000000D+00
    453   0.553367D-03  0.490629D-02  0.000000D+00  0.000000D+00 -0.448178D-02
    454   0.000000D+00  0.000000D+00  0.822793D-03  0.000000D+00  0.000000D+00
    455   0.000000D+00  0.000000D+00  0.000000D+00  0.822793D-03  0.000000D+00
    456   0.000000D+00  0.000000D+00  0.000000D+00  0.000000D+00  0.000000D+00
    457   0.000000D+00  0.000000D+00  0.000000D+00  0.000000D+00  0.000000D+00
[...]

 E2(CBS)=      -0.645824 CBS-Int=       0.002555 OIii=       2.224518

 **********************************************************************

            Population analysis using the SCF density.

 **********************************************************************

 Orbital symmetries:
       Occupied  (SG) (SG) (SG) (PI) (PI) (SG) (SG) (SG) (PI) (PI)
                 (SG) (DLTA) (SG) (PI) (PI) (SG) (PI) (PI) (DLTA)
       Virtual   (SG) (PI) (PI) (SG) (SG) (PI) (PI) (DLTA) (DLTA)
                 (SG) (SG) (PI) (PI) (SG) (PI) (PI) (SG) (DLTA)
                 (DLTA) (SG) (PI) (PI) (SG) (SG) (PI) (PI) (SG)
                 (PI) (PI) (DLTA) (DLTA) (SG) (PHI) (PHI) (PI)
                 (PI) (DLTA) (DLTA) (SG) (DLTA) (DLTA) (PI) (PI)
                 (SG) (PI) (PI) (SG) (SG) (PI) (PI) (SG) (PHI)
                 (PHI) (?A) (?A) (SG) (DLTA) (DLTA) (PI) (PI) (DLTA)
                 (DLTA) (?B) (?B) (?B) (?B) (SG) (DLTA) (DLTA)
                 (SG) (PI) (PI) (PHI) (PHI) (SG) (DLTA) (DLTA)
                 (PI) (PI) (SG) (PI) (PI) (DLTA) (DLTA) (SG) (?A)
                 (?A) (PI) (PI) (SG) (PHI) (PHI) (?C) (?C) (SG)
                 (PI) (PI) (?A) (?A) (PI) (PI) (DLTA) (DLTA) (SG)
                 (SG) (?B) (?B) (DLTA) (DLTA) (?B) (?B) (PHI) (PHI)
                 (DLTA) (DLTA) (SG) (PI) (PI) (?A) (?A) (DLTA)
                 (DLTA) (SG) (PHI) (PHI) (SG) (PI) (PI) (DLTA)
                 (DLTA) (PHI) (PHI) (?C) (?C) (PI) (PI) (SG) (?A)
                 (?A) (SG) (DLTA) (DLTA) (SG) (PI) (PI) (PI) (PI)
                 (?D) (?D) (?D) (?D) (PHI) (PHI) (?E) (?E) (?E)
                 (?E) (SG) (SG) (DLTA) (DLTA) (PI) (PI) (?A) (?A)
                 (SG) (PHI) (PHI) (DLTA) (DLTA) (PI) (PI) (?A)
                 (?A) (SG) (PI) (PI) (PHI) (PHI) (DLTA) (DLTA)
                 (PI) (PI) (SG) (SG) (SG) (?F) (?F) (PHI) (PHI)
                 (?F) (?C) (?C) (SG) (?C) (?C) (PHI) (PHI) (DLTA)
                 (DLTA) (DLTA) (DLTA) (PI) (PI) (?G) (PI) (PI)
                 (?G) (?G) (DLTA) (DLTA) (?A) (?A) (DLTA) (DLTA)
                 (SG) (PHI) (PHI) (SG) (?B) (?B) (?B) (?B) (SG)
                 (PI) (PI) (PHI) (PHI) (SG) (DLTA) (DLTA) (PI)
                 (PI) (?H) (?H) (SG) (SG) (SG) (?E) (?E) (?E) (?E)
                 (DLTA) (DLTA) (PI) (PI) (?A) (?A) (PHI) (PHI)
                 (?C) (?C) (SG) (SG) (DLTA) (DLTA) (?A) (?A) (PI)
                 (PI) (SG) (DLTA) (PI) (PI) (DLTA) (DLTA) (DLTA)
                 (?B) (?B) (?B) (?B) (SG) (PI) (PI) (SG) (?A) (?A)
                 (SG) (SG) (?C) (?C) (PHI) (PHI) (?A) (?A) (PHI)
                 (PHI) (DLTA) (DLTA) (PHI) (PHI) (SG) (DLTA) (DLTA)
                 (SG) (PI) (PI) (PI) (PI) (SG) (DLTA) (DLTA) (SG)
                 (DLTA) (DLTA) (PI) (PI) (?E) (?E) (?E) (?E) (?I)
                 (?I) (?I) (PHI) (PHI) (DLTA) (DLTA) (?J) (?J)
                 (?J) (PHI) (PHI) (PI) (PI) (SG) (PHI) (PHI) (DLTA)
                 (DLTA) (PI) (PI) (SG) (SG) (?C) (?C) (?A) (?A)
                 (PHI) (PHI) (DLTA) (DLTA) (SG) (PI) (PI) (PI)
                 (PI) (DLTA) (DLTA) (SG) (SG) (PI) (PI) (SG) (SG)
                 (?C) (?C) (?A) (?A) (PHI) (PHI) (PI) (PI) (DLTA)
                 (DLTA) (SG) (?E) (?E) (SG) (SG) (?H) (?H) (?E)
                 (?E) (?K) (?K) (?B) (?B) (?K) (DLTA) (DLTA) (?B)
                 (?B) (DLTA) (DLTA) (?A) (?A) (PHI) (PHI) (SG)
                 (PHI) (PHI) (DLTA) (DLTA) (PI) (PI) (PI) (PI)
                 (DLTA) (DLTA) (SG) (SG) (PI) (PI) (SG) (DLTA)
                 (DLTA) (PI) (PI) (?C) (?C) (SG) (SG) (?L) (?L)
                 (PHI) (PHI) (?L) (DLTA) (DLTA) (PI) (PI) (SG)
                 (?C) (?C) (SG) (SG) (?H) (?H) (?A) (?A) (PHI)
                 (PHI) (DLTA) (DLTA) (PI) (PI) (SG) (?L) (?C) (?C)
                 (?L) (?L) (?L) (?L) (?A) (?A) (?L) (?L) (DLTA)
                 (DLTA) (?L) (?L) (SG) (DLTA) (DLTA) (PI) (PI)
                 (PHI) (PHI) (SG) (DLTA) (DLTA) (PI) (PI) (SG)
                 (PI) (PI) (SG) (SG) (SG) (?C) (?C) (?A) (?A) (PHI)
                 (PHI) (DLTA) (DLTA) (PI) (PI) (SG) (?L) (?L) (?L)
                 (?L) (?L) (?L) (?D) (?D) (?D) (?L) (?L) (?D) (?L)
                 (?L) (?L) (?L) (?L) (?C) (?C) (?A) (?A) (PHI)
                 (PHI) (DLTA) (DLTA) (PI) (PI) (SG) (PHI) (PHI)
                 (DLTA) (DLTA) (PI) (PI) (SG) (?A) (?A) (PHI) (PHI)
                 (DLTA) (DLTA) (SG) (PI) (PI) (SG) (DLTA) (DLTA)
                 (?D) (?D) (?L) (?L) (?L) (?L) (?L) (?L) (?L) (?L)
                 (?L) (?D) (?L) (?L) (?D) (?L) (?L) (SG) (DLTA)
                 (DLTA) (PI) (PI) (PI) (PI) (SG) (?C) (?C) (?L)
                 (?L) (?D) (?D) (?B) (?B) (?L) (?D) (?D) (?B) (?B)
                 (SG) (?A) (?A) (PHI) (PHI) (DLTA) (DLTA) (PI)
                 (PI) (SG) (?A) (?A) (?C) (?C) (?B) (?B) (DLTA)
                 (DLTA) (?B) (?B) (SG) (PHI) (PHI) (DLTA) (DLTA)
                 (PI) (PI) (SG) (SG) (SG)
 Unable to determine electronic state:  partially filled degenerate orbitals.
 Alpha  occ. eigenvalues -- -261.18363 -31.79800 -27.28732 -27.26926 -27.26926
 Alpha  occ. eigenvalues --  -20.27675  -4.09500  -2.70633  -2.68935  -2.68935
 Alpha  occ. eigenvalues --   -0.95477  -0.49857  -0.49857  -0.44101  -0.39226
 Alpha  occ. eigenvalues --   -0.27007  -0.19226  -0.19226  -0.08188
 Alpha virt. eigenvalues --    0.08402   0.13656   0.13656   0.13730   0.15405
 Alpha virt. eigenvalues --    0.15618   0.15618   0.16275   0.16279   0.17543
 Alpha virt. eigenvalues --    0.22889   0.26171   0.26171   0.27701   0.31236
 Alpha virt. eigenvalues --    0.31236   0.31487   0.36535   0.36638   0.38205
 Alpha virt. eigenvalues --    0.38361   0.38361   0.41806   0.50362   0.52156
 Alpha virt. eigenvalues --    0.52156   0.57805   0.63329   0.63329   0.66402
 Alpha virt. eigenvalues --    0.66443   0.70584   0.71111   0.71111   0.74887
 Alpha virt. eigenvalues --    0.75045   0.75045   0.75357   0.76890   0.79670
 Alpha virt. eigenvalues --    0.79780   0.79888   0.79888   0.82100   0.94682
 Alpha virt. eigenvalues --    0.94682   0.94902   1.01882   1.09136   1.09136
 Alpha virt. eigenvalues --    1.13650   1.14864   1.14864   1.25225   1.25226
 Alpha virt. eigenvalues --    1.26632   1.32276   1.32393   1.33509   1.33509
 Alpha virt. eigenvalues --    1.35810   1.36002   1.37750   1.37750   1.38232
 Alpha virt. eigenvalues --    1.38232   1.41854   1.42988   1.43056   1.49743
 Alpha virt. eigenvalues --    1.52758   1.52758   1.56982   1.56982   1.61098
 Alpha virt. eigenvalues --    1.62215   1.62287   1.67009   1.67009   1.72280
 Alpha virt. eigenvalues --    1.74299   1.74299   1.84142   1.84554   1.89952
 Alpha virt. eigenvalues --    1.97371   1.97371   2.11887   2.11887   2.12735
 Alpha virt. eigenvalues --    2.21033   2.21033   2.23672   2.23672   2.25804
 Alpha virt. eigenvalues --    2.36479   2.36479   2.38387   2.38387   2.41985
 Alpha virt. eigenvalues --    2.41985   2.43815   2.44134   2.45888   2.53144
 Alpha virt. eigenvalues --    2.54872   2.54872   2.56300   2.56500   2.57258
 Alpha virt. eigenvalues --    2.57258   2.61394   2.61394   2.66288   2.66432
 Alpha virt. eigenvalues --    2.68569   2.84919   2.84919   2.88168   2.88172
 Alpha virt. eigenvalues --    2.93294   2.93455   2.94548   2.99062   2.99062
 Alpha virt. eigenvalues --    3.00342   3.13760   3.13760   3.19662   3.20638
 Alpha virt. eigenvalues --    3.20887   3.20887   3.24184   3.24184   3.29625
 Alpha virt. eigenvalues --    3.29625   3.42011   3.47688   3.47688   3.50013
 Alpha virt. eigenvalues --    3.50134   3.51348   3.58274   3.69988   3.69988
 Alpha virt. eigenvalues --    3.91418   3.91418   3.93531   3.94853   3.95353
 Alpha virt. eigenvalues --    3.95354   4.00185   4.00185   4.03598   4.03598
 Alpha virt. eigenvalues --    4.03850   4.03850   4.06644   4.21325   4.34925
 Alpha virt. eigenvalues --    4.35294   4.39416   4.39416   4.42093   4.42093
 Alpha virt. eigenvalues --    4.48634   4.55672   4.55672   4.56698   4.57111
 Alpha virt. eigenvalues --    4.60925   4.60925   4.65715   4.65716   4.73285
 Alpha virt. eigenvalues --    4.81342   4.81342   4.87073   4.87073   4.95310
 Alpha virt. eigenvalues --    4.95590   5.13163   5.13163   5.16365   5.21308
 Alpha virt. eigenvalues --    5.21308   5.29014   5.29035   5.29582   5.29582
 Alpha virt. eigenvalues --    5.29841   5.34727   5.34727   5.38778   5.42040
 Alpha virt. eigenvalues --    5.42040   5.44645   5.44645   5.48304   5.48530
 Alpha virt. eigenvalues --    5.65292   5.65498   5.69902   5.69902   5.93849
 Alpha virt. eigenvalues --    5.97656   5.97656   6.01117   6.01127   6.08023
 Alpha virt. eigenvalues --    6.09225   6.17551   6.17557   6.21408   6.22386
 Alpha virt. eigenvalues --    6.25346   6.26204   6.26204   6.30578   6.41868
 Alpha virt. eigenvalues --    6.41868   6.47467   6.47467   6.80415   6.86804
 Alpha virt. eigenvalues --    6.86804   7.07243   7.07243   7.13553   7.16870
 Alpha virt. eigenvalues --    7.17862   7.26300   7.26300   7.31454   7.31454
 Alpha virt. eigenvalues --    7.33419   7.33419   7.39943   7.57044   7.57044
 Alpha virt. eigenvalues --    7.57300   7.57300   7.64904   7.65834   7.70681
 Alpha virt. eigenvalues --    7.70681   7.79895   7.79895   7.82077   7.82077
 Alpha virt. eigenvalues --    7.83175   7.83175   7.83232   8.07858   8.16763
 Alpha virt. eigenvalues --    8.17374   8.31783   8.31783   8.32277   8.32277
 Alpha virt. eigenvalues --    8.45602   8.55224   8.57650   8.57650   8.58401
 Alpha virt. eigenvalues --    8.91194   8.91632   9.02207   9.02207   9.03512
 Alpha virt. eigenvalues --    9.03512   9.16355   9.55527   9.55527   9.66442
 Alpha virt. eigenvalues --    9.75502   9.75502   9.85723   9.85723   9.88318
 Alpha virt. eigenvalues --    9.88318   9.96774   9.96774  10.02266  10.02266
 Alpha virt. eigenvalues --   10.21522  10.21522  10.34064  10.34300  10.40639
 Alpha virt. eigenvalues --   10.40639  10.56704  10.62176  10.63027  10.65224
 Alpha virt. eigenvalues --   10.68964  10.68964  10.75724  10.75724  10.93711
 Alpha virt. eigenvalues --   11.10410  11.10535  11.14166  11.20995  11.21202
 Alpha virt. eigenvalues --   11.89576  11.89576  12.00867  12.00867  12.02476
 Alpha virt. eigenvalues --   12.02476  12.07270  12.07285  12.08785  12.53224
 Alpha virt. eigenvalues --   12.53224  12.70713  12.72834  12.75652  12.75756
 Alpha virt. eigenvalues --   12.81943  12.98723  12.98723  13.27290  13.27290
 Alpha virt. eigenvalues --   13.29233  13.33851  13.33851  13.39127  13.41149
 Alpha virt. eigenvalues --   13.49432  13.49432  13.58982  13.58982  13.63253
 Alpha virt. eigenvalues --   13.63253  13.76548  13.76548  14.03418  14.05061
 Alpha virt. eigenvalues --   14.05342  14.05342  14.16527  14.71056  14.71056
 Alpha virt. eigenvalues --   14.90044  14.90044  14.97432  14.98185  15.01987
 Alpha virt. eigenvalues --   15.38679  15.76321  15.76321  15.94535  16.86435
 Alpha virt. eigenvalues --   17.37009  17.37009  17.45630  17.45630  17.72795
 Alpha virt. eigenvalues --   17.72795  18.06738  18.06738  18.11934  18.12058
 Alpha virt. eigenvalues --   18.36760  18.87444  18.87444  18.90149  18.90149
 Alpha virt. eigenvalues --   18.91234  18.91234  18.95072  18.95072  19.12512
 Alpha virt. eigenvalues --   19.12556  19.27321  19.27321  19.29455  19.33319
 Alpha virt. eigenvalues --   19.34889  19.56162  19.56162  19.72487  19.76245
 Alpha virt. eigenvalues --   20.11982  20.11982  20.25398  20.25398  20.34767
 Alpha virt. eigenvalues --   20.44087  20.44087  20.50535  20.50663  20.68277
 Alpha virt. eigenvalues --   20.68277  20.97589  20.97589  21.02476  21.02538
 Alpha virt. eigenvalues --   21.09468  22.00814  22.29828  22.29828  22.43622
 Alpha virt. eigenvalues --   22.47087  22.47101  23.01738  23.01738  23.18308
 Alpha virt. eigenvalues --   23.18308  23.18988  23.18989  23.23784  23.23810
 Alpha virt. eigenvalues --   23.33994  23.33994  23.58329  23.58361  23.60326
 Alpha virt. eigenvalues --   24.24205  24.24205  24.52738  25.58793  25.58793
 Alpha virt. eigenvalues --   25.59458  25.59458  25.61038  25.61038  25.63253
 Alpha virt. eigenvalues --   25.63253  25.77125  25.77125  26.04110  26.04477
 Alpha virt. eigenvalues --   26.06495  26.06495  26.12255  26.55484  26.59680
 Alpha virt. eigenvalues --   26.59680  26.60389  26.60403  26.85323  26.85323
 Alpha virt. eigenvalues --   26.93788  26.93791  27.10139  27.10139  27.11826
 Alpha virt. eigenvalues --   27.14517  27.20977  27.20977  27.33456  27.50399
 Alpha virt. eigenvalues --   27.52966  28.57282  28.57282  28.94146  28.94146
 Alpha virt. eigenvalues --   29.28210  29.46185  29.48773  30.23033  30.23033
 Alpha virt. eigenvalues --   30.71833  33.12152  33.12152  33.84333  34.22237
 Alpha virt. eigenvalues --   34.22237  34.23384  34.23384  34.28798  34.28798
 Alpha virt. eigenvalues --   34.39036  34.39036  34.65736  34.65761  34.99607
 Alpha virt. eigenvalues --   34.99607  35.15522  38.75865  38.75865  38.76272
 Alpha virt. eigenvalues --   38.76485  38.77276  38.77276  38.77530  38.78310
 Alpha virt. eigenvalues --   38.78993  38.80118  38.80118  38.80476  38.81999
 Alpha virt. eigenvalues --   38.82000  38.85061  38.85061  38.86298  39.19403
 Alpha virt. eigenvalues --   39.19403  39.24150  39.24150  39.40230  39.40230
 Alpha virt. eigenvalues --   39.66406  39.66480  39.72752  39.72752  39.77072
 Alpha virt. eigenvalues --   41.88447  41.88447  42.21020  42.21028  42.68481
 Alpha virt. eigenvalues --   42.68481  42.71130  43.05240  43.05240  43.16299
 Alpha virt. eigenvalues --   43.16299  43.46940  43.46950  44.12425  44.13017
 Alpha virt. eigenvalues --   44.13017  45.00917  46.98655  46.98658  47.24868
 Alpha virt. eigenvalues --   47.24874  47.25154  47.25154  47.27140  47.27140
 Alpha virt. eigenvalues --   47.29999  47.30808  47.33256  47.36199  47.36199
 Alpha virt. eigenvalues --   47.36503  47.39096  47.39372  47.39372  47.56129
 Alpha virt. eigenvalues --   47.56129  48.18016  52.13773  52.16513  52.63913
 Alpha virt. eigenvalues --   52.63913  53.38141  53.38141  54.27696  55.14777
 Alpha virt. eigenvalues --   55.14777  55.16029  55.16078  55.16876  55.16877
 Alpha virt. eigenvalues --   55.21061  55.21061  55.35171  55.35360  55.38036
 Alpha virt. eigenvalues --   55.53648  55.53648  55.92523  59.45231  59.45232
 Alpha virt. eigenvalues --   59.50701  59.50701  59.71931  59.74276  60.23672
 Alpha virt. eigenvalues --   60.23672  60.48542  60.81506  60.81520  60.82771
 Alpha virt. eigenvalues --   60.82771  60.96373  60.96373  61.15475  61.18065
 Alpha virt. eigenvalues --   61.26440  61.26440  61.51108  65.48559  65.48559
 Alpha virt. eigenvalues --   65.77893  65.79963  66.32793  66.32793  66.75551
 Alpha virt. eigenvalues --  108.72692 708.99950
          Condensed to atoms (all electrons):
              1          2
     1  Fe  27.320709  -0.904581
     2  O   -0.904581   9.488453
 Mulliken atomic charges:
              1
     1  Fe  -0.416128
     2  O   -0.583872
 Sum of Mulliken atomic charges =  -1.00000
 Mulliken charges with hydrogens summed into heavy atoms:
              1
     1  Fe  -0.416128
     2  O   -0.583872
 Sum of Mulliken charges with hydrogens summed into heavy atoms =  -1.00000
          Atomic-Atomic Spin Densities.
              1          2
     1  Fe   2.974376  -0.042623
     2  O   -0.042623   0.110870
 Mulliken atomic spin densities:
              1
     1  Fe   2.931753
     2  O    0.068247
 Sum of Mulliken atomic spin densities =   3.00000
 Electronic spatial extent (au):  <R**2>=            131.8355
 Charge=             -1.0000 electrons
 Dipole moment (field-independent basis, Debye):
    X=              0.0000    Y=              0.0000    Z=              2.4269  Tot=              2.4269
 Quadrupole moment (field-independent basis, Debye-Ang):
   XX=            -29.5137   YY=            -29.5137   ZZ=            -38.1611
   XY=              0.0000   XZ=              0.0000   YZ=              0.0000
 Traceless Quadrupole moment (field-independent basis, Debye-Ang):
   XX=              2.8825   YY=              2.8825   ZZ=             -5.7649
   XY=              0.0000   XZ=              0.0000   YZ=              0.0000
 Octapole moment (field-independent basis, Debye-Ang**2):
  XXX=              0.0000  YYY=              0.0000  ZZZ=            -11.2523  XYY=              0.0000
  XXY=              0.0000  XXZ=             -6.2806  XZZ=              0.0000  YZZ=              0.0000
  YYZ=             -6.2806  XYZ=              0.0000
 Hexadecapole moment (field-independent basis, Debye-Ang**3):
 XXXX=            -87.8322 YYYY=            -87.8322 ZZZZ=           -226.0321 XXXY=              0.0000
 XXXZ=              0.0000 YYYX=              0.0000 YYYZ=              0.0000 ZZZX=              0.0000
 ZZZY=              0.0000 XXYY=            -29.0701 XXZZ=            -52.1128 YYZZ=            -52.1128
 XXYZ=              0.0000 YYXZ=              0.0000 ZZXY=              0.0000
 N-N= 6.665184654640D+01 E-N=-4.937225075789D+03  KE= 1.994475626465D+03
                          Isotropic Fermi Contact Couplings
        Atom                 a.u.       MegaHertz       Gauss      10(-4) cm-1
     1  Fe(57)             0.00000       0.00000       0.00000       0.00000
     2  O(17)              0.00000       0.00000       0.00000       0.00000
 --------------------------------------------------------
       Center         ----  Spin Dipole Couplings  ----
                      3XX-RR        3YY-RR        3ZZ-RR
 --------------------------------------------------------
     1   Atom        0.027191      0.027191     -0.054383
     2   Atom       -0.016200     -0.016200      0.032400
 --------------------------------------------------------
                        XY            XZ            YZ
 --------------------------------------------------------
     1   Atom        0.000000      0.000000      0.000000
     2   Atom        0.000000      0.000000      0.000000
 --------------------------------------------------------


 ---------------------------------------------------------------------------------
              Anisotropic Spin Dipole Couplings in Principal Axis System
 ---------------------------------------------------------------------------------

       Atom             a.u.   MegaHertz   Gauss  10(-4) cm-1        Axes

              Baa    -0.0544    -0.942    -0.336    -0.314  0.0000  0.0000  1.0000
     1 Fe(57) Bbb     0.0272     0.471     0.168     0.157  1.0000  0.0000  0.0000
              Bcc     0.0272     0.471     0.168     0.157  0.0000  1.0000  0.0000
 
              Baa    -0.0162     1.172     0.418     0.391  1.0000  0.0000  0.0000
     2 O(17)  Bbb    -0.0162     1.172     0.418     0.391  0.0000  1.0000  0.0000
              Bcc     0.0324    -2.344    -0.837    -0.782  0.0000  0.0000  1.0000
 

 ---------------------------------------------------------------------------------


 Test job not archived.
 1\1\GINC-N36\SP\ROMP2-FC\Gen\Fe1O1(1-,4)\GPETERSSON\20-Dec-2013\0\\# R
 OMP2 Gen GFinput Int=NoBasisTransform Int(Grid=Ultrafine) IOp(3/32=2,5
 /6=10,8/11=1,9/33=1) Maxdisk=128GB CBSextrapolate(Nmin=25,MinPop) Gues
 s=Read\\FeO- 4Delta\\-1,4\Fe\O,1,1.6514\\Version=EM64L-G09RevA.02\HF=-
 1337.2177381\MP2=-1337.8580723\E2(CBS)=-0.6458245\CBS-Int=-0.6432691\O
 Iii=2.2245177\RMSD=4.385e-11\PG=C*V [C*(O1Fe1)]\\@


 SATCHEL PAIGE'S GUIDE TO LONGEVITY

    1.  AVOID FRIED MEATS, WHICH ANGRY UP THE BLOOD.

    2.  IF YOUR STOMACH DISPUTES YOU, LIE DOWN AND PACIFY IT WITH COOL
        THOUGHTS.

    3.  KEEP THE JUICES FLOWING BY JANGLING AROUND GENTLY AS YOU MOVE.

    4.  GO VERY LIGHT ON THE VICES, SUCH AS CARRYING ON IN SOCIETY.
        THE SOCIAL RUMBLE AIN'T RESTFUL.

    5.  AVOID RUNNING AT ALL TIMES.

    6.  DON'T LOOK BACK.  SOMETHING MAY BE GAINING ON YOU.
 Job cpu time:  6 days 16 hours 47 minutes 34.4 seconds.
 File lengths (MBytes):  RWF=  69402 Int=      0 D2E=      0 Chk=     39 Scr=      1
 Normal termination of Gaussian 09 at Fri Dec 20 10:30:44 2013.
