 Entering Gaussian System, Link 0=g09
 AtFile(1): 7ZaPa-NR.gbs
 Initial command:
 /share/apps/gaussian/g09root/g09/l1.exe /localscratch/74261/Gau-23035.inp -scrdir=/localscratch/74261/
 Entering Link 1 = /share/apps/gaussian/g09root/g09/l1.exe PID=     23036.
  
 Copyright (c) 1988,1990,1992,1993,1995,1998,2003,2009, Gaussian, Inc.
                  All Rights Reserved.
  
 This is part of the Gaussian(R) 09 program.  It is based on
 the Gaussian(R) 03 system (copyright 2003, Gaussian, Inc.),
 the Gaussian(R) 98 system (copyright 1998, Gaussian, Inc.),
 the Gaussian(R) 94 system (copyright 1995, Gaussian, Inc.),
 the Gaussian 92(TM) system (copyright 1992, Gaussian, Inc.),
 the Gaussian 90(TM) system (copyright 1990, Gaussian, Inc.),
 the Gaussian 88(TM) system (copyright 1988, Gaussian, Inc.),
 the Gaussian 86(TM) system (copyright 1986, Carnegie Mellon
 University), and the Gaussian 82(TM) system (copyright 1983,
 Carnegie Mellon University). Gaussian is a federally registered
 trademark of Gaussian, Inc.
  
 This software contains proprietary and confidential information,
 including trade secrets, belonging to Gaussian, Inc.
  
 This software is provided under written license and may be
 used, copied, transmitted, or stored only in accord with that
 written license.
  
 The following legend is applicable only to US Government
 contracts under FAR:
  
                    RESTRICTED RIGHTS LEGEND
  
 Use, reproduction and disclosure by the US Government is
 subject to restrictions as set forth in subparagraphs (a)
 and (c) of the Commercial Computer Software - Restricted
 Rights clause in FAR 52.227-19.
  
 Gaussian, Inc.
 340 Quinnipiac St., Bldg. 40, Wallingford CT 06492
  
  
 ---------------------------------------------------------------
 Warning -- This program may not be used in any manner that
 competes with the business of Gaussian, Inc. or will provide
 assistance to any competitor of Gaussian, Inc.  The licensee
 of this program is prohibited from giving any competitor of
 Gaussian, Inc. access to this program.  By using this program,
 the user acknowledges that Gaussian, Inc. is engaged in the
 business of creating and licensing software in the field of
 computational chemistry and represents and warrants to the
 licensee that it is not a competitor of Gaussian, Inc. and that
 it will not use this program in any manner prohibited above.
 ---------------------------------------------------------------
  

 Cite this work as:
 Gaussian 09, Revision A.02,
 M. J. Frisch, G. W. Trucks, H. B. Schlegel, G. E. Scuseria, 
 M. A. Robb, J. R. Cheeseman, G. Scalmani, V. Barone, B. Mennucci, 
 G. A. Petersson, H. Nakatsuji, M. Caricato, X. Li, H. P. Hratchian, 
 A. F. Izmaylov, J. Bloino, G. Zheng, J. L. Sonnenberg, M. Hada, 
 M. Ehara, K. Toyota, R. Fukuda, J. Hasegawa, M. Ishida, T. Nakajima, 
 Y. Honda, O. Kitao, H. Nakai, T. Vreven, J. A. Montgomery, Jr., 
 J. E. Peralta, F. Ogliaro, M. Bearpark, J. J. Heyd, E. Brothers, 
 K. N. Kudin, V. N. Staroverov, R. Kobayashi, J. Normand, 
 K. Raghavachari, A. Rendell, J. C. Burant, S. S. Iyengar, J. Tomasi, 
 M. Cossi, N. Rega, J. M. Millam, M. Klene, J. E. Knox, J. B. Cross, 
 V. Bakken, C. Adamo, J. Jaramillo, R. Gomperts, R. E. Stratmann, 
 O. Yazyev, A. J. Austin, R. Cammi, C. Pomelli, J. W. Ochterski, 
 R. L. Martin, K. Morokuma, V. G. Zakrzewski, G. A. Voth, 
 P. Salvador, J. J. Dannenberg, S. Dapprich, A. D. Daniels, 
 O. Farkas, J. B. Foresman, J. V. Ortiz, J. Cioslowski, 
 and D. J. Fox, Gaussian, Inc., Wallingford CT, 2009.
 
 ******************************************
 Gaussian 09:  EM64L-G09RevA.02 11-Jun-2009
                18-Dec-2013 
 ******************************************
 % Mem=128GB
 % Nproc=16
 Will use up to   16 processors via shared memory.
 % Chk=FeO_5Dlt.chk
 ----------------------------------------------------------------------
 # ROMP2 Gen GFinput Int=NoBasisTransform Int(Grid=Ultrafine) IOp(3/32=
 2,5/6=10,8/11=1,9/33=1) Maxdisk=128GB CBSextrapolate(Nmin=25,MinPop) G
 uess=Read
 ----------------------------------------------------------------------
 1/38=1/1;
 2/12=2,17=6,18=5,40=1/2;
 3/5=7,11=2,16=1,24=10,25=1,30=1,32=2,60=-1,75=-5,116=101/1,2,3;
 4/5=1/1;
 5/5=2,6=10,38=6/2;
 8/5=-1,10=1,11=1/1;
 9/16=-3,33=1,75=2,81=25,83=4/6,4;
 6/7=2,8=2,9=2,10=2/1;
 99/5=1,9=1/99;
 ----------
 FeO 5Delta
 ----------
 Symbolic Z-matrix:
 Charge =  0 Multiplicity = 5
 Fe
 O                    1     1.5895 
 
                          Input orientation:                          
 ---------------------------------------------------------------------
 Center     Atomic      Atomic             Coordinates (Angstroms)
 Number     Number       Type             X           Y           Z
 ---------------------------------------------------------------------
      1         26           0        0.000000    0.000000    0.000000
      2          8           0        0.000000    0.000000    1.589500
 ---------------------------------------------------------------------
 Stoichiometry    FeO(5)
 Framework group  C*V[C*(OFe)]
 Deg. of freedom     1
 Full point group                 C*V     NOp   4
 Largest Abelian subgroup         C2V     NOp   4
 Largest concise Abelian subgroup C1      NOp   1
                         Standard orientation:                         
 ---------------------------------------------------------------------
 Center     Atomic      Atomic             Coordinates (Angstroms)
 Number     Number       Type             X           Y           Z
 ---------------------------------------------------------------------
      1         26           0        0.000000    0.000000    0.374000
      2          8           0        0.000000    0.000000   -1.215500
 ---------------------------------------------------------------------
 Rotational constants (GHZ):      0.0000000     16.0820057     16.0820057
 General basis read from cards:  (5D, 7F)
 AO basis set in the form of general basis input (Overlap normalization):
      1 0
 S  18 1.00       0.000000000000
      0.3679908010D+08  0.5246525779D-06
      0.7007499740D+07  0.3205323710D-05
      0.1615267170D+07  0.1817794055D-04
      0.4380081930D+06  0.8251990165D-04
      0.1362076970D+06  0.3193139663D-03
      0.4748660160D+05  0.1077167614D-02
      0.1819376500D+05  0.3251297832D-02
      0.7527862930D+04  0.8938974005D-02
      0.3313123440D+04  0.2264639738D-01
      0.1530957300D+04  0.5285557615D-01
      0.7345721380D+03  0.1117990410D+00
      0.3625782400D+03  0.2052670512D+00
      0.1826831850D+03  0.2991925419D+00
      0.9336030800D+02  0.2886284298D+00
      0.4814529200D+02  0.1355435806D+00
      0.2495042300D+02  0.1904267785D-01
      0.1295098900D+02  0.1380530182D-02
      0.6715542000D+01  0.7072308891D-04
 S  15 1.00       0.000000000000
      0.4748660160D+05 -0.4291060608D-06
      0.1819376500D+05 -0.3486399443D-05
      0.7527862930D+04 -0.2506847707D-04
      0.3313123440D+04 -0.1463900194D-03
      0.1530957300D+04 -0.7518443997D-03
      0.7345721380D+03 -0.3359417820D-02
      0.3625782400D+03 -0.1289313634D-01
      0.1826831850D+03 -0.4009165057D-01
      0.9336030800D+02 -0.8290907760D-01
      0.4814529200D+02 -0.5355204226D-01
      0.2495042300D+02  0.1896147085D+00
      0.1295098900D+02  0.5043963595D+00
      0.6715542000D+01  0.3710755734D+00
      0.3471108000D+01  0.6918046104D-01
      0.1785023000D+01  0.4542685995D-02
 P  17 1.00       0.000000000000
      0.9477071260D+05  0.2021473248D-05
      0.2466162970D+05  0.1659709316D-04
      0.7845366870D+04  0.1061986816D-03
      0.2918116380D+04  0.5150925035D-03
      0.1223298510D+04  0.2041321452D-02
      0.5609995510D+03  0.6838499315D-02
      0.2748515630D+03  0.1988977219D-01
      0.1412274430D+03  0.5071716126D-01
      0.7504252200D+02  0.1118998333D+00
      0.4080154700D+02  0.2031273462D+00
      0.2252163400D+02  0.2909778346D+00
      0.1254407400D+02  0.2929605951D+00
      0.7014084000D+01  0.1658875836D+00
      0.3917603000D+01  0.4235005371D-01
      0.2173122000D+01  0.4143286470D-02
      0.1188398000D+01  0.2981068382D-03
      0.6344300000D+00 -0.4034404942D-04
 S  11 1.00       0.000000000000
      0.1826831850D+03  0.2328241386D-03
      0.9336030800D+02  0.1695974138D-02
      0.4814529200D+02  0.2330669571D-02
      0.2495042300D+02 -0.1023786693D-01
      0.1295098900D+02 -0.1152141442D+00
      0.6715542000D+01 -0.1975352366D+00
      0.3471108000D+01  0.1283113023D+00
      0.1785023000D+01  0.5299851597D+00
      0.9116570000D+00  0.4508458582D+00
      0.4615500000D+00  0.1029628904D+00
      0.2311410000D+00  0.3008913567D-02
 P  13 1.00       0.000000000000
      0.2748515630D+03  0.1067224468D-03
      0.1412274430D+03  0.5048759358D-03
      0.7504252200D+02  0.2318980838D-02
      0.4080154700D+02  0.6707700036D-02
      0.2252163400D+02  0.1481136020D-01
      0.1254407400D+02  0.1815342303D-01
      0.7014084000D+01 -0.4381948697D-01
      0.3917603000D+01 -0.2011090130D+00
      0.2173122000D+01 -0.3395543592D+00
      0.1188398000D+01 -0.3360986563D+00
      0.6344300000D+00 -0.1795527607D+00
      0.3263170000D+00 -0.3468202451D-01
      0.1589300000D+00 -0.2052673364D-02
 D  16 1.00       0.000000000000
      0.1977944560D+04  0.7016488493D-05
      0.6419371770D+03  0.6551060463D-04
      0.2524793120D+03  0.4140247632D-03
      0.1138980230D+03  0.1884577761D-02
      0.5643097700D+02  0.6717804883D-02
      0.2970386600D+02  0.1892134411D-01
      0.1621034000D+02  0.4459232402D-01
      0.9016312000D+01  0.9323366244D-01
      0.5054277000D+01  0.1618005551D+00
      0.2836335000D+01  0.2220922831D+00
      0.1587508000D+01  0.2488844601D+00
      0.8843430000D+00  0.2342972611D+00
      0.4893610000D+00  0.1810381421D+00
      0.2681320000D+00  0.1032241930D+00
      0.1446160000D+00  0.3212805131D-01
      0.7600900000D-01  0.2745407961D-02
 D   1 1.00       0.000000000000
      0.6183152300D-01  0.1000000000D+01
 D   1 1.00       0.000000000000
      0.1918900000D-01  0.1000000000D+01
 S  11 1.00       0.000000000000
      0.4814529200D+02  0.4880450140D-05
      0.2495042300D+02 -0.2199069784D-04
      0.1295098900D+02  0.1353730264D-02
      0.6715542000D+01  0.4275240213D-02
      0.3471108000D+01 -0.6781871279D-02
      0.1785023000D+01 -0.3786946225D-01
      0.9116570000D+00 -0.1222900237D+00
      0.4615500000D+00 -0.1355067164D+00
      0.2311410000D+00  0.2217206124D+00
      0.1142030000D+00  0.6582469233D+00
      0.5549100000D-01  0.3115752723D+00
 S   1 1.00       0.000000000000
      0.4735071724D-01  0.1000000000D+01
 S   1 1.00       0.000000000000
      0.1958600000D-01  0.1000000000D+01
 S   1 1.00       0.000000000000
      0.6159000000D-02  0.1000000000D+01
 P  11 1.00       0.000000000000
      0.4080154700D+02  0.1840515098D-02
      0.2252163400D+02  0.1939795962D-02
      0.1254407400D+02  0.4811884259D-02
      0.7014084000D+01 -0.1274268689D-01
      0.3917603000D+01 -0.5673872032D-01
      0.2173122000D+01 -0.9367932008D-01
      0.1188398000D+01 -0.1116552113D+00
      0.6344300000D+00 -0.2912213139D-01
      0.3263170000D+00  0.1754648102D+00
      0.1589300000D+00  0.5707932468D+00
      0.6903212240D-01  0.3779162688D+00
 P   1 1.00       0.000000000000
      0.6500654514D-01  0.1000000000D+01
 P   1 1.00       0.000000000000
      0.1654400000D-01  0.1000000000D+01
 S   1 1.00       0.000000000000
      0.7277524000D+01  0.1000000000D+01
 S   1 1.00       0.000000000000
      0.3653063000D+01  0.1000000000D+01
 S   1 1.00       0.000000000000
      0.1833710000D+01  0.1000000000D+01
 S   1 1.00       0.000000000000
      0.9204590000D+00  0.1000000000D+01
 S   1 1.00       0.000000000000
      0.4620380000D+00  0.1000000000D+01
 S   1 1.00       0.000000000000
      0.2319270000D+00  0.1000000000D+01
 P   1 1.00       0.000000000000
      0.2853063000D+01  0.1000000000D+01
 P   1 1.00       0.000000000000
      0.1721786000D+01  0.1000000000D+01
 P   1 1.00       0.000000000000
      0.1039075000D+01  0.1000000000D+01
 P   1 1.00       0.000000000000
      0.6270680000D+00  0.1000000000D+01
 P   1 1.00       0.000000000000
      0.3784270000D+00  0.1000000000D+01
 P   1 1.00       0.000000000000
      0.2283760000D+00  0.1000000000D+01
 D   1 1.00       0.000000000000
      0.6966258000D+01  0.1000000000D+01
 D   1 1.00       0.000000000000
      0.3216105000D+01  0.1000000000D+01
 D   1 1.00       0.000000000000
      0.1484776000D+01  0.1000000000D+01
 D   1 1.00       0.000000000000
      0.6854750000D+00  0.1000000000D+01
 D   1 1.00       0.000000000000
      0.3164620000D+00  0.1000000000D+01
 D   1 1.00       0.000000000000
      0.1461010000D+00  0.1000000000D+01
 F   1 1.00       0.000000000000
      0.1509559400D+02  0.1000000000D+01
 F   1 1.00       0.000000000000
      0.6947198000D+01  0.1000000000D+01
 F   1 1.00       0.000000000000
      0.3197195000D+01  0.1000000000D+01
 F   1 1.00       0.000000000000
      0.1471393000D+01  0.1000000000D+01
 F   1 1.00       0.000000000000
      0.6771550000D+00  0.1000000000D+01
 F   1 1.00       0.000000000000
      0.3116360000D+00  0.1000000000D+01
 F   1 1.00       0.000000000000
      0.1434190000D+00  0.1000000000D+01
 G   1 1.00       0.000000000000
      0.1093412100D+02  0.1000000000D+01
 G   1 1.00       0.000000000000
      0.5019704000D+01  0.1000000000D+01
 G   1 1.00       0.000000000000
      0.2304477000D+01  0.1000000000D+01
 G   1 1.00       0.000000000000
      0.1057954000D+01  0.1000000000D+01
 G   1 1.00       0.000000000000
      0.4856920000D+00  0.1000000000D+01
 G   1 1.00       0.000000000000
      0.2229740000D+00  0.1000000000D+01
 H   1 1.00       0.000000000000
      0.9556846000D+01  0.1000000000D+01
 H   1 1.00       0.000000000000
      0.4177104000D+01  0.1000000000D+01
 H   1 1.00       0.000000000000
      0.1825728000D+01  0.1000000000D+01
 H   1 1.00       0.000000000000
      0.7979890000D+00  0.1000000000D+01
 H   1 1.00       0.000000000000
      0.3487840000D+00  0.1000000000D+01
 I   1 1.00       0.000000000000
      0.7536263000D+01  0.1000000000D+01
 I   1 1.00       0.000000000000
      0.3135657000D+01  0.1000000000D+01
 I   1 1.00       0.000000000000
      0.1304671000D+01  0.1000000000D+01
 I   1 1.00       0.000000000000
      0.5428420000D+00  0.1000000000D+01
 J   1 1.00       0.000000000000
      0.5682391000D+01  0.1000000000D+01
 J   1 1.00       0.000000000000
      0.2253825000D+01  0.1000000000D+01
 J   1 1.00       0.000000000000
      0.8939410000D+00  0.1000000000D+01
 K   1 1.00       0.000000000000
      0.4351707775D+01  0.1000000000D+01
 ****
      2 0
 S  16 1.00       0.000000000000
      0.1411246410D+07  0.1627429822D-05
      0.2499102240D+06  0.1092621996D-04
      0.5603410580D+05  0.6238741867D-04
      0.1521153640D+05  0.2783303491D-03
      0.4812287750D+04  0.1040541872D-02
      0.1717755460D+04  0.3380392793D-02
      0.6733958240D+03  0.9828484765D-02
      0.2835101840D+03  0.2605310129D-01
      0.1258620070D+03  0.6280818057D-01
      0.5804472200D+02  0.1348202075D+00
      0.2747198500D+02  0.2435563460D+00
      0.1321062900D+02  0.3323287378D+00
      0.6399806000D+01  0.2607930483D+00
      0.3099614000D+01  0.7430834326D-01
      0.1489856000D+01  0.4189538074D-02
      0.7052010000D+00  0.8706455725D-03
 S  11 1.00       0.000000000000
      0.2835101840D+03 -0.1122588094D-03
      0.1258620070D+03 -0.5559335617D-03
      0.5804472200D+02 -0.2851687904D-02
      0.2747198500D+02 -0.1133494995D-01
      0.1321062900D+02 -0.3657977704D-01
      0.6399806000D+01 -0.7288994197D-01
      0.3099614000D+01 -0.1062032356D-01
      0.1489856000D+01  0.2196705572D+00
      0.7052010000D+00  0.4294832072D+00
      0.3258480000D+00  0.3775832849D+00
      0.1454600000D+00  0.9640261255D-01
 S   1 1.00       0.000000000000
      0.5814297870D-01  0.1000000000D+01
 P  13 1.00       0.000000000000
      0.2085279200D+04  0.1447911740D-04
      0.5101470830D+03  0.1283233588D-03
      0.1616811510D+03  0.7792790007D-03
      0.6114945200D+02  0.3400506049D-02
      0.2597660200D+02  0.1157685214D-01
      0.1187542600D+02  0.3269740339D-01
      0.5677133000D+01  0.8011404242D-01
      0.2786475000D+01  0.1605265057D+00
      0.1387844000D+01  0.2460495026D+00
      0.6952810000D+00  0.2898982926D+00
      0.3470020000D+00  0.2606799382D+00
      0.1700990000D+00  0.1479363112D+00
      0.8008000000D-01  0.2980261453D-01
 P   1 1.00       0.000000000000
      0.4261436033D-01  0.1000000000D+01
 S   1 1.00       0.000000000000
      0.4249866000D+01  0.1000000000D+01
 S   1 1.00       0.000000000000
      0.2167470000D+01  0.1000000000D+01
 S   1 1.00       0.000000000000
      0.1105429000D+01  0.1000000000D+01
 S   1 1.00       0.000000000000
      0.5637790000D+00  0.1000000000D+01
 S   1 1.00       0.000000000000
      0.2875320000D+00  0.1000000000D+01
 S   1 1.00       0.000000000000
      0.1466440000D+00  0.1000000000D+01
 P   1 1.00       0.000000000000
      0.5659724000D+01  0.1000000000D+01
 P   1 1.00       0.000000000000
      0.2575878000D+01  0.1000000000D+01
 P   1 1.00       0.000000000000
      0.1172344000D+01  0.1000000000D+01
 P   1 1.00       0.000000000000
      0.5335620000D+00  0.1000000000D+01
 P   1 1.00       0.000000000000
      0.2428370000D+00  0.1000000000D+01
 P   1 1.00       0.000000000000
      0.1105210000D+00  0.1000000000D+01
 D   1 1.00       0.000000000000
      0.9464211000D+01  0.1000000000D+01
 D   1 1.00       0.000000000000
      0.4752286000D+01  0.1000000000D+01
 D   1 1.00       0.000000000000
      0.2386276000D+01  0.1000000000D+01
 D   1 1.00       0.000000000000
      0.1198226000D+01  0.1000000000D+01
 D   1 1.00       0.000000000000
      0.6016680000D+00  0.1000000000D+01
 D   1 1.00       0.000000000000
      0.3021170000D+00  0.1000000000D+01
 D   1 1.00       0.000000000000
      0.1517020000D+00  0.1000000000D+01
 F   1 1.00       0.000000000000
      0.7001836000D+01  0.1000000000D+01
 F   1 1.00       0.000000000000
      0.3552509000D+01  0.1000000000D+01
 F   1 1.00       0.000000000000
      0.1802430000D+01  0.1000000000D+01
 F   1 1.00       0.000000000000
      0.9144960000D+00  0.1000000000D+01
 F   1 1.00       0.000000000000
      0.4639860000D+00  0.1000000000D+01
 F   1 1.00       0.000000000000
      0.2354110000D+00  0.1000000000D+01
 G   1 1.00       0.000000000000
      0.6472481000D+01  0.1000000000D+01
 G   1 1.00       0.000000000000
      0.3119071000D+01  0.1000000000D+01
 G   1 1.00       0.000000000000
      0.1503072000D+01  0.1000000000D+01
 G   1 1.00       0.000000000000
      0.7243260000D+00  0.1000000000D+01
 G   1 1.00       0.000000000000
      0.3490500000D+00  0.1000000000D+01
 H   1 1.00       0.000000000000
      0.5355083000D+01  0.1000000000D+01
 H   1 1.00       0.000000000000
      0.2414696000D+01  0.1000000000D+01
 H   1 1.00       0.000000000000
      0.1088827000D+01  0.1000000000D+01
 H   1 1.00       0.000000000000
      0.4909703000D+00  0.1000000000D+01
 I   1 1.00       0.000000000000
      0.4322113000D+01  0.1000000000D+01
 I   1 1.00       0.000000000000
      0.1716263000D+01  0.1000000000D+01
 I   1 1.00       0.000000000000
      0.6815089000D+00  0.1000000000D+01
 J   1 1.00       0.000000000000
      0.3060973723D+01  0.1000000000D+01
 ****

 There are   208 symmetry adapted basis functions of A1  symmetry.
 There are   106 symmetry adapted basis functions of A2  symmetry.
 There are   151 symmetry adapted basis functions of B1  symmetry.
 There are   151 symmetry adapted basis functions of B2  symmetry.
 Integral buffers will be    131072 words long.
 Raffenetti 2 integral format.
 Two-electron integral symmetry is turned on.
   616 basis functions,  1360 primitive gaussians,  1044 cartesian basis functions
    19 alpha electrons       15 beta electrons
       nuclear repulsion energy        69.2474736626 Hartrees.
 NAtoms=    2 NActive=    2 NUniq=    2 SFac= 7.50D-01 NAtFMM=   80 NAOKFM=F Big=F
 One-electron integrals computed using PRISM.
 NBasis=   616 RedAO= F  NBF=   208   106   151   151
 NBsUse=   616 1.00D-04 NBFU=   208   106   151   151
 Initial guess read from the checkpoint file:  FeO_5Dlt.chk
 B after Tr=     0.000000    0.000000    0.000000
         Rot=    1.000000    0.000000    0.000000    0.000000 Ang=   0.00 deg.
 Initial guess orbital symmetries:
       Occupied  (SG) (SG) (SG) (PI) (PI) (SG) (SG) (PI) (PI) (SG)
                 (SG) (DLTA) (SG) (PI) (PI) (SG) (DLTA) (PI) (PI)
       Virtual   (SG) (SG) (PI) (PI) (SG) (DLTA) (DLTA) (SG) (PI)
                 (PI) (SG) (PI) (PI) (SG) (SG) (PI) (PI) (DLTA)
                 (DLTA) (PI) (PI) (SG) (SG) (PI) (PI) (SG) (SG)
                 (DLTA) (DLTA) (PHI) (PHI) (SG) (PI) (PI) (DLTA)
                 (DLTA) (PI) (PI) (SG) (PI) (PI) (DLTA) (DLTA)
                 (SG) (PI) (PI) (SG) (PI) (PI) (SG) (PHI) (PHI)
                 (SG) (?A) (?A) (DLTA) (DLTA) (SG) (DLTA) (DLTA)
                 (?B) (?B) (?B) (?B) (SG) (PI) (PI) (DLTA) (DLTA)
                 (SG) (PHI) (PHI) (PI) (PI) (DLTA) (DLTA) (SG)
                 (PI) (PI) (SG) (PI) (PI) (DLTA) (DLTA) (PI) (PI)
                 (SG) (?A) (?A) (SG) (?C) (?C) (PHI) (PHI) (PI)
                 (PI) (?D) (?D) (?D) (DLTA) (DLTA) (PI) (PI) (SG)
                 (SG) (DLTA) (DLTA) (PHI) (PHI) (PI) (PI) (PHI)
                 (PHI) (DLTA) (DLTA) (SG) (PI) (PI) (?A) (?A) (PHI)
                 (PHI) (SG) (DLTA) (DLTA) (SG) (PI) (PI) (DLTA)
                 (DLTA) (PHI) (PHI) (?C) (?C) (SG) (PI) (PI) (?E)
                 (?E) (?E) (DLTA) (DLTA) (PI) (PI) (SG) (?B) (?B)
                 (?B) (?B) (DLTA) (DLTA) (SG) (SG) (SG) (?C) (?C)
                 (PI) (PI) (DLTA) (DLTA) (PI) (PI) (?A) (?A) (SG)
                 (DLTA) (DLTA) (SG) (?B) (?B) (?B) (?B) (PI) (PI)
                 (SG) (?A) (?A) (SG) (PHI) (PHI) (PI) (PI) (PHI)
                 (PHI) (DLTA) (DLTA) (SG) (?C) (?C) (DLTA) (DLTA)
                 (?F) (?F) (?F) (?B) (?B) (?B) (?B) (DLTA) (DLTA)
                 (SG) (DLTA) (DLTA) (PI) (PI) (?A) (?A) (PHI) (PHI)
                 (SG) (PHI) (PHI) (PI) (PI) (DLTA) (DLTA) (SG)
                 (PI) (PI) (SG) (DLTA) (DLTA) (SG) (PI) (PI) (?C)
                 (?C) (?A) (?A) (SG) (PHI) (PHI) (DLTA) (DLTA)
                 (PI) (PI) (SG) (PI) (PI) (DLTA) (DLTA) (SG) (PI)
                 (PI) (PI) (PI) (SG) (PHI) (PHI) (DLTA) (DLTA)
                 (SG) (?A) (?A) (SG) (SG) (?G) (?G) (?G) (?G) (?G)
                 (?G) (?H) (?H) (?H) (DLTA) (DLTA) (?G) (?G) (DLTA)
                 (DLTA) (PI) (PI) (SG) (PI) (PI) (SG) (?I) (?I)
                 (?C) (?C) (PHI) (PHI) (?J) (?J) (?I) (?J) (?J)
                 (PI) (PI) (PI) (PI) (?K) (?K) (?K) (?L) (?L) (?L)
                 (?L) (?L) (?L) (SG) (DLTA) (DLTA) (DLTA) (DLTA)
                 (SG) (?C) (?C) (SG) (SG) (?A) (?A) (PI) (PI) (PHI)
                 (PHI) (DLTA) (DLTA) (SG) (PI) (PI) (SG) (?C) (?C)
                 (?A) (?A) (PHI) (PHI) (DLTA) (DLTA) (SG) (PI)
                 (PI) (SG) (PI) (PI) (SG) (PHI) (PHI) (DLTA) (DLTA)
                 (PI) (PI) (SG) (?L) (?L) (?L) (?L) (?L) (?L) (?L)
                 (?L) (?L) (?L) (?L) (?L) (?L) (?L) (?L) (?A) (?A)
                 (PHI) (PHI) (?J) (?J) (?J) (?J) (PI) (PI) (SG)
                 (PI) (PI) (SG) (PI) (PI) (SG) (?L) (?L) (?L) (?L)
                 (?L) (?L) (?L) (?L) (?L) (?L) (?L) (?L) (?L) (DLTA)
                 (DLTA) (PI) (PI) (?L) (?L) (?L) (?C) (?C) (?B)
                 (?B) (DLTA) (DLTA) (?B) (?B) (?L) (?A) (?A) (?B)
                 (?B) (DLTA) (DLTA) (?B) (?B) (SG) (PHI) (PHI)
                 (DLTA) (DLTA) (PI) (PI) (SG) (SG) (SG) (SG) (PI)
                 (PI) (SG) (SG) (PI) (PI) (DLTA) (DLTA) (SG) (SG)
                 (PI) (PI) (SG) (SG) (SG) (SG) (PI) (PI) (SG) (PI)
                 (PI) (PI) (PI) (PI) (PI) (DLTA) (DLTA) (SG) (PI)
                 (PI) (DLTA) (DLTA) (DLTA) (DLTA) (PI) (PI) (DLTA)
                 (DLTA) (PHI) (PHI) (SG) (SG) (PHI) (PHI) (DLTA)
                 (DLTA) (PHI) (PHI) (SG) (PI) (PI) (DLTA) (DLTA)
                 (PHI) (PHI) (?A) (?A) (SG) (DLTA) (DLTA) (?A)
                 (?A) (PI) (PI) (DLTA) (DLTA) (PHI) (PHI) (?A)
                 (?A) (?C) (?C) (PI) (PI) (PHI) (PHI) (SG) (PI)
                 (PI) (DLTA) (DLTA) (PHI) (PHI) (?A) (?A) (?C)
                 (?C) (SG) (SG) (?C) (?C) (SG) (PI) (PI) (DLTA)
                 (DLTA) (PHI) (PHI) (?A) (?A) (?C) (?C) (SG) (SG)
                 (?L) (?L) (SG) (PI) (PI) (DLTA) (DLTA) (PHI) (PHI)
                 (?A) (?A) (?C) (?C) (SG) (SG) (?L) (?L) (SG) (PI)
                 (PI) (DLTA) (DLTA) (PHI) (PHI) (?A) (?A) (?C)
                 (?C) (SG) (SG) (?L) (?L) (?L) (?L) (PI) (PI) (DLTA)
                 (DLTA) (PHI) (PHI) (PHI) (PHI) (?A) (?A) (?A)
                 (?A) (?C) (?C) (DLTA) (DLTA) (?A) (?A) (?C) (?C)
                 (SG) (SG) (SG) (SG) (PHI) (PHI) (?A) (?A) (?C)
                 (?C) (SG) (SG) (?L) (?L)
 Requested convergence on RMS density matrix=1.00D-10 within 128 cycles.
 Requested convergence on MAX density matrix=1.00D-08.
 Requested convergence on             energy=1.00D-08.
 No special actions if energy rises.
 Restarting incremental Fock formation.
 SCF Done:  E(ROHF) =  -1337.23509373     A.U. after   26 cycles
             Convg  =    0.7685D-11             -V/T =  1.9998
 <Sx>= 0.0000 <Sy>= 0.0000 <Sz>= 2.0000 <S**2>= 6.0000 S= 2.0000
 <L.S>= 0.000000000000E+00
 Annihilation of the first spin contaminant:
 S**2 before annihilation     6.0000,   after     6.0000
 DiagDN has N=   616 LTot=  1880 but NE2=     3 cannot use DSYEVD.
 GenMOA:  NOpAll=  4 NOp2=4 NOpUse=  4 JSym2X=1
 <Sx>= 0.0000 <Sy>= 0.0000 <Sz>= 2.0000 <S**2>= 6.0000 S= 2.0000
 ExpMin= 6.16D-03 ExpMax= 3.68D+07 ExpMxC= 3.31D+03 IAcc=3 IRadAn=         5 AccDes= 0.00D+00
 HarFok:  IExCor=  205 AccDes= 0.00D+00 IRadAn=         5 IDoV=-2
 ScaDFX=  1.000000  1.000000  1.000000  1.000000
 Range of M.O.s used for correlation:    11   616
 NBasis=   616 NAE=    19 NBE=    15 NFC=    10 NFV=     0
 NROrb=    606 NOA=     9 NOB=     5 NVA=   597 NVB=   601

 **** Warning!!: The largest alpha MO coefficient is  0.27657141D+03


 **** Warning!!: The largest beta MO coefficient is  0.27657100D+03

 Singles contribution to E2=   -0.5615915229D-02
 Disk-based method using OVN memory for  9 occupieds at a time.
 Permanent disk used for amplitudes and <ij||ab> integrals=    48706962 words.
 Estimated scratch disk usage=  9037882905 words.
 IUseRI=2 ITolRI= 6 IR12RI=0
 Actual    scratch disk usage=  8977724181 words.
 JobTyp=2 Pass  1:  I=   1 to   9 NPSUse= 16 ParTrn=T ParDer=T DoDerP=F.
 (rs|ai) integrals will be sorted in core.
 T,EIJ(AA): I=   1 J=   2      0.1562507E-03     -0.9343263E-03
 T,EIJ(AA): I=   1 J=   3      0.1562507E-03     -0.9343263E-03
 T,EIJ(AA): I=   1 J=   4      0.2073476E-03     -0.1014297E-02
 T,EIJ(AA): I=   1 J=   5      0.7908872E-04     -0.4811736E-03
 T,EIJ(AA): I=   1 J=   6      0.8595649E-04     -0.4994940E-03
 T,EIJ(AA): I=   1 J=   7      0.7052014E-03     -0.2889783E-02
 T,EIJ(AA): I=   1 J=   8      0.7669965E-03     -0.3311817E-02
 T,EIJ(AA): I=   1 J=   9      0.7669965E-03     -0.3311817E-02
 T,EIJ(AA): I=   2 J=   3      0.1045072E-02     -0.6678239E-02
 T,EIJ(AA): I=   2 J=   4      0.1547554E-02     -0.8921527E-02
 T,EIJ(AA): I=   2 J=   5      0.1104382E-02     -0.7123907E-02
 T,EIJ(AA): I=   2 J=   6      0.1182965E-02     -0.7231817E-02
 T,EIJ(AA): I=   2 J=   7      0.5777292E-03     -0.2417226E-02
 T,EIJ(AA): I=   2 J=   8      0.1469396E-03     -0.5657231E-03
 T,EIJ(AA): I=   2 J=   9      0.3170399E-03     -0.1370196E-02
 T,EIJ(AA): I=   3 J=   4      0.1547554E-02     -0.8921527E-02
 T,EIJ(AA): I=   3 J=   5      0.1104382E-02     -0.7123907E-02
 T,EIJ(AA): I=   3 J=   6      0.1182965E-02     -0.7231817E-02
 T,EIJ(AA): I=   3 J=   7      0.5777292E-03     -0.2417226E-02
 T,EIJ(AA): I=   3 J=   8      0.3170399E-03     -0.1370196E-02
 T,EIJ(AA): I=   3 J=   9      0.1469396E-03     -0.5657231E-03
 T,EIJ(AA): I=   4 J=   5      0.1154429E-02     -0.5934714E-02
 T,EIJ(AA): I=   4 J=   6      0.1269643E-02     -0.6113487E-02
 T,EIJ(AA): I=   4 J=   7      0.5014042E-03     -0.1803001E-02
 T,EIJ(AA): I=   4 J=   8      0.7777159E-03     -0.2685132E-02
 T,EIJ(AA): I=   4 J=   9      0.7777159E-03     -0.2685132E-02
 T,EIJ(AA): I=   5 J=   6      0.1865265E-02     -0.1207160E-01
 T,EIJ(AA): I=   5 J=   7      0.4103369E-03     -0.1766857E-02
 T,EIJ(AA): I=   5 J=   8      0.2141548E-03     -0.1007848E-02
 T,EIJ(AA): I=   5 J=   9      0.2141548E-03     -0.1007848E-02
 T,EIJ(AA): I=   6 J=   7      0.4509193E-03     -0.1835055E-02
 T,EIJ(AA): I=   6 J=   8      0.2415107E-03     -0.1062008E-02
 T,EIJ(AA): I=   6 J=   9      0.2415107E-03     -0.1062008E-02
 T,EIJ(AA): I=   7 J=   8      0.4097919E-02     -0.9256257E-02
 T,EIJ(AA): I=   7 J=   9      0.4097919E-02     -0.9256257E-02
 T,EIJ(AA): I=   8 J=   9      0.3651185E-02     -0.9677235E-02
 T,EIJ(AB): I=   1 J=   1      0.1964830E-02     -0.1276617E-01
 T,EIJ(AB): I=   1 J=   2      0.1137275E-03     -0.7236649E-03
 T,EIJ(AB): I=   1 J=   3      0.2188337E-02     -0.1117243E-01
 T,EIJ(AB): I=   1 J=   4      0.2235232E-02     -0.1142877E-01
 T,EIJ(AB): I=   1 J=   5      0.2235232E-02     -0.1142877E-01
 T,EIJ(AB): I=   2 J=   1      0.2513766E-03     -0.1514240E-02
 T,EIJ(AB): I=   2 J=   2      0.1681083E-02     -0.1033483E-01
 T,EIJ(AB): I=   2 J=   3      0.1114020E-02     -0.4177759E-02
 T,EIJ(AB): I=   2 J=   4      0.6277331E-03     -0.2165801E-02
 T,EIJ(AB): I=   2 J=   5      0.9850781E-03     -0.3639289E-02
 T,EIJ(AB): I=   3 J=   1      0.2513766E-03     -0.1514240E-02
 T,EIJ(AB): I=   3 J=   2      0.1681083E-02     -0.1033483E-01
 T,EIJ(AB): I=   3 J=   3      0.1114020E-02     -0.4177759E-02
 T,EIJ(AB): I=   3 J=   4      0.9850781E-03     -0.3639289E-02
 T,EIJ(AB): I=   3 J=   5      0.6277331E-03     -0.2165801E-02
 T,EIJ(AB): I=   4 J=   1      0.5401744E-03     -0.3084942E-02
 T,EIJ(AB): I=   4 J=   2      0.2065490E-02     -0.1020647E-01
 T,EIJ(AB): I=   4 J=   3      0.3555384E-02     -0.1035014E-01
 T,EIJ(AB): I=   4 J=   4      0.1712778E-02     -0.4706969E-02
 T,EIJ(AB): I=   4 J=   5      0.1712778E-02     -0.4706969E-02
 T,EIJ(AB): I=   5 J=   1      0.1065473E-03     -0.6352808E-03
 T,EIJ(AB): I=   5 J=   2      0.2052542E-02     -0.1282798E-01
 T,EIJ(AB): I=   5 J=   3      0.8877623E-03     -0.3291132E-02
 T,EIJ(AB): I=   5 J=   4      0.5039261E-03     -0.1702582E-02
 T,EIJ(AB): I=   5 J=   5      0.5039261E-03     -0.1702582E-02
 T,EIJ(AB): I=   6 J=   1      0.1129275E-03     -0.6468330E-03
 T,EIJ(AB): I=   6 J=   2      0.3352137E-02     -0.2042460E-01
 T,EIJ(AB): I=   6 J=   3      0.9852046E-03     -0.3433967E-02
 T,EIJ(AB): I=   6 J=   4      0.5783898E-03     -0.1826413E-02
 T,EIJ(AB): I=   6 J=   5      0.5783898E-03     -0.1826413E-02
 T,EIJ(AB): I=   7 J=   1      0.1949992E-02     -0.9754532E-02
 T,EIJ(AB): I=   7 J=   2      0.9333581E-03     -0.3101413E-02
 T,EIJ(AB): I=   7 J=   3      0.1009972E-01     -0.2343746E-01
 T,EIJ(AB): I=   7 J=   4      0.5840104E-02     -0.1373151E-01
 T,EIJ(AB): I=   7 J=   5      0.5840104E-02     -0.1373151E-01
 T,EIJ(AB): I=   8 J=   1      0.2170656E-02     -0.1139482E-01
 T,EIJ(AB): I=   8 J=   2      0.3432602E-03     -0.1434559E-02
 T,EIJ(AB): I=   8 J=   3      0.5360641E-02     -0.1406232E-01
 T,EIJ(AB): I=   8 J=   4      0.5048295E-02     -0.1391279E-01
 T,EIJ(AB): I=   8 J=   5      0.8449652E-02     -0.2519139E-01
 T,EIJ(AB): I=   9 J=   1      0.2170656E-02     -0.1139482E-01
 T,EIJ(AB): I=   9 J=   2      0.3432602E-03     -0.1434559E-02
 T,EIJ(AB): I=   9 J=   3      0.5360641E-02     -0.1406232E-01
 T,EIJ(AB): I=   9 J=   4      0.8449652E-02     -0.2519139E-01
 T,EIJ(AB): I=   9 J=   5      0.5048295E-02     -0.1391279E-01
 Actual    scratch disk usage=  9037876761 words.
 JobTyp=3 Pass  1:  I=   1 to   5 NPSUse= 16 ParTrn=T ParDer=T DoDerP=F.
 (rs|ai) integrals will be sorted in core.
 T,EIJ(BB): I=   1 J=   2      0.9484927E-04     -0.5129518E-03
 T,EIJ(BB): I=   1 J=   3      0.8690416E-03     -0.3606395E-02
 T,EIJ(BB): I=   1 J=   4      0.9018930E-03     -0.3746721E-02
 T,EIJ(BB): I=   1 J=   5      0.9018930E-03     -0.3746721E-02
 T,EIJ(BB): I=   2 J=   3      0.7605492E-03     -0.2509303E-02
 T,EIJ(BB): I=   2 J=   4      0.5583821E-03     -0.1598362E-02
 T,EIJ(BB): I=   2 J=   5      0.5583821E-03     -0.1598362E-02
 T,EIJ(BB): I=   3 J=   4      0.5620037E-02     -0.1268457E-01
 T,EIJ(BB): I=   3 J=   5      0.5620037E-02     -0.1268457E-01
 T,EIJ(BB): I=   4 J=   5      0.4859877E-02     -0.1169038E-01
 Spin components of T(2) and E(2):
     alpha-alpha T2 =       0.3368816565D-01 E2=     -0.1425405069D+00
     alpha-beta  T2 =       0.1047125815D+00 E2=     -0.3683050549D+00
     beta-beta   T2 =       0.2074494056D-01 E2=     -0.5437834469D-01
 ANorm=    0.1079913337D+01
 E2 =    -0.5708398217D+00 EUMP2 =    -0.13378059335538D+04

 Complete Basis Set (CBS) Extrapolation:
 M. R. Nyden and G. A. Petersson, JCP 75, 1843 (1981)
 G. A. Petersson and M. A. Al-Laham, JCP 94, 6081 (1991)
 G. A. Petersson, T. Tensfeldt, and J. A. Montgomery, JCP 94, 6091 (1991)
 J. A. Montgomery, J. W. Ochterski, and G. A. Petersson, JCP 101, 5900 (1994)
 
 Minimum Number of PNO for Extrapolation =  25
 Absolute Overlaps: IRadAn =         5
 LocTrn: ILocal=3 LocCor=F DoCore=F.
 Entering OneElI...
 Overlap between basis sets.
 Requested accuracy = 0.1000D-12
 PrsmSu:  NPrtUS=   1 ThrOK=F IAlg=1
 PRISM was handed 17178008148 working-precision words and    47 shell-pairs
 IPart=  0 NShTot=          47 NBatch=          11 AvBLen=         4.3
 CnvPC2: ToCart=F DoDens=F IPureD=0 IPureF=0.
 Transformed matrix in CnvPC2: 
                 1             2             3             4             5 
      1   0.100000D+01  0.386732D+00  0.000000D+00  0.000000D+00  0.000000D+00
      2   0.386732D+00  0.100000D+01  0.000000D+00  0.000000D+00  0.000000D+00
      3   0.000000D+00  0.000000D+00  0.100000D+01  0.000000D+00  0.000000D+00
      4   0.000000D+00  0.000000D+00  0.000000D+00  0.100000D+01  0.000000D+00
      5   0.000000D+00  0.000000D+00  0.000000D+00  0.000000D+00  0.100000D+01
      6   0.253241D-01  0.317987D+00  0.000000D+00  0.000000D+00  0.000000D+00
      7   0.000000D+00  0.000000D+00  0.330932D+00  0.000000D+00  0.000000D+00
      8   0.000000D+00  0.000000D+00  0.000000D+00  0.330932D+00  0.000000D+00
      9   0.000000D+00  0.000000D+00  0.000000D+00  0.000000D+00  0.330932D+00
     10   0.000000D+00  0.000000D+00  0.000000D+00  0.000000D+00  0.000000D+00
     11   0.000000D+00  0.000000D+00  0.000000D+00  0.000000D+00  0.000000D+00
     12   0.000000D+00  0.000000D+00  0.000000D+00  0.000000D+00  0.000000D+00
     13   0.000000D+00  0.000000D+00  0.000000D+00  0.000000D+00  0.000000D+00
     14   0.000000D+00  0.000000D+00  0.000000D+00  0.000000D+00  0.000000D+00
     15  -0.362126D-03  0.405708D-02  0.000000D+00  0.000000D+00  0.000000D+00
     16   0.000000D+00  0.000000D+00  0.117832D-01  0.000000D+00  0.000000D+00
     17   0.000000D+00  0.000000D+00  0.000000D+00  0.117832D-01  0.000000D+00
     18   0.000000D+00  0.000000D+00  0.000000D+00  0.000000D+00  0.117832D-01
     19   0.000000D+00  0.000000D+00  0.000000D+00  0.000000D+00  0.000000D+00
     20   0.843011D-03  0.577922D-02  0.000000D+00  0.000000D+00 -0.279220D-02
     21   0.000000D+00  0.000000D+00  0.847133D-03  0.000000D+00  0.000000D+00
     22   0.000000D+00  0.000000D+00  0.000000D+00  0.847133D-03  0.000000D+00
     23   0.174934D-02  0.116351D-01  0.000000D+00  0.000000D+00 -0.487904D-02
                 6             7             8             9            10 
      1   0.253241D-01  0.000000D+00  0.000000D+00  0.000000D+00  0.000000D+00
      2   0.317987D+00  0.000000D+00  0.000000D+00  0.000000D+00  0.000000D+00
      3   0.000000D+00  0.330932D+00  0.000000D+00  0.000000D+00  0.000000D+00
      4   0.000000D+00  0.000000D+00  0.330932D+00  0.000000D+00  0.000000D+00
      5   0.000000D+00  0.000000D+00  0.000000D+00  0.330932D+00  0.000000D+00
      6   0.100000D+01  0.000000D+00  0.000000D+00  0.000000D+00  0.000000D+00
      7   0.000000D+00  0.100000D+01  0.000000D+00  0.000000D+00  0.000000D+00
      8   0.000000D+00  0.000000D+00  0.100000D+01  0.000000D+00  0.000000D+00
      9   0.000000D+00  0.000000D+00  0.000000D+00  0.100000D+01  0.000000D+00
     10   0.000000D+00  0.000000D+00  0.000000D+00  0.000000D+00  0.100000D+01
     11   0.000000D+00  0.000000D+00  0.000000D+00  0.000000D+00  0.000000D+00
     12   0.000000D+00  0.000000D+00  0.000000D+00  0.000000D+00  0.000000D+00
     13   0.000000D+00  0.000000D+00  0.000000D+00  0.000000D+00  0.000000D+00
     14   0.000000D+00  0.000000D+00  0.000000D+00  0.000000D+00  0.000000D+00
     15   0.193847D+00  0.000000D+00  0.000000D+00  0.000000D+00  0.000000D+00
     16   0.000000D+00  0.210424D+00  0.000000D+00  0.000000D+00  0.000000D+00
     17   0.000000D+00  0.000000D+00  0.210424D+00  0.000000D+00  0.000000D+00
     18   0.000000D+00  0.000000D+00  0.000000D+00  0.210424D+00  0.000000D+00
     19   0.110985D-03  0.000000D+00  0.000000D+00 -0.312444D-03  0.241562D-02
     20   0.502428D-01  0.000000D+00  0.000000D+00 -0.579063D-01  0.634353D-01
     21   0.000000D+00  0.184009D-01  0.000000D+00  0.000000D+00  0.000000D+00
     22   0.000000D+00  0.000000D+00  0.184009D-01  0.000000D+00  0.000000D+00
     23   0.850501D-01  0.000000D+00  0.000000D+00 -0.901221D-01  0.884535D-01
                11            12            13            14            15 
      1   0.000000D+00  0.000000D+00  0.000000D+00  0.000000D+00 -0.362126D-03
      2   0.000000D+00  0.000000D+00  0.000000D+00  0.000000D+00  0.405708D-02
      3   0.000000D+00  0.000000D+00  0.000000D+00  0.000000D+00  0.000000D+00
      4   0.000000D+00  0.000000D+00  0.000000D+00  0.000000D+00  0.000000D+00
      5   0.000000D+00  0.000000D+00  0.000000D+00  0.000000D+00  0.000000D+00
      6   0.000000D+00  0.000000D+00  0.000000D+00  0.000000D+00  0.193847D+00
      7   0.000000D+00  0.000000D+00  0.000000D+00  0.000000D+00  0.000000D+00
      8   0.000000D+00  0.000000D+00  0.000000D+00  0.000000D+00  0.000000D+00
      9   0.000000D+00  0.000000D+00  0.000000D+00  0.000000D+00  0.000000D+00
     10   0.000000D+00  0.000000D+00  0.000000D+00  0.000000D+00  0.000000D+00
     11   0.100000D+01  0.000000D+00  0.000000D+00  0.000000D+00  0.000000D+00
     12   0.000000D+00  0.100000D+01  0.000000D+00  0.000000D+00  0.000000D+00
     13   0.000000D+00  0.000000D+00  0.100000D+01  0.000000D+00  0.000000D+00
     14   0.000000D+00  0.000000D+00  0.000000D+00  0.100000D+01  0.000000D+00
     15   0.000000D+00  0.000000D+00  0.000000D+00  0.000000D+00  0.100000D+01
     16   0.000000D+00  0.000000D+00  0.000000D+00  0.000000D+00  0.000000D+00
     17   0.000000D+00  0.000000D+00  0.000000D+00  0.000000D+00  0.000000D+00
     18   0.000000D+00  0.000000D+00  0.000000D+00  0.000000D+00  0.000000D+00
     19   0.000000D+00  0.000000D+00  0.000000D+00  0.000000D+00  0.374852D-01
     20   0.000000D+00  0.000000D+00  0.000000D+00  0.000000D+00  0.331748D+00
     21  -0.371790D-01  0.000000D+00  0.000000D+00  0.000000D+00  0.000000D+00
     22   0.000000D+00 -0.371790D-01  0.000000D+00  0.000000D+00  0.000000D+00
     23   0.000000D+00  0.000000D+00  0.000000D+00  0.000000D+00  0.141715D+00
                16            17            18            19            20 
      1   0.000000D+00  0.000000D+00  0.000000D+00  0.000000D+00  0.843011D-03
      2   0.000000D+00  0.000000D+00  0.000000D+00  0.000000D+00  0.577922D-02
      3   0.117832D-01  0.000000D+00  0.000000D+00  0.000000D+00  0.000000D+00
      4   0.000000D+00  0.117832D-01  0.000000D+00  0.000000D+00  0.000000D+00
      5   0.000000D+00  0.000000D+00  0.117832D-01  0.000000D+00 -0.279220D-02
      6   0.000000D+00  0.000000D+00  0.000000D+00  0.110985D-03  0.502428D-01
      7   0.210424D+00  0.000000D+00  0.000000D+00  0.000000D+00  0.000000D+00
      8   0.000000D+00  0.210424D+00  0.000000D+00  0.000000D+00  0.000000D+00
      9   0.000000D+00  0.000000D+00  0.210424D+00 -0.312444D-03 -0.579063D-01
     10   0.000000D+00  0.000000D+00  0.000000D+00  0.241562D-02  0.634353D-01
     11   0.000000D+00  0.000000D+00  0.000000D+00  0.000000D+00  0.000000D+00
     12   0.000000D+00  0.000000D+00  0.000000D+00  0.000000D+00  0.000000D+00
     13   0.000000D+00  0.000000D+00  0.000000D+00  0.000000D+00  0.000000D+00
     14   0.000000D+00  0.000000D+00  0.000000D+00  0.000000D+00  0.000000D+00
     15   0.000000D+00  0.000000D+00  0.000000D+00  0.374852D-01  0.331748D+00
     16   0.100000D+01  0.000000D+00  0.000000D+00  0.000000D+00  0.000000D+00
     17   0.000000D+00  0.100000D+01  0.000000D+00  0.000000D+00  0.000000D+00
     18   0.000000D+00  0.000000D+00  0.100000D+01 -0.653811D-01 -0.494104D+00
     19   0.000000D+00  0.000000D+00 -0.653811D-01  0.100000D+01  0.236704D+00
     20   0.000000D+00  0.000000D+00 -0.494104D+00  0.236704D+00  0.100000D+01
     21   0.176392D+00  0.000000D+00  0.000000D+00  0.000000D+00  0.000000D+00
     22   0.000000D+00  0.176392D+00  0.000000D+00  0.000000D+00  0.000000D+00
     23   0.000000D+00  0.000000D+00 -0.175367D+00  0.000000D+00  0.000000D+00
                21            22            23 
      1   0.000000D+00  0.000000D+00  0.174934D-02
      2   0.000000D+00  0.000000D+00  0.116351D-01
      3   0.847133D-03  0.000000D+00  0.000000D+00
      4   0.000000D+00  0.847133D-03  0.000000D+00
      5   0.000000D+00  0.000000D+00 -0.487904D-02
      6   0.000000D+00  0.000000D+00  0.850501D-01
      7   0.184009D-01  0.000000D+00  0.000000D+00
      8   0.000000D+00  0.184009D-01  0.000000D+00
      9   0.000000D+00  0.000000D+00 -0.901221D-01
     10   0.000000D+00  0.000000D+00  0.884535D-01
     11  -0.371790D-01  0.000000D+00  0.000000D+00
     12   0.000000D+00 -0.371790D-01  0.000000D+00
     13   0.000000D+00  0.000000D+00  0.000000D+00
     14   0.000000D+00  0.000000D+00  0.000000D+00
     15   0.000000D+00  0.000000D+00  0.141715D+00
     16   0.176392D+00  0.000000D+00  0.000000D+00
     17   0.000000D+00  0.176392D+00  0.000000D+00
     18   0.000000D+00  0.000000D+00 -0.175367D+00
     19   0.000000D+00  0.000000D+00  0.000000D+00
     20   0.000000D+00  0.000000D+00  0.000000D+00
     21   0.100000D+01  0.000000D+00  0.000000D+00
     22   0.000000D+00  0.100000D+01  0.000000D+00
     23   0.000000D+00  0.000000D+00  0.100000D+01
 Entering OneElI...
 Overlap between basis sets.
 Requested accuracy = 0.1000D-12
 PrsmSu:  NPrtUS=   1 ThrOK=F IAlg=1
 PRISM was handed 17176658250 working-precision words and   711 shell-pairs
 IPart=  0 NShTot=         711 NBatch=          85 AvBLen=         8.4
 CnvPC2: ToCart=F DoDens=F IPureD=0 IPureF=0.
 Transformed matrix in CnvPC2: 
                 1             2             3             4             5 
      1   0.999777D+00  0.397206D+00  0.000000D+00  0.000000D+00  0.000000D+00
      2   0.279641D+00  0.989856D+00  0.000000D+00  0.000000D+00  0.000000D+00
      3   0.000000D+00  0.000000D+00  0.999083D+00  0.000000D+00  0.000000D+00
      4   0.000000D+00  0.000000D+00  0.000000D+00  0.999083D+00  0.000000D+00
      5   0.000000D+00  0.000000D+00  0.000000D+00  0.000000D+00  0.999083D+00
      6   0.111670D-01  0.310378D+00  0.000000D+00  0.000000D+00  0.000000D+00
      7   0.000000D+00  0.000000D+00 -0.321258D+00  0.000000D+00  0.000000D+00
      8   0.000000D+00  0.000000D+00  0.000000D+00 -0.321258D+00  0.000000D+00
      9   0.000000D+00  0.000000D+00  0.000000D+00  0.000000D+00 -0.321258D+00
     10   0.000000D+00  0.000000D+00  0.000000D+00  0.000000D+00  0.000000D+00
     11   0.000000D+00  0.000000D+00  0.000000D+00  0.000000D+00  0.000000D+00
     12   0.000000D+00  0.000000D+00  0.000000D+00  0.000000D+00  0.000000D+00
     13   0.000000D+00  0.000000D+00  0.000000D+00  0.000000D+00  0.000000D+00
     14   0.000000D+00  0.000000D+00  0.000000D+00  0.000000D+00  0.000000D+00
     15   0.000000D+00  0.000000D+00  0.000000D+00  0.000000D+00  0.000000D+00
     16   0.000000D+00  0.000000D+00  0.000000D+00  0.000000D+00  0.000000D+00
     17   0.000000D+00  0.000000D+00  0.000000D+00  0.000000D+00  0.000000D+00
     18   0.000000D+00  0.000000D+00  0.000000D+00  0.000000D+00  0.000000D+00
     19   0.000000D+00  0.000000D+00  0.000000D+00  0.000000D+00  0.000000D+00
     20   0.000000D+00  0.000000D+00  0.000000D+00  0.000000D+00  0.000000D+00
     21   0.000000D+00  0.000000D+00  0.000000D+00  0.000000D+00  0.000000D+00
     22   0.000000D+00  0.000000D+00  0.000000D+00  0.000000D+00  0.000000D+00
     23   0.000000D+00  0.000000D+00  0.000000D+00  0.000000D+00  0.000000D+00
     24   0.000000D+00  0.000000D+00  0.000000D+00  0.000000D+00  0.000000D+00
     25   0.735832D-04  0.870758D-02  0.000000D+00  0.000000D+00  0.000000D+00
     26   0.773184D-02  0.492875D-01  0.000000D+00  0.000000D+00  0.000000D+00
     27   0.398969D-02  0.255315D-01  0.000000D+00  0.000000D+00  0.000000D+00
     28   0.167573D-02  0.107438D-01  0.000000D+00  0.000000D+00  0.000000D+00
     29   0.000000D+00  0.000000D+00 -0.706283D-01  0.000000D+00  0.000000D+00
     30   0.000000D+00  0.000000D+00  0.000000D+00 -0.706283D-01  0.000000D+00
     31   0.000000D+00  0.000000D+00  0.000000D+00  0.000000D+00 -0.706283D-01
     32   0.000000D+00  0.000000D+00  0.693838D-02  0.000000D+00  0.000000D+00
     33   0.000000D+00  0.000000D+00  0.000000D+00  0.693838D-02  0.000000D+00
     34   0.000000D+00  0.000000D+00  0.000000D+00  0.000000D+00  0.693838D-02
     35   0.000000D+00  0.000000D+00  0.126866D-02  0.000000D+00  0.000000D+00
     36   0.000000D+00  0.000000D+00  0.000000D+00  0.126866D-02  0.000000D+00
     37   0.000000D+00  0.000000D+00  0.000000D+00  0.000000D+00  0.126866D-02
     38   0.302820D+00  0.964300D+00  0.000000D+00  0.000000D+00  0.000000D+00
     39   0.190387D+00  0.807893D+00  0.000000D+00  0.000000D+00  0.000000D+00
     40   0.116722D+00  0.595683D+00  0.000000D+00  0.000000D+00  0.000000D+00
     41   0.706020D-01  0.401223D+00  0.000000D+00  0.000000D+00  0.000000D+00
     42   0.424081D-01  0.255565D+00  0.000000D+00  0.000000D+00  0.000000D+00
     43   0.253823D-01  0.157746D+00  0.000000D+00  0.000000D+00  0.000000D+00
     44   0.000000D+00  0.000000D+00  0.451327D+00  0.000000D+00  0.000000D+00
     45   0.000000D+00  0.000000D+00  0.000000D+00  0.451327D+00  0.000000D+00
     46   0.000000D+00  0.000000D+00  0.000000D+00  0.000000D+00  0.451327D+00
     47   0.000000D+00  0.000000D+00  0.293712D+00  0.000000D+00  0.000000D+00
     48   0.000000D+00  0.000000D+00  0.000000D+00  0.293712D+00  0.000000D+00
     49   0.000000D+00  0.000000D+00  0.000000D+00  0.000000D+00  0.293712D+00
     50   0.000000D+00  0.000000D+00  0.178857D+00  0.000000D+00  0.000000D+00
     51   0.000000D+00  0.000000D+00  0.000000D+00  0.178857D+00  0.000000D+00
     52   0.000000D+00  0.000000D+00  0.000000D+00  0.000000D+00  0.178857D+00
     53   0.000000D+00  0.000000D+00  0.103834D+00  0.000000D+00  0.000000D+00
     54   0.000000D+00  0.000000D+00  0.000000D+00  0.103834D+00  0.000000D+00
     55   0.000000D+00  0.000000D+00  0.000000D+00  0.000000D+00  0.103834D+00
     56   0.000000D+00  0.000000D+00  0.583626D-01  0.000000D+00  0.000000D+00
     57   0.000000D+00  0.000000D+00  0.000000D+00  0.583626D-01  0.000000D+00
     58   0.000000D+00  0.000000D+00  0.000000D+00  0.000000D+00  0.583626D-01
     59   0.000000D+00  0.000000D+00  0.321242D-01  0.000000D+00  0.000000D+00
     60   0.000000D+00  0.000000D+00  0.000000D+00  0.321242D-01  0.000000D+00
     61   0.000000D+00  0.000000D+00  0.000000D+00  0.000000D+00  0.321242D-01
     62   0.000000D+00  0.000000D+00  0.000000D+00  0.000000D+00  0.000000D+00
     63   0.000000D+00  0.000000D+00  0.000000D+00  0.000000D+00  0.000000D+00
     64   0.000000D+00  0.000000D+00  0.000000D+00  0.000000D+00  0.000000D+00
     65   0.000000D+00  0.000000D+00  0.000000D+00  0.000000D+00  0.000000D+00
     66   0.000000D+00  0.000000D+00  0.000000D+00  0.000000D+00  0.000000D+00
     67   0.000000D+00  0.000000D+00  0.000000D+00  0.000000D+00  0.000000D+00
     68   0.000000D+00  0.000000D+00  0.000000D+00  0.000000D+00  0.000000D+00
     69   0.000000D+00  0.000000D+00  0.000000D+00  0.000000D+00  0.000000D+00
     70   0.000000D+00  0.000000D+00  0.000000D+00  0.000000D+00  0.000000D+00
     71   0.000000D+00  0.000000D+00  0.000000D+00  0.000000D+00  0.000000D+00
     72   0.000000D+00  0.000000D+00  0.000000D+00  0.000000D+00  0.000000D+00
     73   0.000000D+00  0.000000D+00  0.000000D+00  0.000000D+00  0.000000D+00
     74   0.000000D+00  0.000000D+00  0.000000D+00  0.000000D+00  0.000000D+00
     75   0.000000D+00  0.000000D+00  0.000000D+00  0.000000D+00  0.000000D+00
     76   0.000000D+00  0.000000D+00  0.000000D+00  0.000000D+00  0.000000D+00
     77   0.000000D+00  0.000000D+00  0.000000D+00  0.000000D+00  0.000000D+00
     78   0.000000D+00  0.000000D+00  0.000000D+00  0.000000D+00  0.000000D+00
     79   0.000000D+00  0.000000D+00  0.000000D+00  0.000000D+00  0.000000D+00
     80   0.000000D+00  0.000000D+00  0.000000D+00  0.000000D+00  0.000000D+00
     81   0.000000D+00  0.000000D+00  0.000000D+00  0.000000D+00  0.000000D+00
     82   0.000000D+00  0.000000D+00  0.000000D+00  0.000000D+00  0.000000D+00
     83   0.000000D+00  0.000000D+00  0.000000D+00  0.000000D+00  0.000000D+00
     84   0.000000D+00  0.000000D+00  0.000000D+00  0.000000D+00  0.000000D+00
     85   0.000000D+00  0.000000D+00  0.000000D+00  0.000000D+00  0.000000D+00
     86   0.000000D+00  0.000000D+00  0.000000D+00  0.000000D+00  0.000000D+00
     87   0.000000D+00  0.000000D+00  0.000000D+00  0.000000D+00  0.000000D+00
     88   0.000000D+00  0.000000D+00  0.000000D+00  0.000000D+00  0.000000D+00
     89   0.000000D+00  0.000000D+00  0.000000D+00  0.000000D+00  0.000000D+00
     90   0.000000D+00  0.000000D+00  0.000000D+00  0.000000D+00  0.000000D+00
     91   0.000000D+00  0.000000D+00  0.000000D+00  0.000000D+00  0.000000D+00
     92   0.000000D+00  0.000000D+00  0.000000D+00  0.000000D+00  0.000000D+00
     93   0.000000D+00  0.000000D+00  0.000000D+00  0.000000D+00  0.000000D+00
     94   0.000000D+00  0.000000D+00  0.000000D+00  0.000000D+00  0.000000D+00
     95   0.000000D+00  0.000000D+00  0.000000D+00  0.000000D+00  0.000000D+00
     96   0.000000D+00  0.000000D+00  0.000000D+00  0.000000D+00  0.000000D+00
     97   0.000000D+00  0.000000D+00  0.000000D+00  0.000000D+00  0.000000D+00
     98   0.000000D+00  0.000000D+00  0.000000D+00  0.000000D+00  0.000000D+00
     99   0.000000D+00  0.000000D+00  0.000000D+00  0.000000D+00  0.000000D+00
    100   0.000000D+00  0.000000D+00  0.000000D+00  0.000000D+00  0.000000D+00
    101   0.000000D+00  0.000000D+00  0.000000D+00  0.000000D+00  0.000000D+00
    102   0.000000D+00  0.000000D+00  0.000000D+00  0.000000D+00  0.000000D+00
    103   0.000000D+00  0.000000D+00  0.000000D+00  0.000000D+00  0.000000D+00
    104   0.000000D+00  0.000000D+00  0.000000D+00  0.000000D+00  0.000000D+00
    105   0.000000D+00  0.000000D+00  0.000000D+00  0.000000D+00  0.000000D+00
    106   0.000000D+00  0.000000D+00  0.000000D+00  0.000000D+00  0.000000D+00
    107   0.000000D+00  0.000000D+00  0.000000D+00  0.000000D+00  0.000000D+00
    108   0.000000D+00  0.000000D+00  0.000000D+00  0.000000D+00  0.000000D+00
    109   0.000000D+00  0.000000D+00  0.000000D+00  0.000000D+00  0.000000D+00
    110   0.000000D+00  0.000000D+00  0.000000D+00  0.000000D+00  0.000000D+00
    111   0.000000D+00  0.000000D+00  0.000000D+00  0.000000D+00  0.000000D+00
    112   0.000000D+00  0.000000D+00  0.000000D+00  0.000000D+00  0.000000D+00
    113   0.000000D+00  0.000000D+00  0.000000D+00  0.000000D+00  0.000000D+00
    114   0.000000D+00  0.000000D+00  0.000000D+00  0.000000D+00  0.000000D+00
    115   0.000000D+00  0.000000D+00  0.000000D+00  0.000000D+00  0.000000D+00
    116   0.000000D+00  0.000000D+00  0.000000D+00  0.000000D+00  0.000000D+00
    117   0.000000D+00  0.000000D+00  0.000000D+00  0.000000D+00  0.000000D+00
    118   0.000000D+00  0.000000D+00  0.000000D+00  0.000000D+00  0.000000D+00
    119   0.000000D+00  0.000000D+00  0.000000D+00  0.000000D+00  0.000000D+00
    120   0.000000D+00  0.000000D+00  0.000000D+00  0.000000D+00  0.000000D+00
    121   0.000000D+00  0.000000D+00  0.000000D+00  0.000000D+00  0.000000D+00
    122   0.000000D+00  0.000000D+00  0.000000D+00  0.000000D+00  0.000000D+00
    123   0.000000D+00  0.000000D+00  0.000000D+00  0.000000D+00  0.000000D+00
    124   0.000000D+00  0.000000D+00  0.000000D+00  0.000000D+00  0.000000D+00
    125   0.000000D+00  0.000000D+00  0.000000D+00  0.000000D+00  0.000000D+00
    126   0.000000D+00  0.000000D+00  0.000000D+00  0.000000D+00  0.000000D+00
    127   0.000000D+00  0.000000D+00  0.000000D+00  0.000000D+00  0.000000D+00
    128   0.000000D+00  0.000000D+00  0.000000D+00  0.000000D+00  0.000000D+00
    129   0.000000D+00  0.000000D+00  0.000000D+00  0.000000D+00  0.000000D+00
    130   0.000000D+00  0.000000D+00  0.000000D+00  0.000000D+00  0.000000D+00
    131   0.000000D+00  0.000000D+00  0.000000D+00  0.000000D+00  0.000000D+00
    132   0.000000D+00  0.000000D+00  0.000000D+00  0.000000D+00  0.000000D+00
    133   0.000000D+00  0.000000D+00  0.000000D+00  0.000000D+00  0.000000D+00
    134   0.000000D+00  0.000000D+00  0.000000D+00  0.000000D+00  0.000000D+00
    135   0.000000D+00  0.000000D+00  0.000000D+00  0.000000D+00  0.000000D+00
    136   0.000000D+00  0.000000D+00  0.000000D+00  0.000000D+00  0.000000D+00
    137   0.000000D+00  0.000000D+00  0.000000D+00  0.000000D+00  0.000000D+00
    138   0.000000D+00  0.000000D+00  0.000000D+00  0.000000D+00  0.000000D+00
    139   0.000000D+00  0.000000D+00  0.000000D+00  0.000000D+00  0.000000D+00
    140   0.000000D+00  0.000000D+00  0.000000D+00  0.000000D+00  0.000000D+00
    141   0.000000D+00  0.000000D+00  0.000000D+00  0.000000D+00  0.000000D+00
    142   0.000000D+00  0.000000D+00  0.000000D+00  0.000000D+00  0.000000D+00
    143   0.000000D+00  0.000000D+00  0.000000D+00  0.000000D+00  0.000000D+00
    144   0.000000D+00  0.000000D+00  0.000000D+00  0.000000D+00  0.000000D+00
    145   0.000000D+00  0.000000D+00  0.000000D+00  0.000000D+00  0.000000D+00
    146   0.000000D+00  0.000000D+00  0.000000D+00  0.000000D+00  0.000000D+00
    147   0.000000D+00  0.000000D+00  0.000000D+00  0.000000D+00  0.000000D+00
    148   0.000000D+00  0.000000D+00  0.000000D+00  0.000000D+00  0.000000D+00
    149   0.000000D+00  0.000000D+00  0.000000D+00  0.000000D+00  0.000000D+00
    150   0.000000D+00  0.000000D+00  0.000000D+00  0.000000D+00  0.000000D+00
    151   0.000000D+00  0.000000D+00  0.000000D+00  0.000000D+00  0.000000D+00
    152   0.000000D+00  0.000000D+00  0.000000D+00  0.000000D+00  0.000000D+00
    153   0.000000D+00  0.000000D+00  0.000000D+00  0.000000D+00  0.000000D+00
    154   0.000000D+00  0.000000D+00  0.000000D+00  0.000000D+00  0.000000D+00
    155   0.000000D+00  0.000000D+00  0.000000D+00  0.000000D+00  0.000000D+00
    156   0.000000D+00  0.000000D+00  0.000000D+00  0.000000D+00  0.000000D+00
    157   0.000000D+00  0.000000D+00  0.000000D+00  0.000000D+00  0.000000D+00
    158   0.000000D+00  0.000000D+00  0.000000D+00  0.000000D+00  0.000000D+00
    159   0.000000D+00  0.000000D+00  0.000000D+00  0.000000D+00  0.000000D+00
    160   0.000000D+00  0.000000D+00  0.000000D+00  0.000000D+00  0.000000D+00
    161   0.000000D+00  0.000000D+00  0.000000D+00  0.000000D+00  0.000000D+00
    162   0.000000D+00  0.000000D+00  0.000000D+00  0.000000D+00  0.000000D+00
    163   0.000000D+00  0.000000D+00  0.000000D+00  0.000000D+00  0.000000D+00
    164   0.000000D+00  0.000000D+00  0.000000D+00  0.000000D+00  0.000000D+00
    165   0.000000D+00  0.000000D+00  0.000000D+00  0.000000D+00  0.000000D+00
    166   0.000000D+00  0.000000D+00  0.000000D+00  0.000000D+00  0.000000D+00
    167   0.000000D+00  0.000000D+00  0.000000D+00  0.000000D+00  0.000000D+00
    168   0.000000D+00  0.000000D+00  0.000000D+00  0.000000D+00  0.000000D+00
    169   0.000000D+00  0.000000D+00  0.000000D+00  0.000000D+00  0.000000D+00
    170   0.000000D+00  0.000000D+00  0.000000D+00  0.000000D+00  0.000000D+00
    171   0.000000D+00  0.000000D+00  0.000000D+00  0.000000D+00  0.000000D+00
    172   0.000000D+00  0.000000D+00  0.000000D+00  0.000000D+00  0.000000D+00
    173   0.000000D+00  0.000000D+00  0.000000D+00  0.000000D+00  0.000000D+00
    174   0.000000D+00  0.000000D+00  0.000000D+00  0.000000D+00  0.000000D+00
    175   0.000000D+00  0.000000D+00  0.000000D+00  0.000000D+00  0.000000D+00
    176   0.000000D+00  0.000000D+00  0.000000D+00  0.000000D+00  0.000000D+00
    177   0.000000D+00  0.000000D+00  0.000000D+00  0.000000D+00  0.000000D+00
    178   0.000000D+00  0.000000D+00  0.000000D+00  0.000000D+00  0.000000D+00
    179   0.000000D+00  0.000000D+00  0.000000D+00  0.000000D+00  0.000000D+00
    180   0.000000D+00  0.000000D+00  0.000000D+00  0.000000D+00  0.000000D+00
    181   0.000000D+00  0.000000D+00  0.000000D+00  0.000000D+00  0.000000D+00
    182   0.000000D+00  0.000000D+00  0.000000D+00  0.000000D+00  0.000000D+00
    183   0.000000D+00  0.000000D+00  0.000000D+00  0.000000D+00  0.000000D+00
    184   0.000000D+00  0.000000D+00  0.000000D+00  0.000000D+00  0.000000D+00
    185   0.000000D+00  0.000000D+00  0.000000D+00  0.000000D+00  0.000000D+00
    186   0.000000D+00  0.000000D+00  0.000000D+00  0.000000D+00  0.000000D+00
    187   0.000000D+00  0.000000D+00  0.000000D+00  0.000000D+00  0.000000D+00
    188   0.000000D+00  0.000000D+00  0.000000D+00  0.000000D+00  0.000000D+00
    189   0.000000D+00  0.000000D+00  0.000000D+00  0.000000D+00  0.000000D+00
    190   0.000000D+00  0.000000D+00  0.000000D+00  0.000000D+00  0.000000D+00
    191   0.000000D+00  0.000000D+00  0.000000D+00  0.000000D+00  0.000000D+00
    192   0.000000D+00  0.000000D+00  0.000000D+00  0.000000D+00  0.000000D+00
    193   0.000000D+00  0.000000D+00  0.000000D+00  0.000000D+00  0.000000D+00
    194   0.000000D+00  0.000000D+00  0.000000D+00  0.000000D+00  0.000000D+00
    195   0.000000D+00  0.000000D+00  0.000000D+00  0.000000D+00  0.000000D+00
    196   0.000000D+00  0.000000D+00  0.000000D+00  0.000000D+00  0.000000D+00
    197   0.000000D+00  0.000000D+00  0.000000D+00  0.000000D+00  0.000000D+00
    198   0.000000D+00  0.000000D+00  0.000000D+00  0.000000D+00  0.000000D+00
    199   0.000000D+00  0.000000D+00  0.000000D+00  0.000000D+00  0.000000D+00
    200   0.000000D+00  0.000000D+00  0.000000D+00  0.000000D+00  0.000000D+00
    201   0.000000D+00  0.000000D+00  0.000000D+00  0.000000D+00  0.000000D+00
    202   0.000000D+00  0.000000D+00  0.000000D+00  0.000000D+00  0.000000D+00
    203   0.000000D+00  0.000000D+00  0.000000D+00  0.000000D+00  0.000000D+00
    204   0.000000D+00  0.000000D+00  0.000000D+00  0.000000D+00  0.000000D+00
    205   0.000000D+00  0.000000D+00  0.000000D+00  0.000000D+00  0.000000D+00
    206   0.000000D+00  0.000000D+00  0.000000D+00  0.000000D+00  0.000000D+00
    207   0.000000D+00  0.000000D+00  0.000000D+00  0.000000D+00  0.000000D+00
    208   0.000000D+00  0.000000D+00  0.000000D+00  0.000000D+00  0.000000D+00
    209   0.000000D+00  0.000000D+00  0.000000D+00  0.000000D+00  0.000000D+00
    210   0.000000D+00  0.000000D+00  0.000000D+00  0.000000D+00  0.000000D+00
    211   0.000000D+00  0.000000D+00  0.000000D+00  0.000000D+00  0.000000D+00
    212   0.000000D+00  0.000000D+00  0.000000D+00  0.000000D+00  0.000000D+00
    213   0.000000D+00  0.000000D+00  0.000000D+00  0.000000D+00  0.000000D+00
    214   0.000000D+00  0.000000D+00  0.000000D+00  0.000000D+00  0.000000D+00
    215   0.000000D+00  0.000000D+00  0.000000D+00  0.000000D+00  0.000000D+00
    216   0.000000D+00  0.000000D+00  0.000000D+00  0.000000D+00  0.000000D+00
    217   0.000000D+00  0.000000D+00  0.000000D+00  0.000000D+00  0.000000D+00
    218   0.000000D+00  0.000000D+00  0.000000D+00  0.000000D+00  0.000000D+00
    219   0.000000D+00  0.000000D+00  0.000000D+00  0.000000D+00  0.000000D+00
    220   0.000000D+00  0.000000D+00  0.000000D+00  0.000000D+00  0.000000D+00
    221   0.000000D+00  0.000000D+00  0.000000D+00  0.000000D+00  0.000000D+00
    222   0.000000D+00  0.000000D+00  0.000000D+00  0.000000D+00  0.000000D+00
    223   0.000000D+00  0.000000D+00  0.000000D+00  0.000000D+00  0.000000D+00
    224   0.000000D+00  0.000000D+00  0.000000D+00  0.000000D+00  0.000000D+00
    225   0.000000D+00  0.000000D+00  0.000000D+00  0.000000D+00  0.000000D+00
    226   0.000000D+00  0.000000D+00  0.000000D+00  0.000000D+00  0.000000D+00
    227   0.000000D+00  0.000000D+00  0.000000D+00  0.000000D+00  0.000000D+00
    228   0.000000D+00  0.000000D+00  0.000000D+00  0.000000D+00  0.000000D+00
    229   0.000000D+00  0.000000D+00  0.000000D+00  0.000000D+00  0.000000D+00
    230   0.000000D+00  0.000000D+00  0.000000D+00  0.000000D+00  0.000000D+00
    231   0.000000D+00  0.000000D+00  0.000000D+00  0.000000D+00  0.000000D+00
    232   0.000000D+00  0.000000D+00  0.000000D+00  0.000000D+00  0.000000D+00
    233   0.000000D+00  0.000000D+00  0.000000D+00  0.000000D+00  0.000000D+00
    234   0.000000D+00  0.000000D+00  0.000000D+00  0.000000D+00  0.000000D+00
    235   0.000000D+00  0.000000D+00  0.000000D+00  0.000000D+00  0.000000D+00
    236   0.000000D+00  0.000000D+00  0.000000D+00  0.000000D+00  0.000000D+00
    237   0.000000D+00  0.000000D+00  0.000000D+00  0.000000D+00  0.000000D+00
    238   0.000000D+00  0.000000D+00  0.000000D+00  0.000000D+00  0.000000D+00
    239   0.000000D+00  0.000000D+00  0.000000D+00  0.000000D+00  0.000000D+00
    240   0.000000D+00  0.000000D+00  0.000000D+00  0.000000D+00  0.000000D+00
    241   0.000000D+00  0.000000D+00  0.000000D+00  0.000000D+00  0.000000D+00
    242   0.000000D+00  0.000000D+00  0.000000D+00  0.000000D+00  0.000000D+00
    243   0.000000D+00  0.000000D+00  0.000000D+00  0.000000D+00  0.000000D+00
    244   0.000000D+00  0.000000D+00  0.000000D+00  0.000000D+00  0.000000D+00
    245   0.000000D+00  0.000000D+00  0.000000D+00  0.000000D+00  0.000000D+00
    246   0.000000D+00  0.000000D+00  0.000000D+00  0.000000D+00  0.000000D+00
    247   0.000000D+00  0.000000D+00  0.000000D+00  0.000000D+00  0.000000D+00
    248   0.000000D+00  0.000000D+00  0.000000D+00  0.000000D+00  0.000000D+00
    249   0.000000D+00  0.000000D+00  0.000000D+00  0.000000D+00  0.000000D+00
    250   0.000000D+00  0.000000D+00  0.000000D+00  0.000000D+00  0.000000D+00
    251   0.000000D+00  0.000000D+00  0.000000D+00  0.000000D+00  0.000000D+00
    252   0.000000D+00  0.000000D+00  0.000000D+00  0.000000D+00  0.000000D+00
    253   0.000000D+00  0.000000D+00  0.000000D+00  0.000000D+00  0.000000D+00
    254   0.000000D+00  0.000000D+00  0.000000D+00  0.000000D+00  0.000000D+00
    255   0.000000D+00  0.000000D+00  0.000000D+00  0.000000D+00  0.000000D+00
    256   0.000000D+00  0.000000D+00  0.000000D+00  0.000000D+00  0.000000D+00
    257   0.000000D+00  0.000000D+00  0.000000D+00  0.000000D+00  0.000000D+00
    258   0.000000D+00  0.000000D+00  0.000000D+00  0.000000D+00  0.000000D+00
    259   0.000000D+00  0.000000D+00  0.000000D+00  0.000000D+00  0.000000D+00
    260   0.000000D+00  0.000000D+00  0.000000D+00  0.000000D+00  0.000000D+00
    261   0.000000D+00  0.000000D+00  0.000000D+00  0.000000D+00  0.000000D+00
    262   0.000000D+00  0.000000D+00  0.000000D+00  0.000000D+00  0.000000D+00
    263   0.000000D+00  0.000000D+00  0.000000D+00  0.000000D+00  0.000000D+00
    264   0.000000D+00  0.000000D+00  0.000000D+00  0.000000D+00  0.000000D+00
    265   0.000000D+00  0.000000D+00  0.000000D+00  0.000000D+00  0.000000D+00
    266   0.000000D+00  0.000000D+00  0.000000D+00  0.000000D+00  0.000000D+00
    267   0.000000D+00  0.000000D+00  0.000000D+00  0.000000D+00  0.000000D+00
    268   0.000000D+00  0.000000D+00  0.000000D+00  0.000000D+00  0.000000D+00
    269   0.000000D+00  0.000000D+00  0.000000D+00  0.000000D+00  0.000000D+00
    270   0.000000D+00  0.000000D+00  0.000000D+00  0.000000D+00  0.000000D+00
    271   0.000000D+00  0.000000D+00  0.000000D+00  0.000000D+00  0.000000D+00
    272   0.000000D+00  0.000000D+00  0.000000D+00  0.000000D+00  0.000000D+00
    273   0.000000D+00  0.000000D+00  0.000000D+00  0.000000D+00  0.000000D+00
    274   0.000000D+00  0.000000D+00  0.000000D+00  0.000000D+00  0.000000D+00
    275   0.000000D+00  0.000000D+00  0.000000D+00  0.000000D+00  0.000000D+00
    276   0.000000D+00  0.000000D+00  0.000000D+00  0.000000D+00  0.000000D+00
    277   0.000000D+00  0.000000D+00  0.000000D+00  0.000000D+00  0.000000D+00
    278   0.000000D+00  0.000000D+00  0.000000D+00  0.000000D+00  0.000000D+00
    279   0.000000D+00  0.000000D+00  0.000000D+00  0.000000D+00  0.000000D+00
    280   0.000000D+00  0.000000D+00  0.000000D+00  0.000000D+00  0.000000D+00
    281   0.000000D+00  0.000000D+00  0.000000D+00  0.000000D+00  0.000000D+00
    282   0.000000D+00  0.000000D+00  0.000000D+00  0.000000D+00  0.000000D+00
    283   0.000000D+00  0.000000D+00  0.000000D+00  0.000000D+00  0.000000D+00
    284   0.000000D+00  0.000000D+00  0.000000D+00  0.000000D+00  0.000000D+00
    285   0.000000D+00  0.000000D+00  0.000000D+00  0.000000D+00  0.000000D+00
    286   0.000000D+00  0.000000D+00  0.000000D+00  0.000000D+00  0.000000D+00
    287   0.000000D+00  0.000000D+00  0.000000D+00  0.000000D+00  0.000000D+00
    288   0.000000D+00  0.000000D+00  0.000000D+00  0.000000D+00  0.000000D+00
    289   0.000000D+00  0.000000D+00  0.000000D+00  0.000000D+00  0.000000D+00
    290   0.000000D+00  0.000000D+00  0.000000D+00  0.000000D+00  0.000000D+00
    291   0.000000D+00  0.000000D+00  0.000000D+00  0.000000D+00  0.000000D+00
    292   0.000000D+00  0.000000D+00  0.000000D+00  0.000000D+00  0.000000D+00
    293   0.000000D+00  0.000000D+00  0.000000D+00  0.000000D+00  0.000000D+00
    294   0.000000D+00  0.000000D+00  0.000000D+00  0.000000D+00  0.000000D+00
    295   0.000000D+00  0.000000D+00  0.000000D+00  0.000000D+00  0.000000D+00
    296   0.000000D+00  0.000000D+00  0.000000D+00  0.000000D+00  0.000000D+00
    297   0.000000D+00  0.000000D+00  0.000000D+00  0.000000D+00  0.000000D+00
    298   0.000000D+00  0.000000D+00  0.000000D+00  0.000000D+00  0.000000D+00
    299   0.000000D+00  0.000000D+00  0.000000D+00  0.000000D+00  0.000000D+00
    300   0.000000D+00  0.000000D+00  0.000000D+00  0.000000D+00  0.000000D+00
    301   0.000000D+00  0.000000D+00  0.000000D+00  0.000000D+00  0.000000D+00
    302   0.000000D+00  0.000000D+00  0.000000D+00  0.000000D+00  0.000000D+00
    303   0.000000D+00  0.000000D+00  0.000000D+00  0.000000D+00  0.000000D+00
    304   0.000000D+00  0.000000D+00  0.000000D+00  0.000000D+00  0.000000D+00
    305   0.000000D+00  0.000000D+00  0.000000D+00  0.000000D+00  0.000000D+00
    306   0.000000D+00  0.000000D+00  0.000000D+00  0.000000D+00  0.000000D+00
    307   0.000000D+00  0.000000D+00  0.000000D+00  0.000000D+00  0.000000D+00
    308   0.000000D+00  0.000000D+00  0.000000D+00  0.000000D+00  0.000000D+00
    309   0.000000D+00  0.000000D+00  0.000000D+00  0.000000D+00  0.000000D+00
    310   0.000000D+00  0.000000D+00  0.000000D+00  0.000000D+00  0.000000D+00
    311   0.000000D+00  0.000000D+00  0.000000D+00  0.000000D+00  0.000000D+00
    312   0.000000D+00  0.000000D+00  0.000000D+00  0.000000D+00  0.000000D+00
    313   0.000000D+00  0.000000D+00  0.000000D+00  0.000000D+00  0.000000D+00
    314   0.000000D+00  0.000000D+00  0.000000D+00  0.000000D+00  0.000000D+00
    315   0.000000D+00  0.000000D+00  0.000000D+00  0.000000D+00  0.000000D+00
    316   0.000000D+00  0.000000D+00  0.000000D+00  0.000000D+00  0.000000D+00
    317   0.000000D+00  0.000000D+00  0.000000D+00  0.000000D+00  0.000000D+00
    318   0.000000D+00  0.000000D+00  0.000000D+00  0.000000D+00  0.000000D+00
    319   0.000000D+00  0.000000D+00  0.000000D+00  0.000000D+00  0.000000D+00
    320   0.000000D+00  0.000000D+00  0.000000D+00  0.000000D+00  0.000000D+00
    321   0.000000D+00  0.000000D+00  0.000000D+00  0.000000D+00  0.000000D+00
    322   0.000000D+00  0.000000D+00  0.000000D+00  0.000000D+00  0.000000D+00
    323   0.000000D+00  0.000000D+00  0.000000D+00  0.000000D+00  0.000000D+00
    324   0.000000D+00  0.000000D+00  0.000000D+00  0.000000D+00  0.000000D+00
    325   0.000000D+00  0.000000D+00  0.000000D+00  0.000000D+00  0.000000D+00
    326   0.000000D+00  0.000000D+00  0.000000D+00  0.000000D+00  0.000000D+00
    327   0.000000D+00  0.000000D+00  0.000000D+00  0.000000D+00  0.000000D+00
    328   0.000000D+00  0.000000D+00  0.000000D+00  0.000000D+00  0.000000D+00
    329   0.000000D+00  0.000000D+00  0.000000D+00  0.000000D+00  0.000000D+00
    330   0.000000D+00  0.000000D+00  0.000000D+00  0.000000D+00  0.000000D+00
    331   0.000000D+00  0.000000D+00  0.000000D+00  0.000000D+00  0.000000D+00
    332   0.000000D+00  0.000000D+00  0.000000D+00  0.000000D+00  0.000000D+00
    333   0.000000D+00  0.000000D+00  0.000000D+00  0.000000D+00  0.000000D+00
    334   0.000000D+00  0.000000D+00  0.000000D+00  0.000000D+00  0.000000D+00
    335   0.000000D+00  0.000000D+00  0.000000D+00  0.000000D+00  0.000000D+00
    336   0.000000D+00  0.000000D+00  0.000000D+00  0.000000D+00  0.000000D+00
    337   0.000000D+00  0.000000D+00  0.000000D+00  0.000000D+00  0.000000D+00
    338   0.000000D+00  0.000000D+00  0.000000D+00  0.000000D+00  0.000000D+00
    339   0.000000D+00  0.000000D+00  0.000000D+00  0.000000D+00  0.000000D+00
    340   0.000000D+00  0.000000D+00  0.000000D+00  0.000000D+00  0.000000D+00
    341   0.000000D+00  0.000000D+00  0.000000D+00  0.000000D+00  0.000000D+00
    342   0.000000D+00  0.000000D+00  0.000000D+00  0.000000D+00  0.000000D+00
    343   0.000000D+00  0.000000D+00  0.000000D+00  0.000000D+00  0.000000D+00
    344   0.000000D+00  0.000000D+00  0.000000D+00  0.000000D+00  0.000000D+00
    345   0.000000D+00  0.000000D+00  0.000000D+00  0.000000D+00  0.000000D+00
    346   0.000000D+00  0.000000D+00  0.000000D+00  0.000000D+00  0.000000D+00
    347   0.000000D+00  0.000000D+00  0.000000D+00  0.000000D+00  0.000000D+00
    348   0.000000D+00  0.000000D+00  0.000000D+00  0.000000D+00  0.000000D+00
    349   0.000000D+00  0.000000D+00  0.000000D+00  0.000000D+00  0.000000D+00
    350   0.000000D+00  0.000000D+00  0.000000D+00  0.000000D+00  0.000000D+00
    351   0.000000D+00  0.000000D+00  0.000000D+00  0.000000D+00  0.000000D+00
    352   0.000000D+00  0.000000D+00  0.000000D+00  0.000000D+00  0.000000D+00
    353   0.000000D+00  0.000000D+00  0.000000D+00  0.000000D+00  0.000000D+00
    354   0.000000D+00  0.000000D+00  0.000000D+00  0.000000D+00  0.000000D+00
    355   0.000000D+00  0.000000D+00  0.000000D+00  0.000000D+00  0.000000D+00
    356   0.000000D+00  0.000000D+00  0.000000D+00  0.000000D+00  0.000000D+00
    357   0.000000D+00  0.000000D+00  0.000000D+00  0.000000D+00  0.000000D+00
    358   0.000000D+00  0.000000D+00  0.000000D+00  0.000000D+00  0.000000D+00
    359   0.000000D+00  0.000000D+00  0.000000D+00  0.000000D+00  0.000000D+00
    360   0.000000D+00  0.000000D+00  0.000000D+00  0.000000D+00  0.000000D+00
    361   0.000000D+00  0.000000D+00  0.000000D+00  0.000000D+00  0.000000D+00
    362   0.000000D+00  0.000000D+00  0.000000D+00  0.000000D+00  0.000000D+00
    363   0.000000D+00  0.000000D+00  0.000000D+00  0.000000D+00  0.000000D+00
    364   0.000000D+00  0.000000D+00  0.000000D+00  0.000000D+00  0.000000D+00
    365   0.117041D-02  0.778098D-02  0.000000D+00  0.000000D+00 -0.272522D-02
    366   0.533829D-02  0.340747D-01  0.000000D+00  0.000000D+00 -0.259849D-02
    367   0.000000D+00  0.000000D+00  0.162458D-02  0.000000D+00  0.000000D+00
    368   0.000000D+00  0.000000D+00  0.000000D+00  0.162458D-02  0.000000D+00
    369   0.343021D-02  0.222629D-01  0.000000D+00  0.000000D+00 -0.592967D-02
    370   0.000000D+00  0.000000D+00  0.280543D-02  0.000000D+00  0.000000D+00
    371   0.000000D+00  0.000000D+00  0.000000D+00  0.280543D-02  0.000000D+00
    372   0.603055D-02  0.383738D-01  0.000000D+00  0.000000D+00  0.656866D-03
    373   0.000000D+00  0.000000D+00  0.000000D+00  0.000000D+00  0.000000D+00
    374   0.000000D+00  0.000000D+00  0.000000D+00  0.000000D+00  0.000000D+00
    375   0.422818D-05  0.593608D-04  0.000000D+00  0.000000D+00 -0.734064D-04
    376   0.313040D-03  0.239403D-02  0.000000D+00  0.000000D+00 -0.166118D-02
    377   0.224345D-02  0.148011D-01  0.000000D+00  0.000000D+00 -0.544629D-02
    378   0.480939D-02  0.307826D-01  0.000000D+00  0.000000D+00 -0.586997D-02
    379   0.000000D+00  0.000000D+00  0.000000D+00  0.000000D+00  0.000000D+00
    380   0.000000D+00  0.000000D+00  0.000000D+00  0.000000D+00  0.000000D+00
    381   0.000000D+00  0.000000D+00  0.000000D+00  0.000000D+00  0.000000D+00
    382   0.000000D+00  0.000000D+00  0.000000D+00  0.000000D+00  0.000000D+00
    383   0.000000D+00  0.000000D+00  0.000000D+00  0.000000D+00  0.000000D+00
    384   0.000000D+00  0.000000D+00  0.000000D+00  0.000000D+00  0.000000D+00
    385   0.000000D+00  0.000000D+00  0.151743D-04  0.000000D+00  0.000000D+00
    386   0.000000D+00  0.000000D+00  0.000000D+00  0.151743D-04  0.000000D+00
    387   0.157292D-04  0.219601D-03  0.000000D+00  0.000000D+00 -0.271226D-03
    388   0.000000D+00  0.000000D+00  0.885456D-03  0.000000D+00  0.000000D+00
    389   0.000000D+00  0.000000D+00  0.000000D+00  0.885456D-03  0.000000D+00
    390   0.171683D-02  0.122356D-01  0.000000D+00  0.000000D+00 -0.722425D-02
    391   0.000000D+00  0.000000D+00  0.406006D-02  0.000000D+00  0.000000D+00
    392   0.000000D+00  0.000000D+00  0.000000D+00  0.406006D-02  0.000000D+00
    393   0.872126D-02  0.555385D-01  0.000000D+00  0.000000D+00 -0.133304D-01
    394   0.000000D+00  0.000000D+00  0.496765D-02  0.000000D+00  0.000000D+00
    395   0.000000D+00  0.000000D+00  0.000000D+00  0.496765D-02  0.000000D+00
    396   0.107470D-01  0.679036D-01  0.000000D+00  0.000000D+00 -0.483660D-02
    397   0.000000D+00  0.000000D+00  0.000000D+00  0.000000D+00  0.000000D+00
    398   0.000000D+00  0.000000D+00  0.000000D+00  0.000000D+00  0.000000D+00
    399   0.000000D+00  0.000000D+00  0.000000D+00  0.000000D+00  0.000000D+00
    400   0.000000D+00  0.000000D+00  0.000000D+00  0.000000D+00  0.000000D+00
    401   0.000000D+00  0.000000D+00  0.000000D+00  0.000000D+00  0.000000D+00
    402   0.000000D+00  0.000000D+00  0.000000D+00  0.000000D+00  0.000000D+00
    403   0.000000D+00  0.000000D+00  0.000000D+00  0.000000D+00  0.000000D+00
    404   0.000000D+00  0.000000D+00  0.000000D+00  0.000000D+00  0.000000D+00
    405   0.000000D+00  0.000000D+00  0.000000D+00  0.000000D+00  0.000000D+00
    406   0.000000D+00  0.000000D+00  0.000000D+00  0.000000D+00  0.000000D+00
    407   0.000000D+00  0.000000D+00  0.000000D+00  0.000000D+00 -0.171796D-05
    408   0.000000D+00  0.000000D+00  0.000000D+00  0.000000D+00  0.000000D+00
    409   0.000000D+00  0.000000D+00  0.000000D+00  0.000000D+00  0.000000D+00
    410   0.000000D+00  0.000000D+00  0.000000D+00  0.000000D+00  0.000000D+00
    411   0.000000D+00  0.000000D+00  0.000000D+00  0.000000D+00  0.000000D+00
    412   0.482177D-04  0.626886D-03  0.000000D+00  0.000000D+00 -0.750753D-03
    413   0.000000D+00  0.000000D+00  0.753363D-04  0.000000D+00  0.000000D+00
    414   0.000000D+00  0.000000D+00  0.000000D+00  0.753363D-04  0.000000D+00
    415   0.000000D+00  0.000000D+00  0.000000D+00  0.000000D+00  0.000000D+00
    416   0.000000D+00  0.000000D+00  0.000000D+00  0.000000D+00  0.000000D+00
    417   0.290085D-02  0.204616D-01  0.000000D+00  0.000000D+00 -0.122508D-01
    418   0.000000D+00  0.000000D+00  0.256722D-02  0.000000D+00  0.000000D+00
    419   0.000000D+00  0.000000D+00  0.000000D+00  0.256722D-02  0.000000D+00
    420   0.000000D+00  0.000000D+00  0.000000D+00  0.000000D+00  0.000000D+00
    421   0.000000D+00  0.000000D+00  0.000000D+00  0.000000D+00  0.000000D+00
    422   0.127749D-01  0.801273D-01  0.000000D+00  0.000000D+00 -0.193597D-01
    423   0.000000D+00  0.000000D+00  0.101604D-01  0.000000D+00  0.000000D+00
    424   0.000000D+00  0.000000D+00  0.000000D+00  0.101604D-01  0.000000D+00
    425   0.000000D+00  0.000000D+00  0.000000D+00  0.000000D+00  0.000000D+00
    426   0.000000D+00  0.000000D+00  0.000000D+00  0.000000D+00  0.000000D+00
    427   0.148512D-01  0.924756D-01  0.000000D+00  0.000000D+00 -0.473338D-02
    428   0.000000D+00  0.000000D+00  0.117342D-01  0.000000D+00  0.000000D+00
    429   0.000000D+00  0.000000D+00  0.000000D+00  0.117342D-01  0.000000D+00
    430   0.000000D+00  0.000000D+00  0.000000D+00  0.000000D+00  0.000000D+00
    431   0.000000D+00  0.000000D+00  0.000000D+00  0.000000D+00  0.000000D+00
    432   0.000000D+00  0.000000D+00  0.000000D+00  0.000000D+00  0.000000D+00
    433   0.000000D+00  0.000000D+00  0.000000D+00  0.000000D+00  0.000000D+00
    434   0.000000D+00  0.000000D+00  0.000000D+00  0.000000D+00  0.000000D+00
    435   0.000000D+00  0.000000D+00  0.000000D+00  0.000000D+00  0.000000D+00
    436   0.000000D+00  0.000000D+00  0.000000D+00  0.000000D+00  0.000000D+00
    437   0.000000D+00  0.000000D+00  0.000000D+00  0.000000D+00  0.000000D+00
    438   0.000000D+00  0.000000D+00  0.000000D+00  0.000000D+00  0.000000D+00
    439   0.000000D+00  0.000000D+00  0.000000D+00  0.000000D+00  0.000000D+00
    440   0.000000D+00  0.000000D+00  0.000000D+00  0.000000D+00  0.000000D+00
    441   0.000000D+00  0.000000D+00  0.000000D+00  0.000000D+00  0.000000D+00
    442   0.000000D+00  0.000000D+00  0.000000D+00  0.000000D+00  0.000000D+00
    443   0.000000D+00  0.000000D+00  0.000000D+00  0.000000D+00  0.000000D+00
    444   0.000000D+00  0.000000D+00  0.000000D+00  0.000000D+00  0.000000D+00
    445   0.000000D+00  0.000000D+00  0.000000D+00  0.000000D+00  0.000000D+00
    446   0.173883D-05  0.567660D-04  0.000000D+00  0.000000D+00 -0.917003D-04
    447   0.000000D+00  0.000000D+00  0.928874D-05  0.000000D+00  0.000000D+00
    448   0.000000D+00  0.000000D+00  0.000000D+00  0.928874D-05  0.000000D+00
    449   0.000000D+00  0.000000D+00  0.000000D+00  0.000000D+00  0.000000D+00
    450   0.000000D+00  0.000000D+00  0.000000D+00  0.000000D+00  0.000000D+00
    451   0.000000D+00  0.000000D+00  0.000000D+00  0.000000D+00  0.000000D+00
    452   0.000000D+00  0.000000D+00  0.000000D+00  0.000000D+00  0.000000D+00
    453   0.944100D-03  0.795054D-02  0.000000D+00  0.000000D+00 -0.689721D-02
    454   0.000000D+00  0.000000D+00  0.139068D-02  0.000000D+00  0.000000D+00
    455   0.000000D+00  0.000000D+00  0.000000D+00  0.139068D-02  0.000000D+00
    456   0.000000D+00  0.000000D+00  0.000000D+00  0.000000D+00  0.000000D+00
    457   0.000000D+00  0.000000D+00  0.000000D+00  0.000000D+00  0.000000D+00
    458   0.000000D+00  0.000000D+00  0.000000D+00  0.000000D+00  0.000000D+00
    459   0.000000D+00  0.000000D+00  0.000000D+00  0.000000D+00  0.000000D+00
    460   0.115085D-01  0.725273D-01  0.000000D+00  0.000000D+00 -0.266512D-01
    461   0.000000D+00  0.000000D+00  0.130010D-01  0.000000D+00  0.000000D+00
    462   0.000000D+00  0.000000D+00  0.000000D+00  0.130010D-01  0.000000D+00
    463   0.000000D+00  0.000000D+00  0.000000D+00  0.000000D+00  0.000000D+00
    464   0.000000D+00  0.000000D+00  0.000000D+00  0.000000D+00  0.000000D+00
    465   0.000000D+00  0.000000D+00  0.000000D+00  0.000000D+00  0.000000D+00
    466   0.000000D+00  0.000000D+00  0.000000D+00  0.000000D+00  0.000000D+00
    467   0.195774D-01  0.119254D+00  0.000000D+00  0.000000D+00 -0.101191D-01
    468   0.000000D+00  0.000000D+00  0.214457D-01  0.000000D+00  0.000000D+00
[...]
                                                  ----------
                         Total pair energies =    -0.567802 A.U.

                         Single Excitations  =    -0.005616 A.U.

                          Total second order =    -0.573418 A.U.

                         E2(CBS) - E2(Dir) =      -0.004435 A.U.

 E2(CBS)=      -0.575275 CBS-Int=       0.001856 OIii=       2.145066

 **********************************************************************

            Population analysis using the SCF density.

 **********************************************************************

 Orbital symmetries:
       Occupied  (SG) (SG) (SG) (PI) (PI) (SG) (SG) (PI) (PI) (SG)
                 (SG) (DLTA) (SG) (PI) (PI) (SG) (DLTA) (PI) (PI)
       Virtual   (SG) (SG) (PI) (PI) (SG) (DLTA) (DLTA) (PI) (PI)
                 (SG) (SG) (PI) (PI) (SG) (SG) (PI) (PI) (DLTA)
                 (DLTA) (PI) (PI) (SG) (SG) (SG) (PI) (PI) (SG)
                 (PI) (PI) (DLTA) (DLTA) (SG) (PHI) (PHI) (PI)
                 (PI) (DLTA) (DLTA) (SG) (DLTA) (DLTA) (PI) (PI)
                 (SG) (SG) (PI) (PI) (SG) (PI) (PI) (PHI) (PHI)
                 (SG) (?A) (?A) (SG) (DLTA) (DLTA) (DLTA) (DLTA)
                 (PI) (PI) (?B) (?B) (?B) (?B) (SG) (DLTA) (DLTA)
                 (PI) (PI) (SG) (PHI) (PHI) (DLTA) (DLTA) (SG)
                 (PI) (PI) (SG) (PI) (PI) (DLTA) (DLTA) (SG) (?A)
                 (?A) (PI) (PI) (SG) (?C) (?C) (PHI) (PHI) (SG)
                 (?A) (?A) (PI) (PI) (DLTA) (DLTA) (PI) (PI) (SG)
                 (PHI) (PHI) (SG) (PI) (PI) (DLTA) (DLTA) (PHI)
                 (PHI) (DLTA) (DLTA) (SG) (?A) (?A) (PI) (PI) (SG)
                 (DLTA) (DLTA) (SG) (PHI) (PHI) (PI) (PI) (PHI)
                 (PHI) (DLTA) (DLTA) (?C) (?C) (PI) (PI) (SG) (DLTA)
                 (?D) (?D) (DLTA) (?D) (SG) (PI) (PI) (SG) (SG)
                 (PI) (PI) (DLTA) (DLTA) (?C) (?C) (SG) (PI) (PI)
                 (PHI) (PHI) (SG) (DLTA) (DLTA) (?A) (?A) (PI)
                 (PI) (PHI) (PHI) (SG) (PI) (PI) (DLTA) (DLTA)
                 (?E) (?E) (?E) (PI) (PI) (PHI) (PHI) (DLTA) (DLTA)
                 (SG) (PI) (PI) (SG) (SG) (?A) (?A) (?C) (?C) (PHI)
                 (PHI) (SG) (?C) (?C) (SG) (PHI) (PHI) (DLTA) (DLTA)
                 (PI) (PI) (DLTA) (DLTA) (?F) (PI) (PI) (?F) (?F)
                 (DLTA) (DLTA) (SG) (?A) (?A) (PHI) (PHI) (DLTA)
                 (DLTA) (SG) (?B) (?B) (?B) (?B) (SG) (PI) (PI)
                 (SG) (?B) (?B) (?B) (?B) (?G) (?G) (?H) (?H) (?H)
                 (?H) (SG) (?I) (?I) (?I) (?I) (DLTA) (DLTA) (PI)
                 (PI) (SG) (?A) (?A) (PHI) (PHI) (?C) (?C) (SG)
                 (PI) (PI) (DLTA) (DLTA) (?A) (?A) (DLTA) (DLTA)
                 (SG) (PI) (PI) (DLTA) (DLTA) (PHI) (PHI) (SG)
                 (PI) (PI) (PI) (PI) (?A) (?A) (SG) (SG) (?C) (?C)
                 (SG) (?A) (?A) (PHI) (PHI) (PHI) (PHI) (PHI) (PHI)
                 (DLTA) (DLTA) (SG) (DLTA) (DLTA) (SG) (PI) (PI)
                 (PI) (PI) (SG) (DLTA) (DLTA) (SG) (DLTA) (DLTA)
                 (?I) (?I) (?I) (?I) (?A) (?A) (PI) (PI) (SG) (PHI)
                 (PHI) (?J) (?J) (?J) (DLTA) (DLTA) (PHI) (PHI)
                 (PI) (PI) (DLTA) (DLTA) (PHI) (PHI) (SG) (SG)
                 (SG) (?C) (?C) (PI) (PI) (?A) (?A) (PHI) (PHI)
                 (DLTA) (DLTA) (SG) (PI) (PI) (SG) (PI) (PI) (DLTA)
                 (DLTA) (SG) (PI) (PI) (SG) (SG) (?C) (?C) (?A)
                 (?A) (PHI) (PHI) (PI) (PI) (DLTA) (DLTA) (SG)
                 (SG) (SG) (?G) (?G) (?C) (?C) (?K) (?K) (?L) (?L)
                 (?K) (?K) (?L) (DLTA) (DLTA) (?K) (?K) (DLTA)
                 (DLTA) (?A) (?A) (PHI) (PHI) (PHI) (PHI) (SG)
                 (DLTA) (DLTA) (PI) (PI) (PI) (PI) (DLTA) (DLTA)
                 (SG) (SG) (DLTA) (DLTA) (SG) (PI) (PI) (?I) (?I)
                 (SG) (SG) (?I) (?I) (?A) (?A) (PHI) (PHI) (DLTA)
                 (DLTA) (SG) (PI) (PI) (SG) (SG) (SG) (?C) (?C)
                 (?G) (?G) (?A) (?A) (PHI) (PHI) (PI) (PI) (DLTA)
                 (DLTA) (SG) (?C) (?C) (?L) (?L) (?L) (?B) (?B)
                 (?A) (?A) (DLTA) (DLTA) (PHI) (PHI) (?B) (?B)
                 (SG) (DLTA) (DLTA) (PHI) (PHI) (PI) (PI) (SG)
                 (DLTA) (DLTA) (PI) (PI) (SG) (PI) (PI) (SG) (SG)
                 (SG) (?C) (?C) (?A) (?A) (PHI) (PHI) (DLTA) (DLTA)
                 (PI) (PI) (SG) (?L) (?L) (?L) (?L) (?L) (?L) (?H)
                 (?H) (?L) (?L) (?L) (?L) (?H) (?H) (?L) (?L) (?L)
                 (?C) (?C) (?A) (?A) (PHI) (PHI) (DLTA) (DLTA)
                 (PI) (PI) (SG) (PHI) (PHI) (DLTA) (DLTA) (PI)
                 (PI) (SG) (?A) (?A) (PHI) (PHI) (DLTA) (DLTA)
                 (SG) (PI) (PI) (SG) (DLTA) (DLTA) (?H) (?H) (?L)
                 (?L) (?L) (?L) (?L) (?L) (?L) (?L) (?L) (?L) (?H)
                 (?H) (?L) (?L) (?L) (SG) (DLTA) (DLTA) (PI) (PI)
                 (PI) (PI) (SG) (?L) (?C) (?C) (SG) (SG) (?L) (?L)
                 (?B) (?B) (DLTA) (DLTA) (?B) (?B) (SG) (?A) (?A)
                 (PHI) (PHI) (DLTA) (DLTA) (PI) (PI) (?L) (?C)
                 (?C) (?L) (?L) (?B) (?B) (DLTA) (DLTA) (?B) (?B)
                 (SG) (PHI) (PHI) (DLTA) (DLTA) (PI) (PI) (SG)
                 (SG) (SG)
 Unable to determine electronic state:  partially filled degenerate orbitals.
 Alpha  occ. eigenvalues -- -261.35216 -31.96953 -27.46461 -27.43908 -27.43908
 Alpha  occ. eigenvalues --  -20.42342  -4.30711  -2.96230  -2.89502  -2.89502
 Alpha  occ. eigenvalues --   -1.12932  -0.68652  -0.68652  -0.64650  -0.64600
 Alpha  occ. eigenvalues --   -0.59778  -0.35127  -0.34829  -0.34829
 Alpha virt. eigenvalues --   -0.04404   0.01042   0.01944   0.01944   0.03380
 Alpha virt. eigenvalues --    0.05844   0.05853   0.06049   0.06049   0.06066
 Alpha virt. eigenvalues --    0.07574   0.10007   0.10007   0.14540   0.18298
 Alpha virt. eigenvalues --    0.19394   0.19394   0.19965   0.20096   0.22351
 Alpha virt. eigenvalues --    0.22351   0.23007   0.24605   0.33957   0.33957
 Alpha virt. eigenvalues --    0.33996   0.44489   0.48512   0.48512   0.48746
 Alpha virt. eigenvalues --    0.48812   0.49789   0.50545   0.50545   0.54442
 Alpha virt. eigenvalues --    0.54442   0.54706   0.55208   0.61256   0.62280
 Alpha virt. eigenvalues --    0.62363   0.63646   0.63646   0.65004   0.73568
 Alpha virt. eigenvalues --    0.79409   0.79409   0.85393   0.89696   0.89696
 Alpha virt. eigenvalues --    0.97280   0.97280   0.98446   1.03197   1.03197
 Alpha virt. eigenvalues --    1.08953   1.12090   1.12236   1.16508   1.16723
 Alpha virt. eigenvalues --    1.16864   1.16864   1.17720   1.17720   1.18466
 Alpha virt. eigenvalues --    1.18466   1.19460   1.26390   1.26521   1.30820
 Alpha virt. eigenvalues --    1.30820   1.33053   1.34149   1.34149   1.38156
 Alpha virt. eigenvalues --    1.39183   1.46564   1.49434   1.49434   1.51449
 Alpha virt. eigenvalues --    1.60544   1.60544   1.68332   1.68781   1.70619
 Alpha virt. eigenvalues --    1.80419   1.80419   1.90641   1.90641   1.92287
 Alpha virt. eigenvalues --    2.00275   2.00275   2.05000   2.05000   2.09789
 Alpha virt. eigenvalues --    2.17811   2.17812   2.19023   2.19023   2.20793
 Alpha virt. eigenvalues --    2.21144   2.24476   2.24476   2.27407   2.29669
 Alpha virt. eigenvalues --    2.29669   2.37447   2.38448   2.38448   2.38570
 Alpha virt. eigenvalues --    2.38761   2.43374   2.43374   2.46636   2.46799
 Alpha virt. eigenvalues --    2.50402   2.64315   2.64318   2.68272   2.68272
 Alpha virt. eigenvalues --    2.70924   2.78751   2.78945   2.82115   2.82242
 Alpha virt. eigenvalues --    2.82242   2.87881   2.87881   2.98181   2.98181
 Alpha virt. eigenvalues --    2.99606   3.00642   3.07999   3.07999   3.16304
 Alpha virt. eigenvalues --    3.16304   3.21365   3.31402   3.32756   3.33645
 Alpha virt. eigenvalues --    3.33656   3.34066   3.47801   3.60866   3.60866
 Alpha virt. eigenvalues --    3.70215   3.70215   3.71082   3.71082   3.79039
 Alpha virt. eigenvalues --    3.80308   3.82632   3.82632   3.83227   3.84457
 Alpha virt. eigenvalues --    3.84457   3.88240   3.88240   4.00846   4.14110
 Alpha virt. eigenvalues --    4.14473   4.24115   4.24116   4.26352   4.26352
 Alpha virt. eigenvalues --    4.30159   4.30159   4.33196   4.34510   4.34510
 Alpha virt. eigenvalues --    4.36591   4.36972   4.48885   4.49551   4.49556
 Alpha virt. eigenvalues --    4.61822   4.61822   4.64951   4.64951   4.74886
 Alpha virt. eigenvalues --    4.75217   4.97383   5.03927   5.03927   5.05281
 Alpha virt. eigenvalues --    5.05281   5.05343   5.05343   5.11770   5.11770
 Alpha virt. eigenvalues --    5.13249   5.13249   5.19801   5.28112   5.28112
 Alpha virt. eigenvalues --    5.30459   5.34621   5.34621   5.35583   5.35826
 Alpha virt. eigenvalues --    5.46078   5.46078   5.51974   5.52217   5.81696
 Alpha virt. eigenvalues --    5.86652   5.86652   5.87816   5.87839   5.90031
 Alpha virt. eigenvalues --    5.91556   5.93053   6.00599   6.00601   6.08100
 Alpha virt. eigenvalues --    6.08100   6.09856   6.10477   6.21972   6.22006
 Alpha virt. eigenvalues --    6.22006   6.34356   6.34356   6.69400   6.83579
 Alpha virt. eigenvalues --    6.83579   6.95095   7.00270   7.00270   7.01894
 Alpha virt. eigenvalues --    7.01894   7.06147   7.07057   7.07057   7.07092
 Alpha virt. eigenvalues --    7.10644   7.10644   7.33396   7.39615   7.39615
 Alpha virt. eigenvalues --    7.42048   7.42048   7.46849   7.47919   7.49816
 Alpha virt. eigenvalues --    7.49816   7.53175   7.61158   7.61158   7.67176
 Alpha virt. eigenvalues --    7.67176   7.67693   7.67693   7.91934   8.01873
 Alpha virt. eigenvalues --    8.01873   8.08788   8.09403   8.25179   8.25180
 Alpha virt. eigenvalues --    8.35333   8.38072   8.42596   8.57921   8.57921
 Alpha virt. eigenvalues --    8.65142   8.65900   8.83246   8.83246   8.92018
 Alpha virt. eigenvalues --    8.96663   8.96663   9.40853   9.40853   9.59842
 Alpha virt. eigenvalues --    9.59842   9.62528   9.62528   9.66198   9.66198
 Alpha virt. eigenvalues --    9.67175   9.81510   9.81511   9.83053   9.83053
 Alpha virt. eigenvalues --   10.07611  10.07611  10.28543  10.28543  10.29525
 Alpha virt. eigenvalues --   10.29712  10.47137  10.49956  10.50811  10.58488
 Alpha virt. eigenvalues --   10.59395  10.59395  10.70472  10.70472  10.79130
 Alpha virt. eigenvalues --   10.97906  10.98066  10.99477  11.21556  11.21920
 Alpha virt. eigenvalues --   11.80715  11.80715  11.86236  11.86236  11.89259
 Alpha virt. eigenvalues --   11.89264  11.91205  11.91205  12.08734  12.43656
 Alpha virt. eigenvalues --   12.43656  12.54910  12.55176  12.56895  12.58483
 Alpha virt. eigenvalues --   12.60583  12.80353  12.80353  13.02583  13.02583
 Alpha virt. eigenvalues --   13.19394  13.21195  13.21195  13.21251  13.32477
 Alpha virt. eigenvalues --   13.42624  13.42624  13.47889  13.47889  13.49190
 Alpha virt. eigenvalues --   13.49190  13.63253  13.63253  14.02598  14.02784
 Alpha virt. eigenvalues --   14.02784  14.04255  14.28300  14.54703  14.54703
 Alpha virt. eigenvalues --   14.77044  14.95905  14.95905  15.03956  15.04764
 Alpha virt. eigenvalues --   15.18569  15.75708  15.75708  15.79582  17.19014
 Alpha virt. eigenvalues --   17.20769  17.20769  17.31799  17.31799  17.63281
 Alpha virt. eigenvalues --   17.63281  17.87094  17.87094  18.01670  18.01815
 Alpha virt. eigenvalues --   18.21074  18.69060  18.69060  18.69392  18.69392
 Alpha virt. eigenvalues --   18.75877  18.75877  18.93102  18.93102  18.95674
 Alpha virt. eigenvalues --   18.95705  19.05641  19.05641  19.17151  19.20889
 Alpha virt. eigenvalues --   19.22488  19.29791  19.29791  19.59775  19.63344
 Alpha virt. eigenvalues --   19.96135  19.96135  20.11619  20.11619  20.30131
 Alpha virt. eigenvalues --   20.30131  20.35339  20.39652  20.39811  20.80043
 Alpha virt. eigenvalues --   20.80043  20.93249  20.93249  21.00740  21.00834
 Alpha virt. eigenvalues --   21.08429  21.88170  22.33088  22.33111  22.38082
 Alpha virt. eigenvalues --   22.42008  22.42008  22.87470  22.87470  22.98596
 Alpha virt. eigenvalues --   22.98597  22.98683  22.98683  23.05041  23.05050
 Alpha virt. eigenvalues --   23.17828  23.17828  23.54669  23.56599  23.74664
 Alpha virt. eigenvalues --   24.28736  24.28736  24.47283  25.43254  25.43254
 Alpha virt. eigenvalues --   25.43428  25.43428  25.44415  25.44415  25.50550
 Alpha virt. eigenvalues --   25.50550  25.71458  25.71458  25.92930  25.92930
 Alpha virt. eigenvalues --   26.02841  26.03350  26.25689  26.40312  26.40312
 Alpha virt. eigenvalues --   26.43189  26.43236  26.49639  26.74138  26.74138
 Alpha virt. eigenvalues --   26.75072  26.75072  26.91444  26.94166  26.94277
 Alpha virt. eigenvalues --   26.94277  27.15499  27.15499  27.37372  27.50793
 Alpha virt. eigenvalues --   27.53077  28.78018  28.78018  28.94482  28.94482
 Alpha virt. eigenvalues --   29.06629  29.41492  29.44007  30.02772  30.02772
 Alpha virt. eigenvalues --   30.87917  32.94053  32.94053  34.00323  34.05728
 Alpha virt. eigenvalues --   34.05728  34.07853  34.07853  34.14380  34.14380
 Alpha virt. eigenvalues --   34.28884  34.28884  34.64343  34.64385  35.01178
 Alpha virt. eigenvalues --   35.01178  35.08438  38.57468  38.57580  38.58107
 Alpha virt. eigenvalues --   38.58107  38.58250  38.58250  38.59145  38.59164
 Alpha virt. eigenvalues --   38.60571  38.60571  38.62138  38.62139  38.65272
 Alpha virt. eigenvalues --   38.67497  38.72534  38.72534  38.75520  39.03161
 Alpha virt. eigenvalues --   39.03161  39.09835  39.09836  39.28950  39.28950
 Alpha virt. eigenvalues --   39.54398  39.54457  39.61155  39.61155  39.65134
 Alpha virt. eigenvalues --   41.73488  41.73488  42.10589  42.10597  42.59218
 Alpha virt. eigenvalues --   42.59218  42.65310  42.89442  42.89442  43.03134
 Alpha virt. eigenvalues --   43.03134  43.41806  43.41823  44.03266  44.17007
 Alpha virt. eigenvalues --   44.17007  45.03953  46.84654  46.84658  47.06269
 Alpha virt. eigenvalues --   47.06271  47.07347  47.07347  47.08205  47.08205
 Alpha virt. eigenvalues --   47.13890  47.14020  47.18051  47.18051  47.22107
 Alpha virt. eigenvalues --   47.22107  47.23619  47.26159  47.30464  47.64721
 Alpha virt. eigenvalues --   47.64721  48.35792  51.99577  52.02253  52.56185
 Alpha virt. eigenvalues --   52.56185  53.48216  53.48216  54.57516  54.93807
 Alpha virt. eigenvalues --   54.96961  54.96961  54.98636  54.98637  54.98853
 Alpha virt. eigenvalues --   54.99036  55.06122  55.06122  55.25856  55.28455
 Alpha virt. eigenvalues --   55.39904  55.39904  56.00670  59.27735  59.27736
 Alpha virt. eigenvalues --   59.35145  59.35145  59.62404  59.64678  60.23871
 Alpha virt. eigenvalues --   60.23871  60.38458  60.64942  60.64949  60.64970
 Alpha virt. eigenvalues --   60.64970  60.83776  60.83776  60.97581  61.00107
 Alpha virt. eigenvalues --   61.25003  61.25003  61.46193  65.32427  65.32427
 Alpha virt. eigenvalues --   65.69725  65.71733  66.15501  66.15501  66.82918
 Alpha virt. eigenvalues --  108.93826 708.83238
          Condensed to atoms (all electrons):
              1          2
     1  Fe  24.597009   0.300232
     2  O    0.300232   8.802527
 Mulliken atomic charges:
              1
     1  Fe   1.102759
     2  O   -1.102759
 Sum of Mulliken atomic charges =   0.00000
 Mulliken charges with hydrogens summed into heavy atoms:
              1
     1  Fe   1.102759
     2  O   -1.102759
 Sum of Mulliken charges with hydrogens summed into heavy atoms =   0.00000
          Atomic-Atomic Spin Densities.
              1          2
     1  Fe   3.891744  -0.051535
     2  O   -0.051535   0.211326
 Mulliken atomic spin densities:
              1
     1  Fe   3.840209
     2  O    0.159791
 Sum of Mulliken atomic spin densities =   4.00000
 Electronic spatial extent (au):  <R**2>=             99.6956
 Charge=              0.0000 electrons
 Dipole moment (field-independent basis, Debye):
    X=              0.0000    Y=              0.0000    Z=              8.6927  Tot=              8.6927
 Quadrupole moment (field-independent basis, Debye-Ang):
   XX=            -18.6183   YY=            -18.6183   ZZ=            -22.6176
   XY=              0.0000   XZ=              0.0000   YZ=              0.0000
 Traceless Quadrupole moment (field-independent basis, Debye-Ang):
   XX=              1.3331   YY=              1.3331   ZZ=             -2.6662
   XY=              0.0000   XZ=              0.0000   YZ=              0.0000
 Octapole moment (field-independent basis, Debye-Ang**2):
  XXX=              0.0000  YYY=              0.0000  ZZZ=             24.3871  XYY=              0.0000
  XXY=              0.0000  XXZ=              5.9213  XZZ=              0.0000  YZZ=              0.0000
  YYZ=              5.9213  XYZ=              0.0000
 Hexadecapole moment (field-independent basis, Debye-Ang**3):
 XXXX=            -20.3450 YYYY=            -20.3450 ZZZZ=            -93.2102 XXXY=              0.0000
 XXXZ=              0.0000 YYYX=              0.0000 YYYZ=              0.0000 ZZZX=              0.0000
 ZZZY=              0.0000 XXYY=             -6.5643 XXZZ=            -18.2294 YYZZ=            -18.2294
 XXYZ=              0.0000 YYXZ=              0.0000 ZZXY=              0.0000
 N-N= 6.924747366261D+01 E-N=-4.922073322189D+03  KE= 1.992241943077D+03
                          Isotropic Fermi Contact Couplings
        Atom                 a.u.       MegaHertz       Gauss      10(-4) cm-1
     1  Fe(57)             1.34329      48.70781      17.38016      16.24718
     2  O(17)              0.01095      -1.65898      -0.59196      -0.55337
 --------------------------------------------------------
       Center         ----  Spin Dipole Couplings  ----
                      3XX-RR        3YY-RR        3ZZ-RR
 --------------------------------------------------------
     1   Atom       -1.141671     -1.141671      2.283342
     2   Atom       -0.085853     -0.085853      0.171705
 --------------------------------------------------------
                        XY            XZ            YZ
 --------------------------------------------------------
     1   Atom        0.000000      0.000000      0.000000
     2   Atom        0.000000      0.000000      0.000000
 --------------------------------------------------------


 ---------------------------------------------------------------------------------
              Anisotropic Spin Dipole Couplings in Principal Axis System
 ---------------------------------------------------------------------------------

       Atom             a.u.   MegaHertz   Gauss  10(-4) cm-1        Axes

              Baa    -1.1417   -19.766    -7.053    -6.593  0.0000  1.0000  0.0000
     1 Fe(57) Bbb    -1.1417   -19.766    -7.053    -6.593  1.0000  0.0000  0.0000
              Bcc     2.2833    39.531    14.106    13.186  0.0000  0.0000  1.0000
 
              Baa    -0.0859     6.212     2.217     2.072  0.0000  1.0000  0.0000
     2 O(17)  Bbb    -0.0859     6.212     2.217     2.072  1.0000  0.0000  0.0000
              Bcc     0.1717   -12.424    -4.433    -4.144  0.0000  0.0000  1.0000
 

 ---------------------------------------------------------------------------------


 Test job not archived.
 1\1\GINC-N36\SP\ROMP2-FC\Gen\Fe1O1(5)\GPETERSSON\19-Dec-2013\0\\# ROMP
 2 Gen GFinput Int=NoBasisTransform Int(Grid=Ultrafine) IOp(3/32=2,5/6=
 10,8/11=1,9/33=1) Maxdisk=128GB CBSextrapolate(Nmin=25,MinPop) Guess=R
 ead\\FeO 5Delta\\0,5\Fe\O,1,1.5895\\Version=EM64L-G09RevA.02\HF=-1337.
 2350937\MP2=-1337.8059336\E2(CBS)=-0.5752747\CBS-Int=-0.5734183\OIii=2
 .1450656\RMSD=7.685e-12\PG=C*V [C*(O1Fe1)]\\@


 LIFE CAN ONLY BE UNDERSTOOD BACKWARD, BUT MUST
 BE LIVED FORWARD. -- KIRKEGAARD
 Job cpu time:  8 days  9 hours 13 minutes 35.0 seconds.
 File lengths (MBytes):  RWF=  69409 Int=      0 D2E=      0 Chk=     38 Scr=      1
 Normal termination of Gaussian 09 at Thu Dec 19 07:35:58 2013.
