 Entering Gaussian System, Link 0=gdv
 Initial command:
 /share/apps/gaussian/gdvh12/gdv/l1.exe /localscratch/22065/Gau-19321.inp -scrdir=/localscratch/22065/
 Entering Link 1 = /share/apps/gaussian/gdvh12/gdv/l1.exe PID=     19322.
  
 Copyright (c) 1988,1990,1992,1993,1995,1998,2003,2009,2011,
            Gaussian, Inc.  All Rights Reserved.
  
 This is the private, development version of
 the Gaussian(R) DV system of programs. It is based on
 the Gaussian(R) 09 system (copyright 2009, Gaussian, Inc.),
 the Gaussian(R) 03 system (copyright 2003, Gaussian, Inc.),
 the Gaussian(R) 98 system (copyright 1998, Gaussian, Inc.),
 the Gaussian(R) 94 system (copyright 1995, Gaussian, Inc.),
 the Gaussian 92(TM) system (copyright 1992, Gaussian, Inc.),
 the Gaussian 90(TM) system (copyright 1990, Gaussian, Inc.),
 the Gaussian 88(TM) system (copyright 1988, Gaussian, Inc.),
 the Gaussian 86(TM) system (copyright 1986, Carnegie Mellon
 University), and the Gaussian 82(TM) system (copyright 1983,
 Carnegie Mellon University). Gaussian is a federally registered
 trademark of Gaussian, Inc.
  
 This software contains proprietary and confidential information,
 including trade secrets, belonging to Gaussian, Inc.
  
 This software is provided under written license and may be
 used, copied, transmitted, or stored only in accord with that
 written license.
  
 The following legend is applicable only to US Government
 contracts under FAR:
  
                    RESTRICTED RIGHTS LEGEND
  
 Use, reproduction and disclosure by the US Government is
 subject to restrictions as set forth in subparagraphs (a)
 and (c) of the Commercial Computer Software - Restricted
 Rights clause in FAR 52.227-19.
  
 Gaussian, Inc.
 340 Quinnipiac St., Bldg. 40, Wallingford CT 06492
  
  
 ---------------------------------------------------------------
 Warning -- This program may not be used in any manner that
 competes with the business of Gaussian, Inc. or will provide
 assistance to any competitor of Gaussian, Inc.  The licensee
 of this program is prohibited from giving any competitor of
 Gaussian, Inc. access to this program.  By using this program,
 the user acknowledges that Gaussian, Inc. is engaged in the
 business of creating and licensing software in the field of
 computational chemistry and represents and warrants to the
 licensee that it is not a competitor of Gaussian, Inc. and that
 it will not use this program in any manner prohibited above.
 ---------------------------------------------------------------
  

 Cite this work as:
 Gaussian Development Version, Revision H.12,
 M. J. Frisch, G. W. Trucks, H. B. Schlegel, G. E. Scuseria, 
 M. A. Robb, J. R. Cheeseman, G. Scalmani, V. Barone, B. Mennucci, 
 G. A. Petersson, H. Nakatsuji, M. Caricato, X. Li, H. P. Hratchian, 
 A. F. Izmaylov, J. Bloino, G. Zheng, J. L. Sonnenberg, M. Hada, 
 M. Ehara, K. Toyota, R. Fukuda, J. Hasegawa, M. Ishida, T. Nakajima, 
 Y. Honda, O. Kitao, H. Nakai, T. Vreven, J. A. Montgomery, Jr., 
 J. E. Peralta, F. Ogliaro, M. Bearpark, J. J. Heyd, E. Brothers, 
 K. N. Kudin, V. N. Staroverov, T. Keith, R. Kobayashi, J. Normand, 
 K. Raghavachari, A. Rendell, J. C. Burant, S. S. Iyengar, J. Tomasi, 
 M. Cossi, N. Rega, J. M. Millam, M. Klene, J. E. Knox, J. B. Cross, 
 V. Bakken, C. Adamo, J. Jaramillo, R. Gomperts, R. E. Stratmann, 
 O. Yazyev, A. J. Austin, R. Cammi, C. Pomelli, J. W. Ochterski, 
 R. L. Martin, K. Morokuma, V. G. Zakrzewski, G. A. Voth, 
 P. Salvador, J. J. Dannenberg, S. Dapprich, P. V. Parandekar, 
 N. J. Mayhall, A. D. Daniels, O. Farkas, J. B. Foresman, 
 J. V. Ortiz, J. Cioslowski, and D. J. Fox, 
 Gaussian, Inc., Wallingford CT, 2010.
 
 ******************************************
 Gaussian DV:  EM64L-GDVRevH.12  9-Jun-2011
                 1-Aug-2013 
 ******************************************
 %chk=FS2.chk
 %mem=8gb
 %nproc=4
 Will use up to    4 processors via shared memory.
 ----------------------------------------------------------------------
 #p apfd/ugbs1p geom=allcheck guess=read freq=(vibrot,anharm,readanh) i
 nt=(acc2e=12,grid=299974) test gfprint gfinput output=pickett
 ----------------------------------------------------------------------
 1/10=4,29=7,30=1,38=21,80=1/1,6,3;
 2/12=2,40=1/2;
 3/5=23,7=7,11=2,14=-4,16=1,24=110,25=1,30=1,71=2,74=-44,75=299974,116=-2,140=1/1,2,3;
 4/5=1,69=2/1;
 5/5=2,38=6,87=12,96=-2,98=1/2;
 8/6=4,10=90,11=11,87=12/1;
 11/6=1,8=1,9=11,15=111,16=1,87=12/1,2,10;
 10/6=1,60=-2,87=12/2;
 6/7=2,8=2,9=2,10=2,28=1/1;
 7/10=1,25=1,70=1,71=2,72=1,87=12/1,2,3,16;
 1/38=20,80=1/6(3);
 7/8=1,25=2,44=-1,70=1,71=2,72=1,87=12/16,17;
 1/10=4,30=1,38=20,80=1/3;
 99/8=11100,10=1024/99;
 3/5=23,7=7,11=2,14=-2,16=1,25=1,30=1,71=2,74=-44,75=299974,140=1/1,2,3;
 4/5=5,16=3,69=2/1;
 5/5=2,38=5,87=12,96=-2,98=1/2;
 8/6=4,10=90,11=11,87=12/1;
 11/6=1,8=1,9=11,15=111,16=1,87=12/1,2,10;
 10/6=1,60=-2,87=12/2;
 6/7=2,8=2,9=2,10=2,28=1/1;
 7/7=1,10=1,25=1,70=1,71=1,72=1,87=12/1,2,3,16;
 1/38=20,80=1/6(-8);
 7/8=1,25=2,44=-1,70=1,71=1,72=1,87=12/16,17;
 1/10=4,30=1,38=20,80=1/3;
 99/8=11100,10=1024/99;
 Leave Link    1 at Thu Aug  1 16:16:24 2013, MaxMem= 1073741824 cpu:       0.4
 (Enter /share/apps/gaussian/gdvh12/gdv/l101.exe)
 Structure from the checkpoint file:  FS2.chk
 --------------------------------------
 FS2 coordinates taken from Saito paper
 --------------------------------------
 Charge =  0 Multiplicity = 2
 Redundant internal coordinates found in file.
 F,0,-0.0129500973,0.,-0.0244288878
 S,0,0.0131617403,0.,1.6131621016
 S,0,1.8067957379,0.,2.1983990755
 Recover connectivity data from disk.
 NAtoms=      3 NQM=        0 NQMF=       0 NMMI=      3 NMMIF=      0
                NMic=       0 NMicF=      0.
                    Isotopes and Nuclear Properties:
 (Nuclear quadrupole moments (NQMom) in fm**2, nuclear magnetic moments (NMagM)
  in nuclear magnetons)

  Atom         1           2           3
 IAtWgt=          19          32          32
 AtmWgt=  18.9984033  31.9720718  31.9720718
 NucSpn=           1           0           0
 AtZEff=  -6.7500000 -13.6000000 -13.6000000
 NQMom=    0.0000000   0.0000000   0.0000000
 NMagM=    2.6288670   0.0000000   0.0000000
 AtZNuc=   9.0000000  16.0000000  16.0000000
 Leave Link  101 at Thu Aug  1 16:16:25 2013, MaxMem= 1073741824 cpu:       2.5
 (Enter /share/apps/gaussian/gdvh12/gdv/l106.exe)
 NDeriv=   3 NFrqRd=  0 LFDDif=       1
 Numerical evaluation of third derivatives.
 Nuclear step= 0.010000 Angstroms, electric field step= 0.000333 atomic units, NStep=1.
 Leave Link  106 at Thu Aug  1 16:16:25 2013, MaxMem= 1073741824 cpu:       0.0
 (Enter /share/apps/gaussian/gdvh12/gdv/l103.exe)

 GradGradGradGradGradGradGradGradGradGradGradGradGradGradGradGradGradGrad
 Berny optimization.
 Initialization pass.
                           ----------------------------
                           !    Initial Parameters    !
                           ! (Angstroms and Degrees)  !
 --------------------------                            --------------------------
 ! Name  Definition              Value          Derivative Info.                !
 --------------------------------------------------------------------------------
 ! R1    R(1,2)                  1.6378         calculate D2E/DX2 analytically  !
 ! R2    R(2,3)                  1.8867         calculate D2E/DX2 analytically  !
 ! A1    A(1,2,3)              108.9843         calculate D2E/DX2 analytically  !
 --------------------------------------------------------------------------------
 Trust Radius=3.00D-01 FncErr=1.00D-07 GrdErr=1.00D-07
 Number of steps in this run=      2 maximum allowed number of steps=      2.
 GradGradGradGradGradGradGradGradGradGradGradGradGradGradGradGradGradGrad

 Leave Link  103 at Thu Aug  1 16:16:25 2013, MaxMem= 1073741824 cpu:       0.1
 (Enter /share/apps/gaussian/gdvh12/gdv/l202.exe)
                          Input orientation:                          
 ---------------------------------------------------------------------
 Center     Atomic      Atomic             Coordinates (Angstroms)
 Number     Number       Type             X           Y           Z
 ---------------------------------------------------------------------
      1          9           0       -0.012950    0.000000   -0.024429
      2         16           0        0.013162    0.000000    1.613162
      3         16           0        1.806796    0.000000    2.198399
 ---------------------------------------------------------------------
                    Distance matrix (angstroms):
                    1          2          3
     1  F    0.000000
     2  S    1.637799   0.000000
     3  S    2.872706   1.886697   0.000000
 Stoichiometry    FS2(2)
 Framework group  CS[SG(FS2)]
 Deg. of freedom     3
 Full point group                 CS      NOp   2
 RotChk:  IX=0 Diff= 3.95D-16
 Largest Abelian subgroup         CS      NOp   2
 Largest concise Abelian subgroup C1      NOp   1
                         Standard orientation:                         
 ---------------------------------------------------------------------
 Center     Atomic      Atomic             Coordinates (Angstroms)
 Number     Number       Type             X           Y           Z
 ---------------------------------------------------------------------
      1          9           0        1.614000    0.428302    0.000000
      2         16           0        0.000000    0.706491    0.000000
      3         16           0       -0.907875   -0.947410    0.000000
 ---------------------------------------------------------------------
 Rotational constants (GHZ):     26.5171786      4.8181250      4.0772888
 Leave Link  202 at Thu Aug  1 16:16:25 2013, MaxMem= 1073741824 cpu:       0.0
 (Enter /share/apps/gaussian/gdvh12/gdv/l301.exe)
 Standard basis: UGBS1P (5D, 7F)
 Ernie: Thresh=  0.10000D-02 Tol=  0.10000D-05 Strict=F.
 AO basis set in the form of general basis input (Overlap normalization):
      1 0
 S   1 1.00       0.000000000000
      0.7745209592D+06  0.1000000000D+01
 S   1 1.00       0.000000000000
      0.3955371526D+06  0.1000000000D+01
 S   1 1.00       0.000000000000
      0.2019953588D+06  0.1000000000D+01
 S   1 1.00       0.000000000000
      0.1031562389D+06  0.1000000000D+01
 S   1 1.00       0.000000000000
      0.5268046591D+05  0.1000000000D+01
 S   1 1.00       0.000000000000
      0.2690318607D+05  0.1000000000D+01
 S   1 1.00       0.000000000000
      0.1373908542D+05  0.1000000000D+01
 S   1 1.00       0.000000000000
      0.7016361094D+04  0.1000000000D+01
 S   1 1.00       0.000000000000
      0.3583158668D+04  0.1000000000D+01
 S   1 1.00       0.000000000000
      0.1829869625D+04  0.1000000000D+01
 S   1 1.00       0.000000000000
      0.9344891347D+03  0.1000000000D+01
 S   1 1.00       0.000000000000
      0.4772306896D+03  0.1000000000D+01
 S   1 1.00       0.000000000000
      0.2437151195D+03  0.1000000000D+01
 S   1 1.00       0.000000000000
      0.1244619442D+03  0.1000000000D+01
 S   1 1.00       0.000000000000
      0.6356099525D+02  0.1000000000D+01
 S   1 1.00       0.000000000000
      0.3245972208D+02  0.1000000000D+01
 S   1 1.00       0.000000000000
      0.1657673158D+02  0.1000000000D+01
 S   1 1.00       0.000000000000
      0.8465507783D+01  0.1000000000D+01
 S   1 1.00       0.000000000000
      0.4323217860D+01  0.1000000000D+01
 S   1 1.00       0.000000000000
      0.2207807629D+01  0.1000000000D+01
 S   1 1.00       0.000000000000
      0.1127496852D+01  0.1000000000D+01
 S   1 1.00       0.000000000000
      0.5757970639D+00  0.1000000000D+01
 S   1 1.00       0.000000000000
      0.2940516050D+00  0.1000000000D+01
 S   1 1.00       0.000000000000
      0.1501680918D+00  0.1000000000D+01
 P   1 1.00       0.000000000000
      0.7745209592D+06  0.1000000000D+01
 P   1 1.00       0.000000000000
      0.3955371526D+06  0.1000000000D+01
 P   1 1.00       0.000000000000
      0.2019953588D+06  0.1000000000D+01
 P   1 1.00       0.000000000000
      0.1031562389D+06  0.1000000000D+01
 P   1 1.00       0.000000000000
      0.5268046591D+05  0.1000000000D+01
 P   1 1.00       0.000000000000
      0.2690318607D+05  0.1000000000D+01
 P   1 1.00       0.000000000000
      0.1373908542D+05  0.1000000000D+01
 P   1 1.00       0.000000000000
      0.7016361094D+04  0.1000000000D+01
 P   1 1.00       0.000000000000
      0.3583158668D+04  0.1000000000D+01
 P   1 1.00       0.000000000000
      0.1829869625D+04  0.1000000000D+01
 P   1 1.00       0.000000000000
      0.9344891347D+03  0.1000000000D+01
 P   1 1.00       0.000000000000
      0.4772306896D+03  0.1000000000D+01
 P   1 1.00       0.000000000000
      0.2437151195D+03  0.1000000000D+01
 P   1 1.00       0.000000000000
      0.1244619442D+03  0.1000000000D+01
 P   1 1.00       0.000000000000
      0.6356099525D+02  0.1000000000D+01
 P   1 1.00       0.000000000000
      0.3245972208D+02  0.1000000000D+01
 P   1 1.00       0.000000000000
      0.1657673158D+02  0.1000000000D+01
 P   1 1.00       0.000000000000
      0.8465507783D+01  0.1000000000D+01
 P   1 1.00       0.000000000000
      0.4323217860D+01  0.1000000000D+01
 P   1 1.00       0.000000000000
      0.2207807629D+01  0.1000000000D+01
 P   1 1.00       0.000000000000
      0.1127496852D+01  0.1000000000D+01
 P   1 1.00       0.000000000000
      0.5757970639D+00  0.1000000000D+01
 P   1 1.00       0.000000000000
      0.2940516050D+00  0.1000000000D+01
 P   1 1.00       0.000000000000
      0.1501680918D+00  0.1000000000D+01
 P   1 1.00       0.000000000000
      0.7668876969D-01  0.1000000000D+01
 D   1 1.00       0.000000000000
      0.1829869625D+04  0.1000000000D+01
 D   1 1.00       0.000000000000
      0.9344891347D+03  0.1000000000D+01
 D   1 1.00       0.000000000000
      0.4772306896D+03  0.1000000000D+01
 D   1 1.00       0.000000000000
      0.2437151195D+03  0.1000000000D+01
 D   1 1.00       0.000000000000
      0.1244619442D+03  0.1000000000D+01
 D   1 1.00       0.000000000000
      0.6356099525D+02  0.1000000000D+01
 D   1 1.00       0.000000000000
      0.3245972208D+02  0.1000000000D+01
 D   1 1.00       0.000000000000
      0.1657673158D+02  0.1000000000D+01
 D   1 1.00       0.000000000000
      0.8465507783D+01  0.1000000000D+01
 D   1 1.00       0.000000000000
      0.4323217860D+01  0.1000000000D+01
 D   1 1.00       0.000000000000
      0.2207807629D+01  0.1000000000D+01
 D   1 1.00       0.000000000000
      0.1127496852D+01  0.1000000000D+01
 D   1 1.00       0.000000000000
      0.5757970639D+00  0.1000000000D+01
 D   1 1.00       0.000000000000
      0.2940516050D+00  0.1000000000D+01
 D   1 1.00       0.000000000000
      0.1501680918D+00  0.1000000000D+01
 D   1 1.00       0.000000000000
      0.7668876969D-01  0.1000000000D+01
 ****
      2 0
 S   1 1.00       0.000000000000
      0.2969784651D+07  0.1000000000D+01
 S   1 1.00       0.000000000000
      0.1516627989D+07  0.1000000000D+01
 S   1 1.00       0.000000000000
      0.7745209592D+06  0.1000000000D+01
 S   1 1.00       0.000000000000
      0.3955371526D+06  0.1000000000D+01
 S   1 1.00       0.000000000000
      0.2019953588D+06  0.1000000000D+01
 S   1 1.00       0.000000000000
      0.1031562389D+06  0.1000000000D+01
 S   1 1.00       0.000000000000
      0.5268046591D+05  0.1000000000D+01
 S   1 1.00       0.000000000000
      0.2690318607D+05  0.1000000000D+01
 S   1 1.00       0.000000000000
      0.1373908542D+05  0.1000000000D+01
 S   1 1.00       0.000000000000
      0.7016361094D+04  0.1000000000D+01
 S   1 1.00       0.000000000000
      0.3583158668D+04  0.1000000000D+01
 S   1 1.00       0.000000000000
      0.1829869625D+04  0.1000000000D+01
 S   1 1.00       0.000000000000
      0.9344891347D+03  0.1000000000D+01
 S   1 1.00       0.000000000000
      0.4772306896D+03  0.1000000000D+01
 S   1 1.00       0.000000000000
      0.2437151195D+03  0.1000000000D+01
 S   1 1.00       0.000000000000
      0.1244619442D+03  0.1000000000D+01
 S   1 1.00       0.000000000000
      0.6356099525D+02  0.1000000000D+01
 S   1 1.00       0.000000000000
      0.3245972208D+02  0.1000000000D+01
 S   1 1.00       0.000000000000
      0.1657673158D+02  0.1000000000D+01
 S   1 1.00       0.000000000000
      0.8465507783D+01  0.1000000000D+01
 S   1 1.00       0.000000000000
      0.4323217860D+01  0.1000000000D+01
 S   1 1.00       0.000000000000
      0.2207807629D+01  0.1000000000D+01
 S   1 1.00       0.000000000000
      0.1127496852D+01  0.1000000000D+01
 S   1 1.00       0.000000000000
      0.5757970639D+00  0.1000000000D+01
 S   1 1.00       0.000000000000
      0.2940516050D+00  0.1000000000D+01
 S   1 1.00       0.000000000000
      0.1501680918D+00  0.1000000000D+01
 S   1 1.00       0.000000000000
      0.7668876969D-01  0.1000000000D+01
 P   1 1.00       0.000000000000
      0.2969784651D+07  0.1000000000D+01
 P   1 1.00       0.000000000000
      0.1516627989D+07  0.1000000000D+01
 P   1 1.00       0.000000000000
      0.7745209592D+06  0.1000000000D+01
 P   1 1.00       0.000000000000
      0.3955371526D+06  0.1000000000D+01
 P   1 1.00       0.000000000000
      0.2019953588D+06  0.1000000000D+01
 P   1 1.00       0.000000000000
      0.1031562389D+06  0.1000000000D+01
 P   1 1.00       0.000000000000
      0.5268046591D+05  0.1000000000D+01
 P   1 1.00       0.000000000000
      0.2690318607D+05  0.1000000000D+01
 P   1 1.00       0.000000000000
      0.1373908542D+05  0.1000000000D+01
 P   1 1.00       0.000000000000
      0.7016361094D+04  0.1000000000D+01
 P   1 1.00       0.000000000000
      0.3583158668D+04  0.1000000000D+01
 P   1 1.00       0.000000000000
      0.1829869625D+04  0.1000000000D+01
 P   1 1.00       0.000000000000
      0.9344891347D+03  0.1000000000D+01
 P   1 1.00       0.000000000000
      0.4772306896D+03  0.1000000000D+01
 P   1 1.00       0.000000000000
      0.2437151195D+03  0.1000000000D+01
 P   1 1.00       0.000000000000
      0.1244619442D+03  0.1000000000D+01
 P   1 1.00       0.000000000000
      0.6356099525D+02  0.1000000000D+01
 P   1 1.00       0.000000000000
      0.3245972208D+02  0.1000000000D+01
 P   1 1.00       0.000000000000
      0.1657673158D+02  0.1000000000D+01
 P   1 1.00       0.000000000000
      0.8465507783D+01  0.1000000000D+01
 P   1 1.00       0.000000000000
      0.4323217860D+01  0.1000000000D+01
 P   1 1.00       0.000000000000
      0.2207807629D+01  0.1000000000D+01
 P   1 1.00       0.000000000000
      0.1127496852D+01  0.1000000000D+01
 P   1 1.00       0.000000000000
      0.5757970639D+00  0.1000000000D+01
 P   1 1.00       0.000000000000
      0.2940516050D+00  0.1000000000D+01
 P   1 1.00       0.000000000000
      0.1501680918D+00  0.1000000000D+01
 P   1 1.00       0.000000000000
      0.7668876969D-01  0.1000000000D+01
 P   1 1.00       0.000000000000
      0.3916389510D-01  0.1000000000D+01
 D   1 1.00       0.000000000000
      0.7016361094D+04  0.1000000000D+01
 D   1 1.00       0.000000000000
      0.3583158668D+04  0.1000000000D+01
 D   1 1.00       0.000000000000
      0.1829869625D+04  0.1000000000D+01
 D   1 1.00       0.000000000000
      0.9344891347D+03  0.1000000000D+01
 D   1 1.00       0.000000000000
      0.4772306896D+03  0.1000000000D+01
 D   1 1.00       0.000000000000
      0.2437151195D+03  0.1000000000D+01
 D   1 1.00       0.000000000000
      0.1244619442D+03  0.1000000000D+01
 D   1 1.00       0.000000000000
      0.6356099525D+02  0.1000000000D+01
 D   1 1.00       0.000000000000
      0.3245972208D+02  0.1000000000D+01
 D   1 1.00       0.000000000000
      0.1657673158D+02  0.1000000000D+01
 D   1 1.00       0.000000000000
      0.8465507783D+01  0.1000000000D+01
 D   1 1.00       0.000000000000
      0.4323217860D+01  0.1000000000D+01
 D   1 1.00       0.000000000000
      0.2207807629D+01  0.1000000000D+01
 D   1 1.00       0.000000000000
      0.1127496852D+01  0.1000000000D+01
 D   1 1.00       0.000000000000
      0.5757970639D+00  0.1000000000D+01
 D   1 1.00       0.000000000000
      0.2940516050D+00  0.1000000000D+01
 D   1 1.00       0.000000000000
      0.1501680918D+00  0.1000000000D+01
 D   1 1.00       0.000000000000
      0.7668876969D-01  0.1000000000D+01
 D   1 1.00       0.000000000000
      0.3916389510D-01  0.1000000000D+01
 ****
      3 0
 S   1 1.00       0.000000000000
      0.2969784651D+07  0.1000000000D+01
 S   1 1.00       0.000000000000
      0.1516627989D+07  0.1000000000D+01
 S   1 1.00       0.000000000000
      0.7745209592D+06  0.1000000000D+01
 S   1 1.00       0.000000000000
      0.3955371526D+06  0.1000000000D+01
 S   1 1.00       0.000000000000
      0.2019953588D+06  0.1000000000D+01
 S   1 1.00       0.000000000000
      0.1031562389D+06  0.1000000000D+01
 S   1 1.00       0.000000000000
      0.5268046591D+05  0.1000000000D+01
 S   1 1.00       0.000000000000
      0.2690318607D+05  0.1000000000D+01
 S   1 1.00       0.000000000000
      0.1373908542D+05  0.1000000000D+01
 S   1 1.00       0.000000000000
      0.7016361094D+04  0.1000000000D+01
 S   1 1.00       0.000000000000
      0.3583158668D+04  0.1000000000D+01
 S   1 1.00       0.000000000000
      0.1829869625D+04  0.1000000000D+01
 S   1 1.00       0.000000000000
      0.9344891347D+03  0.1000000000D+01
 S   1 1.00       0.000000000000
      0.4772306896D+03  0.1000000000D+01
 S   1 1.00       0.000000000000
      0.2437151195D+03  0.1000000000D+01
 S   1 1.00       0.000000000000
      0.1244619442D+03  0.1000000000D+01
 S   1 1.00       0.000000000000
      0.6356099525D+02  0.1000000000D+01
 S   1 1.00       0.000000000000
      0.3245972208D+02  0.1000000000D+01
 S   1 1.00       0.000000000000
      0.1657673158D+02  0.1000000000D+01
 S   1 1.00       0.000000000000
      0.8465507783D+01  0.1000000000D+01
 S   1 1.00       0.000000000000
      0.4323217860D+01  0.1000000000D+01
 S   1 1.00       0.000000000000
      0.2207807629D+01  0.1000000000D+01
 S   1 1.00       0.000000000000
      0.1127496852D+01  0.1000000000D+01
 S   1 1.00       0.000000000000
      0.5757970639D+00  0.1000000000D+01
 S   1 1.00       0.000000000000
      0.2940516050D+00  0.1000000000D+01
 S   1 1.00       0.000000000000
      0.1501680918D+00  0.1000000000D+01
 S   1 1.00       0.000000000000
      0.7668876969D-01  0.1000000000D+01
 P   1 1.00       0.000000000000
      0.2969784651D+07  0.1000000000D+01
 P   1 1.00       0.000000000000
      0.1516627989D+07  0.1000000000D+01
 P   1 1.00       0.000000000000
      0.7745209592D+06  0.1000000000D+01
 P   1 1.00       0.000000000000
      0.3955371526D+06  0.1000000000D+01
 P   1 1.00       0.000000000000
      0.2019953588D+06  0.1000000000D+01
 P   1 1.00       0.000000000000
      0.1031562389D+06  0.1000000000D+01
 P   1 1.00       0.000000000000
      0.5268046591D+05  0.1000000000D+01
 P   1 1.00       0.000000000000
      0.2690318607D+05  0.1000000000D+01
 P   1 1.00       0.000000000000
      0.1373908542D+05  0.1000000000D+01
 P   1 1.00       0.000000000000
      0.7016361094D+04  0.1000000000D+01
 P   1 1.00       0.000000000000
      0.3583158668D+04  0.1000000000D+01
 P   1 1.00       0.000000000000
      0.1829869625D+04  0.1000000000D+01
 P   1 1.00       0.000000000000
      0.9344891347D+03  0.1000000000D+01
 P   1 1.00       0.000000000000
      0.4772306896D+03  0.1000000000D+01
 P   1 1.00       0.000000000000
      0.2437151195D+03  0.1000000000D+01
 P   1 1.00       0.000000000000
      0.1244619442D+03  0.1000000000D+01
 P   1 1.00       0.000000000000
      0.6356099525D+02  0.1000000000D+01
 P   1 1.00       0.000000000000
      0.3245972208D+02  0.1000000000D+01
 P   1 1.00       0.000000000000
      0.1657673158D+02  0.1000000000D+01
 P   1 1.00       0.000000000000
      0.8465507783D+01  0.1000000000D+01
 P   1 1.00       0.000000000000
      0.4323217860D+01  0.1000000000D+01
 P   1 1.00       0.000000000000
      0.2207807629D+01  0.1000000000D+01
 P   1 1.00       0.000000000000
      0.1127496852D+01  0.1000000000D+01
 P   1 1.00       0.000000000000
      0.5757970639D+00  0.1000000000D+01
 P   1 1.00       0.000000000000
      0.2940516050D+00  0.1000000000D+01
 P   1 1.00       0.000000000000
      0.1501680918D+00  0.1000000000D+01
 P   1 1.00       0.000000000000
      0.7668876969D-01  0.1000000000D+01
 P   1 1.00       0.000000000000
      0.3916389510D-01  0.1000000000D+01
 D   1 1.00       0.000000000000
      0.7016361094D+04  0.1000000000D+01
 D   1 1.00       0.000000000000
      0.3583158668D+04  0.1000000000D+01
 D   1 1.00       0.000000000000
      0.1829869625D+04  0.1000000000D+01
 D   1 1.00       0.000000000000
      0.9344891347D+03  0.1000000000D+01
 D   1 1.00       0.000000000000
      0.4772306896D+03  0.1000000000D+01
 D   1 1.00       0.000000000000
      0.2437151195D+03  0.1000000000D+01
 D   1 1.00       0.000000000000
      0.1244619442D+03  0.1000000000D+01
 D   1 1.00       0.000000000000
      0.6356099525D+02  0.1000000000D+01
 D   1 1.00       0.000000000000
      0.3245972208D+02  0.1000000000D+01
 D   1 1.00       0.000000000000
      0.1657673158D+02  0.1000000000D+01
 D   1 1.00       0.000000000000
      0.8465507783D+01  0.1000000000D+01
 D   1 1.00       0.000000000000
      0.4323217860D+01  0.1000000000D+01
 D   1 1.00       0.000000000000
      0.2207807629D+01  0.1000000000D+01
 D   1 1.00       0.000000000000
      0.1127496852D+01  0.1000000000D+01
 D   1 1.00       0.000000000000
      0.5757970639D+00  0.1000000000D+01
 D   1 1.00       0.000000000000
      0.2940516050D+00  0.1000000000D+01
 D   1 1.00       0.000000000000
      0.1501680918D+00  0.1000000000D+01
 D   1 1.00       0.000000000000
      0.7668876969D-01  0.1000000000D+01
 D   1 1.00       0.000000000000
      0.3916389510D-01  0.1000000000D+01
 ****

 AO basis set (Overlap normalization):
 Atom F1       Shell     1 S   1     bf    1 -     1          3.050018555350          0.809372775654          0.000000000000
      0.7745209592D+06  0.1000000000D+01
 Atom F1       Shell     2 S   1     bf    2 -     2          3.050018555350          0.809372775654          0.000000000000
      0.3955371526D+06  0.1000000000D+01
 Atom F1       Shell     3 S   1     bf    3 -     3          3.050018555350          0.809372775654          0.000000000000
      0.2019953588D+06  0.1000000000D+01
 Atom F1       Shell     4 S   1     bf    4 -     4          3.050018555350          0.809372775654          0.000000000000
      0.1031562389D+06  0.1000000000D+01
 Atom F1       Shell     5 S   1     bf    5 -     5          3.050018555350          0.809372775654          0.000000000000
      0.5268046591D+05  0.1000000000D+01
 Atom F1       Shell     6 S   1     bf    6 -     6          3.050018555350          0.809372775654          0.000000000000
      0.2690318607D+05  0.1000000000D+01
 Atom F1       Shell     7 S   1     bf    7 -     7          3.050018555350          0.809372775654          0.000000000000
      0.1373908542D+05  0.1000000000D+01
 Atom F1       Shell     8 S   1     bf    8 -     8          3.050018555350          0.809372775654          0.000000000000
      0.7016361094D+04  0.1000000000D+01
 Atom F1       Shell     9 S   1     bf    9 -     9          3.050018555350          0.809372775654          0.000000000000
      0.3583158668D+04  0.1000000000D+01
 Atom F1       Shell    10 S   1     bf   10 -    10          3.050018555350          0.809372775654          0.000000000000
      0.1829869625D+04  0.1000000000D+01
 Atom F1       Shell    11 S   1     bf   11 -    11          3.050018555350          0.809372775654          0.000000000000
      0.9344891347D+03  0.1000000000D+01
 Atom F1       Shell    12 S   1     bf   12 -    12          3.050018555350          0.809372775654          0.000000000000
      0.4772306896D+03  0.1000000000D+01
 Atom F1       Shell    13 S   1     bf   13 -    13          3.050018555350          0.809372775654          0.000000000000
      0.2437151195D+03  0.1000000000D+01
 Atom F1       Shell    14 S   1     bf   14 -    14          3.050018555350          0.809372775654          0.000000000000
      0.1244619442D+03  0.1000000000D+01
 Atom F1       Shell    15 S   1     bf   15 -    15          3.050018555350          0.809372775654          0.000000000000
      0.6356099525D+02  0.1000000000D+01
 Atom F1       Shell    16 S   1     bf   16 -    16          3.050018555350          0.809372775654          0.000000000000
      0.3245972208D+02  0.1000000000D+01
 Atom F1       Shell    17 S   1     bf   17 -    17          3.050018555350          0.809372775654          0.000000000000
      0.1657673158D+02  0.1000000000D+01
 Atom F1       Shell    18 S   1     bf   18 -    18          3.050018555350          0.809372775654          0.000000000000
      0.8465507783D+01  0.1000000000D+01
 Atom F1       Shell    19 S   1     bf   19 -    19          3.050018555350          0.809372775654          0.000000000000
      0.4323217860D+01  0.1000000000D+01
 Atom F1       Shell    20 S   1     bf   20 -    20          3.050018555350          0.809372775654          0.000000000000
      0.2207807629D+01  0.1000000000D+01
 Atom F1       Shell    21 S   1     bf   21 -    21          3.050018555350          0.809372775654          0.000000000000
      0.1127496852D+01  0.1000000000D+01
 Atom F1       Shell    22 S   1     bf   22 -    22          3.050018555350          0.809372775654          0.000000000000
      0.5757970639D+00  0.1000000000D+01
 Atom F1       Shell    23 S   1     bf   23 -    23          3.050018555350          0.809372775654          0.000000000000
      0.2940516050D+00  0.1000000000D+01
 Atom F1       Shell    24 S   1     bf   24 -    24          3.050018555350          0.809372775654          0.000000000000
      0.1501680918D+00  0.1000000000D+01
 Atom F1       Shell    25 P   1     bf   25 -    27          3.050018555350          0.809372775654          0.000000000000
      0.7745209592D+06  0.1000000000D+01
 Atom F1       Shell    26 P   1     bf   28 -    30          3.050018555350          0.809372775654          0.000000000000
      0.3955371526D+06  0.1000000000D+01
 Atom F1       Shell    27 P   1     bf   31 -    33          3.050018555350          0.809372775654          0.000000000000
      0.2019953588D+06  0.1000000000D+01
 Atom F1       Shell    28 P   1     bf   34 -    36          3.050018555350          0.809372775654          0.000000000000
      0.1031562389D+06  0.1000000000D+01
 Atom F1       Shell    29 P   1     bf   37 -    39          3.050018555350          0.809372775654          0.000000000000
      0.5268046591D+05  0.1000000000D+01
 Atom F1       Shell    30 P   1     bf   40 -    42          3.050018555350          0.809372775654          0.000000000000
      0.2690318607D+05  0.1000000000D+01
 Atom F1       Shell    31 P   1     bf   43 -    45          3.050018555350          0.809372775654          0.000000000000
      0.1373908542D+05  0.1000000000D+01
 Atom F1       Shell    32 P   1     bf   46 -    48          3.050018555350          0.809372775654          0.000000000000
      0.7016361094D+04  0.1000000000D+01
 Atom F1       Shell    33 P   1     bf   49 -    51          3.050018555350          0.809372775654          0.000000000000
      0.3583158668D+04  0.1000000000D+01
 Atom F1       Shell    34 P   1     bf   52 -    54          3.050018555350          0.809372775654          0.000000000000
      0.1829869625D+04  0.1000000000D+01
 Atom F1       Shell    35 P   1     bf   55 -    57          3.050018555350          0.809372775654          0.000000000000
      0.9344891347D+03  0.1000000000D+01
 Atom F1       Shell    36 P   1     bf   58 -    60          3.050018555350          0.809372775654          0.000000000000
      0.4772306896D+03  0.1000000000D+01
 Atom F1       Shell    37 P   1     bf   61 -    63          3.050018555350          0.809372775654          0.000000000000
      0.2437151195D+03  0.1000000000D+01
 Atom F1       Shell    38 P   1     bf   64 -    66          3.050018555350          0.809372775654          0.000000000000
      0.1244619442D+03  0.1000000000D+01
 Atom F1       Shell    39 P   1     bf   67 -    69          3.050018555350          0.809372775654          0.000000000000
      0.6356099525D+02  0.1000000000D+01
 Atom F1       Shell    40 P   1     bf   70 -    72          3.050018555350          0.809372775654          0.000000000000
      0.3245972208D+02  0.1000000000D+01
 Atom F1       Shell    41 P   1     bf   73 -    75          3.050018555350          0.809372775654          0.000000000000
      0.1657673158D+02  0.1000000000D+01
 Atom F1       Shell    42 P   1     bf   76 -    78          3.050018555350          0.809372775654          0.000000000000
      0.8465507783D+01  0.1000000000D+01
 Atom F1       Shell    43 P   1     bf   79 -    81          3.050018555350          0.809372775654          0.000000000000
      0.4323217860D+01  0.1000000000D+01
 Atom F1       Shell    44 P   1     bf   82 -    84          3.050018555350          0.809372775654          0.000000000000
      0.2207807629D+01  0.1000000000D+01
 Atom F1       Shell    45 P   1     bf   85 -    87          3.050018555350          0.809372775654          0.000000000000
      0.1127496852D+01  0.1000000000D+01
 Atom F1       Shell    46 P   1     bf   88 -    90          3.050018555350          0.809372775654          0.000000000000
      0.5757970639D+00  0.1000000000D+01
 Atom F1       Shell    47 P   1     bf   91 -    93          3.050018555350          0.809372775654          0.000000000000
      0.2940516050D+00  0.1000000000D+01
 Atom F1       Shell    48 P   1     bf   94 -    96          3.050018555350          0.809372775654          0.000000000000
      0.1501680918D+00  0.1000000000D+01
 Atom F1       Shell    49 P   1     bf   97 -    99          3.050018555350          0.809372775654          0.000000000000
      0.7668876969D-01  0.1000000000D+01
 Atom F1       Shell    50 D   1     bf  100 -   104          3.050018555350          0.809372775654          0.000000000000
      0.1829869625D+04  0.1000000000D+01
 Atom F1       Shell    51 D   1     bf  105 -   109          3.050018555350          0.809372775654          0.000000000000
      0.9344891347D+03  0.1000000000D+01
 Atom F1       Shell    52 D   1     bf  110 -   114          3.050018555350          0.809372775654          0.000000000000
      0.4772306896D+03  0.1000000000D+01
 Atom F1       Shell    53 D   1     bf  115 -   119          3.050018555350          0.809372775654          0.000000000000
      0.2437151195D+03  0.1000000000D+01
 Atom F1       Shell    54 D   1     bf  120 -   124          3.050018555350          0.809372775654          0.000000000000
      0.1244619442D+03  0.1000000000D+01
 Atom F1       Shell    55 D   1     bf  125 -   129          3.050018555350          0.809372775654          0.000000000000
      0.6356099525D+02  0.1000000000D+01
 Atom F1       Shell    56 D   1     bf  130 -   134          3.050018555350          0.809372775654          0.000000000000
      0.3245972208D+02  0.1000000000D+01
 Atom F1       Shell    57 D   1     bf  135 -   139          3.050018555350          0.809372775654          0.000000000000
      0.1657673158D+02  0.1000000000D+01
 Atom F1       Shell    58 D   1     bf  140 -   144          3.050018555350          0.809372775654          0.000000000000
      0.8465507783D+01  0.1000000000D+01
 Atom F1       Shell    59 D   1     bf  145 -   149          3.050018555350          0.809372775654          0.000000000000
      0.4323217860D+01  0.1000000000D+01
 Atom F1       Shell    60 D   1     bf  150 -   154          3.050018555350          0.809372775654          0.000000000000
      0.2207807629D+01  0.1000000000D+01
 Atom F1       Shell    61 D   1     bf  155 -   159          3.050018555350          0.809372775654          0.000000000000
      0.1127496852D+01  0.1000000000D+01
 Atom F1       Shell    62 D   1     bf  160 -   164          3.050018555350          0.809372775654          0.000000000000
      0.5757970639D+00  0.1000000000D+01
 Atom F1       Shell    63 D   1     bf  165 -   169          3.050018555350          0.809372775654          0.000000000000
      0.2940516050D+00  0.1000000000D+01
 Atom F1       Shell    64 D   1     bf  170 -   174          3.050018555350          0.809372775654          0.000000000000
      0.1501680918D+00  0.1000000000D+01
 Atom F1       Shell    65 D   1     bf  175 -   179          3.050018555350          0.809372775654          0.000000000000
      0.7668876969D-01  0.1000000000D+01
 Atom S2       Shell    66 S   1     bf  180 -   180          0.000000000000          1.335073702466          0.000000000000
      0.2969784651D+07  0.1000000000D+01
 Atom S2       Shell    67 S   1     bf  181 -   181          0.000000000000          1.335073702466          0.000000000000
      0.1516627989D+07  0.1000000000D+01
 Atom S2       Shell    68 S   1     bf  182 -   182          0.000000000000          1.335073702466          0.000000000000
      0.7745209592D+06  0.1000000000D+01
 Atom S2       Shell    69 S   1     bf  183 -   183          0.000000000000          1.335073702466          0.000000000000
      0.3955371526D+06  0.1000000000D+01
 Atom S2       Shell    70 S   1     bf  184 -   184          0.000000000000          1.335073702466          0.000000000000
      0.2019953588D+06  0.1000000000D+01
 Atom S2       Shell    71 S   1     bf  185 -   185          0.000000000000          1.335073702466          0.000000000000
      0.1031562389D+06  0.1000000000D+01
 Atom S2       Shell    72 S   1     bf  186 -   186          0.000000000000          1.335073702466          0.000000000000
      0.5268046591D+05  0.1000000000D+01
 Atom S2       Shell    73 S   1     bf  187 -   187          0.000000000000          1.335073702466          0.000000000000
      0.2690318607D+05  0.1000000000D+01
 Atom S2       Shell    74 S   1     bf  188 -   188          0.000000000000          1.335073702466          0.000000000000
      0.1373908542D+05  0.1000000000D+01
 Atom S2       Shell    75 S   1     bf  189 -   189          0.000000000000          1.335073702466          0.000000000000
      0.7016361094D+04  0.1000000000D+01
 Atom S2       Shell    76 S   1     bf  190 -   190          0.000000000000          1.335073702466          0.000000000000
      0.3583158668D+04  0.1000000000D+01
 Atom S2       Shell    77 S   1     bf  191 -   191          0.000000000000          1.335073702466          0.000000000000
      0.1829869625D+04  0.1000000000D+01
 Atom S2       Shell    78 S   1     bf  192 -   192          0.000000000000          1.335073702466          0.000000000000
      0.9344891347D+03  0.1000000000D+01
 Atom S2       Shell    79 S   1     bf  193 -   193          0.000000000000          1.335073702466          0.000000000000
      0.4772306896D+03  0.1000000000D+01
 Atom S2       Shell    80 S   1     bf  194 -   194          0.000000000000          1.335073702466          0.000000000000
      0.2437151195D+03  0.1000000000D+01
 Atom S2       Shell    81 S   1     bf  195 -   195          0.000000000000          1.335073702466          0.000000000000
      0.1244619442D+03  0.1000000000D+01
 Atom S2       Shell    82 S   1     bf  196 -   196          0.000000000000          1.335073702466          0.000000000000
      0.6356099525D+02  0.1000000000D+01
 Atom S2       Shell    83 S   1     bf  197 -   197          0.000000000000          1.335073702466          0.000000000000
      0.3245972208D+02  0.1000000000D+01
 Atom S2       Shell    84 S   1     bf  198 -   198          0.000000000000          1.335073702466          0.000000000000
      0.1657673158D+02  0.1000000000D+01
 Atom S2       Shell    85 S   1     bf  199 -   199          0.000000000000          1.335073702466          0.000000000000
      0.8465507783D+01  0.1000000000D+01
 Atom S2       Shell    86 S   1     bf  200 -   200          0.000000000000          1.335073702466          0.000000000000
      0.4323217860D+01  0.1000000000D+01
 Atom S2       Shell    87 S   1     bf  201 -   201          0.000000000000          1.335073702466          0.000000000000
      0.2207807629D+01  0.1000000000D+01
 Atom S2       Shell    88 S   1     bf  202 -   202          0.000000000000          1.335073702466          0.000000000000
      0.1127496852D+01  0.1000000000D+01
 Atom S2       Shell    89 S   1     bf  203 -   203          0.000000000000          1.335073702466          0.000000000000
      0.5757970639D+00  0.1000000000D+01
 Atom S2       Shell    90 S   1     bf  204 -   204          0.000000000000          1.335073702466          0.000000000000
      0.2940516050D+00  0.1000000000D+01
 Atom S2       Shell    91 S   1     bf  205 -   205          0.000000000000          1.335073702466          0.000000000000
      0.1501680918D+00  0.1000000000D+01
 Atom S2       Shell    92 S   1     bf  206 -   206          0.000000000000          1.335073702466          0.000000000000
      0.7668876969D-01  0.1000000000D+01
 Atom S2       Shell    93 P   1     bf  207 -   209          0.000000000000          1.335073702466          0.000000000000
      0.2969784651D+07  0.1000000000D+01
 Atom S2       Shell    94 P   1     bf  210 -   212          0.000000000000          1.335073702466          0.000000000000
      0.1516627989D+07  0.1000000000D+01
 Atom S2       Shell    95 P   1     bf  213 -   215          0.000000000000          1.335073702466          0.000000000000
      0.7745209592D+06  0.1000000000D+01
 Atom S2       Shell    96 P   1     bf  216 -   218          0.000000000000          1.335073702466          0.000000000000
      0.3955371526D+06  0.1000000000D+01
 Atom S2       Shell    97 P   1     bf  219 -   221          0.000000000000          1.335073702466          0.000000000000
      0.2019953588D+06  0.1000000000D+01
 Atom S2       Shell    98 P   1     bf  222 -   224          0.000000000000          1.335073702466          0.000000000000
      0.1031562389D+06  0.1000000000D+01
 Atom S2       Shell    99 P   1     bf  225 -   227          0.000000000000          1.335073702466          0.000000000000
      0.5268046591D+05  0.1000000000D+01
 Atom S2       Shell   100 P   1     bf  228 -   230          0.000000000000          1.335073702466          0.000000000000
      0.2690318607D+05  0.1000000000D+01
 Atom S2       Shell   101 P   1     bf  231 -   233          0.000000000000          1.335073702466          0.000000000000
      0.1373908542D+05  0.1000000000D+01
 Atom S2       Shell   102 P   1     bf  234 -   236          0.000000000000          1.335073702466          0.000000000000
      0.7016361094D+04  0.1000000000D+01
 Atom S2       Shell   103 P   1     bf  237 -   239          0.000000000000          1.335073702466          0.000000000000
      0.3583158668D+04  0.1000000000D+01
 Atom S2       Shell   104 P   1     bf  240 -   242          0.000000000000          1.335073702466          0.000000000000
      0.1829869625D+04  0.1000000000D+01
 Atom S2       Shell   105 P   1     bf  243 -   245          0.000000000000          1.335073702466          0.000000000000
      0.9344891347D+03  0.1000000000D+01
 Atom S2       Shell   106 P   1     bf  246 -   248          0.000000000000          1.335073702466          0.000000000000
      0.4772306896D+03  0.1000000000D+01
 Atom S2       Shell   107 P   1     bf  249 -   251          0.000000000000          1.335073702466          0.000000000000
      0.2437151195D+03  0.1000000000D+01
 Atom S2       Shell   108 P   1     bf  252 -   254          0.000000000000          1.335073702466          0.000000000000
      0.1244619442D+03  0.1000000000D+01
 Atom S2       Shell   109 P   1     bf  255 -   257          0.000000000000          1.335073702466          0.000000000000
      0.6356099525D+02  0.1000000000D+01
 Atom S2       Shell   110 P   1     bf  258 -   260          0.000000000000          1.335073702466          0.000000000000
      0.3245972208D+02  0.1000000000D+01
 Atom S2       Shell   111 P   1     bf  261 -   263          0.000000000000          1.335073702466          0.000000000000
      0.1657673158D+02  0.1000000000D+01
 Atom S2       Shell   112 P   1     bf  264 -   266          0.000000000000          1.335073702466          0.000000000000
      0.8465507783D+01  0.1000000000D+01
 Atom S2       Shell   113 P   1     bf  267 -   269          0.000000000000          1.335073702466          0.000000000000
      0.4323217860D+01  0.1000000000D+01
 Atom S2       Shell   114 P   1     bf  270 -   272          0.000000000000          1.335073702466          0.000000000000
      0.2207807629D+01  0.1000000000D+01
 Atom S2       Shell   115 P   1     bf  273 -   275          0.000000000000          1.335073702466          0.000000000000
      0.1127496852D+01  0.1000000000D+01
 Atom S2       Shell   116 P   1     bf  276 -   278          0.000000000000          1.335073702466          0.000000000000
      0.5757970639D+00  0.1000000000D+01
 Atom S2       Shell   117 P   1     bf  279 -   281          0.000000000000          1.335073702466          0.000000000000
      0.2940516050D+00  0.1000000000D+01
 Atom S2       Shell   118 P   1     bf  282 -   284          0.000000000000          1.335073702466          0.000000000000
      0.1501680918D+00  0.1000000000D+01
 Atom S2       Shell   119 P   1     bf  285 -   287          0.000000000000          1.335073702466          0.000000000000
      0.7668876969D-01  0.1000000000D+01
 Atom S2       Shell   120 P   1     bf  288 -   290          0.000000000000          1.335073702466          0.000000000000
      0.3916389510D-01  0.1000000000D+01
 Atom S2       Shell   121 D   1     bf  291 -   295          0.000000000000          1.335073702466          0.000000000000
      0.7016361094D+04  0.1000000000D+01
 Atom S2       Shell   122 D   1     bf  296 -   300          0.000000000000          1.335073702466          0.000000000000
      0.3583158668D+04  0.1000000000D+01
 Atom S2       Shell   123 D   1     bf  301 -   305          0.000000000000          1.335073702466          0.000000000000
      0.1829869625D+04  0.1000000000D+01
 Atom S2       Shell   124 D   1     bf  306 -   310          0.000000000000          1.335073702466          0.000000000000
      0.9344891347D+03  0.1000000000D+01
 Atom S2       Shell   125 D   1     bf  311 -   315          0.000000000000          1.335073702466          0.000000000000
      0.4772306896D+03  0.1000000000D+01
 Atom S2       Shell   126 D   1     bf  316 -   320          0.000000000000          1.335073702466          0.000000000000
      0.2437151195D+03  0.1000000000D+01
 Atom S2       Shell   127 D   1     bf  321 -   325          0.000000000000          1.335073702466          0.000000000000
      0.1244619442D+03  0.1000000000D+01
 Atom S2       Shell   128 D   1     bf  326 -   330          0.000000000000          1.335073702466          0.000000000000
      0.6356099525D+02  0.1000000000D+01
 Atom S2       Shell   129 D   1     bf  331 -   335          0.000000000000          1.335073702466          0.000000000000
      0.3245972208D+02  0.1000000000D+01
 Atom S2       Shell   130 D   1     bf  336 -   340          0.000000000000          1.335073702466          0.000000000000
      0.1657673158D+02  0.1000000000D+01
 Atom S2       Shell   131 D   1     bf  341 -   345          0.000000000000          1.335073702466          0.000000000000
      0.8465507783D+01  0.1000000000D+01
 Atom S2       Shell   132 D   1     bf  346 -   350          0.000000000000          1.335073702466          0.000000000000
      0.4323217860D+01  0.1000000000D+01
 Atom S2       Shell   133 D   1     bf  351 -   355          0.000000000000          1.335073702466          0.000000000000
      0.2207807629D+01  0.1000000000D+01
 Atom S2       Shell   134 D   1     bf  356 -   360          0.000000000000          1.335073702466          0.000000000000
      0.1127496852D+01  0.1000000000D+01
 Atom S2       Shell   135 D   1     bf  361 -   365          0.000000000000          1.335073702466          0.000000000000
      0.5757970639D+00  0.1000000000D+01
 Atom S2       Shell   136 D   1     bf  366 -   370          0.000000000000          1.335073702466          0.000000000000
      0.2940516050D+00  0.1000000000D+01
 Atom S2       Shell   137 D   1     bf  371 -   375          0.000000000000          1.335073702466          0.000000000000
      0.1501680918D+00  0.1000000000D+01
 Atom S2       Shell   138 D   1     bf  376 -   380          0.000000000000          1.335073702466          0.000000000000
      0.7668876969D-01  0.1000000000D+01
 Atom S2       Shell   139 D   1     bf  381 -   385          0.000000000000          1.335073702466          0.000000000000
      0.3916389510D-01  0.1000000000D+01
 Atom S3       Shell   140 S   1     bf  386 -   386         -1.715635437384         -1.790345888772          0.000000000000
      0.2969784651D+07  0.1000000000D+01
 Atom S3       Shell   141 S   1     bf  387 -   387         -1.715635437384         -1.790345888772          0.000000000000
      0.1516627989D+07  0.1000000000D+01
 Atom S3       Shell   142 S   1     bf  388 -   388         -1.715635437384         -1.790345888772          0.000000000000
      0.7745209592D+06  0.1000000000D+01
 Atom S3       Shell   143 S   1     bf  389 -   389         -1.715635437384         -1.790345888772          0.000000000000
      0.3955371526D+06  0.1000000000D+01
 Atom S3       Shell   144 S   1     bf  390 -   390         -1.715635437384         -1.790345888772          0.000000000000
      0.2019953588D+06  0.1000000000D+01
 Atom S3       Shell   145 S   1     bf  391 -   391         -1.715635437384         -1.790345888772          0.000000000000
      0.1031562389D+06  0.1000000000D+01
 Atom S3       Shell   146 S   1     bf  392 -   392         -1.715635437384         -1.790345888772          0.000000000000
      0.5268046591D+05  0.1000000000D+01
 Atom S3       Shell   147 S   1     bf  393 -   393         -1.715635437384         -1.790345888772          0.000000000000
      0.2690318607D+05  0.1000000000D+01
 Atom S3       Shell   148 S   1     bf  394 -   394         -1.715635437384         -1.790345888772          0.000000000000
      0.1373908542D+05  0.1000000000D+01
 Atom S3       Shell   149 S   1     bf  395 -   395         -1.715635437384         -1.790345888772          0.000000000000
      0.7016361094D+04  0.1000000000D+01
 Atom S3       Shell   150 S   1     bf  396 -   396         -1.715635437384         -1.790345888772          0.000000000000
      0.3583158668D+04  0.1000000000D+01
 Atom S3       Shell   151 S   1     bf  397 -   397         -1.715635437384         -1.790345888772          0.000000000000
      0.1829869625D+04  0.1000000000D+01
 Atom S3       Shell   152 S   1     bf  398 -   398         -1.715635437384         -1.790345888772          0.000000000000
      0.9344891347D+03  0.1000000000D+01
 Atom S3       Shell   153 S   1     bf  399 -   399         -1.715635437384         -1.790345888772          0.000000000000
      0.4772306896D+03  0.1000000000D+01
 Atom S3       Shell   154 S   1     bf  400 -   400         -1.715635437384         -1.790345888772          0.000000000000
      0.2437151195D+03  0.1000000000D+01
 Atom S3       Shell   155 S   1     bf  401 -   401         -1.715635437384         -1.790345888772          0.000000000000
      0.1244619442D+03  0.1000000000D+01
 Atom S3       Shell   156 S   1     bf  402 -   402         -1.715635437384         -1.790345888772          0.000000000000
      0.6356099525D+02  0.1000000000D+01
 Atom S3       Shell   157 S   1     bf  403 -   403         -1.715635437384         -1.790345888772          0.000000000000
      0.3245972208D+02  0.1000000000D+01
 Atom S3       Shell   158 S   1     bf  404 -   404         -1.715635437384         -1.790345888772          0.000000000000
      0.1657673158D+02  0.1000000000D+01
 Atom S3       Shell   159 S   1     bf  405 -   405         -1.715635437384         -1.790345888772          0.000000000000
      0.8465507783D+01  0.1000000000D+01
 Atom S3       Shell   160 S   1     bf  406 -   406         -1.715635437384         -1.790345888772          0.000000000000
      0.4323217860D+01  0.1000000000D+01
 Atom S3       Shell   161 S   1     bf  407 -   407         -1.715635437384         -1.790345888772          0.000000000000
      0.2207807629D+01  0.1000000000D+01
 Atom S3       Shell   162 S   1     bf  408 -   408         -1.715635437384         -1.790345888772          0.000000000000
      0.1127496852D+01  0.1000000000D+01
 Atom S3       Shell   163 S   1     bf  409 -   409         -1.715635437384         -1.790345888772          0.000000000000
      0.5757970639D+00  0.1000000000D+01
 Atom S3       Shell   164 S   1     bf  410 -   410         -1.715635437384         -1.790345888772          0.000000000000
      0.2940516050D+00  0.1000000000D+01
 Atom S3       Shell   165 S   1     bf  411 -   411         -1.715635437384         -1.790345888772          0.000000000000
      0.1501680918D+00  0.1000000000D+01
 Atom S3       Shell   166 S   1     bf  412 -   412         -1.715635437384         -1.790345888772          0.000000000000
      0.7668876969D-01  0.1000000000D+01
 Atom S3       Shell   167 P   1     bf  413 -   415         -1.715635437384         -1.790345888772          0.000000000000
      0.2969784651D+07  0.1000000000D+01
 Atom S3       Shell   168 P   1     bf  416 -   418         -1.715635437384         -1.790345888772          0.000000000000
      0.1516627989D+07  0.1000000000D+01
 Atom S3       Shell   169 P   1     bf  419 -   421         -1.715635437384         -1.790345888772          0.000000000000
      0.7745209592D+06  0.1000000000D+01
 Atom S3       Shell   170 P   1     bf  422 -   424         -1.715635437384         -1.790345888772          0.000000000000
      0.3955371526D+06  0.1000000000D+01
 Atom S3       Shell   171 P   1     bf  425 -   427         -1.715635437384         -1.790345888772          0.000000000000
      0.2019953588D+06  0.1000000000D+01
 Atom S3       Shell   172 P   1     bf  428 -   430         -1.715635437384         -1.790345888772          0.000000000000
      0.1031562389D+06  0.1000000000D+01
 Atom S3       Shell   173 P   1     bf  431 -   433         -1.715635437384         -1.790345888772          0.000000000000
      0.5268046591D+05  0.1000000000D+01
 Atom S3       Shell   174 P   1     bf  434 -   436         -1.715635437384         -1.790345888772          0.000000000000
      0.2690318607D+05  0.1000000000D+01
 Atom S3       Shell   175 P   1     bf  437 -   439         -1.715635437384         -1.790345888772          0.000000000000
      0.1373908542D+05  0.1000000000D+01
 Atom S3       Shell   176 P   1     bf  440 -   442         -1.715635437384         -1.790345888772          0.000000000000
      0.7016361094D+04  0.1000000000D+01
 Atom S3       Shell   177 P   1     bf  443 -   445         -1.715635437384         -1.790345888772          0.000000000000
      0.3583158668D+04  0.1000000000D+01
 Atom S3       Shell   178 P   1     bf  446 -   448         -1.715635437384         -1.790345888772          0.000000000000
      0.1829869625D+04  0.1000000000D+01
 Atom S3       Shell   179 P   1     bf  449 -   451         -1.715635437384         -1.790345888772          0.000000000000
      0.9344891347D+03  0.1000000000D+01
 Atom S3       Shell   180 P   1     bf  452 -   454         -1.715635437384         -1.790345888772          0.000000000000
      0.4772306896D+03  0.1000000000D+01
 Atom S3       Shell   181 P   1     bf  455 -   457         -1.715635437384         -1.790345888772          0.000000000000
      0.2437151195D+03  0.1000000000D+01
 Atom S3       Shell   182 P   1     bf  458 -   460         -1.715635437384         -1.790345888772          0.000000000000
      0.1244619442D+03  0.1000000000D+01
 Atom S3       Shell   183 P   1     bf  461 -   463         -1.715635437384         -1.790345888772          0.000000000000
      0.6356099525D+02  0.1000000000D+01
 Atom S3       Shell   184 P   1     bf  464 -   466         -1.715635437384         -1.790345888772          0.000000000000
      0.3245972208D+02  0.1000000000D+01
 Atom S3       Shell   185 P   1     bf  467 -   469         -1.715635437384         -1.790345888772          0.000000000000
      0.1657673158D+02  0.1000000000D+01
 Atom S3       Shell   186 P   1     bf  470 -   472         -1.715635437384         -1.790345888772          0.000000000000
      0.8465507783D+01  0.1000000000D+01
 Atom S3       Shell   187 P   1     bf  473 -   475         -1.715635437384         -1.790345888772          0.000000000000
      0.4323217860D+01  0.1000000000D+01
 Atom S3       Shell   188 P   1     bf  476 -   478         -1.715635437384         -1.790345888772          0.000000000000
      0.2207807629D+01  0.1000000000D+01
 Atom S3       Shell   189 P   1     bf  479 -   481         -1.715635437384         -1.790345888772          0.000000000000
      0.1127496852D+01  0.1000000000D+01
 Atom S3       Shell   190 P   1     bf  482 -   484         -1.715635437384         -1.790345888772          0.000000000000
      0.5757970639D+00  0.1000000000D+01
 Atom S3       Shell   191 P   1     bf  485 -   487         -1.715635437384         -1.790345888772          0.000000000000
      0.2940516050D+00  0.1000000000D+01
 Atom S3       Shell   192 P   1     bf  488 -   490         -1.715635437384         -1.790345888772          0.000000000000
      0.1501680918D+00  0.1000000000D+01
 Atom S3       Shell   193 P   1     bf  491 -   493         -1.715635437384         -1.790345888772          0.000000000000
      0.7668876969D-01  0.1000000000D+01
 Atom S3       Shell   194 P   1     bf  494 -   496         -1.715635437384         -1.790345888772          0.000000000000
      0.3916389510D-01  0.1000000000D+01
 Atom S3       Shell   195 D   1     bf  497 -   501         -1.715635437384         -1.790345888772          0.000000000000
      0.7016361094D+04  0.1000000000D+01
 Atom S3       Shell   196 D   1     bf  502 -   506         -1.715635437384         -1.790345888772          0.000000000000
      0.3583158668D+04  0.1000000000D+01
 Atom S3       Shell   197 D   1     bf  507 -   511         -1.715635437384         -1.790345888772          0.000000000000
      0.1829869625D+04  0.1000000000D+01
 Atom S3       Shell   198 D   1     bf  512 -   516         -1.715635437384         -1.790345888772          0.000000000000
      0.9344891347D+03  0.1000000000D+01
 Atom S3       Shell   199 D   1     bf  517 -   521         -1.715635437384         -1.790345888772          0.000000000000
      0.4772306896D+03  0.1000000000D+01
 Atom S3       Shell   200 D   1     bf  522 -   526         -1.715635437384         -1.790345888772          0.000000000000
      0.2437151195D+03  0.1000000000D+01
 Atom S3       Shell   201 D   1     bf  527 -   531         -1.715635437384         -1.790345888772          0.000000000000
      0.1244619442D+03  0.1000000000D+01
 Atom S3       Shell   202 D   1     bf  532 -   536         -1.715635437384         -1.790345888772          0.000000000000
      0.6356099525D+02  0.1000000000D+01
 Atom S3       Shell   203 D   1     bf  537 -   541         -1.715635437384         -1.790345888772          0.000000000000
      0.3245972208D+02  0.1000000000D+01
 Atom S3       Shell   204 D   1     bf  542 -   546         -1.715635437384         -1.790345888772          0.000000000000
      0.1657673158D+02  0.1000000000D+01
 Atom S3       Shell   205 D   1     bf  547 -   551         -1.715635437384         -1.790345888772          0.000000000000
      0.8465507783D+01  0.1000000000D+01
 Atom S3       Shell   206 D   1     bf  552 -   556         -1.715635437384         -1.790345888772          0.000000000000
      0.4323217860D+01  0.1000000000D+01
 Atom S3       Shell   207 D   1     bf  557 -   561         -1.715635437384         -1.790345888772          0.000000000000
      0.2207807629D+01  0.1000000000D+01
 Atom S3       Shell   208 D   1     bf  562 -   566         -1.715635437384         -1.790345888772          0.000000000000
      0.1127496852D+01  0.1000000000D+01
 Atom S3       Shell   209 D   1     bf  567 -   571         -1.715635437384         -1.790345888772          0.000000000000
      0.5757970639D+00  0.1000000000D+01
 Atom S3       Shell   210 D   1     bf  572 -   576         -1.715635437384         -1.790345888772          0.000000000000
      0.2940516050D+00  0.1000000000D+01
 Atom S3       Shell   211 D   1     bf  577 -   581         -1.715635437384         -1.790345888772          0.000000000000
      0.1501680918D+00  0.1000000000D+01
 Atom S3       Shell   212 D   1     bf  582 -   586         -1.715635437384         -1.790345888772          0.000000000000
      0.7668876969D-01  0.1000000000D+01
 Atom S3       Shell   213 D   1     bf  587 -   591         -1.715635437384         -1.790345888772          0.000000000000
      0.3916389510D-01  0.1000000000D+01
 There are   456 symmetry adapted cartesian basis functions of A'  symmetry.
 There are   189 symmetry adapted cartesian basis functions of A"  symmetry.
 There are   402 symmetry adapted basis functions of A'  symmetry.
 There are   189 symmetry adapted basis functions of A"  symmetry.
   591 basis functions,   645 primitive gaussians,   645 cartesian basis functions
    21 alpha electrons       20 beta electrons
       nuclear repulsion energy       144.8552201528 Hartrees.
 IExCor= 3731 DFT=T Ex+Corr=APFD ExCW=0 ScaHFX=  0.229450
 ScaDFX=  1.000000  1.000000  1.000000  1.000000 ScalE2=  1.000000  1.000000
 IRadAn= 299974 IRanWt=     -1 IRanGd=            0 ICorTp=0 IEmpDi=211
 NAtoms=    3 NActive=    3 NUniq=    3 SFac= 1.00D+00 NAtFMM=   60 NAOKFM=F Big=F
 Integral buffers will be    131072 words long.
 Raffenetti 2 integral format.
 Two-electron integral symmetry is turned on.
 R6Disp:  Petersson-Frisch Dispersion energy=       -0.0010637650 Hartrees.
 Nuclear repulsion after empirical dispersion term =      144.8541563877 Hartrees.
 Leave Link  301 at Thu Aug  1 16:16:25 2013, MaxMem= 1073741824 cpu:       0.6
 (Enter /share/apps/gaussian/gdvh12/gdv/l302.exe)
 NPDir=0 NMtPBC=     1 NCelOv=     1 NCel=       1 NClECP=     1 NCelD=      1
         NCelK=      1 NCelE2=     1 NClLst=     1 CellRange=     0.0.
 One-electron integrals computed using PRISM.
 NBasis=   591 RedAO= T EigKep=  1.59D-05  NBF=   402   189
 NBsUse=   591 1.00D-06 EigRej= -1.00D+00 NBFU=   402   189
 Precomputing XC quadrature grid using
 IXCGrd= 2 IRadAn=      299974 IRanWt=          -1 IRanGd=           0 AccXCQ= 0.00D+00.
 NRdTot=     897 NPtTot=      729526 NUsed=      735857 NTot=      735889
 NSgBfM=   391   391   391   391   391 NAtAll=     3     3.
 Leave Link  302 at Thu Aug  1 16:16:26 2013, MaxMem= 1073741824 cpu:       5.5
 (Enter /share/apps/gaussian/gdvh12/gdv/l303.exe)
 DipDrv:  MaxL=1.
 Leave Link  303 at Thu Aug  1 16:16:27 2013, MaxMem= 1073741824 cpu:       0.9
 (Enter /share/apps/gaussian/gdvh12/gdv/l401.exe)
 Initial guess from the checkpoint file:  FS2.chk
 B after Tr=     0.000000    0.000000    0.000000
         Rot=    1.000000    0.000000    0.000000    0.000000 Ang=   0.00 deg.
 Guess basis will be translated and rotated to current coordinates.
 Initial guess orbital symmetries:
 Alpha Orbitals:
       Occupied  (A') (A') (A') (A') (A') (A') (A") (A') (A") (A')
                 (A') (A') (A') (A') (A') (A") (A') (A') (A") (A')
                 (A")
       Virtual   (A') (A') (A') (A") (A') (A') (A') (A") (A') (A")
                 (A') (A") (A') (A') (A") (A') (A') (A") (A') (A")
                 (A") (A') (A') (A') (A') (A") (A') (A') (A") (A')
                 (A") (A") (A') (A") (A') (A') (A') (A") (A') (A')
                 (A') (A") (A") (A') (A") (A') (A') (A') (A") (A')
                 (A') (A") (A') (A') (A') (A") (A") (A') (A') (A')
                 (A") (A') (A') (A') (A") (A') (A') (A") (A') (A")
                 (A') (A") (A') (A') (A") (A') (A") (A') (A') (A')
                 (A') (A") (A') (A") (A') (A') (A") (A') (A') (A')
                 (A') (A") (A") (A') (A') (A') (A") (A') (A") (A')
                 (A') (A") (A') (A") (A') (A') (A') (A') (A") (A')
                 (A") (A') (A') (A') (A") (A') (A') (A') (A") (A')
                 (A") (A') (A") (A') (A") (A') (A') (A') (A") (A')
                 (A") (A') (A') (A") (A') (A") (A') (A') (A') (A')
                 (A") (A') (A') (A') (A') (A") (A") (A') (A") (A')
                 (A") (A') (A') (A') (A") (A') (A") (A') (A') (A")
                 (A') (A") (A') (A') (A') (A') (A') (A") (A') (A')
                 (A") (A') (A") (A') (A") (A") (A') (A') (A') (A')
                 (A") (A') (A") (A') (A') (A') (A") (A') (A') (A")
                 (A') (A') (A") (A') (A') (A') (A') (A") (A') (A")
                 (A') (A") (A") (A') (A') (A') (A') (A") (A') (A")
                 (A') (A') (A') (A") (A') (A") (A') (A') (A') (A")
                 (A') (A') (A") (A') (A") (A') (A") (A') (A") (A')
                 (A') (A') (A') (A') (A") (A') (A") (A') (A') (A')
                 (A") (A') (A") (A') (A') (A') (A") (A') (A') (A")
                 (A') (A") (A') (A') (A") (A") (A') (A') (A') (A")
                 (A') (A") (A') (A') (A') (A') (A') (A") (A') (A")
                 (A') (A') (A') (A") (A') (A') (A") (A') (A") (A')
                 (A') (A") (A") (A') (A') (A') (A") (A') (A") (A')
                 (A') (A') (A') (A') (A") (A') (A") (A') (A') (A')
                 (A") (A') (A') (A") (A') (A") (A') (A') (A") (A")
                 (A') (A') (A') (A") (A') (A") (A') (A') (A') (A')
                 (A') (A") (A') (A") (A') (A') (A') (A") (A') (A')
                 (A") (A') (A") (A') (A') (A") (A') (A") (A') (A')
                 (A") (A') (A") (A') (A') (A') (A') (A') (A") (A')
                 (A") (A') (A') (A') (A") (A') (A') (A") (A') (A")
                 (A') (A') (A") (A') (A") (A') (A') (A") (A') (A")
                 (A') (A') (A') (A') (A') (A") (A') (A") (A') (A')
                 (A') (A") (A') (A') (A") (A') (A") (A') (A') (A")
                 (A') (A") (A') (A') (A") (A') (A") (A') (A') (A')
                 (A') (A') (A") (A') (A') (A") (A') (A') (A") (A')
                 (A') (A") (A') (A") (A') (A') (A") (A') (A") (A')
                 (A') (A") (A') (A") (A') (A') (A') (A') (A') (A")
                 (A') (A') (A") (A') (A') (A") (A') (A') (A") (A')
                 (A") (A') (A') (A") (A') (A") (A') (A') (A') (A')
                 (A') (A") (A') (A') (A") (A') (A') (A") (A') (A')
                 (A") (A') (A") (A') (A') (A") (A') (A") (A') (A')
                 (A') (A') (A') (A") (A') (A') (A") (A') (A') (A")
                 (A') (A') (A') (A') (A') (A") (A') (A') (A") (A')
                 (A') (A") (A') (A') (A') (A') (A') (A") (A') (A')
                 (A") (A') (A') (A") (A') (A') (A') (A') (A') (A")
                 (A') (A') (A") (A') (A') (A") (A') (A') (A') (A')
                 (A') (A") (A') (A') (A") (A') (A') (A") (A') (A')
                 (A') (A') (A') (A") (A') (A') (A") (A') (A') (A")
                 (A') (A') (A') (A') (A') (A") (A') (A') (A") (A')
                 (A') (A") (A') (A') (A') (A') (A") (A') (A') (A")
                 (A') (A') (A') (A') (A") (A') (A') (A") (A') (A')
 Beta  Orbitals:
       Occupied  (A') (A') (A') (A') (A') (A') (A') (A") (A') (A')
                 (A") (A') (A') (A') (A') (A') (A") (A') (A") (A')
       Virtual   (A") (A') (A') (A') (A") (A') (A') (A') (A') (A")
                 (A") (A') (A') (A") (A') (A') (A") (A') (A") (A')
                 (A") (A') (A") (A') (A') (A') (A") (A') (A') (A')
                 (A") (A") (A") (A') (A") (A') (A') (A') (A") (A')
                 (A') (A') (A') (A") (A") (A") (A') (A') (A') (A")
                 (A') (A') (A") (A') (A') (A') (A") (A") (A') (A')
                 (A') (A") (A') (A') (A') (A") (A') (A') (A') (A")
                 (A") (A') (A") (A') (A') (A") (A') (A') (A") (A')
                 (A') (A') (A") (A') (A") (A') (A') (A") (A') (A')
                 (A') (A') (A") (A') (A") (A') (A') (A') (A") (A")
                 (A') (A') (A') (A") (A") (A') (A') (A') (A') (A")
                 (A') (A") (A') (A') (A') (A") (A') (A') (A') (A")
                 (A') (A") (A') (A") (A') (A") (A') (A') (A') (A")
                 (A') (A") (A') (A') (A") (A') (A") (A') (A') (A')
                 (A') (A") (A') (A') (A') (A') (A") (A") (A') (A")
                 (A') (A") (A') (A') (A') (A") (A') (A") (A') (A')
                 (A") (A') (A') (A") (A') (A') (A') (A') (A") (A')
                 (A') (A") (A') (A") (A') (A') (A") (A") (A') (A')
                 (A') (A") (A') (A") (A') (A') (A') (A") (A') (A')
                 (A") (A') (A') (A") (A') (A') (A') (A') (A") (A')
                 (A") (A') (A") (A") (A') (A') (A') (A') (A") (A')
                 (A") (A') (A') (A') (A") (A') (A") (A') (A') (A')
                 (A") (A') (A') (A") (A') (A") (A') (A") (A') (A")
                 (A') (A') (A') (A') (A') (A") (A') (A") (A') (A')
                 (A') (A") (A') (A") (A') (A') (A') (A") (A') (A')
                 (A") (A') (A") (A') (A') (A") (A") (A') (A') (A')
                 (A") (A') (A") (A') (A') (A') (A') (A') (A") (A')
                 (A") (A') (A') (A') (A") (A') (A') (A") (A') (A")
                 (A') (A') (A") (A") (A') (A') (A') (A") (A') (A")
                 (A') (A') (A') (A') (A') (A") (A') (A") (A') (A')
                 (A') (A") (A') (A') (A") (A') (A") (A') (A') (A")
                 (A') (A") (A') (A') (A") (A') (A") (A') (A') (A')
                 (A') (A') (A") (A') (A") (A') (A') (A') (A") (A')
                 (A') (A") (A') (A") (A') (A') (A") (A') (A") (A')
                 (A') (A") (A') (A") (A') (A') (A') (A') (A') (A")
                 (A') (A') (A") (A') (A') (A") (A') (A') (A") (A')
                 (A") (A') (A') (A") (A') (A") (A') (A') (A") (A')
                 (A") (A') (A') (A') (A') (A') (A") (A') (A') (A")
                 (A') (A') (A") (A') (A') (A") (A') (A") (A') (A')
                 (A") (A') (A") (A') (A') (A") (A') (A") (A') (A')
                 (A') (A') (A') (A") (A') (A') (A") (A') (A') (A")
                 (A') (A') (A") (A') (A") (A') (A') (A") (A') (A")
                 (A') (A') (A") (A') (A") (A') (A') (A') (A') (A')
                 (A") (A') (A') (A") (A') (A') (A") (A') (A') (A")
                 (A') (A") (A') (A') (A") (A') (A") (A') (A') (A')
                 (A') (A') (A") (A') (A') (A") (A') (A') (A") (A')
                 (A') (A") (A') (A") (A') (A') (A") (A') (A") (A')
                 (A') (A') (A') (A') (A") (A') (A') (A") (A') (A')
                 (A") (A') (A') (A') (A') (A') (A") (A') (A') (A")
                 (A') (A') (A") (A') (A') (A') (A') (A') (A") (A')
                 (A') (A") (A') (A') (A") (A') (A') (A') (A') (A')
                 (A") (A') (A') (A") (A') (A') (A") (A') (A') (A')
                 (A') (A') (A") (A') (A') (A") (A') (A') (A") (A')
                 (A') (A') (A') (A') (A") (A') (A') (A") (A') (A')
                 (A") (A') (A') (A') (A') (A') (A") (A') (A') (A")
                 (A') (A') (A") (A') (A') (A') (A') (A") (A') (A')
                 (A") (A') (A') (A') (A') (A") (A') (A') (A") (A')
                 (A')
 The electronic state of the initial guess is 2-A".
 Initial guess <Sx>= 0.0000 <Sy>= 0.0000 <Sz>= 0.5000 <S**2>= 0.7557 S= 0.5028
 Leave Link  401 at Thu Aug  1 16:16:35 2013, MaxMem= 1073741824 cpu:      31.8
 (Enter /share/apps/gaussian/gdvh12/gdv/l502.exe)
 UHF open shell SCF:
 Using DIIS extrapolation, IDIIS=  1040.
 Integral symmetry usage will be decided dynamically.
       735817 words used for storage of precomputed grid.
 IVT=     2010801 IEndB=     2010801 NGot=  1073741824 MDV=  1072164334
 LenX=  1072164334 LenY=  1071747664
 Requested convergence on RMS density matrix=1.00D-08 within 128 cycles.
 Requested convergence on MAX density matrix=1.00D-06.
 Requested convergence on             energy=1.00D-06.
 No special actions if energy rises.
 Fock matrices will be formed incrementally for  20 cycles.

 Cycle   1  Pass 1  IDiag  1:
 FoFJK:  IHMeth= 1 ICntrl=       0 DoSepK=F KAlg= 0 I1Cent=   0 FoldK=F
 IRaf=       0 NMat=   1 IRICut=       1 DoRegI=T DoRafI=F ISym2E= 1.
 FoFCou: FMM=F IPFlag=           0 FMFlag=      100000 FMFlg1=           0
         NFxFlg=           0 DoJE=F BraDBF=F KetDBF=F FulRan=T
         wScrn=  0.000000 ICntrl=       0 IOpCl=  1 I1Cent=           0 NGrid=           0
         NMat0=    1 NMatS0=      1 NMatT0=    0 NMatD0=    1 NMtDS0=    0 NMtDT0=    0
 Petite list used in FoFCou.
 E= -896.039815701247    
 DIIS: error= 2.55D-07 at cycle   1 NSaved=   1.
 NSaved= 1 IEnMin= 1 EnMin= -896.039815701247     IErMin= 1 ErrMin= 2.55D-07
 ErrMax= 2.55D-07  0.00D+00 EMaxC= 1.00D-01 BMatC= 1.11D-10 BMatP= 1.11D-10
 IDIUse=1 WtCom= 1.00D+00 WtEn= 0.00D+00
 Coeff-Com:  0.100D+01
 Coeff:      0.100D+01
 Gap=     0.185 Goal=   None    Shift=    0.000
 Gap=     0.163 Goal=   None    Shift=    0.000
 RMSDP=1.55D-08 MaxDP=1.69D-06              OVMax= 1.06D-05

 Cycle   2  Pass 1  IDiag  1:
 RMSU=  1.54D-08    CP:  1.00D+00
 E= -896.039815701115     Delta-E=        0.000000000131 Rises=F Damp=F
 DIIS: error= 5.51D-07 at cycle   2 NSaved=   2.
 NSaved= 2 IEnMin= 1 EnMin= -896.039815701247     IErMin= 1 ErrMin= 2.55D-07
 ErrMax= 5.51D-07  0.00D+00 EMaxC= 1.00D-01 BMatC= 4.86D-10 BMatP= 1.11D-10
 IDIUse=1 WtCom= 1.00D+00 WtEn= 0.00D+00
 Coeff-Com:  0.683D+00 0.317D+00
 Coeff:      0.683D+00 0.317D+00
 Gap=     0.185 Goal=   None    Shift=    0.000
 Gap=     0.163 Goal=   None    Shift=    0.000
 DSYEVD returned Info=      122108 IAlg= 4 N=   402 NDim=   591 NE2=     1813446 trying DSYEV.
 RMSDP=1.11D-08 MaxDP=1.12D-06 DE= 1.31D-10 OVMax= 7.15D-06

 Cycle   3  Pass 1  IDiag  1:
 RMSU=  7.51D-10    CP:  1.00D+00  2.84D-01
 E= -896.039815701266     Delta-E=       -0.000000000150 Rises=F Damp=F
 DIIS: error= 5.68D-08 at cycle   3 NSaved=   3.
 NSaved= 3 IEnMin= 3 EnMin= -896.039815701266     IErMin= 3 ErrMin= 5.68D-08
 ErrMax= 5.68D-08  0.00D+00 EMaxC= 1.00D-01 BMatC= 1.49D-12 BMatP= 1.11D-10
 IDIUse=1 WtCom= 1.00D+00 WtEn= 0.00D+00
 Coeff-Com:  0.830D-01 0.682D-01 0.849D+00
 Coeff:      0.830D-01 0.682D-01 0.849D+00
 Gap=     0.185 Goal=   None    Shift=    0.000
 Gap=     0.163 Goal=   None    Shift=    0.000
 RMSDP=7.28D-10 MaxDP=5.37D-08 DE=-1.50D-10 OVMax= 3.58D-07

 SCF Done:  E(UAPFD) =  -896.039815701     A.U. after    3 cycles
            NFock=  3  Conv=0.73D-09     -V/T= 2.0016
 <Sx>= 0.0000 <Sy>= 0.0000 <Sz>= 0.5000 <S**2>= 0.7557 S= 0.5028
 <L.S>= 0.000000000000E+00
 KE= 8.946332491857D+02 PE=-2.421761955768D+03 EE= 4.862347344933D+02
 Annihilation of the first spin contaminant:
 S**2 before annihilation     0.7557,   after     0.7500
 Leave Link  502 at Thu Aug  1 16:31:52 2013, MaxMem= 1073741824 cpu:    3667.5
 (Enter /share/apps/gaussian/gdvh12/gdv/l801.exe)
 DoSCS=F DFT=T ScalE2(SS,OS)=  1.000000  1.000000
 Range of M.O.s used for correlation:     1   591
 NBasis=   591 NAE=    21 NBE=    20 NFC=     0 NFV=     0
 NROrb=    591 NOA=    21 NOB=    20 NVA=   570 NVB=   571

 **** Warning!!: The largest alpha MO coefficient is  0.73996464D+02


 **** Warning!!: The largest beta MO coefficient is  0.84520369D+02

 Leave Link  801 at Thu Aug  1 16:31:53 2013, MaxMem= 1073741824 cpu:       0.5
 (Enter /share/apps/gaussian/gdvh12/gdv/l1101.exe)
 Using compressed storage, NAtomX=     3.
 Will process      4 centers per pass.
 R6Disp: Adding Petersson-Frisch dispersion energy 1st derivatives to the gradient.
 Leave Link 1101 at Thu Aug  1 16:31:54 2013, MaxMem= 1073741824 cpu:       6.3
 (Enter /share/apps/gaussian/gdvh12/gdv/l1102.exe)
 Symmetrizing basis deriv contribution to polar:
 IMax=3 JMax=2 DiffMx= 0.00D+00
 Leave Link 1102 at Thu Aug  1 16:31:54 2013, MaxMem= 1073741824 cpu:       1.1
 (Enter /share/apps/gaussian/gdvh12/gdv/l1110.exe)
 Forming Gx(P) for the SCF density, NAtomX=     3.
 Integral derivatives from FoFJK, PRISM(SPDF).
 Do as many integral derivatives as possible in FoFJK.
 G2DrvN: MDV=    1073741696.
 G2DrvN: will do     4 centers at a time, making    1 passes.
 Calling FoFCou, ICntrl=  3107 FMM=F I1Cent=   0 AccDes= 1.00D-12.
 FoFJK:  IHMeth= 1 ICntrl=    3107 DoSepK=F KAlg= 0 I1Cent=   0 FoldK=F
 IRaf=       0 NMat=   1 IRICut=       1 DoRegI=T DoRafI=F ISym2E= 1.
 FoFCou: FMM=F IPFlag=           0 FMFlag=      100000 FMFlg1=           0
         NFxFlg=           0 DoJE=F BraDBF=F KetDBF=F FulRan=T
         wScrn=  0.000000 ICntrl=    3107 IOpCl=  1 I1Cent=           0 NGrid=           0
         NMat0=    1 NMatS0=      1 NMatT0=    0 NMatD0=    1 NMtDS0=    0 NMtDT0=    0
 Petite list used in FoFCou.
 End of G2Drv F.D. properties file   721 does not exist.
 End of G2Drv F.D. properties file   722 does not exist.
 Leave Link 1110 at Thu Aug  1 17:08:42 2013, MaxMem= 1073741824 cpu:    8825.9
 (Enter /share/apps/gaussian/gdvh12/gdv/l1002.exe)
 Minotr:  UHF open shell wavefunction.
          IDoAtm=111
          Direct CPHF calculation.
          Differentiating once with respect to electric field.
                with respect to dipole field.
          Differentiating once with respect to nuclear coordinates.
          Using symmetry in CPHF.
          Requested convergence is 1.0D-08 RMS, and 1.0D-07 maximum.
          Secondary convergence is 1.0D-12 RMS, and 1.0D-12 maximum.
          NewPWx=T KeepS1=F KeepF1=F KeepIn=T MapXYZ=F SortEE=F KeepMc=T.
          MDV=    1073740608 using IRadAn=  199590.
 Generate precomputed XC quadrature information.
          Solving linear equations simultaneously, MaxMat=       0.
 FoFJK:  IHMeth= 1 ICntrl=       0 DoSepK=F KAlg= 0 I1Cent=   0 FoldK=F
 IRaf=       0 NMat=  12 IRICut=       1 DoRegI=T DoRafI=F ISym2E= 2.
 FoFCou: FMM=F IPFlag=           0 FMFlag=      100000 FMFlg1=           0
         NFxFlg=           0 DoJE=F BraDBF=F KetDBF=F FulRan=T
         wScrn=  0.000000 ICntrl=       0 IOpCl=  1 I1Cent=           0 NGrid=           0
         NMat0=   12 NMatS0=     12 NMatT0=    0 NMatD0=   12 NMtDS0=    0 NMtDT0=    0
 Integrals replicated using symmetry in FoFCou.
          There are    12 degrees of freedom in the 1st order CPHF.  IDoFFX=6 NUNeed=     3.
      9 vectors produced by pass  0 Test12= 1.95D-13 8.33D-09 XBig12= 1.10D+02 4.70D+00.
 AX will form     9 AO Fock derivatives at one time.
      9 vectors produced by pass  1 Test12= 1.95D-13 8.33D-09 XBig12= 4.30D+01 1.42D+00.
      9 vectors produced by pass  2 Test12= 1.95D-13 8.33D-09 XBig12= 2.10D+00 5.75D-01.
      9 vectors produced by pass  3 Test12= 1.95D-13 8.33D-09 XBig12= 9.04D-02 6.63D-02.
      9 vectors produced by pass  4 Test12= 1.95D-13 8.33D-09 XBig12= 2.11D-03 1.67D-02.
      9 vectors produced by pass  5 Test12= 1.95D-13 8.33D-09 XBig12= 4.66D-05 1.94D-03.
      9 vectors produced by pass  6 Test12= 1.95D-13 8.33D-09 XBig12= 1.05D-06 2.87D-04.
      9 vectors produced by pass  7 Test12= 1.95D-13 8.33D-09 XBig12= 1.72D-08 2.29D-05.
      8 vectors produced by pass  8 Test12= 1.95D-13 8.33D-09 XBig12= 2.20D-10 2.55D-06.
      3 vectors produced by pass  9 Test12= 1.95D-13 8.33D-09 XBig12= 2.26D-12 2.92D-07.
      3 vectors produced by pass 10 Test12= 1.95D-13 8.33D-09 XBig12= 2.12D-14 2.72D-08.
 InvSVY:  IOpt=1 It=  1 EMax= 5.33D-15
 Solved reduced A of dimension    86 with    12 vectors.
 FullF1:  Do perturbations    1 to     3.
 Isotropic polarizability for W=    0.000000       43.11 Bohr**3.
 End of Minotr F.D. properties file   721 does not exist.
 End of Minotr F.D. properties file   722 does not exist.
 Leave Link 1002 at Thu Aug  1 20:11:28 2013, MaxMem= 1073741824 cpu:   43840.3
 (Enter /share/apps/gaussian/gdvh12/gdv/l601.exe)
 Copying SCF densities to generalized density rwf, IOpCl= 1 IROHF=0.

[...]

 **********************************************************************

        Calculation of infrared intensities at anharmonic level

 **********************************************************************

 ------------------------------------------------------------
      Analysis of the contributions to fundamental bands
 ------------------------------------------------------------

 ======================================================================
  Mode:   1, Harm. freq.:   294.528 cm^-1, Anh. freq.:   292.035 cm^-1
 ----------------------------------------------------------------------
  Term                   X                  Y                  Z
  + HARMONIC         -0.313783E-01      0.369328E-13     -0.786977E-02
  + MIXED            -0.124780E-03      0.000000E+00     -0.256786E-03
  + ELECTRIC          0.123744E-03      0.000000E+00     -0.132843E-03
  + MECHANIC         -0.967367E-04      0.158789E-15      0.942965E-04
    - Cubic          -0.144799E-03      0.207913E-16     -0.450919E-03
    - Quartic         0.464535E-04      0.144917E-15      0.559073E-03
    - Coriolis        0.160916E-05     -0.691919E-17     -0.138576E-04
  = TOTAL            -0.314760E-01      0.370916E-13     -0.816510E-02
 ======================================================================
  Mode:   2, Harm. freq.:   696.317 cm^-1, Anh. freq.:   688.512 cm^-1
 ----------------------------------------------------------------------
  Term                   X                  Y                  Z
  + HARMONIC         -0.125278E-01     -0.124588E-13     -0.688482E-01
  + MIXED            -0.199040E-03      0.000000E+00      0.159349E-03
  + ELECTRIC         -0.136072E-03      0.000000E+00      0.164989E-03
  + MECHANIC         -0.636039E-02      0.665490E-14     -0.106244E-01
    - Cubic          -0.135234E-01      0.140922E-13     -0.228183E-01
    - Quartic         0.706585E-02     -0.733424E-14      0.120388E-01
    - Coriolis        0.971079E-04     -0.103077E-15      0.155071E-03
  = TOTAL            -0.192233E-01     -0.580391E-14     -0.791483E-01
 ======================================================================
  Mode:   3, Harm. freq.:   714.135 cm^-1, Anh. freq.:   705.787 cm^-1
 ----------------------------------------------------------------------
  Term                   X                  Y                  Z
  + HARMONIC         -0.576943E-01      0.609243E-13     -0.954512E-01
  + MIXED             0.410918E-03      0.000000E+00      0.366351E-03
  + ELECTRIC          0.193849E-03      0.000000E+00      0.131504E-03
  + MECHANIC          0.121307E-02      0.150186E-14      0.722017E-02
    - Cubic           0.242180E-02      0.334998E-14      0.150585E-01
    - Quartic        -0.118465E-02     -0.183119E-14     -0.771831E-02
    - Coriolis       -0.240729E-04     -0.169272E-16     -0.120036E-03
  = TOTAL            -0.558765E-01      0.624261E-13     -0.877332E-01
 ======================================================================

 ------------------------------------------------------------
        Analysis of the contributions to overtones and
                      combination bands
 ------------------------------------------------------------

 ======================================================================
 OVERTONE: Mode:   1(2), Anh. freq.:   705.787 cm^-1
 ----------------------------------------------------------------------
  Term                   X                  Y                  Z
  + ELECTRIC          0.129555E-02      0.000000E+00      0.325201E-02
  + MECHANIC         -0.952753E-03      0.669963E-15     -0.132933E-02
  = TOTAL             0.342793E-03      0.669963E-15      0.192269E-02
 ======================================================================
 COMBINATION: Mode1:   2(1), Mode2:   1(1), Anh. freq.:   583.777 cm^-1
 ----------------------------------------------------------------------
  Term                   X                  Y                  Z
  + ELECTRIC         -0.908336E-04      0.000000E+00     -0.242274E-03
  + MECHANIC         -0.283145E-03     -0.153004E-15     -0.134342E-02
  = TOTAL            -0.373979E-03     -0.153004E-15     -0.158570E-02
 ======================================================================
 OVERTONE: Mode:   2(2), Anh. freq.:   978.556 cm^-1
 ----------------------------------------------------------------------
  Term                   X                  Y                  Z
  + ELECTRIC          0.106821E-02      0.000000E+00     -0.946841E-03
  + MECHANIC         -0.129509E-02      0.215623E-15     -0.419708E-02
  = TOTAL            -0.226886E-03      0.215623E-15     -0.514392E-02
 ======================================================================
 COMBINATION: Mode1:   3(1), Mode2:   1(1), Anh. freq.:  1373.590 cm^-1
 ----------------------------------------------------------------------
  Term                   X                  Y                  Z
  + ELECTRIC          0.142450E-02      0.000000E+00      0.158483E-02
  + MECHANIC         -0.165275E-04     -0.164365E-16     -0.908293E-04
  = TOTAL             0.140797E-02     -0.164365E-16      0.149400E-02
 ======================================================================
 COMBINATION: Mode1:   3(1), Mode2:   2(1), Anh. freq.:   995.413 cm^-1
 ----------------------------------------------------------------------
  Term                   X                  Y                  Z
  + ELECTRIC         -0.146785E-02      0.000000E+00     -0.135048E-02
  + MECHANIC         -0.251678E-02      0.247159E-14     -0.450668E-02
  = TOTAL            -0.398463E-02      0.247159E-14     -0.585716E-02
 ======================================================================
 OVERTONE: Mode:   3(2), Anh. freq.:  1387.546 cm^-1
 ----------------------------------------------------------------------
  Term                   X                  Y                  Z
  + ELECTRIC          0.925199E-03      0.000000E+00      0.171463E-02
  + MECHANIC         -0.540045E-03     -0.843646E-15     -0.354221E-02
  = TOTAL             0.385154E-03     -0.843646E-15     -0.182758E-02
 ======================================================================

 ------------------------------------------------------------
          IR intensities of vibrational transitions
 ------------------------------------------------------------

 Fundamental Bands (DE w.r.t. Ground State)
 --------+-------------+-------------+-----------------+-----------------
   Mode  | Harm. freq. | Anh. freq.  | Harm. intensity | Anh. intensity
         | (in cm^-1)  | (in cm^-1)  | (in km.mol^-1)  | (in km.mol^-1)
 --------+-------------+-------------+-----------------+-----------------
    1(1) |    294.5284 |    292.0353 |      4.99155351 |     5.00076000
    2(1) |    696.3173 |    688.5117 |     55.21990221 |    73.96779156
    3(1) |    714.1353 |    705.7868 |    143.86096831 |   123.66011913
 --------+-------------+-------------+-----------------+-----------------

 Overtones (DE w.r.t. Ground State)
 --------+-------------+-------------+-----------------
   Mode  | Harm. freq. | Anh. freq.  | Anh. intensity
         | (in cm^-1)  | (in cm^-1)  | (in km.mol^-1)
 --------+-------------+-------------+-----------------
    1(2) |    589.0568 |    583.7775 |     0.04359523
    2(2) |   1392.6346 |   1373.5898 |     0.42012242
    3(2) |   1428.2705 |   1407.8059 |     0.07838452
 --------+-------------+-------------+-----------------

 Combination Bands (DE w.r.t. Ground State)
 --------+--------+-------------+-------------+-----------------
  Mode 1 | Mode 2 | Harm. freq. | Anh. freq.  | Anh. intensity
         |        | (in cm^-1)  | (in cm^-1)  | (in km.mol^-1)
 --------+--------+-------------+-------------+-----------------
    2(1) |   1(1) |    990.8457 |    978.5557 |     0.02509303
    3(1) |   1(1) |   1008.6637 |    995.4135 |     0.09374587
    3(1) |   2(1) |   1410.4525 |   1387.5460 |     0.80895052
 --------+--------+-------------+-------------+-----------------
 Leave Link  717 at Sat Aug  3 06:53:06 2013, MaxMem= 1073741824 cpu:       0.1
 (Enter /share/apps/gaussian/gdvh12/gdv/l103.exe)

 GradGradGradGradGradGradGradGradGradGradGradGradGradGradGradGradGradGrad
 Berny optimization.
 Red2BG is reusing G-inverse.
 Internal  Forces:  Max     0.000003550 RMS     0.000002248
 Search for a local minimum.
 Step number   1 out of a maximum of    2
 All quantities printed in internal units (Hartrees-Bohrs-Radians)
 Second derivative matrix not updated -- analytic derivatives used.
 The second derivative matrix:
                          R1        R2        A1
           R1           0.22536
           R2           0.02938   0.30730
           A1           0.00922   0.02434   0.25851
 ITU=  0
     Eigenvalues ---    0.21587   0.24864   0.32666
 Angle between quadratic step and forces=   3.34 degrees.
 Linear search not attempted -- first point.
 Iteration  1 RMS(Cart)=  0.00000694 RMS(Int)=  0.00000000
 Iteration  2 RMS(Cart)=  0.00000000 RMS(Int)=  0.00000000
 ClnCor:  largest displacement from symmetrization is 2.42D-15 for atom     1.
 Variable       Old X    -DE/DX   Delta X   Delta X   Delta X     New X
                                 (Linear)    (Quad)   (Total)
    R1        3.09499   0.00000   0.00000   0.00000   0.00000   3.09500
    R2        3.56534   0.00000   0.00000   0.00001   0.00001   3.56535
    A1        1.90213   0.00000   0.00000   0.00000   0.00000   1.90214
         Item               Value     Threshold  Converged?
 Maximum Force            0.000004     0.000450     YES
 RMS     Force            0.000002     0.000300     YES
 Maximum Displacement     0.000007     0.001800     YES
 RMS     Displacement     0.000007     0.001200     YES
 Predicted change in Energy=-2.342879D-11
 Optimization completed.
    -- Stationary point found.
                           ----------------------------
                           !   Optimized Parameters   !
                           ! (Angstroms and Degrees)  !
 --------------------------                            --------------------------
 ! Name  Definition              Value          Derivative Info.                !
 --------------------------------------------------------------------------------
 ! R1    R(1,2)                  1.6378         -DE/DX =    0.0                 !
 ! R2    R(2,3)                  1.8867         -DE/DX =    0.0                 !
 ! A1    A(1,2,3)              108.9843         -DE/DX =    0.0                 !
 --------------------------------------------------------------------------------
 GradGradGradGradGradGradGradGradGradGradGradGradGradGradGradGradGradGrad

 Leave Link  103 at Sat Aug  3 06:53:07 2013, MaxMem= 1073741824 cpu:       0.8
 (Enter /share/apps/gaussian/gdvh12/gdv/l9999.exe)

 Test job not archived.
 1\1\GINC-C31\Freq\UAPFD\UGBS1P\F1S2(2)\EBARNES\03-Aug-2013\0\\#p apfd/
 ugbs1p geom=allcheck guess=read freq=(vibrot,anharm,readanh) int=(acc2
 e=12,grid=299974) test gfprint gfinput output=pickett\\FS2 coordinates
  taken from Saito paper\\0,2\F,-0.0129500973,0.,-0.0244288878\S,0.0131
 617403,0.,1.6131621016\S,1.8067957379,0.,2.1983990755\\Version=EM64L-G
 DVRevH.12\State=2-A"\HF=-896.0398157\S2=0.755665\S2-1=0.\S2A=0.750023\
 RMSD=7.282e-10\RMSF=1.630e-06\ZeroPoint=0.0038842\Thermal=0.0073651\Di
 pole=-0.0946808,0.,0.3560936\DipoleDeriv=-0.2414273,0.,-0.0418342,0.,-
 0.1257056,0.,-0.5936371,0.,-1.3416595,0.5730571,0.,0.2814412,0.,0.1554
 694,0.,0.5951204,0.,1.4291147,-0.3316298,0.,-0.2396069,0.,-0.0297638,0
 .,-0.0014833,0.,-0.0874551\Polar=54.6519322,0.,32.1175857,10.0781108,0
 .,42.5517739\Quadrupole=1.1743567,0.0658258,-1.2401825,0.,-0.1883198,0
 .\PG=CS [SG(F1S2)]\NImag=0\\0.02712772,0.,-0.00000346,0.00613988,0.,0.
 22521648,-0.02648577,0.,0.02098397,0.30151049,0.,0.00000358,0.,0.,-0.0
 0001242,0.01875394,0.,-0.21404031,0.04425843,0.,0.25483683,-0.00064195
 ,0.,-0.02712385,-0.27502472,0.,-0.06301237,0.27566667,0.,-0.00000012,0
 .,0.,0.00000884,0.,0.,-0.00000873,-0.02489381,0.,-0.01117617,-0.065242
 40,0.,-0.04079652,0.09013622,0.,0.05197270\\0.00000039,0.,0.00000134,0
 .00000300,0.,-0.00000014,-0.00000339,0.,-0.00000120\\0.00382694,0.,-0.
 00023280,-0.00366341,0.,0.01259869,-0.00062413,0.,0.00561950,0.0091349
 6,0.,-0.00253508,0.,0.,0.00454792,0.00944635,0.,-0.00529300,-0.0127966
 9,0.,-0.00181161,-0.00320281,0.,-0.00195609,-0.00851083,0.,0.00335033,
 0.01171364,0.,0.00276787,0.,0.,-0.00201285,0.,0.,-0.00075502,-0.005782
 94,0.,-0.00730569,0.00717719,0.,0.00710461,-0.00139424,0.,0.00020108,-
 0.00827944,0.,-0.01642996,0.00797936,0.,0.14136686,0.00725605,0.,-0.00
 679882,0.10830990,0.,0.01730539,0.,0.,-0.03269684,-0.00183280,0.,-0.14
 083389,0.04799517,0.,0.14870480,0.00102338,0.,-0.00118053,-0.11556595,
 0.,-0.04616237,0.11454257,0.,-0.00087543,0.,0.,0.01539144,0.,0.,-0.014
 51601,-0.00614656,0.,-0.00053297,-0.04119635,0.,-0.00787091,0.04734291
 ,0.,0.00840388,-0.00862110,0.,-0.01307929,-0.00207038,0.,0.14410701,0.
 00868866,0.,-0.00089643,-0.16308957,0.,0.01312932,0.,-0.00000001,0.002
 25036,0.00351802,0.,-0.14338923,-0.04987738,0.,0.14272055,-0.00006756,
 0.,0.00296681,0.15440090,0.00000001,0.04635936,-0.15433334,0.,-0.00005
 003,0.,0.,-0.01537968,0.,0.,0.01542971,-0.00144764,0.,-0.00071778,0.05
 077380,0.,0.00066868,-0.04932617,0.,0.00004910,0.00081250,-0.00000001,
 -0.00026688,0.00105509,-0.00000006,-0.00830801,0.00052152,0.,0.0015132
 2,-0.00600211,0.00000004,-0.00018277,0.00000004,0.00000002,0.00030544,
 -0.00057379,0.00000006,0.01107407,-0.00244276,-0.00000006,-0.01264598,
 -0.00133402,0.,-0.00256831,0.00548058,-0.00000006,0.00301656,-0.004146
 51,-0.00000002,0.00044965,0.00000002,-0.00000003,-0.00012267,0.,0.0000
 0005,-0.00032693,-0.00048130,0.,-0.00276606,0.00092955,0.00000003,0.00
 157193,-0.00044825,-0.00000002,0.00119419,-0.00878547,-0.00000003,-0.0
 1154653,0.01156733,-0.00000011,0.07561329,0.00855845,0.00000006,-0.012
 74689,0.02480145,0.00000005,0.01207965,0.00000012,-0.00000003,-0.01931
 463,-0.01034565,0.00000011,-0.07577682,0.03168846,-0.00000011,0.079538
 32,0.00022701,-0.00000003,0.00117956,-0.03335995,-0.00000002,-0.021342
 81,0.03313297,-0.00000001,-0.00053312,0.,-0.00000003,0.00723498,0.,0.0
 0000004,-0.00670183,-0.00122167,0.,0.00016354,-0.01894157,-0.00000001,
 -0.00376153,0.02016325,0.,0.00359806,-0.01098212,-0.00000011,-0.011275
 00,-0.00551686,-0.00000009,0.08981952,0.01063297,0.00000098,-0.0012275
 4,0.06537426,0.00000046,0.01114335,0.00000013,-0.00000163,-0.02172117,
 0.00498280,-0.00000008,-0.09063294,0.02235718,0.00000018,0.08474727,0.
 00034915,-0.00000087,0.00674440,-0.07600723,0.00000116,-0.02733999,0.0
 7565811,-0.00000035,0.00013164,-0.00000005,0.00000064,0.01057782,-0.00
 000011,-0.00000029,-0.01070939,0.00053406,0.00000017,0.00081342,-0.021
 12965,-0.00000032,0.00588564,0.02059559,0.00000015,-0.00669904\\@
 DoSRE=F DoSRN=F DoDH=T DoFC=T DoNQ=T DoQCD=T DoSCD=T
 Inertia tensor (amu-bohr**2): 
                 1             2             3 
      1   0.171906D+03 -0.145074D+03  0.000000D+00
      2  -0.145074D+03  0.270726D+03  0.000000D+00
      3   0.000000D+00  0.000000D+00  0.442633D+03
 Principal inertia moments (amu-bohr**2):
 Iaa = 0.680593D+02 Ibb= 0.374573D+03 Icc= 0.442633D+03
 Rotation matrix to Principal Axis frame: 
                 1             2             3 
      1   0.813142D+00 -0.582066D+00  0.000000D+00
      2   0.582066D+00  0.813142D+00  0.000000D+00
      3   0.000000D+00  0.000000D+00  0.100000D+01
                Principal axis orientation:                
 ---------------------------------------------------------------------
 Center     Atomic                     Coordinates (Angstroms)
 Number     Number                        X           Y           Z
 ---------------------------------------------------------------------
      1          9                    1.542616   -0.583956    0.000000
      2         16                    0.392129    0.581705    0.000000
      3         16                   -1.308781   -0.234707    0.000000
 ---------------------------------------------------------------------
 Rotational constants (MHZ):
  26517.1785759   4818.1250381   4077.2887862
 electron spin - nuclear spin (dipole-dipole) [T] (MHz):
  1  F19   
   aa=   -99.2240   ba=     5.6776   ca=     0.0000
   ab=     5.6776   bb=   -87.2181   cb=     0.0000
   ac=     0.0000   bc=     0.0000   cc=   186.4421
  2  S32   
   aa=     0.0000   ba=     0.0000   ca=     0.0000
   ab=     0.0000   bb=     0.0000   cb=     0.0000
   ac=     0.0000   bc=     0.0000   cc=     0.0000
  3  S32   
   aa=     0.0000   ba=     0.0000   ca=     0.0000
   ab=     0.0000   bb=     0.0000   cb=     0.0000
   ac=     0.0000   bc=     0.0000   cc=     0.0000
 Isotropic Fermi Contact Couplings [a_f](MHz):
  1  F19       26.5777
  2  S32        0.0000
  3  S32        0.0000
 Nuclear quadrupole coupling constants [Chi] (MHz):
  1  F(19) 
   aa=     0.0000   ba=     0.0000   ca=     0.0000
   ab=     0.0000   bb=     0.0000   cb=     0.0000
   ac=     0.0000   bc=     0.0000   cc=     0.0000
  2  S(32) 
   aa=     0.0000   ba=     0.0000   ca=     0.0000
   ab=     0.0000   bb=     0.0000   cb=     0.0000
   ac=     0.0000   bc=     0.0000   cc=     0.0000
  3  S(32) 
   aa=     0.0000   ba=     0.0000   ca=     0.0000
   ab=     0.0000   bb=     0.0000   cb=     0.0000
   ac=     0.0000   bc=     0.0000   cc=     0.0000
 Dipole moment (Debye):
     -0.1956863      0.1400768      0.9050995  Tot=      0.9365467
 Quartic Centrifugal Distortion Constants (MHz)
    (Asymmetrically reduced)          (Symmetrically reduced)
    DELTA N  =    0.000903034         D N  =    0.000547854
    DELTA K  =    0.801723851         D K  =    0.799947951
    DELTA NK =    0.131836071         D NK =    0.133967151
    delta N  =   -0.000163347         d 1  =    0.000163347
    delta K  =    0.042323177         d 2  =   -0.000177590
 Sextic Centrifugal Distortion Constants (MHz)
    (Asymmetrically reduced)          (Symmetrically reduced)
    PHI N  =   -0.3802116568D-09      H N  =   -0.5119679705D-09
    PHI K  =    0.9271898979D-04      H K  =    0.9193810526D-04
    PHI NK =    0.6278759142D-06      H NK =    0.2940016513D-06
    PHI KN =    0.1432265891D-04      H KN =    0.1543754947D-04
    phi N  =   -0.2210971769D-09      h 1  =   -0.5721644521D-09
    phi K  =    0.1153115104D-04      h 2  =    0.6587815686D-10
    phi NK =    0.3050666899D-06      h 3  =    0.3510672752D-09

 Atoms with significant hyperfine tensors:  F1-19

--------------------------------------------------------------------------------
 FS2 coordinates taken from Saito paper                  
   99  1000  50  0.1760E-11  0.1000E+07  0.1000E+01 1.0000000000
a 22  1  0  0  0  1  1   1  0  1  0
     10000   0.26517179E+05    0.0000E+00   /  A  /
     20000   0.48181250E+04    0.0000E+00   /  B  /
     30000   0.40772888E+04    0.0000E+00   /  C  /
       200  -0.90303438E-03    0.0000E+00   /  -DELTA N  /
      2000  -0.80172385E+00    0.0000E+00   /  -DELTA K  /
      1100  -0.13183607E+00    0.0000E+00   /  -DELTA NK  /
     40100   0.16334733E-03    0.0000E+00   /  -delta N  /
     41000  -0.42323177E-01    0.0000E+00   /  -delta K  /
 120010000  -0.14883594E+03    0.0000E+00   /  (1 F-19) 3/2*T_aa               /
 120040000  -0.68415048E+02    0.0000E+00   /  (1 F-19) 1/4*(T_bb - T_cc)      /
 120610000   0.56775698E+01    0.0000E+00   /  (1 F-19) T_ab                   /
 120000000   0.26577672E+02    0.0000E+00   /  (1 F-19) b_f                    /
--------------------------------------------------------------------------------



 AND ALL THIS SCIENCE I DON'T UNDERSTAND
 IT'S JUST MY JOB FIVE DAYS A WEEK

                           -- ELTON JOHN, "ROCKET MAN"
 Job cpu time:  6 days 10 hours 21 minutes 44.3 seconds.
 File lengths (MBytes):  RWF=    442 Int=      0 D2E=      0 Chk=     93 Scr=      1
 Normal termination of Gaussian DV at Sat Aug  3 06:53:07 2013.
