 Entering Gaussian System, Link 0=g09
 AtFile(1): 7ZaPa-NR.gbs
 Initial command:
 /share/apps/gaussian/g09root/g09/l1.exe /localscratch/933598/Gau-2647.inp -scrdir=/localscratch/933598/
 Entering Link 1 = /share/apps/gaussian/g09root/g09/l1.exe PID=      2648.
  
 Copyright (c) 1988,1990,1992,1993,1995,1998,2003,2009, Gaussian, Inc.
                  All Rights Reserved.
  
 This is part of the Gaussian(R) 09 program.  It is based on
 the Gaussian(R) 03 system (copyright 2003, Gaussian, Inc.),
 the Gaussian(R) 98 system (copyright 1998, Gaussian, Inc.),
 the Gaussian(R) 94 system (copyright 1995, Gaussian, Inc.),
 the Gaussian 92(TM) system (copyright 1992, Gaussian, Inc.),
 the Gaussian 90(TM) system (copyright 1990, Gaussian, Inc.),
 the Gaussian 88(TM) system (copyright 1988, Gaussian, Inc.),
 the Gaussian 86(TM) system (copyright 1986, Carnegie Mellon
 University), and the Gaussian 82(TM) system (copyright 1983,
 Carnegie Mellon University). Gaussian is a federally registered
 trademark of Gaussian, Inc.
  
 This software contains proprietary and confidential information,
 including trade secrets, belonging to Gaussian, Inc.
  
 This software is provided under written license and may be
 used, copied, transmitted, or stored only in accord with that
 written license.
  
 The following legend is applicable only to US Government
 contracts under FAR:
  
                    RESTRICTED RIGHTS LEGEND
  
 Use, reproduction and disclosure by the US Government is
 subject to restrictions as set forth in subparagraphs (a)
 and (c) of the Commercial Computer Software - Restricted
 Rights clause in FAR 52.227-19.
  
 Gaussian, Inc.
 340 Quinnipiac St., Bldg. 40, Wallingford CT 06492
  
  
 ---------------------------------------------------------------
 Warning -- This program may not be used in any manner that
 competes with the business of Gaussian, Inc. or will provide
 assistance to any competitor of Gaussian, Inc.  The licensee
 of this program is prohibited from giving any competitor of
 Gaussian, Inc. access to this program.  By using this program,
 the user acknowledges that Gaussian, Inc. is engaged in the
 business of creating and licensing software in the field of
 computational chemistry and represents and warrants to the
 licensee that it is not a competitor of Gaussian, Inc. and that
 it will not use this program in any manner prohibited above.
 ---------------------------------------------------------------
  

 Cite this work as:
 Gaussian 09, Revision A.02,
 M. J. Frisch, G. W. Trucks, H. B. Schlegel, G. E. Scuseria, 
 M. A. Robb, J. R. Cheeseman, G. Scalmani, V. Barone, B. Mennucci, 
 G. A. Petersson, H. Nakatsuji, M. Caricato, X. Li, H. P. Hratchian, 
 A. F. Izmaylov, J. Bloino, G. Zheng, J. L. Sonnenberg, M. Hada, 
 M. Ehara, K. Toyota, R. Fukuda, J. Hasegawa, M. Ishida, T. Nakajima, 
 Y. Honda, O. Kitao, H. Nakai, T. Vreven, J. A. Montgomery, Jr., 
 J. E. Peralta, F. Ogliaro, M. Bearpark, J. J. Heyd, E. Brothers, 
 K. N. Kudin, V. N. Staroverov, R. Kobayashi, J. Normand, 
 K. Raghavachari, A. Rendell, J. C. Burant, S. S. Iyengar, J. Tomasi, 
 M. Cossi, N. Rega, J. M. Millam, M. Klene, J. E. Knox, J. B. Cross, 
 V. Bakken, C. Adamo, J. Jaramillo, R. Gomperts, R. E. Stratmann, 
 O. Yazyev, A. J. Austin, R. Cammi, C. Pomelli, J. W. Ochterski, 
 R. L. Martin, K. Morokuma, V. G. Zakrzewski, G. A. Voth, 
 P. Salvador, J. J. Dannenberg, S. Dapprich, A. D. Daniels, 
 O. Farkas, J. B. Foresman, J. V. Ortiz, J. Cioslowski, 
 and D. J. Fox, Gaussian, Inc., Wallingford CT, 2009.
 
 ******************************************
 Gaussian 09:  EM64L-G09RevA.02 11-Jun-2009
                 4-May-2013 
 ******************************************
 % Mem=6GB
 % Nproc=8
 Will use up to    8 processors via shared memory.
 ----------------------------------------------------------------------
 # ROMP2(RW) Gen GFinput Int=NoBasisTransform Int(Grid=Ultrafine) IOp(3
 /32=2,5/6=10,8/11=1,9/33=1) Maxdisk=128GB CBSextrapolate(Nmin=25,MinPo
 p)
 ----------------------------------------------------------------------
 1/38=1/1;
 2/12=2,17=6,18=5,40=1/2;
 3/5=7,11=2,16=1,24=10,25=1,30=1,32=2,60=-1,75=-5,116=101/1,2,3;
 4//1;
 5/5=2,6=10,38=5/2;
 8/5=-1,10=91,11=1/1;
 9/16=-3,33=1,75=2,81=25,83=4/6,4;
 6/7=2,8=2,9=2,10=2/1;
 99/5=1,9=1/99;
 ---
 Ga2
 ---
 Symbolic Z-matrix:
 Charge =  0 Multiplicity = 3
 Ga
 Ga                   1     2.49617 
 
                          Input orientation:                          
 ---------------------------------------------------------------------
 Center     Atomic      Atomic             Coordinates (Angstroms)
 Number     Number       Type             X           Y           Z
 ---------------------------------------------------------------------
      1         31           0        0.000000    0.000000    0.000000
      2         31           0        0.000000    0.000000    2.496171
 ---------------------------------------------------------------------
 Stoichiometry    Ga2(3)
 Framework group  D*H[C*(Ga.Ga)]
 Deg. of freedom     1
 Full point group                 D*H     NOp   8
 Largest Abelian subgroup         D2H     NOp   8
 Largest concise Abelian subgroup C2      NOp   2
                         Standard orientation:                         
 ---------------------------------------------------------------------
 Center     Atomic      Atomic             Coordinates (Angstroms)
 Number     Number       Type             X           Y           Z
 ---------------------------------------------------------------------
      1         31           0        0.000000    0.000000    1.248085
      2         31           0        0.000000    0.000000   -1.248085
 ---------------------------------------------------------------------
 Rotational constants (GHZ):      0.0000000      2.3535218      2.3535218
 General basis read from cards:  (5D, 7F)
 AO basis set in the form of general basis input (Overlap normalization):
      1 0
 S  19 1.00       0.000000000000
      0.7369011450D+08  0.3398652299D-06
      0.1434742920D+08  0.2011367417D-05
      0.3348383880D+07  0.1130957301D-04
      0.9124584310D+06  0.5123735321D-04
      0.2836389560D+06  0.1991605688D-03
      0.9851556540D+05  0.6773538271D-03
      0.3754130700D+05  0.2064829886D-02
      0.1544692820D+05  0.5740627196D-02
      0.6768058940D+04  0.1473265984D-01
      0.3119967080D+04  0.3504746214D-01
      0.1497624980D+04  0.7662036226D-01
      0.7419428600D+03  0.1498807848D+00
      0.3764941930D+03  0.2474840225D+00
      0.1944226120D+03  0.3069954700D+00
      0.1016027390D+03  0.2299418859D+00
      0.5346974300D+02  0.7327690628D-01
      0.2821293200D+02  0.5939524312D-02
      0.1486462300D+02  0.9408089699D-03
      0.7789383000D+01  0.5390931690D-04
 S  16 1.00       0.000000000000
      0.3754130700D+05 -0.1413315410D-05
      0.1544692820D+05 -0.1112545724D-04
      0.6768058940D+04 -0.6518389306D-04
      0.3119967080D+04 -0.3624530488D-03
      0.1497624980D+04 -0.1633270226D-02
      0.7419428600D+03 -0.6729113205D-02
      0.3764941930D+03 -0.2269331977D-01
      0.1944226120D+03 -0.6006394409D-01
      0.1016027390D+03 -0.8834593784D-01
      0.5346974300D+02  0.1561467785D-01
      0.2821293200D+02  0.3399208064D+00
      0.1486462300D+02  0.5122009021D+00
      0.7789383000D+01  0.2302523144D+00
      0.4043324000D+01  0.2407581200D-01
      0.2070062000D+01  0.4228402367D-03
      0.1040293000D+01 -0.9862724372D-03
 P  16 1.00       0.000000000000
      0.9425215910D+05  0.3841050629D-05
      0.2560114340D+05  0.2942504327D-04
      0.8250355540D+04  0.1874543863D-03
      0.3061108590D+04  0.9190166738D-03
      0.1273111470D+04  0.3667933141D-02
      0.5796597140D+03  0.1219761921D-01
      0.2830035420D+03  0.3447704185D-01
      0.1455052420D+03  0.8338733117D-01
      0.7756386400D+02  0.1676299494D+00
      0.4229972300D+02  0.2686581977D+00
      0.2333461200D+02  0.3159418725D+00
      0.1289816500D+02  0.2209379094D+00
      0.7087574000D+01  0.7138686121D-01
      0.3846748000D+01  0.8464777027D-02
      0.2051226000D+01  0.5966694539D-03
      0.1069977000D+01 -0.5133823437D-05
 S  12 1.00       0.000000000000
      0.3764941930D+03  0.1485477676D-03
      0.1944226120D+03  0.8156771649D-03
      0.1016027390D+03  0.3011245023D-02
      0.5346974300D+02  0.9342797537D-03
      0.2821293200D+02 -0.4273808038D-01
      0.1486462300D+02 -0.1840516791D+00
      0.7789383000D+01 -0.1084100230D+00
      0.4043324000D+01  0.3310335649D+00
      0.2070062000D+01  0.5775376285D+00
      0.1040293000D+01  0.2893210560D+00
      0.5103690000D+00  0.2457612212D-01
      0.2428970000D+00  0.1321313402D-02
 P  15 1.00       0.000000000000
      0.1273111470D+04 -0.6571916991D-05
      0.5796597140D+03 -0.5081148643D-04
      0.2830035420D+03 -0.3310930151D-03
      0.1455052420D+03 -0.1555798310D-02
      0.7756386400D+02 -0.5443652598D-02
      0.4229972300D+02 -0.1333429724D-01
      0.2333461200D+02 -0.2201409373D-01
      0.1289816500D+02  0.1781053564D-01
      0.7087574000D+01  0.1702204860D+00
      0.3846748000D+01  0.3410060528D+00
      0.2051226000D+01  0.3648191556D+00
      0.1069977000D+01  0.1982117296D+00
      0.5440280000D+00  0.3843317070D-01
      0.2688030000D+00  0.2562935316D-02
      0.1287170000D+00  0.3623204614D-03
 D  16 1.00       0.000000000000
      0.3460814690D+04  0.5851294600D-05
      0.1082534080D+04  0.6003647436D-04
      0.4154353850D+03  0.4041708790D-03
      0.1841120670D+03  0.1935943437D-02
      0.8995822000D+02  0.7246417236D-02
      0.4682493700D+02  0.2142316126D-01
      0.2534045100D+02  0.5225022797D-01
      0.1402460500D+02  0.1087717495D+00
      0.7853259000D+01  0.1810230846D+00
      0.4418060000D+01  0.2356453347D+00
      0.2483481000D+01  0.2510696383D+00
      0.1386562000D+01  0.2242937491D+00
      0.7623140000D+00  0.1596632821D+00
      0.4072570000D+00  0.7950840994D-01
      0.2072110000D+00  0.2047231171D-01
      0.9753800000D-01  0.1665391293D-02
 S  11 1.00       0.000000000000
      0.5346974300D+02 -0.3497481714D-04
      0.2821293200D+02  0.4225810351D-03
      0.1486462300D+02  0.2985531452D-02
      0.7789383000D+01  0.1748864762D-02
      0.4043324000D+01 -0.1390575022D-01
      0.2070062000D+01 -0.6102580101D-01
      0.1040293000D+01 -0.1488437419D+00
      0.5103690000D+00  0.2839414382D-02
      0.2428970000D+00  0.3865149305D+00
      0.1113180000D+00  0.5561054320D+00
      0.4870400000D-01  0.1965875103D+00
 S   1 1.00       0.000000000000
      0.5125000000D-01  0.1000000000D+01
 S   1 1.00       0.000000000000
      0.1774900000D-01  0.1000000000D+01
 P  10 1.00       0.000000000000
      0.1289816500D+02 -0.3062720921D-03
      0.7087574000D+01 -0.2085122072D-02
      0.3846748000D+01 -0.4496809748D-02
      0.2051226000D+01 -0.1050800390D-01
      0.1069977000D+01 -0.1369286118D-01
      0.5440280000D+00  0.4975412170D-01
      0.2688030000D+00  0.2088157852D+00
      0.1287170000D+00  0.3839233801D+00
      0.5957900000D-01  0.3860263116D+00
      0.2658500000D-01  0.1234014540D+00
 P   1 1.00       0.000000000000
      0.7640000000D-02  0.1000000000D+01
 P   1 1.00       0.000000000000
      0.2208300000D-01  0.1000000000D+01
 S   1 1.00       0.000000000000
      0.2860788000D+01  0.1000000000D+01
 S   1 1.00       0.000000000000
      0.1574103000D+01  0.1000000000D+01
 S   1 1.00       0.000000000000
      0.8661250000D+00  0.1000000000D+01
 S   1 1.00       0.000000000000
      0.4765720000D+00  0.1000000000D+01
 S   1 1.00       0.000000000000
      0.2622260000D+00  0.1000000000D+01
 S   1 1.00       0.000000000000
      0.1442860000D+00  0.1000000000D+01
 P   1 1.00       0.000000000000
      0.1466257000D+01  0.1000000000D+01
 P   1 1.00       0.000000000000
      0.8880830000D+00  0.1000000000D+01
 P   1 1.00       0.000000000000
      0.5378940000D+00  0.1000000000D+01
 P   1 1.00       0.000000000000
      0.3257920000D+00  0.1000000000D+01
 P   1 1.00       0.000000000000
      0.1973260000D+00  0.1000000000D+01
 P   1 1.00       0.000000000000
      0.1195160000D+00  0.1000000000D+01
 D   1 1.00       0.000000000000
      0.1557708000D+01  0.1000000000D+01
 D   1 1.00       0.000000000000
      0.8449680000D+00  0.1000000000D+01
 D   1 1.00       0.000000000000
      0.4583470000D+00  0.1000000000D+01
 D   1 1.00       0.000000000000
      0.2486270000D+00  0.1000000000D+01
 D   1 1.00       0.000000000000
      0.1348660000D+00  0.1000000000D+01
 D   1 1.00       0.000000000000
      0.7315700000D-01  0.1000000000D+01
 D   1 1.00       0.000000000000
      0.3968340000D-01  0.1000000000D+01
 F   1 1.00       0.000000000000
      0.1533439000D+01  0.1000000000D+01
 F   1 1.00       0.000000000000
      0.8375150000D+00  0.1000000000D+01
 F   1 1.00       0.000000000000
      0.4574240000D+00  0.1000000000D+01
 F   1 1.00       0.000000000000
      0.2498300000D+00  0.1000000000D+01
 F   1 1.00       0.000000000000
      0.1364490000D+00  0.1000000000D+01
 F   1 1.00       0.000000000000
      0.7452400000D-01  0.1000000000D+01
 G   1 1.00       0.000000000000
      0.3455892000D+01  0.1000000000D+01
 G   1 1.00       0.000000000000
      0.1431678000D+01  0.1000000000D+01
 G   1 1.00       0.000000000000
      0.5931030000D+00  0.1000000000D+01
 G   1 1.00       0.000000000000
      0.2457060000D+00  0.1000000000D+01
 G   1 1.00       0.000000000000
      0.1017890000D+00  0.1000000000D+01
 H   1 1.00       0.000000000000
      0.9338210000D+00  0.1000000000D+01
 H   1 1.00       0.000000000000
      0.5332140000D+00  0.1000000000D+01
 H   1 1.00       0.000000000000
      0.3044660000D+00  0.1000000000D+01
 H   1 1.00       0.000000000000
      0.1738510000D+00  0.1000000000D+01
 I   1 1.00       0.000000000000
      0.7616390000D+00  0.1000000000D+01
 I   1 1.00       0.000000000000
      0.4074190000D+00  0.1000000000D+01
 I   1 1.00       0.000000000000
      0.2179380000D+00  0.1000000000D+01
 J   1 1.00       0.000000000000
      0.6388588486D+00  0.1000000000D+01
 ****
      2 0
 S  19 1.00       0.000000000000
      0.7369011450D+08  0.3398652299D-06
      0.1434742920D+08  0.2011367417D-05
      0.3348383880D+07  0.1130957301D-04
      0.9124584310D+06  0.5123735321D-04
      0.2836389560D+06  0.1991605688D-03
      0.9851556540D+05  0.6773538271D-03
      0.3754130700D+05  0.2064829886D-02
      0.1544692820D+05  0.5740627196D-02
      0.6768058940D+04  0.1473265984D-01
      0.3119967080D+04  0.3504746214D-01
      0.1497624980D+04  0.7662036226D-01
      0.7419428600D+03  0.1498807848D+00
      0.3764941930D+03  0.2474840225D+00
      0.1944226120D+03  0.3069954700D+00
      0.1016027390D+03  0.2299418859D+00
      0.5346974300D+02  0.7327690628D-01
      0.2821293200D+02  0.5939524312D-02
      0.1486462300D+02  0.9408089699D-03
      0.7789383000D+01  0.5390931690D-04
 S  16 1.00       0.000000000000
      0.3754130700D+05 -0.1413315410D-05
      0.1544692820D+05 -0.1112545724D-04
      0.6768058940D+04 -0.6518389306D-04
      0.3119967080D+04 -0.3624530488D-03
      0.1497624980D+04 -0.1633270226D-02
      0.7419428600D+03 -0.6729113205D-02
      0.3764941930D+03 -0.2269331977D-01
      0.1944226120D+03 -0.6006394409D-01
      0.1016027390D+03 -0.8834593784D-01
      0.5346974300D+02  0.1561467785D-01
      0.2821293200D+02  0.3399208064D+00
      0.1486462300D+02  0.5122009021D+00
      0.7789383000D+01  0.2302523144D+00
      0.4043324000D+01  0.2407581200D-01
      0.2070062000D+01  0.4228402367D-03
      0.1040293000D+01 -0.9862724372D-03
 P  16 1.00       0.000000000000
      0.9425215910D+05  0.3841050629D-05
      0.2560114340D+05  0.2942504327D-04
      0.8250355540D+04  0.1874543863D-03
      0.3061108590D+04  0.9190166738D-03
      0.1273111470D+04  0.3667933141D-02
      0.5796597140D+03  0.1219761921D-01
      0.2830035420D+03  0.3447704185D-01
      0.1455052420D+03  0.8338733117D-01
      0.7756386400D+02  0.1676299494D+00
      0.4229972300D+02  0.2686581977D+00
      0.2333461200D+02  0.3159418725D+00
      0.1289816500D+02  0.2209379094D+00
      0.7087574000D+01  0.7138686121D-01
      0.3846748000D+01  0.8464777027D-02
      0.2051226000D+01  0.5966694539D-03
      0.1069977000D+01 -0.5133823437D-05
 S  12 1.00       0.000000000000
      0.3764941930D+03  0.1485477676D-03
      0.1944226120D+03  0.8156771649D-03
      0.1016027390D+03  0.3011245023D-02
      0.5346974300D+02  0.9342797537D-03
      0.2821293200D+02 -0.4273808038D-01
      0.1486462300D+02 -0.1840516791D+00
      0.7789383000D+01 -0.1084100230D+00
      0.4043324000D+01  0.3310335649D+00
      0.2070062000D+01  0.5775376285D+00
      0.1040293000D+01  0.2893210560D+00
      0.5103690000D+00  0.2457612212D-01
      0.2428970000D+00  0.1321313402D-02
 P  15 1.00       0.000000000000
      0.1273111470D+04 -0.6571916991D-05
      0.5796597140D+03 -0.5081148643D-04
      0.2830035420D+03 -0.3310930151D-03
      0.1455052420D+03 -0.1555798310D-02
      0.7756386400D+02 -0.5443652598D-02
      0.4229972300D+02 -0.1333429724D-01
      0.2333461200D+02 -0.2201409373D-01
      0.1289816500D+02  0.1781053564D-01
      0.7087574000D+01  0.1702204860D+00
      0.3846748000D+01  0.3410060528D+00
      0.2051226000D+01  0.3648191556D+00
      0.1069977000D+01  0.1982117296D+00
      0.5440280000D+00  0.3843317070D-01
      0.2688030000D+00  0.2562935316D-02
      0.1287170000D+00  0.3623204614D-03
 D  16 1.00       0.000000000000
      0.3460814690D+04  0.5851294600D-05
      0.1082534080D+04  0.6003647436D-04
      0.4154353850D+03  0.4041708790D-03
      0.1841120670D+03  0.1935943437D-02
      0.8995822000D+02  0.7246417236D-02
      0.4682493700D+02  0.2142316126D-01
      0.2534045100D+02  0.5225022797D-01
      0.1402460500D+02  0.1087717495D+00
      0.7853259000D+01  0.1810230846D+00
      0.4418060000D+01  0.2356453347D+00
      0.2483481000D+01  0.2510696383D+00
      0.1386562000D+01  0.2242937491D+00
      0.7623140000D+00  0.1596632821D+00
      0.4072570000D+00  0.7950840994D-01
      0.2072110000D+00  0.2047231171D-01
      0.9753800000D-01  0.1665391293D-02
 S  11 1.00       0.000000000000
      0.5346974300D+02 -0.3497481714D-04
      0.2821293200D+02  0.4225810351D-03
      0.1486462300D+02  0.2985531452D-02
      0.7789383000D+01  0.1748864762D-02
      0.4043324000D+01 -0.1390575022D-01
      0.2070062000D+01 -0.6102580101D-01
      0.1040293000D+01 -0.1488437419D+00
      0.5103690000D+00  0.2839414382D-02
      0.2428970000D+00  0.3865149305D+00
      0.1113180000D+00  0.5561054320D+00
      0.4870400000D-01  0.1965875103D+00
 S   1 1.00       0.000000000000
      0.5125000000D-01  0.1000000000D+01
 S   1 1.00       0.000000000000
      0.1774900000D-01  0.1000000000D+01
 P  10 1.00       0.000000000000
      0.1289816500D+02 -0.3062720921D-03
      0.7087574000D+01 -0.2085122072D-02
      0.3846748000D+01 -0.4496809748D-02
      0.2051226000D+01 -0.1050800390D-01
      0.1069977000D+01 -0.1369286118D-01
      0.5440280000D+00  0.4975412170D-01
      0.2688030000D+00  0.2088157852D+00
      0.1287170000D+00  0.3839233801D+00
      0.5957900000D-01  0.3860263116D+00
      0.2658500000D-01  0.1234014540D+00
 P   1 1.00       0.000000000000
      0.7640000000D-02  0.1000000000D+01
 P   1 1.00       0.000000000000
      0.2208300000D-01  0.1000000000D+01
 S   1 1.00       0.000000000000
      0.2860788000D+01  0.1000000000D+01
 S   1 1.00       0.000000000000
      0.1574103000D+01  0.1000000000D+01
 S   1 1.00       0.000000000000
      0.8661250000D+00  0.1000000000D+01
 S   1 1.00       0.000000000000
      0.4765720000D+00  0.1000000000D+01
 S   1 1.00       0.000000000000
      0.2622260000D+00  0.1000000000D+01
 S   1 1.00       0.000000000000
      0.1442860000D+00  0.1000000000D+01
 P   1 1.00       0.000000000000
      0.1466257000D+01  0.1000000000D+01
 P   1 1.00       0.000000000000
      0.8880830000D+00  0.1000000000D+01
 P   1 1.00       0.000000000000
      0.5378940000D+00  0.1000000000D+01
 P   1 1.00       0.000000000000
      0.3257920000D+00  0.1000000000D+01
 P   1 1.00       0.000000000000
      0.1973260000D+00  0.1000000000D+01
 P   1 1.00       0.000000000000
      0.1195160000D+00  0.1000000000D+01
 D   1 1.00       0.000000000000
      0.1557708000D+01  0.1000000000D+01
 D   1 1.00       0.000000000000
      0.8449680000D+00  0.1000000000D+01
 D   1 1.00       0.000000000000
      0.4583470000D+00  0.1000000000D+01
 D   1 1.00       0.000000000000
      0.2486270000D+00  0.1000000000D+01
 D   1 1.00       0.000000000000
      0.1348660000D+00  0.1000000000D+01
 D   1 1.00       0.000000000000
      0.7315700000D-01  0.1000000000D+01
 D   1 1.00       0.000000000000
      0.3968340000D-01  0.1000000000D+01
 F   1 1.00       0.000000000000
      0.1533439000D+01  0.1000000000D+01
 F   1 1.00       0.000000000000
      0.8375150000D+00  0.1000000000D+01
 F   1 1.00       0.000000000000
      0.4574240000D+00  0.1000000000D+01
 F   1 1.00       0.000000000000
      0.2498300000D+00  0.1000000000D+01
 F   1 1.00       0.000000000000
      0.1364490000D+00  0.1000000000D+01
 F   1 1.00       0.000000000000
      0.7452400000D-01  0.1000000000D+01
 G   1 1.00       0.000000000000
      0.3455892000D+01  0.1000000000D+01
 G   1 1.00       0.000000000000
      0.1431678000D+01  0.1000000000D+01
 G   1 1.00       0.000000000000
      0.5931030000D+00  0.1000000000D+01
 G   1 1.00       0.000000000000
      0.2457060000D+00  0.1000000000D+01
 G   1 1.00       0.000000000000
      0.1017890000D+00  0.1000000000D+01
 H   1 1.00       0.000000000000
      0.9338210000D+00  0.1000000000D+01
 H   1 1.00       0.000000000000
      0.5332140000D+00  0.1000000000D+01
 H   1 1.00       0.000000000000
      0.3044660000D+00  0.1000000000D+01
 H   1 1.00       0.000000000000
      0.1738510000D+00  0.1000000000D+01
 I   1 1.00       0.000000000000
      0.7616390000D+00  0.1000000000D+01
 I   1 1.00       0.000000000000
      0.4074190000D+00  0.1000000000D+01
 I   1 1.00       0.000000000000
      0.2179380000D+00  0.1000000000D+01
 J   1 1.00       0.000000000000
      0.6388588486D+00  0.1000000000D+01
 ****

 There are    94 symmetry adapted basis functions of AG  symmetry.
 There are    44 symmetry adapted basis functions of B1G symmetry.
 There are    66 symmetry adapted basis functions of B2G symmetry.
 There are    66 symmetry adapted basis functions of B3G symmetry.
 There are    44 symmetry adapted basis functions of AU  symmetry.
 There are    94 symmetry adapted basis functions of B1U symmetry.
 There are    66 symmetry adapted basis functions of B2U symmetry.
 There are    66 symmetry adapted basis functions of B3U symmetry.
 Integral buffers will be    131072 words long.
 Raffenetti 2 integral format.
 Two-electron integral symmetry is turned on.
   540 basis functions,  1380 primitive gaussians,   864 cartesian basis functions
    32 alpha electrons       30 beta electrons
       nuclear repulsion energy       203.7277794156 Hartrees.
 NAtoms=    2 NActive=    2 NUniq=    1 SFac= 3.00D+00 NAtFMM=   80 NAOKFM=F Big=F
 One-electron integrals computed using PRISM.
 PrsmSu:  requested number of processors reduced to:   6 ShMem   1 Linda.
 NBasis=   540 RedAO= F  NBF=    94    44    66    66    44    94    66    66
 NBsUse=   540 1.00D-04 NBFU=    94    44    66    66    44    94    66    66
 Harris functional with IExCor=  205 diagonalized for initial guess.
 ExpMin= 7.64D-03 ExpMax= 7.37D+07 ExpMxC= 6.77D+03 IAcc=3 IRadAn=         5 AccDes= 0.00D+00
 HarFok:  IExCor=  205 AccDes= 0.00D+00 IRadAn=         5 IDoV= 1
 ScaDFX=  1.000000  1.000000  1.000000  1.000000
 FoFCou: FMM=F IPFlag=           0 FMFlag=      100000 FMFlg1=           0
         NFxFlg=           0 DoJE=T BraDBF=F KetDBF=T FulRan=T
         Omega=  0.000000  0.000000  1.000000  0.000000  0.000000 ICntrl=     500 IOpCl=  0
         NMat0=    1 NMatS0=    1 NMatT0=    0 NMatD0=    1 NMtDS0=    0 NMtDT0=    0
         I1Cent=           4 NGrid=           0.
 Petite list used in FoFCou.
 CoulSu:  requested number of processors reduced to:   6 ShMem   1 Linda.
 CoulSu:  requested number of processors reduced to:   6 ShMem   1 Linda.
 CoulSu:  requested number of processors reduced to:   6 ShMem   1 Linda.
 CoulSu:  requested number of processors reduced to:   6 ShMem   1 Linda.
 Initial guess orbital symmetries:
       Occupied  (SGU) (SGG) (SGU) (SGG) (SGU) (SGG) (PIG) (PIG)
                 (PIU) (PIU) (SGG) (SGU) (SGG) (SGU) (PIU) (PIU)
                 (PIG) (PIG) (SGG) (PIU) (PIU) (DLTG) (DLTG) (DLTU)
                 (DLTU) (PIG) (PIG) (SGU) (SGG) (SGU) (PIU) (PIU)
       Virtual   (SGG) (PIG) (PIG) (SGG) (SGU) (PIU) (PIU) (SGG)
                 (PIG) (PIG) (DLTG) (DLTG) (SGU) (SGG) (SGU) (PIU)
                 (PIU) (PIG) (PIG) (PIU) (PIU) (DLTU) (DLTU) (SGG)
                 (SGU) (SGU) (SGG) (PIG) (PIG) (DLTG) (DLTG) (PHIU)
                 (PHIU) (SGG) (PIU) (PIU) (PIG) (PIG) (PIU) (PIU)
                 (DLTU) (DLTU) (DLTG) (DLTG) (SGU) (PHIG) (PHIG)
                 (SGU) (SGG) (PIG) (PIG) (SGU) (PIU) (PIU) (DLTU)
                 (DLTU) (SGG) (?A) (?A) (PIG) (PIG) (SGG) (DLTG)
                 (DLTG) (PIU) (PIU) (PHIU) (PHIU) (SGU) (?B) (?B)
                 (PIG) (PIG) (SGG) (DLTU) (DLTU) (PHIU) (PHIU)
                 (DLTG) (DLTG) (PHIG) (PHIG) (PIU) (PIU) (DLTG)
                 (DLTG) (SGU) (SGG) (PIG) (PIG) (PHIG) (PHIG) (SGU)
                 (DLTU) (DLTU) (PIU) (PIU) (SGU) (PIU) (PIU) (SGG)
                 (DLTU) (DLTU) (PIG) (PIG) (SGU) (?C) (?C) (?A)
                 (?A) (SGG) (?D) (?D) (PIG) (PIG) (SGG) (PIU) (PIU)
                 (PHIU) (PHIU) (DLTG) (DLTG) (DLTG) (DLTG) (?B)
                 (?B) (DLTU) (DLTU) (PHIG) (PHIG) (PIG) (PIG) (SGU)
                 (SGG) (DLTG) (DLTG) (PHIU) (PHIU) (SGU) (DLTU)
                 (DLTU) (PIU) (PIU) (PIU) (PIU) (PHIG) (PHIG) (?A)
                 (?A) (SGU) (PIG) (PIG) (PHIU) (PHIU) (SGG) (?B)
                 (?B) (SGG) (DLTU) (DLTU) (PIU) (PIU) (DLTG) (DLTG)
                 (?E) (?E) (?C) (?C) (PHIG) (PHIG) (PIG) (PIG)
                 (SGU) (?F) (?F) (?A) (?A) (SGG) (?D) (?D) (SGU)
                 (PIG) (PIG) (PIU) (PIU) (DLTU) (DLTU) (PHIU) (PHIU)
                 (DLTG) (DLTG) (SGG) (?B) (?B) (PIU) (PIU) (SGU)
                 (PIG) (PIG) (PHIG) (PHIG) (?A) (?A) (?C) (?C)
                 (SGU) (PIG) (PIG) (?D) (?D) (SGG) (DLTU) (DLTU)
                 (PHIU) (PHIU) (PIU) (PIU) (SGG) (DLTG) (DLTG)
                 (?B) (?B) (DLTU) (DLTU) (DLTG) (DLTG) (PIG) (PIG)
                 (PHIU) (PHIU) (PIU) (PIU) (PHIG) (PHIG) (DLTU)
                 (DLTU) (SGU) (DLTG) (DLTG) (PIG) (PIG) (SGG) (SGU)
                 (PHIG) (PHIG) (SGG) (PIU) (PIU) (SGU) (SGG) (PIU)
                 (PIU) (DLTU) (DLTU) (PIG) (PIG) (SGU) (PHIU) (PHIU)
                 (?A) (?A) (?C) (?C) (?A) (?A) (PIG) (PIG) (?E)
                 (?E) (?B) (?B) (DLTG) (DLTG) (?F) (?F) (PHIU)
                 (PHIU) (SGG) (PIU) (PIU) (?D) (?D) (SGG) (SGU)
                 (PIG) (PIG) (?B) (?B) (PHIG) (PHIG) (DLTG) (DLTG)
                 (PHIG) (PHIG) (DLTU) (DLTU) (SGG) (SGU) (?C) (?C)
                 (DLTU) (DLTU) (?A) (?A) (PIU) (PIU) (?D) (?D)
                 (PIG) (PIG) (PIU) (PIU) (PHIU) (PHIU) (?B) (?B)
                 (SGU) (DLTG) (DLTG) (SGG) (PHIG) (PHIG) (SGU)
                 (DLTU) (DLTU) (PHIU) (PHIU) (PIG) (PIG) (PHIG)
                 (PHIG) (DLTG) (DLTG) (PIU) (PIU) (SGG) (DLTU)
                 (DLTU) (DLTG) (DLTG) (SGU) (PIG) (PIG) (PIU) (PIU)
                 (DLTU) (DLTU) (?A) (?A) (?C) (?C) (?E) (?E) (?G)
                 (?G) (SGU) (?H) (?H) (?F) (?F) (PHIU) (PHIU) (SGG)
                 (?D) (?D) (PIG) (PIG) (DLTG) (DLTG) (SGG) (SGU)
                 (PIU) (PIU) (?B) (?B) (SGG) (PIG) (PIG) (PIU)
                 (PIU) (PIG) (PIG) (SGU) (PHIG) (PHIG) (?C) (?C)
                 (?E) (?E) (?A) (?A) (?F) (?F) (?D) (?D) (SGG)
                 (PHIU) (PHIU) (DLTU) (DLTU) (?B) (?B) (PHIG) (PHIG)
                 (DLTG) (DLTG) (PIU) (PIU) (DLTU) (DLTU) (SGU)
                 (PIG) (PIG) (SGG) (SGU) (?A) (?A) (PHIU) (PHIU)
                 (?B) (?B) (?A) (?A) (?C) (?C) (?D) (?D) (PHIU)
                 (PHIU) (?B) (?B) (DLTG) (DLTG) (PIG) (PIG) (PIU)
                 (PIU) (PHIG) (PHIG) (SGG) (PHIG) (PHIG) (DLTU)
                 (DLTU) (SGU) (DLTG) (DLTG) (PHIU) (PHIU) (SGG)
                 (PHIG) (PHIG) (DLTU) (DLTU) (SGU) (DLTG) (DLTG)
                 (PIG) (PIG) (PIU) (PIU) (DLTU) (DLTU) (PIU) (PIU)
                 (SGG) (SGU) (PIG) (PIG) (SGU) (DLTG) (DLTG) (DLTU)
                 (DLTU) (PIU) (PIU) (PIG) (PIG) (SGG) (SGU) (PIU)
                 (PIU) (PIG) (PIG) (SGG) (SGU) (SGG) (SGU) (?A)
                 (?A) (PHIU) (PHIU) (?B) (?B) (DLTG) (DLTG) (PHIG)
                 (PHIG) (SGG) (DLTU) (DLTU) (PIU) (PIU) (PIG) (PIG)
                 (SGU) (SGG) (SGU)
 The electronic state of the initial guess is 3-SGG.
 Requested convergence on RMS density matrix=1.00D-10 within 128 cycles.
 Requested convergence on MAX density matrix=1.00D-08.
 Requested convergence on             energy=1.00D-08.
 No special actions if energy rises.
 CoulSu:  requested number of processors reduced to:   6 ShMem   1 Linda.
 CoulSu:  requested number of processors reduced to:   6 ShMem   1 Linda.
 CoulSu:  requested number of processors reduced to:   6 ShMem   1 Linda.
 CoulSu:  requested number of processors reduced to:   6 ShMem   1 Linda.
 CoulSu:  requested number of processors reduced to:   6 ShMem   1 Linda.
 CoulSu:  requested number of processors reduced to:   6 ShMem   1 Linda.
 CoulSu:  requested number of processors reduced to:   6 ShMem   1 Linda.
 CoulSu:  requested number of processors reduced to:   6 ShMem   1 Linda.
 CoulSu:  requested number of processors reduced to:   6 ShMem   1 Linda.
 Initial convergence to 1.0D-05 achieved.  Increase integral accuracy.
 CoulSu:  requested number of processors reduced to:   6 ShMem   1 Linda.
 CoulSu:  requested number of processors reduced to:   6 ShMem   1 Linda.
 CoulSu:  requested number of processors reduced to:   6 ShMem   1 Linda.
 CoulSu:  requested number of processors reduced to:   6 ShMem   1 Linda.
 CoulSu:  requested number of processors reduced to:   6 ShMem   1 Linda.
 CoulSu:  requested number of processors reduced to:   6 ShMem   1 Linda.
 CoulSu:  requested number of processors reduced to:   6 ShMem   1 Linda.
 CoulSu:  requested number of processors reduced to:   6 ShMem   1 Linda.
 CoulSu:  requested number of processors reduced to:   6 ShMem   1 Linda.
 CoulSu:  requested number of processors reduced to:   6 ShMem   1 Linda.
 SCF Done:  E(ROHF) =  -3846.53763873     A.U. after   19 cycles
             Convg  =    0.1587D-10             -V/T =  2.0000
 <Sx>= 0.0000 <Sy>= 0.0000 <Sz>= 1.0000 <S**2>= 2.0000 S= 1.0000
 <L.S>= 0.000000000000E+00
 Annihilation of the first spin contaminant:
 S**2 before annihilation     2.0000,   after     2.0000
 DiagDN has N=   540 LTot=  1652 but NE2=     3 cannot use DSYEVD.
 GenMOA:  NOpAll=  8 NOp2=8 NOpUse=  8 JSym2X=1
 CoulSu:  requested number of processors reduced to:   6 ShMem   1 Linda.
 <Sx>= 0.0000 <Sy>= 0.0000 <Sz>= 1.0000 <S**2>= 2.0000 S= 1.0000
 Range of M.O.s used for correlation:    29   540
 NBasis=   540 NAE=    32 NBE=    30 NFC=    28 NFV=     0
 NROrb=    512 NOA=     4 NOB=     2 NVA=   508 NVB=   510

 **** Warning!!: The largest alpha MO coefficient is  0.14686231D+04


 **** Warning!!: The largest beta MO coefficient is  0.14687538D+04

 Singles contribution to E2=   -0.1692856589D-02
 Disk-based method using OVN memory for  4 occupieds at a time.
 Permanent disk used for amplitudes and <ij||ab> integrals=     5950206 words.
 Estimated scratch disk usage=   993179424 words.
 IUseRI=2 ITolRI= 6 IR12RI=0
 Actual    scratch disk usage=   988552768 words.
 GetIJB would need an additional  1059722922 words of memory to use all   8 processors.
 JobTyp=2 Pass  1:  I=   1 to   4 NPSUse=  1 ParTrn=F ParDer=F DoDerP=F.
 (rs|ai) integrals will be sorted in core.
 T,EIJ(AA): I=   1 J=   2      0.9476567E-03     -0.1387328E-02
 T,EIJ(AA): I=   1 J=   3      0.1245327E-02     -0.1871607E-02
 T,EIJ(AA): I=   1 J=   4      0.1245327E-02     -0.1871607E-02
 T,EIJ(AA): I=   2 J=   3      0.5854132E-02     -0.5148935E-02
 T,EIJ(AA): I=   2 J=   4      0.5854132E-02     -0.5148935E-02
 T,EIJ(AA): I=   3 J=   4      0.7618851E-02     -0.6145755E-02
 T,EIJ(AB): I=   1 J=   1      0.6892715E-02     -0.1202245E-01
 T,EIJ(AB): I=   1 J=   2      0.4584426E-02     -0.7611795E-02
 T,EIJ(AB): I=   2 J=   1      0.6805480E-02     -0.9753903E-02
 T,EIJ(AB): I=   2 J=   2      0.1691357E-01     -0.1863302E-01
 T,EIJ(AB): I=   3 J=   1      0.6570816E-02     -0.9307868E-02
 T,EIJ(AB): I=   3 J=   2      0.9543297E-02     -0.9821392E-02
 T,EIJ(AB): I=   4 J=   1      0.6570816E-02     -0.9307868E-02
 T,EIJ(AB): I=   4 J=   2      0.9543297E-02     -0.9821392E-02
 Actual    scratch disk usage=   992444704 words.
 GetIJB would need an additional  1059710826 words of memory to use all   8 processors.
 JobTyp=3 Pass  1:  I=   1 to   2 NPSUse=  1 ParTrn=F ParDer=F DoDerP=F.
 (rs|ai) integrals will be sorted in core.
 T,EIJ(BB): I=   1 J=   2      0.1475582E-02     -0.1886942E-02
 Spin components of T(2) and E(2):
     alpha-alpha T2 =       0.2276542456D-01 E2=     -0.2157416687D-01
     alpha-beta  T2 =       0.6742441859D-01 E2=     -0.8627968054D-01
     beta-beta   T2 =       0.1475581918D-02 E2=     -0.1886941812D-02
 ANorm=    0.1045924364D+01
 E2 =    -0.1114336458D+00 EUMP2 =    -0.38466490723797D+04

 Complete Basis Set (CBS) Extrapolation:
 M. R. Nyden and G. A. Petersson, JCP 75, 1843 (1981)
 G. A. Petersson and M. A. Al-Laham, JCP 94, 6081 (1991)
 G. A. Petersson, T. Tensfeldt, and J. A. Montgomery, JCP 94, 6091 (1991)
 J. A. Montgomery, J. W. Ochterski, and G. A. Petersson, JCP 101, 5900 (1994)
 
 Minimum Number of PNO for Extrapolation =  25
 Absolute Overlaps: IRadAn =         5
 LocTrn: ILocal=3 LocCor=F DoCore=F.
 Entering OneElI...
 Overlap between basis sets.
 Requested accuracy = 0.1000D-12
 PrsmSu:  NPrtUS=   1 ThrOK=F IAlg=1
 PRISM was handed   803947996 working-precision words and   136 shell-pairs
 IPart=  0 NShTot=         136 NBatch=          15 AvBLen=         9.1
 CnvPC2: ToCart=F DoDens=F IPureD=0 IPureF=0.
 Transformed matrix in CnvPC2: 
                 1             2             3             4             5 
      1   0.100000D+01  0.399707D+00  0.000000D+00  0.000000D+00  0.000000D+00
      2   0.399707D+00  0.100000D+01  0.000000D+00  0.000000D+00  0.000000D+00
      3   0.000000D+00  0.000000D+00  0.100000D+01  0.000000D+00  0.000000D+00
      4   0.000000D+00  0.000000D+00  0.000000D+00  0.100000D+01  0.000000D+00
      5   0.000000D+00  0.000000D+00  0.000000D+00  0.000000D+00  0.100000D+01
      6   0.262553D-01  0.313572D+00  0.000000D+00  0.000000D+00  0.000000D+00
      7   0.000000D+00  0.000000D+00  0.326517D+00  0.000000D+00  0.000000D+00
      8   0.000000D+00  0.000000D+00  0.000000D+00  0.326517D+00  0.000000D+00
      9   0.000000D+00  0.000000D+00  0.000000D+00  0.000000D+00  0.326517D+00
     10   0.000000D+00  0.000000D+00  0.000000D+00  0.000000D+00  0.000000D+00
     11   0.000000D+00  0.000000D+00  0.000000D+00  0.000000D+00  0.000000D+00
     12   0.000000D+00  0.000000D+00  0.000000D+00  0.000000D+00  0.000000D+00
     13   0.000000D+00  0.000000D+00  0.000000D+00  0.000000D+00  0.000000D+00
     14   0.000000D+00  0.000000D+00  0.000000D+00  0.000000D+00  0.000000D+00
     15  -0.353836D-03  0.313775D-02  0.000000D+00  0.000000D+00  0.000000D+00
     16   0.000000D+00  0.000000D+00  0.102782D-01  0.000000D+00  0.000000D+00
     17   0.000000D+00  0.000000D+00  0.000000D+00  0.102782D-01  0.000000D+00
     18   0.000000D+00  0.000000D+00  0.000000D+00  0.000000D+00  0.102782D-01
     19   0.000000D+00  0.000000D+00  0.000000D+00  0.000000D+00  0.000000D+00
     20   0.000000D+00  0.000000D+00  0.000000D+00  0.000000D+00  0.000000D+00
     21   0.000000D+00  0.000000D+00  0.000000D+00  0.000000D+00  0.000000D+00
     22   0.000000D+00  0.000000D+00  0.000000D+00  0.000000D+00  0.000000D+00
     23   0.000000D+00  0.000000D+00  0.000000D+00  0.000000D+00  0.000000D+00
     24   0.000000D+00  0.000000D+00  0.000000D+00  0.000000D+00  0.000000D+00
     25   0.000000D+00  0.000000D+00  0.000000D+00  0.000000D+00  0.000000D+00
     26   0.000000D+00  0.000000D+00  0.000000D+00  0.000000D+00  0.000000D+00
     27   0.000000D+00  0.000000D+00  0.000000D+00  0.000000D+00  0.000000D+00
     28   0.000000D+00  0.000000D+00  0.000000D+00  0.000000D+00  0.000000D+00
     29   0.000000D+00  0.000000D+00  0.000000D+00  0.000000D+00  0.000000D+00
     30   0.000000D+00  0.000000D+00  0.000000D+00  0.000000D+00  0.000000D+00
     31   0.000000D+00  0.000000D+00  0.000000D+00  0.000000D+00  0.000000D+00
     32   0.000000D+00  0.000000D+00  0.000000D+00  0.000000D+00  0.000000D+00
     33   0.000000D+00  0.000000D+00  0.000000D+00  0.000000D+00  0.000000D+00
     34   0.000000D+00  0.000000D+00  0.000000D+00  0.000000D+00  0.000000D+00
     35   0.000000D+00  0.000000D+00  0.000000D+00  0.000000D+00  0.000000D+00
     36   0.000000D+00  0.000000D+00  0.000000D+00  0.000000D+00  0.000000D+00
     37   0.000000D+00  0.000000D+00  0.000000D+00  0.000000D+00  0.000000D+00
     38   0.793463D-03  0.495496D-02  0.000000D+00  0.000000D+00 -0.108144D-02
     39   0.000000D+00  0.000000D+00  0.332913D-03  0.000000D+00  0.000000D+00
     40   0.000000D+00  0.000000D+00  0.000000D+00  0.332913D-03  0.000000D+00
     41   0.140863D-02  0.876893D-02  0.000000D+00  0.000000D+00 -0.175444D-02
     42   0.307918D-02  0.190665D-01  0.000000D+00  0.000000D+00 -0.397206D-02
     43   0.000000D+00  0.000000D+00  0.125440D-02  0.000000D+00  0.000000D+00
     44   0.000000D+00  0.000000D+00  0.000000D+00  0.125440D-02  0.000000D+00
     45   0.000000D+00  0.000000D+00  0.000000D+00  0.000000D+00  0.000000D+00
     46   0.000000D+00  0.000000D+00  0.000000D+00  0.000000D+00  0.000000D+00
                 6             7             8             9            10 
      1   0.262553D-01  0.000000D+00  0.000000D+00  0.000000D+00  0.000000D+00
      2   0.313572D+00  0.000000D+00  0.000000D+00  0.000000D+00  0.000000D+00
      3   0.000000D+00  0.326517D+00  0.000000D+00  0.000000D+00  0.000000D+00
      4   0.000000D+00  0.000000D+00  0.326517D+00  0.000000D+00  0.000000D+00
      5   0.000000D+00  0.000000D+00  0.000000D+00  0.326517D+00  0.000000D+00
      6   0.100000D+01  0.000000D+00  0.000000D+00  0.000000D+00  0.000000D+00
      7   0.000000D+00  0.100000D+01  0.000000D+00  0.000000D+00  0.000000D+00
      8   0.000000D+00  0.000000D+00  0.100000D+01  0.000000D+00  0.000000D+00
      9   0.000000D+00  0.000000D+00  0.000000D+00  0.100000D+01  0.000000D+00
     10   0.000000D+00  0.000000D+00  0.000000D+00  0.000000D+00  0.100000D+01
     11   0.000000D+00  0.000000D+00  0.000000D+00  0.000000D+00  0.000000D+00
     12   0.000000D+00  0.000000D+00  0.000000D+00  0.000000D+00  0.000000D+00
     13   0.000000D+00  0.000000D+00  0.000000D+00  0.000000D+00  0.000000D+00
     14   0.000000D+00  0.000000D+00  0.000000D+00  0.000000D+00  0.000000D+00
     15   0.172993D+00  0.000000D+00  0.000000D+00  0.000000D+00  0.000000D+00
     16   0.000000D+00  0.189903D+00  0.000000D+00  0.000000D+00  0.000000D+00
     17   0.000000D+00  0.000000D+00  0.189903D+00  0.000000D+00  0.000000D+00
     18   0.000000D+00  0.000000D+00  0.000000D+00  0.189903D+00  0.000000D+00
     19   0.000000D+00  0.000000D+00  0.000000D+00  0.000000D+00  0.784073D-01
     20   0.000000D+00  0.000000D+00  0.000000D+00  0.000000D+00  0.000000D+00
     21   0.000000D+00  0.000000D+00  0.000000D+00  0.000000D+00  0.000000D+00
     22   0.000000D+00  0.000000D+00  0.000000D+00  0.000000D+00  0.000000D+00
     23   0.000000D+00  0.000000D+00  0.000000D+00  0.000000D+00  0.000000D+00
     24   0.000000D+00  0.000000D+00  0.000000D+00  0.000000D+00  0.000000D+00
     25   0.000000D+00  0.000000D+00  0.000000D+00  0.000000D+00  0.000000D+00
     26   0.000000D+00  0.000000D+00  0.000000D+00  0.000000D+00  0.000000D+00
     27   0.000000D+00  0.000000D+00  0.000000D+00  0.000000D+00  0.000000D+00
     28   0.000000D+00  0.000000D+00  0.000000D+00  0.000000D+00  0.000000D+00
     29   0.000000D+00  0.000000D+00  0.000000D+00  0.000000D+00  0.000000D+00
     30   0.000000D+00  0.000000D+00  0.000000D+00  0.000000D+00  0.000000D+00
     31   0.000000D+00  0.000000D+00  0.000000D+00  0.000000D+00  0.000000D+00
     32   0.000000D+00  0.000000D+00  0.000000D+00  0.000000D+00  0.000000D+00
     33   0.000000D+00  0.000000D+00  0.000000D+00  0.000000D+00  0.177432D-05
     34   0.000000D+00  0.000000D+00  0.000000D+00  0.000000D+00  0.000000D+00
     35   0.000000D+00  0.000000D+00  0.000000D+00  0.000000D+00  0.000000D+00
     36   0.000000D+00  0.000000D+00  0.000000D+00  0.000000D+00  0.000000D+00
     37   0.000000D+00  0.000000D+00  0.000000D+00  0.000000D+00  0.000000D+00
     38   0.309590D-01  0.000000D+00  0.000000D+00 -0.193999D-01  0.664606D-02
     39   0.000000D+00  0.622325D-02  0.000000D+00  0.000000D+00  0.000000D+00
     40   0.000000D+00  0.000000D+00  0.622325D-02  0.000000D+00  0.000000D+00
     41   0.534715D-01  0.000000D+00  0.000000D+00 -0.314027D-01  0.109539D-01
     42   0.109229D+00  0.000000D+00  0.000000D+00 -0.630501D-01  0.189674D-01
     43   0.000000D+00  0.222419D-01  0.000000D+00  0.000000D+00  0.000000D+00
     44   0.000000D+00  0.000000D+00  0.222419D-01  0.000000D+00  0.000000D+00
     45   0.000000D+00  0.000000D+00  0.000000D+00  0.000000D+00  0.000000D+00
     46   0.000000D+00  0.000000D+00  0.000000D+00  0.000000D+00  0.000000D+00
                11            12            13            14            15 
      1   0.000000D+00  0.000000D+00  0.000000D+00  0.000000D+00 -0.353836D-03
      2   0.000000D+00  0.000000D+00  0.000000D+00  0.000000D+00  0.313775D-02
      3   0.000000D+00  0.000000D+00  0.000000D+00  0.000000D+00  0.000000D+00
      4   0.000000D+00  0.000000D+00  0.000000D+00  0.000000D+00  0.000000D+00
      5   0.000000D+00  0.000000D+00  0.000000D+00  0.000000D+00  0.000000D+00
      6   0.000000D+00  0.000000D+00  0.000000D+00  0.000000D+00  0.172993D+00
      7   0.000000D+00  0.000000D+00  0.000000D+00  0.000000D+00  0.000000D+00
      8   0.000000D+00  0.000000D+00  0.000000D+00  0.000000D+00  0.000000D+00
      9   0.000000D+00  0.000000D+00  0.000000D+00  0.000000D+00  0.000000D+00
     10   0.000000D+00  0.000000D+00  0.000000D+00  0.000000D+00  0.000000D+00
     11   0.100000D+01  0.000000D+00  0.000000D+00  0.000000D+00  0.000000D+00
     12   0.000000D+00  0.100000D+01  0.000000D+00  0.000000D+00  0.000000D+00
     13   0.000000D+00  0.000000D+00  0.100000D+01  0.000000D+00  0.000000D+00
     14   0.000000D+00  0.000000D+00  0.000000D+00  0.100000D+01  0.000000D+00
     15   0.000000D+00  0.000000D+00  0.000000D+00  0.000000D+00  0.100000D+01
     16   0.000000D+00  0.000000D+00  0.000000D+00  0.000000D+00  0.000000D+00
     17   0.000000D+00  0.000000D+00  0.000000D+00  0.000000D+00  0.000000D+00
     18   0.000000D+00  0.000000D+00  0.000000D+00  0.000000D+00  0.000000D+00
     19   0.000000D+00  0.000000D+00  0.000000D+00  0.000000D+00  0.000000D+00
     20   0.784073D-01  0.000000D+00  0.000000D+00  0.000000D+00  0.000000D+00
     21   0.000000D+00  0.784073D-01  0.000000D+00  0.000000D+00  0.000000D+00
     22   0.000000D+00  0.000000D+00  0.784073D-01  0.000000D+00  0.000000D+00
     23   0.000000D+00  0.000000D+00  0.000000D+00  0.784073D-01  0.000000D+00
     24   0.000000D+00  0.000000D+00  0.000000D+00  0.000000D+00  0.793463D-03
     25   0.000000D+00  0.000000D+00  0.000000D+00  0.000000D+00  0.495496D-02
     26   0.000000D+00  0.000000D+00  0.000000D+00  0.000000D+00  0.000000D+00
     27   0.000000D+00  0.000000D+00  0.000000D+00  0.000000D+00  0.000000D+00
     28   0.000000D+00  0.000000D+00  0.000000D+00  0.000000D+00  0.108144D-02
     29   0.000000D+00  0.000000D+00  0.000000D+00  0.000000D+00  0.309590D-01
     30   0.000000D+00  0.000000D+00  0.000000D+00  0.000000D+00  0.000000D+00
     31   0.000000D+00  0.000000D+00  0.000000D+00  0.000000D+00  0.000000D+00
     32   0.000000D+00  0.000000D+00  0.000000D+00  0.000000D+00  0.193999D-01
     33   0.000000D+00  0.000000D+00  0.000000D+00  0.000000D+00  0.664606D-02
     34   0.000000D+00  0.000000D+00  0.000000D+00  0.000000D+00  0.000000D+00
     35   0.000000D+00  0.000000D+00  0.000000D+00  0.000000D+00  0.000000D+00
     36   0.000000D+00  0.000000D+00  0.000000D+00  0.000000D+00  0.000000D+00
     37   0.000000D+00  0.000000D+00  0.000000D+00  0.000000D+00  0.000000D+00
     38   0.000000D+00  0.000000D+00  0.000000D+00  0.000000D+00  0.272400D+00
     39  -0.411451D-02  0.000000D+00  0.000000D+00  0.000000D+00  0.000000D+00
     40   0.000000D+00 -0.411451D-02  0.000000D+00  0.000000D+00  0.000000D+00
     41   0.000000D+00  0.000000D+00  0.000000D+00  0.000000D+00  0.337091D+00
     42   0.000000D+00  0.000000D+00  0.000000D+00  0.000000D+00  0.307608D+00
     43  -0.144402D-01  0.000000D+00  0.000000D+00  0.000000D+00  0.000000D+00
     44   0.000000D+00 -0.144402D-01  0.000000D+00  0.000000D+00  0.000000D+00
     45   0.000000D+00  0.000000D+00  0.243403D-02  0.000000D+00  0.000000D+00
     46   0.000000D+00  0.000000D+00  0.000000D+00  0.243403D-02  0.000000D+00
                16            17            18            19            20 
      1   0.000000D+00  0.000000D+00  0.000000D+00  0.000000D+00  0.000000D+00
      2   0.000000D+00  0.000000D+00  0.000000D+00  0.000000D+00  0.000000D+00
      3   0.102782D-01  0.000000D+00  0.000000D+00  0.000000D+00  0.000000D+00
      4   0.000000D+00  0.102782D-01  0.000000D+00  0.000000D+00  0.000000D+00
      5   0.000000D+00  0.000000D+00  0.102782D-01  0.000000D+00  0.000000D+00
      6   0.000000D+00  0.000000D+00  0.000000D+00  0.000000D+00  0.000000D+00
      7   0.189903D+00  0.000000D+00  0.000000D+00  0.000000D+00  0.000000D+00
      8   0.000000D+00  0.189903D+00  0.000000D+00  0.000000D+00  0.000000D+00
      9   0.000000D+00  0.000000D+00  0.189903D+00  0.000000D+00  0.000000D+00
     10   0.000000D+00  0.000000D+00  0.000000D+00  0.784073D-01  0.000000D+00
     11   0.000000D+00  0.000000D+00  0.000000D+00  0.000000D+00  0.784073D-01
     12   0.000000D+00  0.000000D+00  0.000000D+00  0.000000D+00  0.000000D+00
     13   0.000000D+00  0.000000D+00  0.000000D+00  0.000000D+00  0.000000D+00
     14   0.000000D+00  0.000000D+00  0.000000D+00  0.000000D+00  0.000000D+00
     15   0.000000D+00  0.000000D+00  0.000000D+00  0.000000D+00  0.000000D+00
     16   0.100000D+01  0.000000D+00  0.000000D+00  0.000000D+00  0.000000D+00
     17   0.000000D+00  0.100000D+01  0.000000D+00  0.000000D+00  0.000000D+00
     18   0.000000D+00  0.000000D+00  0.100000D+01  0.000000D+00  0.000000D+00
     19   0.000000D+00  0.000000D+00  0.000000D+00  0.100000D+01  0.000000D+00
     20   0.000000D+00  0.000000D+00  0.000000D+00  0.000000D+00  0.100000D+01
     21   0.000000D+00  0.000000D+00  0.000000D+00  0.000000D+00  0.000000D+00
     22   0.000000D+00  0.000000D+00  0.000000D+00  0.000000D+00  0.000000D+00
     23   0.000000D+00  0.000000D+00  0.000000D+00  0.000000D+00  0.000000D+00
     24   0.000000D+00  0.000000D+00 -0.140863D-02  0.307918D-02  0.000000D+00
     25   0.000000D+00  0.000000D+00 -0.876893D-02  0.190665D-01  0.000000D+00
     26   0.332913D-03  0.000000D+00  0.000000D+00  0.000000D+00 -0.125440D-02
     27   0.000000D+00  0.332913D-03  0.000000D+00  0.000000D+00  0.000000D+00
     28   0.000000D+00  0.000000D+00 -0.175444D-02  0.397206D-02  0.000000D+00
     29   0.000000D+00  0.000000D+00 -0.534715D-01  0.109229D+00  0.000000D+00
     30   0.622325D-02  0.000000D+00  0.000000D+00  0.000000D+00 -0.222419D-01
     31   0.000000D+00  0.622325D-02  0.000000D+00  0.000000D+00  0.000000D+00
     32   0.000000D+00  0.000000D+00 -0.314027D-01  0.630501D-01  0.000000D+00
     33   0.000000D+00  0.000000D+00 -0.109539D-01  0.189674D-01  0.000000D+00
     34   0.411451D-02  0.000000D+00  0.000000D+00  0.000000D+00 -0.144402D-01
     35   0.000000D+00  0.411451D-02  0.000000D+00  0.000000D+00  0.000000D+00
     36   0.000000D+00  0.000000D+00  0.000000D+00  0.000000D+00  0.000000D+00
     37   0.000000D+00  0.000000D+00  0.000000D+00  0.000000D+00  0.000000D+00
     38   0.000000D+00  0.000000D+00 -0.337091D+00  0.307608D+00  0.000000D+00
     39   0.146897D+00  0.000000D+00  0.000000D+00  0.000000D+00 -0.283845D+00
     40   0.000000D+00  0.146897D+00  0.000000D+00  0.000000D+00  0.000000D+00
     41   0.000000D+00  0.000000D+00 -0.385772D+00  0.297134D+00  0.000000D+00
     42   0.000000D+00  0.000000D+00 -0.297134D+00  0.109524D+00  0.000000D+00
     43   0.283845D+00  0.000000D+00  0.000000D+00  0.000000D+00 -0.419824D+00
     44   0.000000D+00  0.283845D+00  0.000000D+00  0.000000D+00  0.000000D+00
     45   0.000000D+00  0.000000D+00  0.000000D+00  0.000000D+00  0.000000D+00
     46   0.000000D+00  0.000000D+00  0.000000D+00  0.000000D+00  0.000000D+00
                21            22            23            24            25 
      1   0.000000D+00  0.000000D+00  0.000000D+00  0.000000D+00  0.000000D+00
      2   0.000000D+00  0.000000D+00  0.000000D+00  0.000000D+00  0.000000D+00
      3   0.000000D+00  0.000000D+00  0.000000D+00  0.000000D+00  0.000000D+00
      4   0.000000D+00  0.000000D+00  0.000000D+00  0.000000D+00  0.000000D+00
      5   0.000000D+00  0.000000D+00  0.000000D+00  0.000000D+00  0.000000D+00
      6   0.000000D+00  0.000000D+00  0.000000D+00  0.000000D+00  0.000000D+00
      7   0.000000D+00  0.000000D+00  0.000000D+00  0.000000D+00  0.000000D+00
      8   0.000000D+00  0.000000D+00  0.000000D+00  0.000000D+00  0.000000D+00
      9   0.000000D+00  0.000000D+00  0.000000D+00  0.000000D+00  0.000000D+00
     10   0.000000D+00  0.000000D+00  0.000000D+00  0.000000D+00  0.000000D+00
     11   0.000000D+00  0.000000D+00  0.000000D+00  0.000000D+00  0.000000D+00
     12   0.784073D-01  0.000000D+00  0.000000D+00  0.000000D+00  0.000000D+00
     13   0.000000D+00  0.784073D-01  0.000000D+00  0.000000D+00  0.000000D+00
     14   0.000000D+00  0.000000D+00  0.784073D-01  0.000000D+00  0.000000D+00
     15   0.000000D+00  0.000000D+00  0.000000D+00  0.793463D-03  0.495496D-02
     16   0.000000D+00  0.000000D+00  0.000000D+00  0.000000D+00  0.000000D+00
     17   0.000000D+00  0.000000D+00  0.000000D+00  0.000000D+00  0.000000D+00
     18   0.000000D+00  0.000000D+00  0.000000D+00 -0.140863D-02 -0.876893D-02
     19   0.000000D+00  0.000000D+00  0.000000D+00  0.307918D-02  0.190665D-01
     20   0.000000D+00  0.000000D+00  0.000000D+00  0.000000D+00  0.000000D+00
     21   0.100000D+01  0.000000D+00  0.000000D+00  0.000000D+00  0.000000D+00
     22   0.000000D+00  0.100000D+01  0.000000D+00  0.000000D+00  0.000000D+00
     23   0.000000D+00  0.000000D+00  0.100000D+01  0.000000D+00  0.000000D+00
     24   0.000000D+00  0.000000D+00  0.000000D+00  0.100000D+01  0.399707D+00
     25   0.000000D+00  0.000000D+00  0.000000D+00  0.399707D+00  0.100000D+01
     26   0.000000D+00  0.000000D+00  0.000000D+00  0.000000D+00  0.000000D+00
     27  -0.125440D-02  0.000000D+00  0.000000D+00  0.000000D+00  0.000000D+00
     28   0.000000D+00  0.000000D+00  0.000000D+00  0.000000D+00  0.000000D+00
     29   0.000000D+00  0.000000D+00  0.000000D+00  0.262553D-01  0.313572D+00
     30   0.000000D+00  0.000000D+00  0.000000D+00  0.000000D+00  0.000000D+00
     31  -0.222419D-01  0.000000D+00  0.000000D+00  0.000000D+00  0.000000D+00
     32   0.000000D+00  0.000000D+00  0.000000D+00  0.000000D+00  0.000000D+00
     33   0.000000D+00  0.000000D+00  0.000000D+00  0.000000D+00  0.000000D+00
     34   0.000000D+00  0.000000D+00  0.000000D+00  0.000000D+00  0.000000D+00
     35  -0.144402D-01  0.000000D+00  0.000000D+00  0.000000D+00  0.000000D+00
     36   0.000000D+00  0.243403D-02  0.000000D+00  0.000000D+00  0.000000D+00
     37   0.000000D+00  0.000000D+00  0.243403D-02  0.000000D+00  0.000000D+00
     38   0.000000D+00  0.000000D+00  0.000000D+00 -0.353836D-03  0.313775D-02
     39   0.000000D+00  0.000000D+00  0.000000D+00  0.000000D+00  0.000000D+00
     40  -0.283845D+00  0.000000D+00  0.000000D+00  0.000000D+00  0.000000D+00
     41   0.000000D+00  0.000000D+00  0.000000D+00  0.000000D+00  0.000000D+00
     42   0.000000D+00  0.000000D+00  0.000000D+00  0.000000D+00  0.000000D+00
     43   0.000000D+00  0.000000D+00  0.000000D+00  0.000000D+00  0.000000D+00
     44  -0.419824D+00  0.000000D+00  0.000000D+00  0.000000D+00  0.000000D+00
     45   0.000000D+00  0.150872D+00  0.000000D+00  0.000000D+00  0.000000D+00
     46   0.000000D+00  0.000000D+00  0.150872D+00  0.000000D+00  0.000000D+00
                26            27            28            29            30 
      1   0.000000D+00  0.000000D+00  0.000000D+00  0.000000D+00  0.000000D+00
      2   0.000000D+00  0.000000D+00  0.000000D+00  0.000000D+00  0.000000D+00
      3   0.000000D+00  0.000000D+00  0.000000D+00  0.000000D+00  0.000000D+00
      4   0.000000D+00  0.000000D+00  0.000000D+00  0.000000D+00  0.000000D+00
      5   0.000000D+00  0.000000D+00  0.000000D+00  0.000000D+00  0.000000D+00
      6   0.000000D+00  0.000000D+00  0.000000D+00  0.000000D+00  0.000000D+00
      7   0.000000D+00  0.000000D+00  0.000000D+00  0.000000D+00  0.000000D+00
      8   0.000000D+00  0.000000D+00  0.000000D+00  0.000000D+00  0.000000D+00
      9   0.000000D+00  0.000000D+00  0.000000D+00  0.000000D+00  0.000000D+00
     10   0.000000D+00  0.000000D+00  0.000000D+00  0.000000D+00  0.000000D+00
     11   0.000000D+00  0.000000D+00  0.000000D+00  0.000000D+00  0.000000D+00
     12   0.000000D+00  0.000000D+00  0.000000D+00  0.000000D+00  0.000000D+00
     13   0.000000D+00  0.000000D+00  0.000000D+00  0.000000D+00  0.000000D+00
     14   0.000000D+00  0.000000D+00  0.000000D+00  0.000000D+00  0.000000D+00
     15   0.000000D+00  0.000000D+00  0.108144D-02  0.309590D-01  0.000000D+00
     16   0.332913D-03  0.000000D+00  0.000000D+00  0.000000D+00  0.622325D-02
     17   0.000000D+00  0.332913D-03  0.000000D+00  0.000000D+00  0.000000D+00
     18   0.000000D+00  0.000000D+00 -0.175444D-02 -0.534715D-01  0.000000D+00
     19   0.000000D+00  0.000000D+00  0.397206D-02  0.109229D+00  0.000000D+00
     20  -0.125440D-02  0.000000D+00  0.000000D+00  0.000000D+00 -0.222419D-01
     21   0.000000D+00 -0.125440D-02  0.000000D+00  0.000000D+00  0.000000D+00
     22   0.000000D+00  0.000000D+00  0.000000D+00  0.000000D+00  0.000000D+00
     23   0.000000D+00  0.000000D+00  0.000000D+00  0.000000D+00  0.000000D+00
     24   0.000000D+00  0.000000D+00  0.000000D+00  0.262553D-01  0.000000D+00
     25   0.000000D+00  0.000000D+00  0.000000D+00  0.313572D+00  0.000000D+00
     26   0.100000D+01  0.000000D+00  0.000000D+00  0.000000D+00  0.326517D+00
     27   0.000000D+00  0.100000D+01  0.000000D+00  0.000000D+00  0.000000D+00
     28   0.000000D+00  0.000000D+00  0.100000D+01  0.000000D+00  0.000000D+00
     29   0.000000D+00  0.000000D+00  0.000000D+00  0.100000D+01  0.000000D+00
     30   0.326517D+00  0.000000D+00  0.000000D+00  0.000000D+00  0.100000D+01
     31   0.000000D+00  0.326517D+00  0.000000D+00  0.000000D+00  0.000000D+00
     32   0.000000D+00  0.000000D+00  0.326517D+00  0.000000D+00  0.000000D+00
     33   0.000000D+00  0.000000D+00  0.000000D+00  0.000000D+00  0.000000D+00
     34   0.000000D+00  0.000000D+00  0.000000D+00  0.000000D+00  0.000000D+00
     35   0.000000D+00  0.000000D+00  0.000000D+00  0.000000D+00  0.000000D+00
     36   0.000000D+00  0.000000D+00  0.000000D+00  0.000000D+00  0.000000D+00
     37   0.000000D+00  0.000000D+00  0.000000D+00  0.000000D+00  0.000000D+00
     38   0.000000D+00  0.000000D+00  0.000000D+00  0.172993D+00  0.000000D+00
     39   0.102782D-01  0.000000D+00  0.000000D+00  0.000000D+00  0.189903D+00
     40   0.000000D+00  0.102782D-01  0.000000D+00  0.000000D+00  0.000000D+00
     41   0.000000D+00  0.000000D+00  0.102782D-01  0.000000D+00  0.000000D+00
     42   0.000000D+00  0.000000D+00  0.000000D+00  0.000000D+00  0.000000D+00
     43   0.000000D+00  0.000000D+00  0.000000D+00  0.000000D+00  0.000000D+00
     44   0.000000D+00  0.000000D+00  0.000000D+00  0.000000D+00  0.000000D+00
     45   0.000000D+00  0.000000D+00  0.000000D+00  0.000000D+00  0.000000D+00
     46   0.000000D+00  0.000000D+00  0.000000D+00  0.000000D+00  0.000000D+00
                31            32            33            34            35 
      1   0.000000D+00  0.000000D+00  0.000000D+00  0.000000D+00  0.000000D+00
      2   0.000000D+00  0.000000D+00  0.000000D+00  0.000000D+00  0.000000D+00
      3   0.000000D+00  0.000000D+00  0.000000D+00  0.000000D+00  0.000000D+00
      4   0.000000D+00  0.000000D+00  0.000000D+00  0.000000D+00  0.000000D+00
      5   0.000000D+00  0.000000D+00  0.000000D+00  0.000000D+00  0.000000D+00
      6   0.000000D+00  0.000000D+00  0.000000D+00  0.000000D+00  0.000000D+00
      7   0.000000D+00  0.000000D+00  0.000000D+00  0.000000D+00  0.000000D+00
      8   0.000000D+00  0.000000D+00  0.000000D+00  0.000000D+00  0.000000D+00
      9   0.000000D+00  0.000000D+00  0.000000D+00  0.000000D+00  0.000000D+00
     10   0.000000D+00  0.000000D+00  0.177432D-05  0.000000D+00  0.000000D+00
     11   0.000000D+00  0.000000D+00  0.000000D+00  0.000000D+00  0.000000D+00
     12   0.000000D+00  0.000000D+00  0.000000D+00  0.000000D+00  0.000000D+00
     13   0.000000D+00  0.000000D+00  0.000000D+00  0.000000D+00  0.000000D+00
     14   0.000000D+00  0.000000D+00  0.000000D+00  0.000000D+00  0.000000D+00
     15   0.000000D+00  0.193999D-01  0.664606D-02  0.000000D+00  0.000000D+00
     16   0.000000D+00  0.000000D+00  0.000000D+00  0.411451D-02  0.000000D+00
     17   0.622325D-02  0.000000D+00  0.000000D+00  0.000000D+00  0.411451D-02
     18   0.000000D+00 -0.314027D-01 -0.109539D-01  0.000000D+00  0.000000D+00
     19   0.000000D+00  0.630501D-01  0.189674D-01  0.000000D+00  0.000000D+00
     20   0.000000D+00  0.000000D+00  0.000000D+00 -0.144402D-01  0.000000D+00
     21  -0.222419D-01  0.000000D+00  0.000000D+00  0.000000D+00 -0.144402D-01
     22   0.000000D+00  0.000000D+00  0.000000D+00  0.000000D+00  0.000000D+00
     23   0.000000D+00  0.000000D+00  0.000000D+00  0.000000D+00  0.000000D+00
     24   0.000000D+00  0.000000D+00  0.000000D+00  0.000000D+00  0.000000D+00
     25   0.000000D+00  0.000000D+00  0.000000D+00  0.000000D+00  0.000000D+00
     26   0.000000D+00  0.000000D+00  0.000000D+00  0.000000D+00  0.000000D+00
     27   0.326517D+00  0.000000D+00  0.000000D+00  0.000000D+00  0.000000D+00
     28   0.000000D+00  0.326517D+00  0.000000D+00  0.000000D+00  0.000000D+00
     29   0.000000D+00  0.000000D+00  0.000000D+00  0.000000D+00  0.000000D+00
     30   0.000000D+00  0.000000D+00  0.000000D+00  0.000000D+00  0.000000D+00
     31   0.100000D+01  0.000000D+00  0.000000D+00  0.000000D+00  0.000000D+00
     32   0.000000D+00  0.100000D+01  0.000000D+00  0.000000D+00  0.000000D+00
     33   0.000000D+00  0.000000D+00  0.100000D+01  0.000000D+00  0.000000D+00
     34   0.000000D+00  0.000000D+00  0.000000D+00  0.100000D+01  0.000000D+00
     35   0.000000D+00  0.000000D+00  0.000000D+00  0.000000D+00  0.100000D+01
     36   0.000000D+00  0.000000D+00  0.000000D+00  0.000000D+00  0.000000D+00
     37   0.000000D+00  0.000000D+00  0.000000D+00  0.000000D+00  0.000000D+00
     38   0.000000D+00  0.000000D+00  0.000000D+00  0.000000D+00  0.000000D+00
     39   0.000000D+00  0.000000D+00  0.000000D+00  0.000000D+00  0.000000D+00
     40   0.189903D+00  0.000000D+00  0.000000D+00  0.000000D+00  0.000000D+00
     41   0.000000D+00  0.189903D+00  0.000000D+00  0.000000D+00  0.000000D+00
     42   0.000000D+00  0.000000D+00  0.784073D-01  0.000000D+00  0.000000D+00
     43   0.000000D+00  0.000000D+00  0.000000D+00  0.784073D-01  0.000000D+00
     44   0.000000D+00  0.000000D+00  0.000000D+00  0.000000D+00  0.784073D-01
     45   0.000000D+00  0.000000D+00  0.000000D+00  0.000000D+00  0.000000D+00
     46   0.000000D+00  0.000000D+00  0.000000D+00  0.000000D+00  0.000000D+00
                36            37            38            39            40 
      1   0.000000D+00  0.000000D+00  0.793463D-03  0.000000D+00  0.000000D+00
      2   0.000000D+00  0.000000D+00  0.495496D-02  0.000000D+00  0.000000D+00
      3   0.000000D+00  0.000000D+00  0.000000D+00  0.332913D-03  0.000000D+00
      4   0.000000D+00  0.000000D+00  0.000000D+00  0.000000D+00  0.332913D-03
      5   0.000000D+00  0.000000D+00 -0.108144D-02  0.000000D+00  0.000000D+00
      6   0.000000D+00  0.000000D+00  0.309590D-01  0.000000D+00  0.000000D+00
      7   0.000000D+00  0.000000D+00  0.000000D+00  0.622325D-02  0.000000D+00
      8   0.000000D+00  0.000000D+00  0.000000D+00  0.000000D+00  0.622325D-02
      9   0.000000D+00  0.000000D+00 -0.193999D-01  0.000000D+00  0.000000D+00
     10   0.000000D+00  0.000000D+00  0.664606D-02  0.000000D+00  0.000000D+00
     11   0.000000D+00  0.000000D+00  0.000000D+00 -0.411451D-02  0.000000D+00
     12   0.000000D+00  0.000000D+00  0.000000D+00  0.000000D+00 -0.411451D-02
     13   0.000000D+00  0.000000D+00  0.000000D+00  0.000000D+00  0.000000D+00
     14   0.000000D+00  0.000000D+00  0.000000D+00  0.000000D+00  0.000000D+00
     15   0.000000D+00  0.000000D+00  0.272400D+00  0.000000D+00  0.000000D+00
     16   0.000000D+00  0.000000D+00  0.000000D+00  0.146897D+00  0.000000D+00
     17   0.000000D+00  0.000000D+00  0.000000D+00  0.000000D+00  0.146897D+00
     18   0.000000D+00  0.000000D+00 -0.337091D+00  0.000000D+00  0.000000D+00
     19   0.000000D+00  0.000000D+00  0.307608D+00  0.000000D+00  0.000000D+00
     20   0.000000D+00  0.000000D+00  0.000000D+00 -0.283845D+00  0.000000D+00
     21   0.000000D+00  0.000000D+00  0.000000D+00  0.000000D+00 -0.283845D+00
     22   0.243403D-02  0.000000D+00  0.000000D+00  0.000000D+00  0.000000D+00
     23   0.000000D+00  0.243403D-02  0.000000D+00  0.000000D+00  0.000000D+00
     24   0.000000D+00  0.000000D+00 -0.353836D-03  0.000000D+00  0.000000D+00
     25   0.000000D+00  0.000000D+00  0.313775D-02  0.000000D+00  0.000000D+00
     26   0.000000D+00  0.000000D+00  0.000000D+00  0.102782D-01  0.000000D+00
     27   0.000000D+00  0.000000D+00  0.000000D+00  0.000000D+00  0.102782D-01
     28   0.000000D+00  0.000000D+00  0.000000D+00  0.000000D+00  0.000000D+00
     29   0.000000D+00  0.000000D+00  0.172993D+00  0.000000D+00  0.000000D+00
     30   0.000000D+00  0.000000D+00  0.000000D+00  0.189903D+00  0.000000D+00
     31   0.000000D+00  0.000000D+00  0.000000D+00  0.000000D+00  0.189903D+00
     32   0.000000D+00  0.000000D+00  0.000000D+00  0.000000D+00  0.000000D+00
     33   0.000000D+00  0.000000D+00  0.000000D+00  0.000000D+00  0.000000D+00
     34   0.000000D+00  0.000000D+00  0.000000D+00  0.000000D+00  0.000000D+00
     35   0.000000D+00  0.000000D+00  0.000000D+00  0.000000D+00  0.000000D+00
     36   0.100000D+01  0.000000D+00  0.000000D+00  0.000000D+00  0.000000D+00
     37   0.000000D+00  0.100000D+01  0.000000D+00  0.000000D+00  0.000000D+00
     38   0.000000D+00  0.000000D+00  0.100000D+01  0.000000D+00  0.000000D+00
     39   0.000000D+00  0.000000D+00  0.000000D+00  0.100000D+01  0.000000D+00
     40   0.000000D+00  0.000000D+00  0.000000D+00  0.000000D+00  0.100000D+01
     41   0.000000D+00  0.000000D+00  0.000000D+00  0.000000D+00  0.000000D+00
     42   0.000000D+00  0.000000D+00  0.000000D+00  0.000000D+00  0.000000D+00
     43   0.000000D+00  0.000000D+00  0.000000D+00  0.000000D+00  0.000000D+00
     44   0.000000D+00  0.000000D+00  0.000000D+00  0.000000D+00  0.000000D+00
     45   0.784073D-01  0.000000D+00  0.000000D+00  0.000000D+00  0.000000D+00
     46   0.000000D+00  0.784073D-01  0.000000D+00  0.000000D+00  0.000000D+00
                41            42            43            44            45 
      1   0.140863D-02  0.307918D-02  0.000000D+00  0.000000D+00  0.000000D+00
      2   0.876893D-02  0.190665D-01  0.000000D+00  0.000000D+00  0.000000D+00
      3   0.000000D+00  0.000000D+00  0.125440D-02  0.000000D+00  0.000000D+00
      4   0.000000D+00  0.000000D+00  0.000000D+00  0.125440D-02  0.000000D+00
      5  -0.175444D-02 -0.397206D-02  0.000000D+00  0.000000D+00  0.000000D+00
      6   0.534715D-01  0.109229D+00  0.000000D+00  0.000000D+00  0.000000D+00
      7   0.000000D+00  0.000000D+00  0.222419D-01  0.000000D+00  0.000000D+00
      8   0.000000D+00  0.000000D+00  0.000000D+00  0.222419D-01  0.000000D+00
      9  -0.314027D-01 -0.630501D-01  0.000000D+00  0.000000D+00  0.000000D+00
     10   0.109539D-01  0.189674D-01  0.000000D+00  0.000000D+00  0.000000D+00
     11   0.000000D+00  0.000000D+00 -0.144402D-01  0.000000D+00  0.000000D+00
     12   0.000000D+00  0.000000D+00  0.000000D+00 -0.144402D-01  0.000000D+00
     13   0.000000D+00  0.000000D+00  0.000000D+00  0.000000D+00  0.243403D-02
     14   0.000000D+00  0.000000D+00  0.000000D+00  0.000000D+00  0.000000D+00
     15   0.337091D+00  0.307608D+00  0.000000D+00  0.000000D+00  0.000000D+00
     16   0.000000D+00  0.000000D+00  0.283845D+00  0.000000D+00  0.000000D+00
     17   0.000000D+00  0.000000D+00  0.000000D+00  0.283845D+00  0.000000D+00
     18  -0.385772D+00 -0.297134D+00  0.000000D+00  0.000000D+00  0.000000D+00
     19   0.297134D+00  0.109524D+00  0.000000D+00  0.000000D+00  0.000000D+00
     20   0.000000D+00  0.000000D+00 -0.419824D+00  0.000000D+00  0.000000D+00
     21   0.000000D+00  0.000000D+00  0.000000D+00 -0.419824D+00  0.000000D+00
     22   0.000000D+00  0.000000D+00  0.000000D+00  0.000000D+00  0.150872D+00
     23   0.000000D+00  0.000000D+00  0.000000D+00  0.000000D+00  0.000000D+00
     24   0.000000D+00  0.000000D+00  0.000000D+00  0.000000D+00  0.000000D+00
     25   0.000000D+00  0.000000D+00  0.000000D+00  0.000000D+00  0.000000D+00
     26   0.000000D+00  0.000000D+00  0.000000D+00  0.000000D+00  0.000000D+00
     27   0.000000D+00  0.000000D+00  0.000000D+00  0.000000D+00  0.000000D+00
     28   0.102782D-01  0.000000D+00  0.000000D+00  0.000000D+00  0.000000D+00
     29   0.000000D+00  0.000000D+00  0.000000D+00  0.000000D+00  0.000000D+00
     30   0.000000D+00  0.000000D+00  0.000000D+00  0.000000D+00  0.000000D+00
     31   0.000000D+00  0.000000D+00  0.000000D+00  0.000000D+00  0.000000D+00
     32   0.189903D+00  0.000000D+00  0.000000D+00  0.000000D+00  0.000000D+00
     33   0.000000D+00  0.784073D-01  0.000000D+00  0.000000D+00  0.000000D+00
     34   0.000000D+00  0.000000D+00  0.784073D-01  0.000000D+00  0.000000D+00
     35   0.000000D+00  0.000000D+00  0.000000D+00  0.784073D-01  0.000000D+00
     36   0.000000D+00  0.000000D+00  0.000000D+00  0.000000D+00  0.784073D-01
     37   0.000000D+00  0.000000D+00  0.000000D+00  0.000000D+00  0.000000D+00
     38   0.000000D+00  0.000000D+00  0.000000D+00  0.000000D+00  0.000000D+00
     39   0.000000D+00  0.000000D+00  0.000000D+00  0.000000D+00  0.000000D+00
     40   0.000000D+00  0.000000D+00  0.000000D+00  0.000000D+00  0.000000D+00
     41   0.100000D+01  0.000000D+00  0.000000D+00  0.000000D+00  0.000000D+00
     42   0.000000D+00  0.100000D+01  0.000000D+00  0.000000D+00  0.000000D+00
     43   0.000000D+00  0.000000D+00  0.100000D+01  0.000000D+00  0.000000D+00
     44   0.000000D+00  0.000000D+00  0.000000D+00  0.100000D+01  0.000000D+00
     45   0.000000D+00  0.000000D+00  0.000000D+00  0.000000D+00  0.100000D+01
     46   0.000000D+00  0.000000D+00  0.000000D+00  0.000000D+00  0.000000D+00
                46 
      1   0.000000D+00
      2   0.000000D+00
      3   0.000000D+00
      4   0.000000D+00
      5   0.000000D+00
      6   0.000000D+00
      7   0.000000D+00
      8   0.000000D+00
      9   0.000000D+00
     10   0.000000D+00
     11   0.000000D+00
     12   0.000000D+00
     13   0.000000D+00
     14   0.243403D-02
     15   0.000000D+00
     16   0.000000D+00
     17   0.000000D+00
     18   0.000000D+00
     19   0.000000D+00
     20   0.000000D+00
     21   0.000000D+00
     22   0.000000D+00
     23   0.150872D+00
     24   0.000000D+00
     25   0.000000D+00
     26   0.000000D+00
     27   0.000000D+00
     28   0.000000D+00
     29   0.000000D+00
     30   0.000000D+00
     31   0.000000D+00
     32   0.000000D+00
     33   0.000000D+00
     34   0.000000D+00
     35   0.000000D+00
     36   0.000000D+00
     37   0.784073D-01
     38   0.000000D+00
     39   0.000000D+00
     40   0.000000D+00
     41   0.000000D+00
     42   0.000000D+00
     43   0.000000D+00
     44   0.000000D+00
     45   0.000000D+00
     46   0.100000D+01
 Entering OneElI...
 Overlap between basis sets.
 Requested accuracy = 0.1000D-12
 PrsmSu:  NPrtUS=   1 ThrOK=F IAlg=1
 PRISM was handed   802908747 working-precision words and  1188 shell-pairs
 IPart=  0 NShTot=        1188 NBatch=          89 AvBLen=        13.3
 CnvPC2: ToCart=F DoDens=F IPureD=0 IPureF=0.
 Transformed matrix in CnvPC2: 
                 1             2             3             4             5 
      1   0.999789D+00  0.408650D+00  0.000000D+00  0.000000D+00  0.000000D+00
      2   0.287568D+00  0.988932D+00  0.000000D+00  0.000000D+00  0.000000D+00
      3   0.000000D+00  0.000000D+00  0.999224D+00  0.000000D+00  0.000000D+00
      4   0.000000D+00  0.000000D+00  0.000000D+00  0.999224D+00  0.000000D+00
      5   0.000000D+00  0.000000D+00  0.000000D+00  0.000000D+00  0.999224D+00
      6   0.117599D-01  0.315764D+00  0.000000D+00  0.000000D+00  0.000000D+00
      7   0.000000D+00  0.000000D+00  0.337691D+00  0.000000D+00  0.000000D+00
      8   0.000000D+00  0.000000D+00  0.000000D+00  0.337691D+00  0.000000D+00
      9   0.000000D+00  0.000000D+00  0.000000D+00  0.000000D+00  0.337691D+00
     10   0.000000D+00  0.000000D+00  0.000000D+00  0.000000D+00  0.000000D+00
     11   0.000000D+00  0.000000D+00  0.000000D+00  0.000000D+00  0.000000D+00
     12   0.000000D+00  0.000000D+00  0.000000D+00  0.000000D+00  0.000000D+00
     13   0.000000D+00  0.000000D+00  0.000000D+00  0.000000D+00  0.000000D+00
     14   0.000000D+00  0.000000D+00  0.000000D+00  0.000000D+00  0.000000D+00
     15   0.258524D-04  0.714738D-02  0.000000D+00  0.000000D+00  0.000000D+00
     16   0.629438D-02  0.386865D-01  0.000000D+00  0.000000D+00  0.000000D+00
     17   0.284266D-02  0.175259D-01  0.000000D+00  0.000000D+00  0.000000D+00
     18   0.000000D+00  0.000000D+00  0.558729D-02  0.000000D+00  0.000000D+00
     19   0.000000D+00  0.000000D+00  0.000000D+00  0.558729D-02  0.000000D+00
     20   0.000000D+00  0.000000D+00  0.000000D+00  0.000000D+00  0.558729D-02
     21   0.000000D+00  0.000000D+00  0.291983D-03  0.000000D+00  0.000000D+00
     22   0.000000D+00  0.000000D+00  0.000000D+00  0.291983D-03  0.000000D+00
     23   0.000000D+00  0.000000D+00  0.000000D+00  0.000000D+00  0.291983D-03
     24   0.000000D+00  0.000000D+00  0.109792D-02  0.000000D+00  0.000000D+00
     25   0.000000D+00  0.000000D+00  0.000000D+00  0.109792D-02  0.000000D+00
     26   0.000000D+00  0.000000D+00  0.000000D+00  0.000000D+00  0.109792D-02
     27   0.124642D+00  0.608035D+00  0.000000D+00  0.000000D+00  0.000000D+00
     28   0.807516D-01  0.435001D+00  0.000000D+00  0.000000D+00  0.000000D+00
     29   0.519927D-01  0.297145D+00  0.000000D+00  0.000000D+00  0.000000D+00
     30   0.333600D-01  0.197271D+00  0.000000D+00  0.000000D+00  0.000000D+00
     31   0.213634D-01  0.128789D+00  0.000000D+00  0.000000D+00  0.000000D+00
     32   0.136663D-01  0.832787D-01  0.000000D+00  0.000000D+00  0.000000D+00
     33   0.000000D+00  0.000000D+00  0.167963D+00  0.000000D+00  0.000000D+00
     34   0.000000D+00  0.000000D+00  0.000000D+00  0.167963D+00  0.000000D+00
     35   0.000000D+00  0.000000D+00  0.000000D+00  0.000000D+00  0.167963D+00
     36   0.000000D+00  0.000000D+00  0.974571D-01  0.000000D+00  0.000000D+00
     37   0.000000D+00  0.000000D+00  0.000000D+00  0.974571D-01  0.000000D+00
     38   0.000000D+00  0.000000D+00  0.000000D+00  0.000000D+00  0.974571D-01
     39   0.000000D+00  0.000000D+00  0.548549D-01  0.000000D+00  0.000000D+00
     40   0.000000D+00  0.000000D+00  0.000000D+00  0.548549D-01  0.000000D+00
     41   0.000000D+00  0.000000D+00  0.000000D+00  0.000000D+00  0.548549D-01
     42   0.000000D+00  0.000000D+00  0.302737D-01  0.000000D+00  0.000000D+00
     43   0.000000D+00  0.000000D+00  0.000000D+00  0.302737D-01  0.000000D+00
     44   0.000000D+00  0.000000D+00  0.000000D+00  0.000000D+00  0.302737D-01
     45   0.000000D+00  0.000000D+00  0.165011D-01  0.000000D+00  0.000000D+00
     46   0.000000D+00  0.000000D+00  0.000000D+00  0.165011D-01  0.000000D+00
     47   0.000000D+00  0.000000D+00  0.000000D+00  0.000000D+00  0.165011D-01
     48   0.000000D+00  0.000000D+00  0.892489D-02  0.000000D+00  0.000000D+00
     49   0.000000D+00  0.000000D+00  0.000000D+00  0.892489D-02  0.000000D+00
     50   0.000000D+00  0.000000D+00  0.000000D+00  0.000000D+00  0.892489D-02
     51   0.000000D+00  0.000000D+00  0.000000D+00  0.000000D+00  0.000000D+00
     52   0.000000D+00  0.000000D+00  0.000000D+00  0.000000D+00  0.000000D+00
     53   0.000000D+00  0.000000D+00  0.000000D+00  0.000000D+00  0.000000D+00
     54   0.000000D+00  0.000000D+00  0.000000D+00  0.000000D+00  0.000000D+00
     55   0.000000D+00  0.000000D+00  0.000000D+00  0.000000D+00  0.000000D+00
     56   0.000000D+00  0.000000D+00  0.000000D+00  0.000000D+00  0.000000D+00
     57   0.000000D+00  0.000000D+00  0.000000D+00  0.000000D+00  0.000000D+00
     58   0.000000D+00  0.000000D+00  0.000000D+00  0.000000D+00  0.000000D+00
     59   0.000000D+00  0.000000D+00  0.000000D+00  0.000000D+00  0.000000D+00
     60   0.000000D+00  0.000000D+00  0.000000D+00  0.000000D+00  0.000000D+00
     61   0.000000D+00  0.000000D+00  0.000000D+00  0.000000D+00  0.000000D+00
     62   0.000000D+00  0.000000D+00  0.000000D+00  0.000000D+00  0.000000D+00
     63   0.000000D+00  0.000000D+00  0.000000D+00  0.000000D+00  0.000000D+00
     64   0.000000D+00  0.000000D+00  0.000000D+00  0.000000D+00  0.000000D+00
     65   0.000000D+00  0.000000D+00  0.000000D+00  0.000000D+00  0.000000D+00
     66   0.000000D+00  0.000000D+00  0.000000D+00  0.000000D+00  0.000000D+00
     67   0.000000D+00  0.000000D+00  0.000000D+00  0.000000D+00  0.000000D+00
     68   0.000000D+00  0.000000D+00  0.000000D+00  0.000000D+00  0.000000D+00
     69   0.000000D+00  0.000000D+00  0.000000D+00  0.000000D+00  0.000000D+00
     70   0.000000D+00  0.000000D+00  0.000000D+00  0.000000D+00  0.000000D+00
     71   0.000000D+00  0.000000D+00  0.000000D+00  0.000000D+00  0.000000D+00
     72   0.000000D+00  0.000000D+00  0.000000D+00  0.000000D+00  0.000000D+00
     73   0.000000D+00  0.000000D+00  0.000000D+00  0.000000D+00  0.000000D+00
     74   0.000000D+00  0.000000D+00  0.000000D+00  0.000000D+00  0.000000D+00
     75   0.000000D+00  0.000000D+00  0.000000D+00  0.000000D+00  0.000000D+00
     76   0.000000D+00  0.000000D+00  0.000000D+00  0.000000D+00  0.000000D+00
     77   0.000000D+00  0.000000D+00  0.000000D+00  0.000000D+00  0.000000D+00
     78   0.000000D+00  0.000000D+00  0.000000D+00  0.000000D+00  0.000000D+00
     79   0.000000D+00  0.000000D+00  0.000000D+00  0.000000D+00  0.000000D+00
     80   0.000000D+00  0.000000D+00  0.000000D+00  0.000000D+00  0.000000D+00
     81   0.000000D+00  0.000000D+00  0.000000D+00  0.000000D+00  0.000000D+00
     82   0.000000D+00  0.000000D+00  0.000000D+00  0.000000D+00  0.000000D+00
     83   0.000000D+00  0.000000D+00  0.000000D+00  0.000000D+00  0.000000D+00
     84   0.000000D+00  0.000000D+00  0.000000D+00  0.000000D+00  0.000000D+00
     85   0.000000D+00  0.000000D+00  0.000000D+00  0.000000D+00  0.000000D+00
     86   0.000000D+00  0.000000D+00  0.000000D+00  0.000000D+00  0.000000D+00
     87   0.000000D+00  0.000000D+00  0.000000D+00  0.000000D+00  0.000000D+00
     88   0.000000D+00  0.000000D+00  0.000000D+00  0.000000D+00  0.000000D+00
     89   0.000000D+00  0.000000D+00  0.000000D+00  0.000000D+00  0.000000D+00
     90   0.000000D+00  0.000000D+00  0.000000D+00  0.000000D+00  0.000000D+00
     91   0.000000D+00  0.000000D+00  0.000000D+00  0.000000D+00  0.000000D+00
     92   0.000000D+00  0.000000D+00  0.000000D+00  0.000000D+00  0.000000D+00
     93   0.000000D+00  0.000000D+00  0.000000D+00  0.000000D+00  0.000000D+00
     94   0.000000D+00  0.000000D+00  0.000000D+00  0.000000D+00  0.000000D+00
     95   0.000000D+00  0.000000D+00  0.000000D+00  0.000000D+00  0.000000D+00
     96   0.000000D+00  0.000000D+00  0.000000D+00  0.000000D+00  0.000000D+00
     97   0.000000D+00  0.000000D+00  0.000000D+00  0.000000D+00  0.000000D+00
     98   0.000000D+00  0.000000D+00  0.000000D+00  0.000000D+00  0.000000D+00
     99   0.000000D+00  0.000000D+00  0.000000D+00  0.000000D+00  0.000000D+00
    100   0.000000D+00  0.000000D+00  0.000000D+00  0.000000D+00  0.000000D+00
    101   0.000000D+00  0.000000D+00  0.000000D+00  0.000000D+00  0.000000D+00
    102   0.000000D+00  0.000000D+00  0.000000D+00  0.000000D+00  0.000000D+00
    103   0.000000D+00  0.000000D+00  0.000000D+00  0.000000D+00  0.000000D+00
    104   0.000000D+00  0.000000D+00  0.000000D+00  0.000000D+00  0.000000D+00
    105   0.000000D+00  0.000000D+00  0.000000D+00  0.000000D+00  0.000000D+00
    106   0.000000D+00  0.000000D+00  0.000000D+00  0.000000D+00  0.000000D+00
    107   0.000000D+00  0.000000D+00  0.000000D+00  0.000000D+00  0.000000D+00
    108   0.000000D+00  0.000000D+00  0.000000D+00  0.000000D+00  0.000000D+00
    109   0.000000D+00  0.000000D+00  0.000000D+00  0.000000D+00  0.000000D+00
    110   0.000000D+00  0.000000D+00  0.000000D+00  0.000000D+00  0.000000D+00
    111   0.000000D+00  0.000000D+00  0.000000D+00  0.000000D+00  0.000000D+00
    112   0.000000D+00  0.000000D+00  0.000000D+00  0.000000D+00  0.000000D+00
    113   0.000000D+00  0.000000D+00  0.000000D+00  0.000000D+00  0.000000D+00
    114   0.000000D+00  0.000000D+00  0.000000D+00  0.000000D+00  0.000000D+00
    115   0.000000D+00  0.000000D+00  0.000000D+00  0.000000D+00  0.000000D+00
    116   0.000000D+00  0.000000D+00  0.000000D+00  0.000000D+00  0.000000D+00
    117   0.000000D+00  0.000000D+00  0.000000D+00  0.000000D+00  0.000000D+00
    118   0.000000D+00  0.000000D+00  0.000000D+00  0.000000D+00  0.000000D+00
    119   0.000000D+00  0.000000D+00  0.000000D+00  0.000000D+00  0.000000D+00
    120   0.000000D+00  0.000000D+00  0.000000D+00  0.000000D+00  0.000000D+00
    121   0.000000D+00  0.000000D+00  0.000000D+00  0.000000D+00  0.000000D+00
    122   0.000000D+00  0.000000D+00  0.000000D+00  0.000000D+00  0.000000D+00
    123   0.000000D+00  0.000000D+00  0.000000D+00  0.000000D+00  0.000000D+00
    124   0.000000D+00  0.000000D+00  0.000000D+00  0.000000D+00  0.000000D+00
    125   0.000000D+00  0.000000D+00  0.000000D+00  0.000000D+00  0.000000D+00
    126   0.000000D+00  0.000000D+00  0.000000D+00  0.000000D+00  0.000000D+00
    127   0.000000D+00  0.000000D+00  0.000000D+00  0.000000D+00  0.000000D+00
    128   0.000000D+00  0.000000D+00  0.000000D+00  0.000000D+00  0.000000D+00
    129   0.000000D+00  0.000000D+00  0.000000D+00  0.000000D+00  0.000000D+00
    130   0.000000D+00  0.000000D+00  0.000000D+00  0.000000D+00  0.000000D+00
    131   0.000000D+00  0.000000D+00  0.000000D+00  0.000000D+00  0.000000D+00
    132   0.000000D+00  0.000000D+00  0.000000D+00  0.000000D+00  0.000000D+00
    133   0.000000D+00  0.000000D+00  0.000000D+00  0.000000D+00  0.000000D+00
    134   0.000000D+00  0.000000D+00  0.000000D+00  0.000000D+00  0.000000D+00
    135   0.000000D+00  0.000000D+00  0.000000D+00  0.000000D+00  0.000000D+00
    136   0.000000D+00  0.000000D+00  0.000000D+00  0.000000D+00  0.000000D+00
[...]
                                                  ----------
                         Total pair energies =    -0.111851 A.U.

                         Single Excitations  =    -0.001693 A.U.

                          Total second order =    -0.113544 A.U.



            MP2(CBS) (With Interference Correction) 
            ---------------------------------------

 AB - AA |     29        30        31        32
 BA - BB |     29        30        31        32
--------------------------------------------------
   29    | -0.020992 -0.001418 -0.003542 -0.003542
   29    |  0.000000 -0.001917  0.000000  0.000000
         |
   30    | -0.003145 -0.020992 -0.003542 -0.003542
   30    | -0.003145  0.000000  0.000000  0.000000
         |
   31    | -0.009628 -0.009628  0.000000 -0.006160
   31    |  0.000000  0.000000  0.000000  0.000000
         |
   32    | -0.009628 -0.009628  0.000000  0.000000
   32    |  0.000000  0.000000  0.000000  0.000000
         |

                     Sum of ab pair energies =    -0.083640 A.U.
                     Sum of ba pair energies =    -0.003145 A.U.
                     Sum of aa pair energies =    -0.021745 A.U.
                     Sum of bb pair energies =    -0.001917 A.U.

           Sum of intraorbital pair energies =    -0.041985 A.U.
           Sum of interorbital pair energies =    -0.068462 A.U.
                                                  ----------
                         Total pair energies =    -0.110446 A.U.

                         Single Excitations  =    -0.001693 A.U.

                          Total second order =    -0.112139 A.U.

                         E2(CBS) - E2(Dir) =      -0.002110 A.U.

 E2(CBS)=      -0.113544 CBS-Int=       0.001405 OIii=       0.367208

 **********************************************************************

            Population analysis using the SCF density.

 **********************************************************************

 Orbital symmetries:
       Occupied  (SGG) (SGU) (SGG) (SGU) (SGU) (SGG) (PIG) (PIG)
                 (PIU) (PIU) (SGG) (SGU) (SGG) (SGU) (PIU) (PIU)
                 (PIG) (PIG) (SGG) (PIU) (PIU) (PIG) (PIG) (DLTG)
                 (DLTG) (DLTU) (DLTU) (SGU) (SGG) (SGU) (PIU) (PIU)
       Virtual   (SGG) (SGU) (PIU) (PIU) (PIG) (PIG) (SGG) (SGG)
                 (PIG) (PIG) (SGU) (SGU) (SGG) (PIU) (PIU) (DLTG)
                 (DLTG) (PIG) (PIG) (PIU) (PIU) (DLTU) (DLTU) (SGG)
                 (SGU) (PIG) (PIG) (SGU) (SGG) (SGG) (DLTG) (DLTG)
                 (PHIU) (PHIU) (PIU) (PIU) (PIG) (PIG) (PIU) (PIU)
                 (DLTG) (DLTG) (DLTU) (DLTU) (PHIG) (PHIG) (SGU)
                 (SGG) (SGU) (SGU) (PIG) (PIG) (DLTU) (DLTU) (PIU)
                 (PIU) (SGG) (PIG) (PIG) (?A) (?A) (SGG) (PHIU)
                 (PHIU) (PIU) (PIU) (DLTG) (DLTG) (SGU) (PIG) (PIG)
                 (?B) (?B) (SGG) (PHIG) (PHIG) (DLTU) (DLTU) (DLTG)
                 (DLTG) (PHIU) (PHIU) (SGU) (PIU) (PIU) (DLTU)
                 (DLTU) (DLTG) (DLTG) (SGU) (SGG) (PIG) (PIG) (PIU)
                 (PIU) (PHIG) (PHIG) (SGU) (PIU) (PIU) (SGG) (DLTU)
                 (DLTU) (PIG) (PIG) (?C) (?C) (SGU) (?A) (?A) (?D)
                 (?D) (SGG) (PIG) (PIG) (PHIU) (PHIU) (SGG) (PIU)
                 (PIU) (?B) (?B) (DLTG) (DLTG) (PHIG) (PHIG) (DLTG)
                 (DLTG) (SGG) (PIG) (PIG) (DLTU) (DLTU) (SGU) (SGU)
                 (DLTG) (DLTG) (DLTU) (DLTU) (PIU) (PIU) (PHIU)
                 (PHIU) (PIG) (PIG) (PHIG) (PHIG) (PIU) (PIU) (?A)
                 (?A) (SGU) (PHIU) (PHIU) (SGG) (?B) (?B) (SGG)
                 (DLTG) (DLTG) (?E) (?E) (?C) (?C) (DLTU) (DLTU)
                 (PHIG) (PHIG) (PIU) (PIU) (PIG) (PIG) (?F) (?F)
                 (SGU) (?A) (?A) (?D) (?D) (SGU) (SGG) (PIU) (PIU)
                 (DLTU) (DLTU) (PIG) (PIG) (PHIU) (PHIU) (DLTG)
                 (DLTG) (?B) (?B) (SGG) (PIU) (PIU) (PHIG) (PHIG)
                 (SGU) (PIG) (PIG) (?A) (?A) (PIG) (PIG) (?C) (?C)
                 (SGU) (?D) (?D) (PHIU) (PHIU) (SGG) (DLTU) (DLTU)
                 (PIU) (PIU) (SGG) (?B) (?B) (DLTG) (DLTG) (PIG)
                 (PIG) (DLTU) (DLTU) (DLTG) (DLTG) (PHIG) (PHIG)
                 (PIU) (PIU) (PHIU) (PHIU) (DLTU) (DLTU) (SGU)
                 (DLTG) (DLTG) (PHIG) (PHIG) (PIG) (PIG) (SGG)
                 (SGG) (SGU) (PIU) (PIU) (SGU) (SGG) (DLTU) (DLTU)
                 (PIU) (PIU) (?A) (?A) (SGU) (PHIU) (PHIU) (PIG)
                 (PIG) (?C) (?C) (?E) (?E) (?F) (?F) (?A) (?A)
                 (PIG) (PIG) (DLTG) (DLTG) (?B) (?B) (?D) (?D)
                 (PHIU) (PHIU) (SGG) (PIU) (PIU) (?B) (?B) (SGG)
                 (SGU) (PIG) (PIG) (DLTG) (DLTG) (PHIG) (PHIG)
                 (PHIG) (PHIG) (DLTU) (DLTU) (SGU) (DLTU) (DLTU)
                 (?C) (?C) (?A) (?A) (SGG) (PIU) (PIU) (?D) (?D)
                 (PIG) (PIG) (PHIU) (PHIU) (?B) (?B) (PIU) (PIU)
                 (DLTG) (DLTG) (SGU) (SGG) (PHIG) (PHIG) (DLTU)
                 (DLTU) (SGU) (PIG) (PIG) (PHIU) (PHIU) (DLTG)
                 (DLTG) (PHIG) (PHIG) (SGG) (PIU) (PIU) (DLTU)
                 (DLTU) (DLTG) (DLTG) (PIG) (PIG) (SGU) (?A) (?A)
                 (?C) (?C) (PIU) (PIU) (DLTU) (DLTU) (?E) (?E)
                 (?G) (?G) (?H) (?H) (?F) (?F) (PHIU) (PHIU) (SGU)
                 (?D) (?D) (SGG) (DLTG) (DLTG) (PIG) (PIG) (SGG)
                 (?B) (?B) (SGU) (PIU) (PIU) (SGG) (PIG) (PIG)
                 (PIU) (PIU) (PIG) (PIG) (PHIG) (PHIG) (SGU) (?C)
                 (?C) (?E) (?E) (?A) (?A) (?F) (?F) (?D) (?D) (PHIU)
                 (PHIU) (SGG) (?B) (?B) (DLTU) (DLTU) (PHIG) (PHIG)
                 (DLTG) (DLTG) (PIU) (PIU) (DLTU) (DLTU) (SGU)
                 (PIG) (PIG) (SGU) (SGG) (?A) (?A) (?C) (?C) (PHIU)
                 (PHIU) (?D) (?D) (?A) (?A) (?B) (?B) (?B) (?B)
                 (DLTG) (DLTG) (PHIU) (PHIU) (PIG) (PIG) (PHIG)
                 (PHIG) (PIU) (PIU) (SGU) (SGG) (PHIG) (PHIG) (DLTU)
                 (DLTU) (DLTG) (DLTG) (SGG) (PHIU) (PHIU) (DLTU)
                 (DLTU) (SGU) (PHIG) (PHIG) (DLTG) (DLTG) (PIG)
                 (PIG) (PIU) (PIU) (DLTU) (DLTU) (PIU) (PIU) (SGG)
                 (SGU) (PIG) (PIG) (SGU) (DLTG) (DLTG) (DLTU) (DLTU)
                 (PIU) (PIU) (PIG) (PIG) (SGG) (SGU) (PIU) (PIU)
                 (PIG) (PIG) (SGG) (SGU) (SGG) (SGU) (?A) (?A)
                 (PHIU) (PHIU) (?B) (?B) (DLTG) (DLTG) (PHIG) (PHIG)
                 (SGG) (DLTU) (DLTU) (PIU) (PIU) (PIG) (PIG) (SGU)
                 (SGG) (SGU)
 The electronic state is 3-SGG.
 Alpha  occ. eigenvalues -- -378.82693-378.82693 -48.17712 -48.17712 -42.50327
 Alpha  occ. eigenvalues --  -42.50327 -42.50327 -42.50327 -42.50276 -42.50276
 Alpha  occ. eigenvalues --   -6.40467  -6.40461  -4.49357  -4.49294  -4.49293
 Alpha  occ. eigenvalues --   -4.49293  -4.49286  -4.49286  -1.21193  -1.20758
 Alpha  occ. eigenvalues --   -1.20758  -1.20301  -1.20301  -1.20198  -1.20198
 Alpha  occ. eigenvalues --   -1.20187  -1.20187  -1.19900  -0.56714  -0.37694
 Alpha  occ. eigenvalues --   -0.23005  -0.23005
 Alpha virt. eigenvalues --   -0.02552   0.01357   0.01853   0.01853   0.01975
 Alpha virt. eigenvalues --    0.01975   0.02243   0.03502   0.03519   0.03519
 Alpha virt. eigenvalues --    0.05304   0.07828   0.08047   0.08125   0.08125
 Alpha virt. eigenvalues --    0.09060   0.09060   0.09652   0.09652   0.12805
 Alpha virt. eigenvalues --    0.12805   0.13025   0.13025   0.14078   0.15386
 Alpha virt. eigenvalues --    0.17237   0.17237   0.17299   0.18164   0.23532
 Alpha virt. eigenvalues --    0.23532   0.24054   0.24753   0.24753   0.24931
 Alpha virt. eigenvalues --    0.24931   0.25248   0.25248   0.29086   0.29086
 Alpha virt. eigenvalues --    0.29655   0.29655   0.30240   0.30240   0.30820
 Alpha virt. eigenvalues --    0.30928   0.30928   0.34422   0.34638   0.36158
 Alpha virt. eigenvalues --    0.36158   0.36203   0.37162   0.37162   0.38148
 Alpha virt. eigenvalues --    0.38148   0.45436   0.46363   0.46363   0.48847
 Alpha virt. eigenvalues --    0.48847   0.52722   0.53498   0.53498   0.54455
 Alpha virt. eigenvalues --    0.54455   0.54545   0.54545   0.55606   0.55971
 Alpha virt. eigenvalues --    0.55971   0.56274   0.56274   0.56976   0.59709
 Alpha virt. eigenvalues --    0.59709   0.61096   0.61096   0.61810   0.61810
 Alpha virt. eigenvalues --    0.62559   0.62559   0.63724   0.64221   0.64221
 Alpha virt. eigenvalues --    0.64263   0.64263   0.64831   0.64831   0.65883
 Alpha virt. eigenvalues --    0.66961   0.67753   0.67753   0.69023   0.69023
 Alpha virt. eigenvalues --    0.69736   0.69736   0.78787   0.79584   0.79584
 Alpha virt. eigenvalues --    0.83076   0.85306   0.85306   0.86138   0.86138
 Alpha virt. eigenvalues --    0.91851   0.91851   0.92709   0.94353   0.94353
 Alpha virt. eigenvalues --    1.00926   1.00926   1.02541   1.03425   1.03425
 Alpha virt. eigenvalues --    1.08278   1.08339   1.08339   1.09157   1.09157
 Alpha virt. eigenvalues --    1.14011   1.14011   1.15290   1.15290   1.15871
 Alpha virt. eigenvalues --    1.15871   1.18341   1.18341   1.21229   1.21229
 Alpha virt. eigenvalues --    1.21313   1.21448   1.21448   1.22037   1.24747
 Alpha virt. eigenvalues --    1.24755   1.24755   1.25763   1.25763   1.25968
 Alpha virt. eigenvalues --    1.25968   1.29303   1.29303   1.30622   1.30622
 Alpha virt. eigenvalues --    1.32992   1.32992   1.33427   1.33427   1.34864
 Alpha virt. eigenvalues --    1.34864   1.35636   1.35636   1.35659   1.37269
 Alpha virt. eigenvalues --    1.37979   1.37979   1.38248   1.41717   1.41717
 Alpha virt. eigenvalues --    1.42631   1.42631   1.43036   1.43036   1.44086
 Alpha virt. eigenvalues --    1.44086   1.45038   1.45038   1.47263   1.47263
 Alpha virt. eigenvalues --    1.49429   1.49429   1.51804   1.51804   1.54657
 Alpha virt. eigenvalues --    1.60431   1.60431   1.66778   1.66778   1.71299
 Alpha virt. eigenvalues --    1.71760   1.76604   1.76604   1.77363   1.77363
 Alpha virt. eigenvalues --    1.79422   1.79422   1.83788   1.83788   1.87091
 Alpha virt. eigenvalues --    1.87091   1.88783   1.88783   1.91006   1.99301
 Alpha virt. eigenvalues --    1.99301   2.01471   2.01471   2.04256   2.04493
 Alpha virt. eigenvalues --    2.04493   2.06338   2.06338   2.08115   2.08115
 Alpha virt. eigenvalues --    2.08184   2.08184   2.09937   2.14709   2.14709
 Alpha virt. eigenvalues --    2.16039   2.16039   2.17182   2.17201   2.17201
 Alpha virt. eigenvalues --    2.23769   2.23769   2.24291   2.26988   2.26988
 Alpha virt. eigenvalues --    2.27394   2.27394   2.34998   2.34998   2.36258
 Alpha virt. eigenvalues --    2.36258   2.41037   2.41037   2.43153   2.43153
 Alpha virt. eigenvalues --    2.44509   2.44509   2.45181   2.45181   2.47379
 Alpha virt. eigenvalues --    2.47379   2.48406   2.52292   2.52292   2.58790
 Alpha virt. eigenvalues --    2.58790   2.58965   2.58965   2.59161   2.61714
 Alpha virt. eigenvalues --    2.62186   2.83406   2.83406   2.85127   3.00631
 Alpha virt. eigenvalues --    3.05963   3.05963   3.08725   3.08725   3.16007
 Alpha virt. eigenvalues --    3.16007   3.18776   3.18776   3.18784   3.18943
 Alpha virt. eigenvalues --    3.18943   3.19554   3.19554   3.24076   3.24076
 Alpha virt. eigenvalues --    3.28810   3.28810   3.31015   3.31015   3.32813
 Alpha virt. eigenvalues --    3.32813   3.33517   3.33517   3.34864   3.34864
 Alpha virt. eigenvalues --    3.38714   3.38714   3.39193   3.39193   3.42885
 Alpha virt. eigenvalues --    3.42978   3.42978   3.60314   3.60314   3.60715
 Alpha virt. eigenvalues --    3.62343   3.62444   3.62444   3.70192   3.70192
 Alpha virt. eigenvalues --    3.71305   3.71305   3.75426   3.75426   3.86414
 Alpha virt. eigenvalues --    3.86414   4.04564   4.06277   4.06277   4.06387
 Alpha virt. eigenvalues --    4.06387   4.06924   4.06924   4.07592   4.10870
 Alpha virt. eigenvalues --    4.10870   4.10984   4.10984   4.14164   4.14164
 Alpha virt. eigenvalues --    4.17372   4.17372   4.19805   4.19805   4.23437
 Alpha virt. eigenvalues --    4.23437   4.24320   4.24320   4.25367   4.30877
 Alpha virt. eigenvalues --    4.30877   4.30910   4.42659   4.42659   4.43654
 Alpha virt. eigenvalues --    4.55026   4.55026   4.60300   4.60300   4.65046
 Alpha virt. eigenvalues --    4.65046   4.65386   4.65386   4.73168   4.74156
 Alpha virt. eigenvalues --    4.74156   4.76605   4.76605   4.85428   4.85428
 Alpha virt. eigenvalues --    4.99528   4.99528   5.00649   5.04301   5.04301
 Alpha virt. eigenvalues --    5.06894   5.06894   5.09684   5.09684   5.17320
 Alpha virt. eigenvalues --    5.17320   5.17741   5.17741   5.21764   5.21764
 Alpha virt. eigenvalues --    5.22493   5.22493   5.25953   5.25953   5.27674
 Alpha virt. eigenvalues --    5.27674   5.32400   5.42010   5.42010   5.55325
 Alpha virt. eigenvalues --    5.67144   5.67144   5.77103   5.77103   5.78682
 Alpha virt. eigenvalues --    5.80186   5.80186   5.96046   5.96879   5.96879
 Alpha virt. eigenvalues --    6.13998   6.22443   6.22443   6.26729   6.26729
 Alpha virt. eigenvalues --    6.33047   6.33047   6.38583   6.38583   6.50242
 Alpha virt. eigenvalues --    6.61561   6.61561   6.63097   6.63097   6.65985
 Alpha virt. eigenvalues --    6.65985   6.66159   6.66159   6.71947   6.71947
 Alpha virt. eigenvalues --    6.78614   6.78614   6.80047   6.82078   6.82078
 Alpha virt. eigenvalues --    6.82762   6.82762   6.89729   6.89729   6.96814
 Alpha virt. eigenvalues --    6.96814   7.01843   7.01843   7.02088   7.02088
 Alpha virt. eigenvalues --    7.12488   7.17535   7.17535   7.20562   7.25126
 Alpha virt. eigenvalues --    7.64754   7.64754   7.65036   7.65036   7.67058
 Alpha virt. eigenvalues --    7.67058   7.68507   7.68507   7.72355   7.72355
 Alpha virt. eigenvalues --    7.75450   7.75450   7.76751   7.76751   7.78268
 Alpha virt. eigenvalues --    7.78268   7.78975   7.78975   7.80444   7.80444
 Alpha virt. eigenvalues --    7.87610   7.87610   7.88150   7.88150   7.96367
 Alpha virt. eigenvalues --    7.97806   7.99541   7.99541   8.00358   8.00358
 Alpha virt. eigenvalues --    8.05538   8.05538   8.14332   8.17600   8.17600
 Alpha virt. eigenvalues --    8.19812   8.19812   8.21410   8.22364   8.22364
 Alpha virt. eigenvalues --    8.28484   8.28484   8.30437   8.30437   8.35811
 Alpha virt. eigenvalues --    8.35811   8.58603   8.58603   8.80818   8.80818
 Alpha virt. eigenvalues --    8.83187   9.10467   9.26253   9.26253   9.59514
 Alpha virt. eigenvalues --   10.08250  10.08250  10.23671  10.23671  10.63080
 Alpha virt. eigenvalues --   10.63080  11.00910  11.00910  11.45674  11.75279
 Alpha virt. eigenvalues --   13.13384  13.13384  13.40478  13.40478  13.42312
 Alpha virt. eigenvalues --   13.85742  14.19304  17.26572  17.85217  17.85217
 Alpha virt. eigenvalues --   17.86284  17.86284  17.87704  17.87704  17.99966
 Alpha virt. eigenvalues --   17.99966  18.01970  18.01970  18.05874  18.13759
 Alpha virt. eigenvalues --   18.13759  18.31698  18.31698  18.48048  18.48048
 Alpha virt. eigenvalues --   18.98347 450.43256 453.45905
          Condensed to atoms (all electrons):
              1          2
     1  Ga  30.729479   0.270521
     2  Ga   0.270521  30.729479
 Mulliken atomic charges:
              1
     1  Ga   0.000000
     2  Ga   0.000000
 Sum of Mulliken atomic charges =   0.00000
 Mulliken charges with hydrogens summed into heavy atoms:
              1
     1  Ga   0.000000
     2  Ga   0.000000
 Sum of Mulliken charges with hydrogens summed into heavy atoms =   0.00000
          Atomic-Atomic Spin Densities.
              1          2
     1  Ga   0.675480   0.324520
     2  Ga   0.324520   0.675480
 Mulliken atomic spin densities:
              1
     1  Ga   1.000000
     2  Ga   1.000000
 Sum of Mulliken atomic spin densities =   2.00000
 Electronic spatial extent (au):  <R**2>=            421.4821
 Charge=              0.0000 electrons
 Dipole moment (field-independent basis, Debye):
    X=              0.0000    Y=              0.0000    Z=              0.0000  Tot=              0.0000
 Quadrupole moment (field-independent basis, Debye-Ang):
   XX=            -37.8101   YY=            -37.8101   ZZ=            -27.4016
   XY=              0.0000   XZ=              0.0000   YZ=              0.0000
 Traceless Quadrupole moment (field-independent basis, Debye-Ang):
   XX=             -3.4695   YY=             -3.4695   ZZ=              6.9390
   XY=              0.0000   XZ=              0.0000   YZ=              0.0000
 Octapole moment (field-independent basis, Debye-Ang**2):
  XXX=              0.0000  YYY=              0.0000  ZZZ=              0.0000  XYY=              0.0000
  XXY=              0.0000  XXZ=              0.0000  XZZ=              0.0000  YZZ=              0.0000
  YYZ=              0.0000  XYZ=              0.0000
 Hexadecapole moment (field-independent basis, Debye-Ang**3):
 XXXX=            -88.5103 YYYY=            -88.5103 ZZZZ=           -322.7237 XXXY=              0.0000
 XXXZ=              0.0000 YYYX=              0.0000 YYYZ=              0.0000 ZZZX=              0.0000
 ZZZY=              0.0000 XXYY=            -29.5034 XXZZ=            -73.6245 YYZZ=            -73.6245
 XXYZ=              0.0000 YYXZ=              0.0000 ZZXY=              0.0000
 N-N= 2.037277794156D+02 E-N=-1.441697051169D+04  KE= 5.769093178514D+03
                          Isotropic Fermi Contact Couplings
        Atom                 a.u.       MegaHertz       Gauss      10(-4) cm-1
     1  Ga(69)             0.00000       0.00000       0.00000       0.00000
     2  Ga(69)             0.00000       0.00000       0.00000       0.00000
 --------------------------------------------------------
       Center         ----  Spin Dipole Couplings  ----
                      3XX-RR        3YY-RR        3ZZ-RR
 --------------------------------------------------------
     1   Atom        0.530054      0.530054     -1.060108
     2   Atom        0.530054      0.530054     -1.060108
 --------------------------------------------------------
                        XY            XZ            YZ
 --------------------------------------------------------
     1   Atom        0.000000      0.000000      0.000000
     2   Atom        0.000000      0.000000      0.000000
 --------------------------------------------------------


 ---------------------------------------------------------------------------------
              Anisotropic Spin Dipole Couplings in Principal Axis System
 ---------------------------------------------------------------------------------

       Atom             a.u.   MegaHertz   Gauss  10(-4) cm-1        Axes

              Baa    -1.0601  -136.137   -48.577   -45.410  0.0000  0.0000  1.0000
     1 Ga(69) Bbb     0.5301    68.069    24.289    22.705  0.0006  1.0000  0.0000
              Bcc     0.5301    68.069    24.289    22.705  1.0000 -0.0006  0.0000
 
              Baa    -1.0601  -136.137   -48.577   -45.410  0.0000  0.0000  1.0000
     2 Ga(69) Bbb     0.5301    68.069    24.289    22.705  0.0000  1.0000  0.0000
              Bcc     0.5301    68.069    24.289    22.705  1.0000  0.0000  0.0000
 

 ---------------------------------------------------------------------------------


 Test job not archived.
 1\1\GINC-C26\SP\ROMP2-RW\Gen\Ga2(3)\GPETERSSON\05-May-2013\0\\# ROMP2(
 RW) Gen GFinput Int=NoBasisTransform Int(Grid=Ultrafine) IOp(3/32=2,5/
 6=10,8/11=1,9/33=1) Maxdisk=128GB CBSextrapolate(Nmin=25,MinPop)\\Ga2\
 \0,3\Ga\Ga,1,2.49617062\\Version=EM64L-G09RevA.02\State=3-SGG\HF=-3846
 .5376387\MP2=-3846.6490724\E2(CBS)=-0.1135436\CBS-Int=-0.1121391\OIii=
 0.3672076\RMSD=1.587e-11\PG=D*H [C*(Ga1.Ga1)]\\@


  THE LARGE PRINT GIVETH,
  AND THE SMALL PRINT TAKETH AWAY.

                     -- TOM WAITES
 Job cpu time:  3 days  8 hours  7 minutes  6.4 seconds.
 File lengths (MBytes):  RWF=   7791 Int=      0 D2E=      0 Chk=     23 Scr=      1
 Normal termination of Gaussian 09 at Sun May  5 00:42:25 2013.
