 Entering Gaussian System, Link 0=g09
 AtFile(1): 7ZaP-NR.gbs
 Initial command:
 /share/apps/gaussian/g09root/g09/l1.exe /localscratch/738046/Gau-22859.inp -scrdir=/localscratch/738046/
 Entering Link 1 = /share/apps/gaussian/g09root/g09/l1.exe PID=     22860.
  
 Copyright (c) 1988,1990,1992,1993,1995,1998,2003,2009, Gaussian, Inc.
                  All Rights Reserved.
  
 This is part of the Gaussian(R) 09 program.  It is based on
 the Gaussian(R) 03 system (copyright 2003, Gaussian, Inc.),
 the Gaussian(R) 98 system (copyright 1998, Gaussian, Inc.),
 the Gaussian(R) 94 system (copyright 1995, Gaussian, Inc.),
 the Gaussian 92(TM) system (copyright 1992, Gaussian, Inc.),
 the Gaussian 90(TM) system (copyright 1990, Gaussian, Inc.),
 the Gaussian 88(TM) system (copyright 1988, Gaussian, Inc.),
 the Gaussian 86(TM) system (copyright 1986, Carnegie Mellon
 University), and the Gaussian 82(TM) system (copyright 1983,
 Carnegie Mellon University). Gaussian is a federally registered
 trademark of Gaussian, Inc.
  
 This software contains proprietary and confidential information,
 including trade secrets, belonging to Gaussian, Inc.
  
 This software is provided under written license and may be
 used, copied, transmitted, or stored only in accord with that
 written license.
  
 The following legend is applicable only to US Government
 contracts under FAR:
  
                    RESTRICTED RIGHTS LEGEND
  
 Use, reproduction and disclosure by the US Government is
 subject to restrictions as set forth in subparagraphs (a)
 and (c) of the Commercial Computer Software - Restricted
 Rights clause in FAR 52.227-19.
  
 Gaussian, Inc.
 340 Quinnipiac St., Bldg. 40, Wallingford CT 06492
  
  
 ---------------------------------------------------------------
 Warning -- This program may not be used in any manner that
 competes with the business of Gaussian, Inc. or will provide
 assistance to any competitor of Gaussian, Inc.  The licensee
 of this program is prohibited from giving any competitor of
 Gaussian, Inc. access to this program.  By using this program,
 the user acknowledges that Gaussian, Inc. is engaged in the
 business of creating and licensing software in the field of
 computational chemistry and represents and warrants to the
 licensee that it is not a competitor of Gaussian, Inc. and that
 it will not use this program in any manner prohibited above.
 ---------------------------------------------------------------
  

 Cite this work as:
 Gaussian 09, Revision A.02,
 M. J. Frisch, G. W. Trucks, H. B. Schlegel, G. E. Scuseria, 
 M. A. Robb, J. R. Cheeseman, G. Scalmani, V. Barone, B. Mennucci, 
 G. A. Petersson, H. Nakatsuji, M. Caricato, X. Li, H. P. Hratchian, 
 A. F. Izmaylov, J. Bloino, G. Zheng, J. L. Sonnenberg, M. Hada, 
 M. Ehara, K. Toyota, R. Fukuda, J. Hasegawa, M. Ishida, T. Nakajima, 
 Y. Honda, O. Kitao, H. Nakai, T. Vreven, J. A. Montgomery, Jr., 
 J. E. Peralta, F. Ogliaro, M. Bearpark, J. J. Heyd, E. Brothers, 
 K. N. Kudin, V. N. Staroverov, R. Kobayashi, J. Normand, 
 K. Raghavachari, A. Rendell, J. C. Burant, S. S. Iyengar, J. Tomasi, 
 M. Cossi, N. Rega, J. M. Millam, M. Klene, J. E. Knox, J. B. Cross, 
 V. Bakken, C. Adamo, J. Jaramillo, R. Gomperts, R. E. Stratmann, 
 O. Yazyev, A. J. Austin, R. Cammi, C. Pomelli, J. W. Ochterski, 
 R. L. Martin, K. Morokuma, V. G. Zakrzewski, G. A. Voth, 
 P. Salvador, J. J. Dannenberg, S. Dapprich, A. D. Daniels, 
 O. Farkas, J. B. Foresman, J. V. Ortiz, J. Cioslowski, 
 and D. J. Fox, Gaussian, Inc., Wallingford CT, 2009.
 
 ******************************************
 Gaussian 09:  EM64L-G09RevA.02 11-Jun-2009
                26-Aug-2012 
 ******************************************
 % Mem=12GB
 % Nproc=8
 Will use up to    8 processors via shared memory.
 ----------------------------------------------------------------------
 # ROMP2(RW) Gen GFinput Int=NoBasisTransform Int(Grid=Ultrafine) IOp(3
 /32=2,5/6=10,8/11=1,9/33=1) Maxdisk=128GB CBSextrapolate(Nmin=25,MinPo
 p)
 ----------------------------------------------------------------------
 1/38=1/1;
 2/12=2,17=6,18=5,40=1/2;
 3/5=7,11=2,16=1,24=10,25=1,30=1,32=2,60=-1,75=-5,116=101/1,2,3;
 4//1;
 5/5=2,6=10,38=5/2;
 8/5=-1,10=91,11=1/1;
 9/16=-3,33=1,75=2,81=25,83=4/6,4;
 6/7=2,8=2,9=2,10=2/1;
 99/5=1,9=1/99;
 ---
 Ga2
 ---
 Symbolic Z-matrix:
 Charge =  0 Multiplicity = 3
 Ga
 Ga                   1     2.49617 
 
                          Input orientation:                          
 ---------------------------------------------------------------------
 Center     Atomic      Atomic             Coordinates (Angstroms)
 Number     Number       Type             X           Y           Z
 ---------------------------------------------------------------------
      1         31           0        0.000000    0.000000    0.000000
      2         31           0        0.000000    0.000000    2.496171
 ---------------------------------------------------------------------
 Stoichiometry    Ga2(3)
 Framework group  D*H[C*(Ga.Ga)]
 Deg. of freedom     1
 Full point group                 D*H     NOp   8
 Largest Abelian subgroup         D2H     NOp   8
 Largest concise Abelian subgroup C2      NOp   2
                         Standard orientation:                         
 ---------------------------------------------------------------------
 Center     Atomic      Atomic             Coordinates (Angstroms)
 Number     Number       Type             X           Y           Z
 ---------------------------------------------------------------------
      1         31           0        0.000000    0.000000    1.248085
      2         31           0        0.000000    0.000000   -1.248085
 ---------------------------------------------------------------------
 Rotational constants (GHZ):      0.0000000      2.3535218      2.3535218
 General basis read from cards:  (5D, 7F)
 AO basis set in the form of general basis input (Overlap normalization):
      1 0
 S  19 1.00       0.000000000000
      0.7369011450D+08  0.3398652299D-06
      0.1434742920D+08  0.2011367417D-05
      0.3348383880D+07  0.1130957301D-04
      0.9124584310D+06  0.5123735321D-04
      0.2836389560D+06  0.1991605688D-03
      0.9851556540D+05  0.6773538271D-03
      0.3754130700D+05  0.2064829886D-02
      0.1544692820D+05  0.5740627196D-02
      0.6768058940D+04  0.1473265984D-01
      0.3119967080D+04  0.3504746214D-01
      0.1497624980D+04  0.7662036226D-01
      0.7419428600D+03  0.1498807848D+00
      0.3764941930D+03  0.2474840225D+00
      0.1944226120D+03  0.3069954700D+00
      0.1016027390D+03  0.2299418859D+00
      0.5346974300D+02  0.7327690628D-01
      0.2821293200D+02  0.5939524312D-02
      0.1486462300D+02  0.9408089699D-03
      0.7789383000D+01  0.5390931690D-04
 S  16 1.00       0.000000000000
      0.3754130700D+05 -0.1413315410D-05
      0.1544692820D+05 -0.1112545724D-04
      0.6768058940D+04 -0.6518389306D-04
      0.3119967080D+04 -0.3624530488D-03
      0.1497624980D+04 -0.1633270226D-02
      0.7419428600D+03 -0.6729113205D-02
      0.3764941930D+03 -0.2269331977D-01
      0.1944226120D+03 -0.6006394409D-01
      0.1016027390D+03 -0.8834593784D-01
      0.5346974300D+02  0.1561467785D-01
      0.2821293200D+02  0.3399208064D+00
      0.1486462300D+02  0.5122009021D+00
      0.7789383000D+01  0.2302523144D+00
      0.4043324000D+01  0.2407581200D-01
      0.2070062000D+01  0.4228402367D-03
      0.1040293000D+01 -0.9862724372D-03
 P  16 1.00       0.000000000000
      0.9425215910D+05  0.3841050629D-05
      0.2560114340D+05  0.2942504327D-04
      0.8250355540D+04  0.1874543863D-03
      0.3061108590D+04  0.9190166738D-03
      0.1273111470D+04  0.3667933141D-02
      0.5796597140D+03  0.1219761921D-01
      0.2830035420D+03  0.3447704185D-01
      0.1455052420D+03  0.8338733117D-01
      0.7756386400D+02  0.1676299494D+00
      0.4229972300D+02  0.2686581977D+00
      0.2333461200D+02  0.3159418725D+00
      0.1289816500D+02  0.2209379094D+00
      0.7087574000D+01  0.7138686121D-01
      0.3846748000D+01  0.8464777027D-02
      0.2051226000D+01  0.5966694539D-03
      0.1069977000D+01 -0.5133823437D-05
 S  12 1.00       0.000000000000
      0.3764941930D+03  0.1485477676D-03
      0.1944226120D+03  0.8156771649D-03
      0.1016027390D+03  0.3011245023D-02
      0.5346974300D+02  0.9342797537D-03
      0.2821293200D+02 -0.4273808038D-01
      0.1486462300D+02 -0.1840516791D+00
      0.7789383000D+01 -0.1084100230D+00
      0.4043324000D+01  0.3310335649D+00
      0.2070062000D+01  0.5775376285D+00
      0.1040293000D+01  0.2893210560D+00
      0.5103690000D+00  0.2457612212D-01
      0.2428970000D+00  0.1321313402D-02
 P  15 1.00       0.000000000000
      0.1273111470D+04 -0.6571916991D-05
      0.5796597140D+03 -0.5081148643D-04
      0.2830035420D+03 -0.3310930151D-03
      0.1455052420D+03 -0.1555798310D-02
      0.7756386400D+02 -0.5443652598D-02
      0.4229972300D+02 -0.1333429724D-01
      0.2333461200D+02 -0.2201409373D-01
      0.1289816500D+02  0.1781053564D-01
      0.7087574000D+01  0.1702204860D+00
      0.3846748000D+01  0.3410060528D+00
      0.2051226000D+01  0.3648191556D+00
      0.1069977000D+01  0.1982117296D+00
      0.5440280000D+00  0.3843317070D-01
      0.2688030000D+00  0.2562935316D-02
      0.1287170000D+00  0.3623204614D-03
 D  16 1.00       0.000000000000
      0.3460814690D+04  0.5851294600D-05
      0.1082534080D+04  0.6003647436D-04
      0.4154353850D+03  0.4041708790D-03
      0.1841120670D+03  0.1935943437D-02
      0.8995822000D+02  0.7246417236D-02
      0.4682493700D+02  0.2142316126D-01
      0.2534045100D+02  0.5225022797D-01
      0.1402460500D+02  0.1087717495D+00
      0.7853259000D+01  0.1810230846D+00
      0.4418060000D+01  0.2356453347D+00
      0.2483481000D+01  0.2510696383D+00
      0.1386562000D+01  0.2242937491D+00
      0.7623140000D+00  0.1596632821D+00
      0.4072570000D+00  0.7950840994D-01
      0.2072110000D+00  0.2047231171D-01
      0.9753800000D-01  0.1665391293D-02
 S  11 1.00       0.000000000000
      0.5346974300D+02 -0.3497481714D-04
      0.2821293200D+02  0.4225810351D-03
      0.1486462300D+02  0.2985531452D-02
      0.7789383000D+01  0.1748864762D-02
      0.4043324000D+01 -0.1390575022D-01
      0.2070062000D+01 -0.6102580101D-01
      0.1040293000D+01 -0.1488437419D+00
      0.5103690000D+00  0.2839414382D-02
      0.2428970000D+00  0.3865149305D+00
      0.1113180000D+00  0.5561054320D+00
      0.4870400000D-01  0.1965875103D+00
 S   1 1.00       0.000000000000
      0.5125000000D-01  0.1000000000D+01
 S   1 1.00       0.000000000000
      0.1774900000D-01  0.1000000000D+01
 P  10 1.00       0.000000000000
      0.1289816500D+02 -0.3062720921D-03
      0.7087574000D+01 -0.2085122072D-02
      0.3846748000D+01 -0.4496809748D-02
      0.2051226000D+01 -0.1050800390D-01
      0.1069977000D+01 -0.1369286118D-01
      0.5440280000D+00  0.4975412170D-01
      0.2688030000D+00  0.2088157852D+00
      0.1287170000D+00  0.3839233801D+00
      0.5957900000D-01  0.3860263116D+00
      0.2658500000D-01  0.1234014540D+00
 P   1 1.00       0.000000000000
      0.7640000000D-02  0.1000000000D+01
 P   1 1.00       0.000000000000
      0.2208300000D-01  0.1000000000D+01
 S   1 1.00       0.000000000000
      0.2860788000D+01  0.1000000000D+01
 S   1 1.00       0.000000000000
      0.1574103000D+01  0.1000000000D+01
 S   1 1.00       0.000000000000
      0.8661250000D+00  0.1000000000D+01
 S   1 1.00       0.000000000000
      0.4765720000D+00  0.1000000000D+01
 S   1 1.00       0.000000000000
      0.2622260000D+00  0.1000000000D+01
 S   1 1.00       0.000000000000
      0.1442860000D+00  0.1000000000D+01
 P   1 1.00       0.000000000000
      0.1466257000D+01  0.1000000000D+01
 P   1 1.00       0.000000000000
      0.8880830000D+00  0.1000000000D+01
 P   1 1.00       0.000000000000
      0.5378940000D+00  0.1000000000D+01
 P   1 1.00       0.000000000000
      0.3257920000D+00  0.1000000000D+01
 P   1 1.00       0.000000000000
      0.1973260000D+00  0.1000000000D+01
 P   1 1.00       0.000000000000
      0.1195160000D+00  0.1000000000D+01
 D   1 1.00       0.000000000000
      0.1557708000D+01  0.1000000000D+01
 D   1 1.00       0.000000000000
      0.8449680000D+00  0.1000000000D+01
 D   1 1.00       0.000000000000
      0.4583470000D+00  0.1000000000D+01
 D   1 1.00       0.000000000000
      0.2486270000D+00  0.1000000000D+01
 D   1 1.00       0.000000000000
      0.1348660000D+00  0.1000000000D+01
 D   1 1.00       0.000000000000
      0.7315700000D-01  0.1000000000D+01
 F   1 1.00       0.000000000000
      0.1533439000D+01  0.1000000000D+01
 F   1 1.00       0.000000000000
      0.8375150000D+00  0.1000000000D+01
 F   1 1.00       0.000000000000
      0.4574240000D+00  0.1000000000D+01
 F   1 1.00       0.000000000000
      0.2498300000D+00  0.1000000000D+01
 F   1 1.00       0.000000000000
      0.1364490000D+00  0.1000000000D+01
 G   1 1.00       0.000000000000
      0.3455892000D+01  0.1000000000D+01
 G   1 1.00       0.000000000000
      0.1431678000D+01  0.1000000000D+01
 G   1 1.00       0.000000000000
      0.5931030000D+00  0.1000000000D+01
 G   1 1.00       0.000000000000
      0.2457060000D+00  0.1000000000D+01
 H   1 1.00       0.000000000000
      0.9338210000D+00  0.1000000000D+01
 H   1 1.00       0.000000000000
      0.5332140000D+00  0.1000000000D+01
 H   1 1.00       0.000000000000
      0.3044660000D+00  0.1000000000D+01
 I   1 1.00       0.000000000000
      0.7616390000D+00  0.1000000000D+01
 I   1 1.00       0.000000000000
      0.4074190000D+00  0.1000000000D+01
 J   1 1.00       0.000000000000
      0.6388588486D+00  0.1000000000D+01
 ****
      2 0
 S  19 1.00       0.000000000000
      0.7369011450D+08  0.3398652299D-06
      0.1434742920D+08  0.2011367417D-05
      0.3348383880D+07  0.1130957301D-04
      0.9124584310D+06  0.5123735321D-04
      0.2836389560D+06  0.1991605688D-03
      0.9851556540D+05  0.6773538271D-03
      0.3754130700D+05  0.2064829886D-02
      0.1544692820D+05  0.5740627196D-02
      0.6768058940D+04  0.1473265984D-01
      0.3119967080D+04  0.3504746214D-01
      0.1497624980D+04  0.7662036226D-01
      0.7419428600D+03  0.1498807848D+00
      0.3764941930D+03  0.2474840225D+00
      0.1944226120D+03  0.3069954700D+00
      0.1016027390D+03  0.2299418859D+00
      0.5346974300D+02  0.7327690628D-01
      0.2821293200D+02  0.5939524312D-02
      0.1486462300D+02  0.9408089699D-03
      0.7789383000D+01  0.5390931690D-04
 S  16 1.00       0.000000000000
      0.3754130700D+05 -0.1413315410D-05
      0.1544692820D+05 -0.1112545724D-04
      0.6768058940D+04 -0.6518389306D-04
      0.3119967080D+04 -0.3624530488D-03
      0.1497624980D+04 -0.1633270226D-02
      0.7419428600D+03 -0.6729113205D-02
      0.3764941930D+03 -0.2269331977D-01
      0.1944226120D+03 -0.6006394409D-01
      0.1016027390D+03 -0.8834593784D-01
      0.5346974300D+02  0.1561467785D-01
      0.2821293200D+02  0.3399208064D+00
      0.1486462300D+02  0.5122009021D+00
      0.7789383000D+01  0.2302523144D+00
      0.4043324000D+01  0.2407581200D-01
      0.2070062000D+01  0.4228402367D-03
      0.1040293000D+01 -0.9862724372D-03
 P  16 1.00       0.000000000000
      0.9425215910D+05  0.3841050629D-05
      0.2560114340D+05  0.2942504327D-04
      0.8250355540D+04  0.1874543863D-03
      0.3061108590D+04  0.9190166738D-03
      0.1273111470D+04  0.3667933141D-02
      0.5796597140D+03  0.1219761921D-01
      0.2830035420D+03  0.3447704185D-01
      0.1455052420D+03  0.8338733117D-01
      0.7756386400D+02  0.1676299494D+00
      0.4229972300D+02  0.2686581977D+00
      0.2333461200D+02  0.3159418725D+00
      0.1289816500D+02  0.2209379094D+00
      0.7087574000D+01  0.7138686121D-01
      0.3846748000D+01  0.8464777027D-02
      0.2051226000D+01  0.5966694539D-03
      0.1069977000D+01 -0.5133823437D-05
 S  12 1.00       0.000000000000
      0.3764941930D+03  0.1485477676D-03
      0.1944226120D+03  0.8156771649D-03
      0.1016027390D+03  0.3011245023D-02
      0.5346974300D+02  0.9342797537D-03
      0.2821293200D+02 -0.4273808038D-01
      0.1486462300D+02 -0.1840516791D+00
      0.7789383000D+01 -0.1084100230D+00
      0.4043324000D+01  0.3310335649D+00
      0.2070062000D+01  0.5775376285D+00
      0.1040293000D+01  0.2893210560D+00
      0.5103690000D+00  0.2457612212D-01
      0.2428970000D+00  0.1321313402D-02
 P  15 1.00       0.000000000000
      0.1273111470D+04 -0.6571916991D-05
      0.5796597140D+03 -0.5081148643D-04
      0.2830035420D+03 -0.3310930151D-03
      0.1455052420D+03 -0.1555798310D-02
      0.7756386400D+02 -0.5443652598D-02
      0.4229972300D+02 -0.1333429724D-01
      0.2333461200D+02 -0.2201409373D-01
      0.1289816500D+02  0.1781053564D-01
      0.7087574000D+01  0.1702204860D+00
      0.3846748000D+01  0.3410060528D+00
      0.2051226000D+01  0.3648191556D+00
      0.1069977000D+01  0.1982117296D+00
      0.5440280000D+00  0.3843317070D-01
      0.2688030000D+00  0.2562935316D-02
      0.1287170000D+00  0.3623204614D-03
 D  16 1.00       0.000000000000
      0.3460814690D+04  0.5851294600D-05
      0.1082534080D+04  0.6003647436D-04
      0.4154353850D+03  0.4041708790D-03
      0.1841120670D+03  0.1935943437D-02
      0.8995822000D+02  0.7246417236D-02
      0.4682493700D+02  0.2142316126D-01
      0.2534045100D+02  0.5225022797D-01
      0.1402460500D+02  0.1087717495D+00
      0.7853259000D+01  0.1810230846D+00
      0.4418060000D+01  0.2356453347D+00
      0.2483481000D+01  0.2510696383D+00
      0.1386562000D+01  0.2242937491D+00
      0.7623140000D+00  0.1596632821D+00
      0.4072570000D+00  0.7950840994D-01
      0.2072110000D+00  0.2047231171D-01
      0.9753800000D-01  0.1665391293D-02
 S  11 1.00       0.000000000000
      0.5346974300D+02 -0.3497481714D-04
      0.2821293200D+02  0.4225810351D-03
      0.1486462300D+02  0.2985531452D-02
      0.7789383000D+01  0.1748864762D-02
      0.4043324000D+01 -0.1390575022D-01
      0.2070062000D+01 -0.6102580101D-01
      0.1040293000D+01 -0.1488437419D+00
      0.5103690000D+00  0.2839414382D-02
      0.2428970000D+00  0.3865149305D+00
      0.1113180000D+00  0.5561054320D+00
      0.4870400000D-01  0.1965875103D+00
 S   1 1.00       0.000000000000
      0.5125000000D-01  0.1000000000D+01
 S   1 1.00       0.000000000000
      0.1774900000D-01  0.1000000000D+01
 P  10 1.00       0.000000000000
      0.1289816500D+02 -0.3062720921D-03
      0.7087574000D+01 -0.2085122072D-02
      0.3846748000D+01 -0.4496809748D-02
      0.2051226000D+01 -0.1050800390D-01
      0.1069977000D+01 -0.1369286118D-01
      0.5440280000D+00  0.4975412170D-01
      0.2688030000D+00  0.2088157852D+00
      0.1287170000D+00  0.3839233801D+00
      0.5957900000D-01  0.3860263116D+00
      0.2658500000D-01  0.1234014540D+00
 P   1 1.00       0.000000000000
      0.7640000000D-02  0.1000000000D+01
 P   1 1.00       0.000000000000
      0.2208300000D-01  0.1000000000D+01
 S   1 1.00       0.000000000000
      0.2860788000D+01  0.1000000000D+01
 S   1 1.00       0.000000000000
      0.1574103000D+01  0.1000000000D+01
 S   1 1.00       0.000000000000
      0.8661250000D+00  0.1000000000D+01
 S   1 1.00       0.000000000000
      0.4765720000D+00  0.1000000000D+01
 S   1 1.00       0.000000000000
      0.2622260000D+00  0.1000000000D+01
 S   1 1.00       0.000000000000
      0.1442860000D+00  0.1000000000D+01
 P   1 1.00       0.000000000000
      0.1466257000D+01  0.1000000000D+01
 P   1 1.00       0.000000000000
      0.8880830000D+00  0.1000000000D+01
 P   1 1.00       0.000000000000
      0.5378940000D+00  0.1000000000D+01
 P   1 1.00       0.000000000000
      0.3257920000D+00  0.1000000000D+01
 P   1 1.00       0.000000000000
      0.1973260000D+00  0.1000000000D+01
 P   1 1.00       0.000000000000
      0.1195160000D+00  0.1000000000D+01
 D   1 1.00       0.000000000000
      0.1557708000D+01  0.1000000000D+01
 D   1 1.00       0.000000000000
      0.8449680000D+00  0.1000000000D+01
 D   1 1.00       0.000000000000
      0.4583470000D+00  0.1000000000D+01
 D   1 1.00       0.000000000000
      0.2486270000D+00  0.1000000000D+01
 D   1 1.00       0.000000000000
      0.1348660000D+00  0.1000000000D+01
 D   1 1.00       0.000000000000
      0.7315700000D-01  0.1000000000D+01
 F   1 1.00       0.000000000000
      0.1533439000D+01  0.1000000000D+01
 F   1 1.00       0.000000000000
      0.8375150000D+00  0.1000000000D+01
 F   1 1.00       0.000000000000
      0.4574240000D+00  0.1000000000D+01
 F   1 1.00       0.000000000000
      0.2498300000D+00  0.1000000000D+01
 F   1 1.00       0.000000000000
      0.1364490000D+00  0.1000000000D+01
 G   1 1.00       0.000000000000
      0.3455892000D+01  0.1000000000D+01
 G   1 1.00       0.000000000000
      0.1431678000D+01  0.1000000000D+01
 G   1 1.00       0.000000000000
      0.5931030000D+00  0.1000000000D+01
 G   1 1.00       0.000000000000
      0.2457060000D+00  0.1000000000D+01
 H   1 1.00       0.000000000000
      0.9338210000D+00  0.1000000000D+01
 H   1 1.00       0.000000000000
      0.5332140000D+00  0.1000000000D+01
 H   1 1.00       0.000000000000
      0.3044660000D+00  0.1000000000D+01
 I   1 1.00       0.000000000000
      0.7616390000D+00  0.1000000000D+01
 I   1 1.00       0.000000000000
      0.4074190000D+00  0.1000000000D+01
 J   1 1.00       0.000000000000
      0.6388588486D+00  0.1000000000D+01
 ****

 There are    80 symmetry adapted basis functions of AG  symmetry.
 There are    35 symmetry adapted basis functions of B1G symmetry.
 There are    55 symmetry adapted basis functions of B2G symmetry.
 There are    55 symmetry adapted basis functions of B3G symmetry.
 There are    35 symmetry adapted basis functions of AU  symmetry.
 There are    80 symmetry adapted basis functions of B1U symmetry.
 There are    55 symmetry adapted basis functions of B2U symmetry.
 There are    55 symmetry adapted basis functions of B3U symmetry.
 Integral buffers will be    131072 words long.
 Raffenetti 2 integral format.
 Two-electron integral symmetry is turned on.
   450 basis functions,  1220 primitive gaussians,   704 cartesian basis functions
    32 alpha electrons       30 beta electrons
       nuclear repulsion energy       203.7277794156 Hartrees.
 NAtoms=    2 NActive=    2 NUniq=    1 SFac= 3.00D+00 NAtFMM=   80 NAOKFM=F Big=F
 One-electron integrals computed using PRISM.
 NBasis=   450 RedAO= F  NBF=    80    35    55    55    35    80    55    55
 NBsUse=   450 1.00D-04 NBFU=    80    35    55    55    35    80    55    55
 Harris functional with IExCor=  205 diagonalized for initial guess.
 ExpMin= 7.64D-03 ExpMax= 7.37D+07 ExpMxC= 6.77D+03 IAcc=3 IRadAn=         5 AccDes= 0.00D+00
 HarFok:  IExCor=  205 AccDes= 0.00D+00 IRadAn=         5 IDoV= 1
 ScaDFX=  1.000000  1.000000  1.000000  1.000000
 FoFCou: FMM=F IPFlag=           0 FMFlag=      100000 FMFlg1=           0
         NFxFlg=           0 DoJE=T BraDBF=F KetDBF=T FulRan=T
         Omega=  0.000000  0.000000  1.000000  0.000000  0.000000 ICntrl=     500 IOpCl=  0
         NMat0=    1 NMatS0=    1 NMatT0=    0 NMatD0=    1 NMtDS0=    0 NMtDT0=    0
         I1Cent=           4 NGrid=           0.
 Petite list used in FoFCou.
 Initial guess orbital symmetries:
       Occupied  (SGU) (SGG) (SGU) (SGG) (SGU) (SGG) (PIG) (PIG)
                 (PIU) (PIU) (SGG) (SGU) (SGG) (SGU) (PIU) (PIU)
                 (PIG) (PIG) (SGG) (PIU) (PIU) (DLTG) (DLTG) (DLTU)
                 (DLTU) (PIG) (PIG) (SGU) (SGG) (SGU) (PIU) (PIU)
       Virtual   (SGG) (PIG) (PIG) (SGG) (SGU) (PIU) (PIU) (SGG)
                 (PIG) (PIG) (SGU) (SGG) (SGU) (PIU) (PIU) (DLTG)
                 (DLTG) (PIG) (PIG) (SGU) (PIU) (PIU) (SGG) (DLTU)
                 (DLTU) (SGU) (SGG) (PIU) (PIU) (PIG) (PIG) (SGG)
                 (PIG) (PIG) (SGU) (PHIU) (PHIU) (DLTG) (DLTG)
                 (PIU) (PIU) (SGU) (DLTG) (DLTG) (SGG) (DLTU) (DLTU)
                 (PHIG) (PHIG) (SGU) (SGG) (PIG) (PIG) (PIU) (PIU)
                 (SGG) (DLTU) (DLTU) (PIU) (PIU) (PIG) (PIG) (SGU)
                 (SGU) (PIG) (PIG) (SGG) (PIU) (PIU) (SGG) (DLTG)
                 (DLTG) (PHIU) (PHIU) (DLTG) (DLTG) (DLTU) (DLTU)
                 (SGU) (PIG) (PIG) (PHIU) (PHIU) (?A) (?A) (PHIG)
                 (PHIG) (SGG) (PIU) (PIU) (?B) (?B) (DLTU) (DLTU)
                 (DLTG) (DLTG) (SGU) (SGG) (PHIG) (PHIG) (SGU)
                 (PIG) (PIG) (PIU) (PIU) (SGU) (SGG) (PIG) (PIG)
                 (PIU) (PIU) (?A) (?A) (DLTU) (DLTU) (?C) (?C)
                 (PHIU) (PHIU) (?D) (?D) (SGG) (PIG) (PIG) (PIU)
                 (PIU) (?B) (?B) (SGU) (DLTG) (DLTG) (SGG) (PIG)
                 (PIG) (PHIG) (PHIG) (DLTU) (DLTU) (SGU) (DLTG)
                 (DLTG) (PHIU) (PHIU) (PIU) (PIU) (DLTG) (DLTG)
                 (DLTU) (DLTU) (PHIG) (PHIG) (SGG) (PIG) (PIG)
                 (SGU) (SGG) (PIU) (PIU) (SGU) (?C) (?C) (?A) (?A)
                 (DLTU) (DLTU) (?E) (?E) (PHIU) (PHIU) (?F) (?F)
                 (SGG) (SGU) (DLTG) (DLTG) (SGU) (?D) (?D) (PIU)
                 (PIU) (PIG) (PIG) (PIG) (PIG) (PIU) (PIU) (?A)
                 (?A) (?B) (?B) (PHIU) (PHIU) (SGG) (PHIG) (PHIG)
                 (?B) (?B) (PIG) (PIG) (SGU) (DLTU) (DLTU) (SGG)
                 (DLTG) (DLTG) (PIU) (PIU) (PHIG) (PHIG) (SGG)
                 (?A) (?A) (?C) (?C) (?D) (?D) (PHIU) (PHIU) (?B)
                 (?B) (PIG) (PIG) (DLTU) (DLTU) (PIU) (PIU) (SGU)
                 (DLTG) (DLTG) (SGG) (PHIG) (PHIG) (DLTU) (DLTU)
                 (SGU) (PIG) (PIG) (PHIU) (PHIU) (DLTG) (DLTG)
                 (PHIG) (PHIG) (SGU) (PIU) (PIU) (SGG) (DLTU) (DLTU)
                 (DLTG) (DLTG) (PIG) (PIG) (DLTU) (DLTU) (SGU)
                 (PIU) (PIU) (?A) (?A) (?C) (?C) (PHIU) (PHIU)
                 (?E) (?E) (?G) (?G) (?H) (?H) (?F) (?F) (PIG)
                 (PIG) (SGG) (?D) (?D) (DLTG) (DLTG) (SGG) (SGU)
                 (SGU) (PIU) (PIU) (?B) (?B) (PIG) (PIG) (SGG)
                 (PIU) (PIU) (SGU) (?C) (?C) (PHIG) (PHIG) (?E)
                 (?E) (?A) (?A) (?F) (?F) (PIG) (PIG) (?D) (?D)
                 (PHIU) (PHIU) (DLTU) (DLTU) (?B) (?B) (SGG) (DLTG)
                 (DLTG) (PIU) (PIU) (DLTU) (DLTU) (PHIG) (PHIG)
                 (PIG) (PIG) (SGG) (SGU) (SGU) (?A) (?A) (?C) (?C)
                 (?D) (?D) (PHIU) (PHIU) (?B) (?B) (DLTG) (DLTG)
                 (DLTU) (DLTU) (PHIG) (PHIG) (?A) (?A) (PIG) (PIG)
                 (PHIU) (PHIU) (?B) (?B) (PIU) (PIU) (SGG) (PHIG)
                 (PHIG) (SGU) (DLTG) (DLTG) (SGG) (PHIU) (PHIU)
                 (PHIG) (PHIG) (DLTU) (DLTU) (PIU) (PIU) (DLTG)
                 (DLTG) (PIG) (PIG) (SGU) (DLTU) (DLTU) (PIU) (PIU)
                 (SGG) (PIG) (PIG) (SGU) (DLTG) (DLTG) (DLTU) (DLTU)
                 (PIU) (PIU) (PIG) (PIG) (SGG) (SGU) (PIU) (PIU)
                 (PIG) (PIG) (SGG) (SGU) (SGG) (SGU) (?A) (?A)
                 (PHIU) (PHIU) (?B) (?B) (PHIG) (PHIG) (DLTG) (DLTG)
                 (SGG) (DLTU) (DLTU) (PIU) (PIU) (PIG) (PIG) (SGU)
                 (SGG) (SGU)
 The electronic state of the initial guess is 3-SGG.
 Requested convergence on RMS density matrix=1.00D-10 within 128 cycles.
 Requested convergence on MAX density matrix=1.00D-08.
 Requested convergence on             energy=1.00D-08.
 No special actions if energy rises.
 Initial convergence to 1.0D-05 achieved.  Increase integral accuracy.
 SCF Done:  E(ROHF) =  -3846.53762783     A.U. after   18 cycles
             Convg  =    0.3874D-10             -V/T =  2.0000
 <Sx>= 0.0000 <Sy>= 0.0000 <Sz>= 1.0000 <S**2>= 2.0000 S= 1.0000
 <L.S>= 0.000000000000E+00
 Annihilation of the first spin contaminant:
 S**2 before annihilation     2.0000,   after     2.0000
 GenMOA:  NOpAll=  8 NOp2=8 NOpUse=  8 JSym2X=1
 <Sx>= 0.0000 <Sy>= 0.0000 <Sz>= 1.0000 <S**2>= 2.0000 S= 1.0000
 Range of M.O.s used for correlation:    29   450
 NBasis=   450 NAE=    32 NBE=    30 NFC=    28 NFV=     0
 NROrb=    422 NOA=     4 NOB=     2 NVA=   418 NVB=   420

 **** Warning!!: The largest alpha MO coefficient is  0.51953453D+03


 **** Warning!!: The largest beta MO coefficient is  0.52233636D+03

 Singles contribution to E2=   -0.1692285328D-02
 Disk-based method using OVN memory for  4 occupieds at a time.
 Permanent disk used for amplitudes and <ij||ab> integrals=     4030776 words.
 Estimated scratch disk usage=   546837920 words.
 IUseRI=2 ITolRI= 6 IR12RI=0
 Actual    scratch disk usage=   543983184 words.
 GetIJB would need an additional  1669518587 words of memory to use all   8 processors.
 JobTyp=2 Pass  1:  I=   1 to   4 NPSUse=  1 ParTrn=F ParDer=F DoDerP=F.
 (rs|ai) integrals will be sorted in core.
 T,EIJ(AA): I=   1 J=   2      0.9475619E-03     -0.1387026E-02
 T,EIJ(AA): I=   1 J=   3      0.1243167E-02     -0.1868712E-02
 T,EIJ(AA): I=   1 J=   4      0.1243167E-02     -0.1868712E-02
 T,EIJ(AA): I=   2 J=   3      0.5850148E-02     -0.5145332E-02
 T,EIJ(AA): I=   2 J=   4      0.5850148E-02     -0.5145332E-02
 T,EIJ(AA): I=   3 J=   4      0.7594763E-02     -0.6126517E-02
 T,EIJ(AB): I=   1 J=   1      0.6891051E-02     -0.1201398E-01
 T,EIJ(AB): I=   1 J=   2      0.4583183E-02     -0.7607219E-02
 T,EIJ(AB): I=   2 J=   1      0.6804326E-02     -0.9749411E-02
 T,EIJ(AB): I=   2 J=   2      0.1690888E-01     -0.1862196E-01
 T,EIJ(AB): I=   3 J=   1      0.6556742E-02     -0.9285017E-02
 T,EIJ(AB): I=   3 J=   2      0.9533854E-02     -0.9806365E-02
 T,EIJ(AB): I=   4 J=   1      0.6556742E-02     -0.9285017E-02
 T,EIJ(AB): I=   4 J=   2      0.9533854E-02     -0.9806365E-02
 Actual    scratch disk usage=   546586528 words.
 GetIJB would need an additional  1669508731 words of memory to use all   8 processors.
 JobTyp=3 Pass  1:  I=   1 to   2 NPSUse=  1 ParTrn=F ParDer=F DoDerP=F.
 (rs|ai) integrals will be sorted in core.
 T,EIJ(BB): I=   1 J=   2      0.1475473E-02     -0.1886626E-02
 Spin components of T(2) and E(2):
     alpha-alpha T2 =       0.2272895624D-01 E2=     -0.2154163130D-01
     alpha-beta  T2 =       0.6736863124D-01 E2=     -0.8617533611D-01
     beta-beta   T2 =       0.1475472597D-02 E2=     -0.1886626339D-02
 ANorm=    0.1045879537D+01
 E2 =    -0.1112958791D+00 EUMP2 =    -0.38466489237057D+04

 Complete Basis Set (CBS) Extrapolation:
 M. R. Nyden and G. A. Petersson, JCP 75, 1843 (1981)
 G. A. Petersson and M. A. Al-Laham, JCP 94, 6081 (1991)
 G. A. Petersson, T. Tensfeldt, and J. A. Montgomery, JCP 94, 6091 (1991)
 J. A. Montgomery, J. W. Ochterski, and G. A. Petersson, JCP 101, 5900 (1994)
 
 Minimum Number of PNO for Extrapolation =  25
 Absolute Overlaps: IRadAn =         5
 LocTrn: ILocal=3 LocCor=F DoCore=F.
 Entering OneElI...
 Overlap between basis sets.
 Requested accuracy = 0.1000D-12
 PrsmSu:  NPrtUS=   1 ThrOK=F IAlg=1
 PRISM was handed  1609683534 working-precision words and   136 shell-pairs
 IPart=  0 NShTot=         136 NBatch=          15 AvBLen=         9.1
 CnvPC2: ToCart=F DoDens=F IPureD=0 IPureF=0.
 Transformed matrix in CnvPC2: 
                 1             2             3             4             5 
      1   0.100000D+01  0.399707D+00  0.000000D+00  0.000000D+00  0.000000D+00
      2   0.399707D+00  0.100000D+01  0.000000D+00  0.000000D+00  0.000000D+00
      3   0.000000D+00  0.000000D+00  0.100000D+01  0.000000D+00  0.000000D+00
      4   0.000000D+00  0.000000D+00  0.000000D+00  0.100000D+01  0.000000D+00
      5   0.000000D+00  0.000000D+00  0.000000D+00  0.000000D+00  0.100000D+01
      6   0.262553D-01  0.313572D+00  0.000000D+00  0.000000D+00  0.000000D+00
      7   0.000000D+00  0.000000D+00  0.326517D+00  0.000000D+00  0.000000D+00
      8   0.000000D+00  0.000000D+00  0.000000D+00  0.326517D+00  0.000000D+00
      9   0.000000D+00  0.000000D+00  0.000000D+00  0.000000D+00  0.326517D+00
     10   0.000000D+00  0.000000D+00  0.000000D+00  0.000000D+00  0.000000D+00
     11   0.000000D+00  0.000000D+00  0.000000D+00  0.000000D+00  0.000000D+00
     12   0.000000D+00  0.000000D+00  0.000000D+00  0.000000D+00  0.000000D+00
     13   0.000000D+00  0.000000D+00  0.000000D+00  0.000000D+00  0.000000D+00
     14   0.000000D+00  0.000000D+00  0.000000D+00  0.000000D+00  0.000000D+00
     15  -0.353836D-03  0.313775D-02  0.000000D+00  0.000000D+00  0.000000D+00
     16   0.000000D+00  0.000000D+00  0.102782D-01  0.000000D+00  0.000000D+00
     17   0.000000D+00  0.000000D+00  0.000000D+00  0.102782D-01  0.000000D+00
     18   0.000000D+00  0.000000D+00  0.000000D+00  0.000000D+00  0.102782D-01
     19   0.000000D+00  0.000000D+00  0.000000D+00  0.000000D+00  0.000000D+00
     20   0.000000D+00  0.000000D+00  0.000000D+00  0.000000D+00  0.000000D+00
     21   0.000000D+00  0.000000D+00  0.000000D+00  0.000000D+00  0.000000D+00
     22   0.000000D+00  0.000000D+00  0.000000D+00  0.000000D+00  0.000000D+00
     23   0.000000D+00  0.000000D+00  0.000000D+00  0.000000D+00  0.000000D+00
     24   0.000000D+00  0.000000D+00  0.000000D+00  0.000000D+00  0.000000D+00
     25   0.000000D+00  0.000000D+00  0.000000D+00  0.000000D+00  0.000000D+00
     26   0.000000D+00  0.000000D+00  0.000000D+00  0.000000D+00  0.000000D+00
     27   0.000000D+00  0.000000D+00  0.000000D+00  0.000000D+00  0.000000D+00
     28   0.000000D+00  0.000000D+00  0.000000D+00  0.000000D+00  0.000000D+00
     29   0.000000D+00  0.000000D+00  0.000000D+00  0.000000D+00  0.000000D+00
     30   0.000000D+00  0.000000D+00  0.000000D+00  0.000000D+00  0.000000D+00
     31   0.000000D+00  0.000000D+00  0.000000D+00  0.000000D+00  0.000000D+00
     32   0.000000D+00  0.000000D+00  0.000000D+00  0.000000D+00  0.000000D+00
     33   0.000000D+00  0.000000D+00  0.000000D+00  0.000000D+00  0.000000D+00
     34   0.000000D+00  0.000000D+00  0.000000D+00  0.000000D+00  0.000000D+00
     35   0.000000D+00  0.000000D+00  0.000000D+00  0.000000D+00  0.000000D+00
     36   0.000000D+00  0.000000D+00  0.000000D+00  0.000000D+00  0.000000D+00
     37   0.000000D+00  0.000000D+00  0.000000D+00  0.000000D+00  0.000000D+00
     38   0.793463D-03  0.495496D-02  0.000000D+00  0.000000D+00 -0.108144D-02
     39   0.000000D+00  0.000000D+00  0.332913D-03  0.000000D+00  0.000000D+00
     40   0.000000D+00  0.000000D+00  0.000000D+00  0.332913D-03  0.000000D+00
     41   0.140863D-02  0.876893D-02  0.000000D+00  0.000000D+00 -0.175444D-02
     42   0.307918D-02  0.190665D-01  0.000000D+00  0.000000D+00 -0.397206D-02
     43   0.000000D+00  0.000000D+00  0.125440D-02  0.000000D+00  0.000000D+00
     44   0.000000D+00  0.000000D+00  0.000000D+00  0.125440D-02  0.000000D+00
     45   0.000000D+00  0.000000D+00  0.000000D+00  0.000000D+00  0.000000D+00
     46   0.000000D+00  0.000000D+00  0.000000D+00  0.000000D+00  0.000000D+00
                 6             7             8             9            10 
      1   0.262553D-01  0.000000D+00  0.000000D+00  0.000000D+00  0.000000D+00
      2   0.313572D+00  0.000000D+00  0.000000D+00  0.000000D+00  0.000000D+00
      3   0.000000D+00  0.326517D+00  0.000000D+00  0.000000D+00  0.000000D+00
      4   0.000000D+00  0.000000D+00  0.326517D+00  0.000000D+00  0.000000D+00
      5   0.000000D+00  0.000000D+00  0.000000D+00  0.326517D+00  0.000000D+00
      6   0.100000D+01  0.000000D+00  0.000000D+00  0.000000D+00  0.000000D+00
      7   0.000000D+00  0.100000D+01  0.000000D+00  0.000000D+00  0.000000D+00
      8   0.000000D+00  0.000000D+00  0.100000D+01  0.000000D+00  0.000000D+00
      9   0.000000D+00  0.000000D+00  0.000000D+00  0.100000D+01  0.000000D+00
     10   0.000000D+00  0.000000D+00  0.000000D+00  0.000000D+00  0.100000D+01
     11   0.000000D+00  0.000000D+00  0.000000D+00  0.000000D+00  0.000000D+00
     12   0.000000D+00  0.000000D+00  0.000000D+00  0.000000D+00  0.000000D+00
     13   0.000000D+00  0.000000D+00  0.000000D+00  0.000000D+00  0.000000D+00
     14   0.000000D+00  0.000000D+00  0.000000D+00  0.000000D+00  0.000000D+00
     15   0.172993D+00  0.000000D+00  0.000000D+00  0.000000D+00  0.000000D+00
     16   0.000000D+00  0.189903D+00  0.000000D+00  0.000000D+00  0.000000D+00
     17   0.000000D+00  0.000000D+00  0.189903D+00  0.000000D+00  0.000000D+00
     18   0.000000D+00  0.000000D+00  0.000000D+00  0.189903D+00  0.000000D+00
     19   0.000000D+00  0.000000D+00  0.000000D+00  0.000000D+00  0.784073D-01
     20   0.000000D+00  0.000000D+00  0.000000D+00  0.000000D+00  0.000000D+00
     21   0.000000D+00  0.000000D+00  0.000000D+00  0.000000D+00  0.000000D+00
     22   0.000000D+00  0.000000D+00  0.000000D+00  0.000000D+00  0.000000D+00
     23   0.000000D+00  0.000000D+00  0.000000D+00  0.000000D+00  0.000000D+00
     24   0.000000D+00  0.000000D+00  0.000000D+00  0.000000D+00  0.000000D+00
     25   0.000000D+00  0.000000D+00  0.000000D+00  0.000000D+00  0.000000D+00
     26   0.000000D+00  0.000000D+00  0.000000D+00  0.000000D+00  0.000000D+00
     27   0.000000D+00  0.000000D+00  0.000000D+00  0.000000D+00  0.000000D+00
     28   0.000000D+00  0.000000D+00  0.000000D+00  0.000000D+00  0.000000D+00
     29   0.000000D+00  0.000000D+00  0.000000D+00  0.000000D+00  0.000000D+00
     30   0.000000D+00  0.000000D+00  0.000000D+00  0.000000D+00  0.000000D+00
     31   0.000000D+00  0.000000D+00  0.000000D+00  0.000000D+00  0.000000D+00
     32   0.000000D+00  0.000000D+00  0.000000D+00  0.000000D+00  0.000000D+00
     33   0.000000D+00  0.000000D+00  0.000000D+00  0.000000D+00  0.177432D-05
     34   0.000000D+00  0.000000D+00  0.000000D+00  0.000000D+00  0.000000D+00
     35   0.000000D+00  0.000000D+00  0.000000D+00  0.000000D+00  0.000000D+00
     36   0.000000D+00  0.000000D+00  0.000000D+00  0.000000D+00  0.000000D+00
     37   0.000000D+00  0.000000D+00  0.000000D+00  0.000000D+00  0.000000D+00
     38   0.309590D-01  0.000000D+00  0.000000D+00 -0.193999D-01  0.664606D-02
     39   0.000000D+00  0.622325D-02  0.000000D+00  0.000000D+00  0.000000D+00
     40   0.000000D+00  0.000000D+00  0.622325D-02  0.000000D+00  0.000000D+00
     41   0.534715D-01  0.000000D+00  0.000000D+00 -0.314027D-01  0.109539D-01
     42   0.109229D+00  0.000000D+00  0.000000D+00 -0.630501D-01  0.189674D-01
     43   0.000000D+00  0.222419D-01  0.000000D+00  0.000000D+00  0.000000D+00
     44   0.000000D+00  0.000000D+00  0.222419D-01  0.000000D+00  0.000000D+00
     45   0.000000D+00  0.000000D+00  0.000000D+00  0.000000D+00  0.000000D+00
     46   0.000000D+00  0.000000D+00  0.000000D+00  0.000000D+00  0.000000D+00
                11            12            13            14            15 
      1   0.000000D+00  0.000000D+00  0.000000D+00  0.000000D+00 -0.353836D-03
      2   0.000000D+00  0.000000D+00  0.000000D+00  0.000000D+00  0.313775D-02
      3   0.000000D+00  0.000000D+00  0.000000D+00  0.000000D+00  0.000000D+00
      4   0.000000D+00  0.000000D+00  0.000000D+00  0.000000D+00  0.000000D+00
      5   0.000000D+00  0.000000D+00  0.000000D+00  0.000000D+00  0.000000D+00
      6   0.000000D+00  0.000000D+00  0.000000D+00  0.000000D+00  0.172993D+00
      7   0.000000D+00  0.000000D+00  0.000000D+00  0.000000D+00  0.000000D+00
      8   0.000000D+00  0.000000D+00  0.000000D+00  0.000000D+00  0.000000D+00
      9   0.000000D+00  0.000000D+00  0.000000D+00  0.000000D+00  0.000000D+00
     10   0.000000D+00  0.000000D+00  0.000000D+00  0.000000D+00  0.000000D+00
     11   0.100000D+01  0.000000D+00  0.000000D+00  0.000000D+00  0.000000D+00
     12   0.000000D+00  0.100000D+01  0.000000D+00  0.000000D+00  0.000000D+00
     13   0.000000D+00  0.000000D+00  0.100000D+01  0.000000D+00  0.000000D+00
     14   0.000000D+00  0.000000D+00  0.000000D+00  0.100000D+01  0.000000D+00
     15   0.000000D+00  0.000000D+00  0.000000D+00  0.000000D+00  0.100000D+01
     16   0.000000D+00  0.000000D+00  0.000000D+00  0.000000D+00  0.000000D+00
     17   0.000000D+00  0.000000D+00  0.000000D+00  0.000000D+00  0.000000D+00
     18   0.000000D+00  0.000000D+00  0.000000D+00  0.000000D+00  0.000000D+00
     19   0.000000D+00  0.000000D+00  0.000000D+00  0.000000D+00  0.000000D+00
     20   0.784073D-01  0.000000D+00  0.000000D+00  0.000000D+00  0.000000D+00
     21   0.000000D+00  0.784073D-01  0.000000D+00  0.000000D+00  0.000000D+00
     22   0.000000D+00  0.000000D+00  0.784073D-01  0.000000D+00  0.000000D+00
     23   0.000000D+00  0.000000D+00  0.000000D+00  0.784073D-01  0.000000D+00
     24   0.000000D+00  0.000000D+00  0.000000D+00  0.000000D+00  0.793463D-03
     25   0.000000D+00  0.000000D+00  0.000000D+00  0.000000D+00  0.495496D-02
     26   0.000000D+00  0.000000D+00  0.000000D+00  0.000000D+00  0.000000D+00
     27   0.000000D+00  0.000000D+00  0.000000D+00  0.000000D+00  0.000000D+00
     28   0.000000D+00  0.000000D+00  0.000000D+00  0.000000D+00  0.108144D-02
     29   0.000000D+00  0.000000D+00  0.000000D+00  0.000000D+00  0.309590D-01
     30   0.000000D+00  0.000000D+00  0.000000D+00  0.000000D+00  0.000000D+00
     31   0.000000D+00  0.000000D+00  0.000000D+00  0.000000D+00  0.000000D+00
     32   0.000000D+00  0.000000D+00  0.000000D+00  0.000000D+00  0.193999D-01
     33   0.000000D+00  0.000000D+00  0.000000D+00  0.000000D+00  0.664606D-02
     34   0.000000D+00  0.000000D+00  0.000000D+00  0.000000D+00  0.000000D+00
     35   0.000000D+00  0.000000D+00  0.000000D+00  0.000000D+00  0.000000D+00
     36   0.000000D+00  0.000000D+00  0.000000D+00  0.000000D+00  0.000000D+00
     37   0.000000D+00  0.000000D+00  0.000000D+00  0.000000D+00  0.000000D+00
     38   0.000000D+00  0.000000D+00  0.000000D+00  0.000000D+00  0.272400D+00
     39  -0.411451D-02  0.000000D+00  0.000000D+00  0.000000D+00  0.000000D+00
     40   0.000000D+00 -0.411451D-02  0.000000D+00  0.000000D+00  0.000000D+00
     41   0.000000D+00  0.000000D+00  0.000000D+00  0.000000D+00  0.337091D+00
     42   0.000000D+00  0.000000D+00  0.000000D+00  0.000000D+00  0.307608D+00
     43  -0.144402D-01  0.000000D+00  0.000000D+00  0.000000D+00  0.000000D+00
     44   0.000000D+00 -0.144402D-01  0.000000D+00  0.000000D+00  0.000000D+00
     45   0.000000D+00  0.000000D+00  0.243403D-02  0.000000D+00  0.000000D+00
     46   0.000000D+00  0.000000D+00  0.000000D+00  0.243403D-02  0.000000D+00
                16            17            18            19            20 
      1   0.000000D+00  0.000000D+00  0.000000D+00  0.000000D+00  0.000000D+00
      2   0.000000D+00  0.000000D+00  0.000000D+00  0.000000D+00  0.000000D+00
      3   0.102782D-01  0.000000D+00  0.000000D+00  0.000000D+00  0.000000D+00
      4   0.000000D+00  0.102782D-01  0.000000D+00  0.000000D+00  0.000000D+00
      5   0.000000D+00  0.000000D+00  0.102782D-01  0.000000D+00  0.000000D+00
      6   0.000000D+00  0.000000D+00  0.000000D+00  0.000000D+00  0.000000D+00
      7   0.189903D+00  0.000000D+00  0.000000D+00  0.000000D+00  0.000000D+00
      8   0.000000D+00  0.189903D+00  0.000000D+00  0.000000D+00  0.000000D+00
      9   0.000000D+00  0.000000D+00  0.189903D+00  0.000000D+00  0.000000D+00
     10   0.000000D+00  0.000000D+00  0.000000D+00  0.784073D-01  0.000000D+00
     11   0.000000D+00  0.000000D+00  0.000000D+00  0.000000D+00  0.784073D-01
     12   0.000000D+00  0.000000D+00  0.000000D+00  0.000000D+00  0.000000D+00
     13   0.000000D+00  0.000000D+00  0.000000D+00  0.000000D+00  0.000000D+00
     14   0.000000D+00  0.000000D+00  0.000000D+00  0.000000D+00  0.000000D+00
     15   0.000000D+00  0.000000D+00  0.000000D+00  0.000000D+00  0.000000D+00
     16   0.100000D+01  0.000000D+00  0.000000D+00  0.000000D+00  0.000000D+00
     17   0.000000D+00  0.100000D+01  0.000000D+00  0.000000D+00  0.000000D+00
     18   0.000000D+00  0.000000D+00  0.100000D+01  0.000000D+00  0.000000D+00
     19   0.000000D+00  0.000000D+00  0.000000D+00  0.100000D+01  0.000000D+00
     20   0.000000D+00  0.000000D+00  0.000000D+00  0.000000D+00  0.100000D+01
     21   0.000000D+00  0.000000D+00  0.000000D+00  0.000000D+00  0.000000D+00
     22   0.000000D+00  0.000000D+00  0.000000D+00  0.000000D+00  0.000000D+00
     23   0.000000D+00  0.000000D+00  0.000000D+00  0.000000D+00  0.000000D+00
     24   0.000000D+00  0.000000D+00 -0.140863D-02  0.307918D-02  0.000000D+00
     25   0.000000D+00  0.000000D+00 -0.876893D-02  0.190665D-01  0.000000D+00
     26   0.332913D-03  0.000000D+00  0.000000D+00  0.000000D+00 -0.125440D-02
     27   0.000000D+00  0.332913D-03  0.000000D+00  0.000000D+00  0.000000D+00
     28   0.000000D+00  0.000000D+00 -0.175444D-02  0.397206D-02  0.000000D+00
     29   0.000000D+00  0.000000D+00 -0.534715D-01  0.109229D+00  0.000000D+00
     30   0.622325D-02  0.000000D+00  0.000000D+00  0.000000D+00 -0.222419D-01
     31   0.000000D+00  0.622325D-02  0.000000D+00  0.000000D+00  0.000000D+00
     32   0.000000D+00  0.000000D+00 -0.314027D-01  0.630501D-01  0.000000D+00
     33   0.000000D+00  0.000000D+00 -0.109539D-01  0.189674D-01  0.000000D+00
     34   0.411451D-02  0.000000D+00  0.000000D+00  0.000000D+00 -0.144402D-01
     35   0.000000D+00  0.411451D-02  0.000000D+00  0.000000D+00  0.000000D+00
     36   0.000000D+00  0.000000D+00  0.000000D+00  0.000000D+00  0.000000D+00
     37   0.000000D+00  0.000000D+00  0.000000D+00  0.000000D+00  0.000000D+00
     38   0.000000D+00  0.000000D+00 -0.337091D+00  0.307608D+00  0.000000D+00
     39   0.146897D+00  0.000000D+00  0.000000D+00  0.000000D+00 -0.283845D+00
     40   0.000000D+00  0.146897D+00  0.000000D+00  0.000000D+00  0.000000D+00
     41   0.000000D+00  0.000000D+00 -0.385772D+00  0.297134D+00  0.000000D+00
     42   0.000000D+00  0.000000D+00 -0.297134D+00  0.109524D+00  0.000000D+00
     43   0.283845D+00  0.000000D+00  0.000000D+00  0.000000D+00 -0.419824D+00
     44   0.000000D+00  0.283845D+00  0.000000D+00  0.000000D+00  0.000000D+00
     45   0.000000D+00  0.000000D+00  0.000000D+00  0.000000D+00  0.000000D+00
     46   0.000000D+00  0.000000D+00  0.000000D+00  0.000000D+00  0.000000D+00
                21            22            23            24            25 
      1   0.000000D+00  0.000000D+00  0.000000D+00  0.000000D+00  0.000000D+00
      2   0.000000D+00  0.000000D+00  0.000000D+00  0.000000D+00  0.000000D+00
      3   0.000000D+00  0.000000D+00  0.000000D+00  0.000000D+00  0.000000D+00
      4   0.000000D+00  0.000000D+00  0.000000D+00  0.000000D+00  0.000000D+00
      5   0.000000D+00  0.000000D+00  0.000000D+00  0.000000D+00  0.000000D+00
      6   0.000000D+00  0.000000D+00  0.000000D+00  0.000000D+00  0.000000D+00
      7   0.000000D+00  0.000000D+00  0.000000D+00  0.000000D+00  0.000000D+00
      8   0.000000D+00  0.000000D+00  0.000000D+00  0.000000D+00  0.000000D+00
      9   0.000000D+00  0.000000D+00  0.000000D+00  0.000000D+00  0.000000D+00
     10   0.000000D+00  0.000000D+00  0.000000D+00  0.000000D+00  0.000000D+00
     11   0.000000D+00  0.000000D+00  0.000000D+00  0.000000D+00  0.000000D+00
     12   0.784073D-01  0.000000D+00  0.000000D+00  0.000000D+00  0.000000D+00
     13   0.000000D+00  0.784073D-01  0.000000D+00  0.000000D+00  0.000000D+00
     14   0.000000D+00  0.000000D+00  0.784073D-01  0.000000D+00  0.000000D+00
     15   0.000000D+00  0.000000D+00  0.000000D+00  0.793463D-03  0.495496D-02
     16   0.000000D+00  0.000000D+00  0.000000D+00  0.000000D+00  0.000000D+00
     17   0.000000D+00  0.000000D+00  0.000000D+00  0.000000D+00  0.000000D+00
     18   0.000000D+00  0.000000D+00  0.000000D+00 -0.140863D-02 -0.876893D-02
     19   0.000000D+00  0.000000D+00  0.000000D+00  0.307918D-02  0.190665D-01
     20   0.000000D+00  0.000000D+00  0.000000D+00  0.000000D+00  0.000000D+00
     21   0.100000D+01  0.000000D+00  0.000000D+00  0.000000D+00  0.000000D+00
     22   0.000000D+00  0.100000D+01  0.000000D+00  0.000000D+00  0.000000D+00
     23   0.000000D+00  0.000000D+00  0.100000D+01  0.000000D+00  0.000000D+00
     24   0.000000D+00  0.000000D+00  0.000000D+00  0.100000D+01  0.399707D+00
     25   0.000000D+00  0.000000D+00  0.000000D+00  0.399707D+00  0.100000D+01
     26   0.000000D+00  0.000000D+00  0.000000D+00  0.000000D+00  0.000000D+00
     27  -0.125440D-02  0.000000D+00  0.000000D+00  0.000000D+00  0.000000D+00
     28   0.000000D+00  0.000000D+00  0.000000D+00  0.000000D+00  0.000000D+00
     29   0.000000D+00  0.000000D+00  0.000000D+00  0.262553D-01  0.313572D+00
     30   0.000000D+00  0.000000D+00  0.000000D+00  0.000000D+00  0.000000D+00
     31  -0.222419D-01  0.000000D+00  0.000000D+00  0.000000D+00  0.000000D+00
     32   0.000000D+00  0.000000D+00  0.000000D+00  0.000000D+00  0.000000D+00
     33   0.000000D+00  0.000000D+00  0.000000D+00  0.000000D+00  0.000000D+00
     34   0.000000D+00  0.000000D+00  0.000000D+00  0.000000D+00  0.000000D+00
     35  -0.144402D-01  0.000000D+00  0.000000D+00  0.000000D+00  0.000000D+00
     36   0.000000D+00  0.243403D-02  0.000000D+00  0.000000D+00  0.000000D+00
     37   0.000000D+00  0.000000D+00  0.243403D-02  0.000000D+00  0.000000D+00
     38   0.000000D+00  0.000000D+00  0.000000D+00 -0.353836D-03  0.313775D-02
     39   0.000000D+00  0.000000D+00  0.000000D+00  0.000000D+00  0.000000D+00
     40  -0.283845D+00  0.000000D+00  0.000000D+00  0.000000D+00  0.000000D+00
     41   0.000000D+00  0.000000D+00  0.000000D+00  0.000000D+00  0.000000D+00
     42   0.000000D+00  0.000000D+00  0.000000D+00  0.000000D+00  0.000000D+00
     43   0.000000D+00  0.000000D+00  0.000000D+00  0.000000D+00  0.000000D+00
     44  -0.419824D+00  0.000000D+00  0.000000D+00  0.000000D+00  0.000000D+00
     45   0.000000D+00  0.150872D+00  0.000000D+00  0.000000D+00  0.000000D+00
     46   0.000000D+00  0.000000D+00  0.150872D+00  0.000000D+00  0.000000D+00
                26            27            28            29            30 
      1   0.000000D+00  0.000000D+00  0.000000D+00  0.000000D+00  0.000000D+00
      2   0.000000D+00  0.000000D+00  0.000000D+00  0.000000D+00  0.000000D+00
      3   0.000000D+00  0.000000D+00  0.000000D+00  0.000000D+00  0.000000D+00
      4   0.000000D+00  0.000000D+00  0.000000D+00  0.000000D+00  0.000000D+00
      5   0.000000D+00  0.000000D+00  0.000000D+00  0.000000D+00  0.000000D+00
      6   0.000000D+00  0.000000D+00  0.000000D+00  0.000000D+00  0.000000D+00
      7   0.000000D+00  0.000000D+00  0.000000D+00  0.000000D+00  0.000000D+00
      8   0.000000D+00  0.000000D+00  0.000000D+00  0.000000D+00  0.000000D+00
      9   0.000000D+00  0.000000D+00  0.000000D+00  0.000000D+00  0.000000D+00
     10   0.000000D+00  0.000000D+00  0.000000D+00  0.000000D+00  0.000000D+00
     11   0.000000D+00  0.000000D+00  0.000000D+00  0.000000D+00  0.000000D+00
     12   0.000000D+00  0.000000D+00  0.000000D+00  0.000000D+00  0.000000D+00
     13   0.000000D+00  0.000000D+00  0.000000D+00  0.000000D+00  0.000000D+00
     14   0.000000D+00  0.000000D+00  0.000000D+00  0.000000D+00  0.000000D+00
     15   0.000000D+00  0.000000D+00  0.108144D-02  0.309590D-01  0.000000D+00
     16   0.332913D-03  0.000000D+00  0.000000D+00  0.000000D+00  0.622325D-02
     17   0.000000D+00  0.332913D-03  0.000000D+00  0.000000D+00  0.000000D+00
     18   0.000000D+00  0.000000D+00 -0.175444D-02 -0.534715D-01  0.000000D+00
     19   0.000000D+00  0.000000D+00  0.397206D-02  0.109229D+00  0.000000D+00
     20  -0.125440D-02  0.000000D+00  0.000000D+00  0.000000D+00 -0.222419D-01
     21   0.000000D+00 -0.125440D-02  0.000000D+00  0.000000D+00  0.000000D+00
     22   0.000000D+00  0.000000D+00  0.000000D+00  0.000000D+00  0.000000D+00
     23   0.000000D+00  0.000000D+00  0.000000D+00  0.000000D+00  0.000000D+00
     24   0.000000D+00  0.000000D+00  0.000000D+00  0.262553D-01  0.000000D+00
     25   0.000000D+00  0.000000D+00  0.000000D+00  0.313572D+00  0.000000D+00
     26   0.100000D+01  0.000000D+00  0.000000D+00  0.000000D+00  0.326517D+00
     27   0.000000D+00  0.100000D+01  0.000000D+00  0.000000D+00  0.000000D+00
     28   0.000000D+00  0.000000D+00  0.100000D+01  0.000000D+00  0.000000D+00
     29   0.000000D+00  0.000000D+00  0.000000D+00  0.100000D+01  0.000000D+00
     30   0.326517D+00  0.000000D+00  0.000000D+00  0.000000D+00  0.100000D+01
     31   0.000000D+00  0.326517D+00  0.000000D+00  0.000000D+00  0.000000D+00
     32   0.000000D+00  0.000000D+00  0.326517D+00  0.000000D+00  0.000000D+00
     33   0.000000D+00  0.000000D+00  0.000000D+00  0.000000D+00  0.000000D+00
     34   0.000000D+00  0.000000D+00  0.000000D+00  0.000000D+00  0.000000D+00
     35   0.000000D+00  0.000000D+00  0.000000D+00  0.000000D+00  0.000000D+00
     36   0.000000D+00  0.000000D+00  0.000000D+00  0.000000D+00  0.000000D+00
     37   0.000000D+00  0.000000D+00  0.000000D+00  0.000000D+00  0.000000D+00
     38   0.000000D+00  0.000000D+00  0.000000D+00  0.172993D+00  0.000000D+00
     39   0.102782D-01  0.000000D+00  0.000000D+00  0.000000D+00  0.189903D+00
     40   0.000000D+00  0.102782D-01  0.000000D+00  0.000000D+00  0.000000D+00
     41   0.000000D+00  0.000000D+00  0.102782D-01  0.000000D+00  0.000000D+00
     42   0.000000D+00  0.000000D+00  0.000000D+00  0.000000D+00  0.000000D+00
     43   0.000000D+00  0.000000D+00  0.000000D+00  0.000000D+00  0.000000D+00
     44   0.000000D+00  0.000000D+00  0.000000D+00  0.000000D+00  0.000000D+00
     45   0.000000D+00  0.000000D+00  0.000000D+00  0.000000D+00  0.000000D+00
     46   0.000000D+00  0.000000D+00  0.000000D+00  0.000000D+00  0.000000D+00
                31            32            33            34            35 
      1   0.000000D+00  0.000000D+00  0.000000D+00  0.000000D+00  0.000000D+00
      2   0.000000D+00  0.000000D+00  0.000000D+00  0.000000D+00  0.000000D+00
      3   0.000000D+00  0.000000D+00  0.000000D+00  0.000000D+00  0.000000D+00
      4   0.000000D+00  0.000000D+00  0.000000D+00  0.000000D+00  0.000000D+00
      5   0.000000D+00  0.000000D+00  0.000000D+00  0.000000D+00  0.000000D+00
      6   0.000000D+00  0.000000D+00  0.000000D+00  0.000000D+00  0.000000D+00
      7   0.000000D+00  0.000000D+00  0.000000D+00  0.000000D+00  0.000000D+00
      8   0.000000D+00  0.000000D+00  0.000000D+00  0.000000D+00  0.000000D+00
      9   0.000000D+00  0.000000D+00  0.000000D+00  0.000000D+00  0.000000D+00
     10   0.000000D+00  0.000000D+00  0.177432D-05  0.000000D+00  0.000000D+00
     11   0.000000D+00  0.000000D+00  0.000000D+00  0.000000D+00  0.000000D+00
     12   0.000000D+00  0.000000D+00  0.000000D+00  0.000000D+00  0.000000D+00
     13   0.000000D+00  0.000000D+00  0.000000D+00  0.000000D+00  0.000000D+00
     14   0.000000D+00  0.000000D+00  0.000000D+00  0.000000D+00  0.000000D+00
     15   0.000000D+00  0.193999D-01  0.664606D-02  0.000000D+00  0.000000D+00
     16   0.000000D+00  0.000000D+00  0.000000D+00  0.411451D-02  0.000000D+00
     17   0.622325D-02  0.000000D+00  0.000000D+00  0.000000D+00  0.411451D-02
     18   0.000000D+00 -0.314027D-01 -0.109539D-01  0.000000D+00  0.000000D+00
     19   0.000000D+00  0.630501D-01  0.189674D-01  0.000000D+00  0.000000D+00
     20   0.000000D+00  0.000000D+00  0.000000D+00 -0.144402D-01  0.000000D+00
     21  -0.222419D-01  0.000000D+00  0.000000D+00  0.000000D+00 -0.144402D-01
     22   0.000000D+00  0.000000D+00  0.000000D+00  0.000000D+00  0.000000D+00
     23   0.000000D+00  0.000000D+00  0.000000D+00  0.000000D+00  0.000000D+00
     24   0.000000D+00  0.000000D+00  0.000000D+00  0.000000D+00  0.000000D+00
     25   0.000000D+00  0.000000D+00  0.000000D+00  0.000000D+00  0.000000D+00
     26   0.000000D+00  0.000000D+00  0.000000D+00  0.000000D+00  0.000000D+00
     27   0.326517D+00  0.000000D+00  0.000000D+00  0.000000D+00  0.000000D+00
     28   0.000000D+00  0.326517D+00  0.000000D+00  0.000000D+00  0.000000D+00
     29   0.000000D+00  0.000000D+00  0.000000D+00  0.000000D+00  0.000000D+00
     30   0.000000D+00  0.000000D+00  0.000000D+00  0.000000D+00  0.000000D+00
     31   0.100000D+01  0.000000D+00  0.000000D+00  0.000000D+00  0.000000D+00
     32   0.000000D+00  0.100000D+01  0.000000D+00  0.000000D+00  0.000000D+00
     33   0.000000D+00  0.000000D+00  0.100000D+01  0.000000D+00  0.000000D+00
     34   0.000000D+00  0.000000D+00  0.000000D+00  0.100000D+01  0.000000D+00
     35   0.000000D+00  0.000000D+00  0.000000D+00  0.000000D+00  0.100000D+01
     36   0.000000D+00  0.000000D+00  0.000000D+00  0.000000D+00  0.000000D+00
     37   0.000000D+00  0.000000D+00  0.000000D+00  0.000000D+00  0.000000D+00
     38   0.000000D+00  0.000000D+00  0.000000D+00  0.000000D+00  0.000000D+00
     39   0.000000D+00  0.000000D+00  0.000000D+00  0.000000D+00  0.000000D+00
     40   0.189903D+00  0.000000D+00  0.000000D+00  0.000000D+00  0.000000D+00
     41   0.000000D+00  0.189903D+00  0.000000D+00  0.000000D+00  0.000000D+00
     42   0.000000D+00  0.000000D+00  0.784073D-01  0.000000D+00  0.000000D+00
     43   0.000000D+00  0.000000D+00  0.000000D+00  0.784073D-01  0.000000D+00
     44   0.000000D+00  0.000000D+00  0.000000D+00  0.000000D+00  0.784073D-01
     45   0.000000D+00  0.000000D+00  0.000000D+00  0.000000D+00  0.000000D+00
     46   0.000000D+00  0.000000D+00  0.000000D+00  0.000000D+00  0.000000D+00
                36            37            38            39            40 
      1   0.000000D+00  0.000000D+00  0.793463D-03  0.000000D+00  0.000000D+00
      2   0.000000D+00  0.000000D+00  0.495496D-02  0.000000D+00  0.000000D+00
      3   0.000000D+00  0.000000D+00  0.000000D+00  0.332913D-03  0.000000D+00
      4   0.000000D+00  0.000000D+00  0.000000D+00  0.000000D+00  0.332913D-03
      5   0.000000D+00  0.000000D+00 -0.108144D-02  0.000000D+00  0.000000D+00
      6   0.000000D+00  0.000000D+00  0.309590D-01  0.000000D+00  0.000000D+00
      7   0.000000D+00  0.000000D+00  0.000000D+00  0.622325D-02  0.000000D+00
      8   0.000000D+00  0.000000D+00  0.000000D+00  0.000000D+00  0.622325D-02
      9   0.000000D+00  0.000000D+00 -0.193999D-01  0.000000D+00  0.000000D+00
     10   0.000000D+00  0.000000D+00  0.664606D-02  0.000000D+00  0.000000D+00
     11   0.000000D+00  0.000000D+00  0.000000D+00 -0.411451D-02  0.000000D+00
     12   0.000000D+00  0.000000D+00  0.000000D+00  0.000000D+00 -0.411451D-02
     13   0.000000D+00  0.000000D+00  0.000000D+00  0.000000D+00  0.000000D+00
     14   0.000000D+00  0.000000D+00  0.000000D+00  0.000000D+00  0.000000D+00
     15   0.000000D+00  0.000000D+00  0.272400D+00  0.000000D+00  0.000000D+00
     16   0.000000D+00  0.000000D+00  0.000000D+00  0.146897D+00  0.000000D+00
     17   0.000000D+00  0.000000D+00  0.000000D+00  0.000000D+00  0.146897D+00
     18   0.000000D+00  0.000000D+00 -0.337091D+00  0.000000D+00  0.000000D+00
     19   0.000000D+00  0.000000D+00  0.307608D+00  0.000000D+00  0.000000D+00
     20   0.000000D+00  0.000000D+00  0.000000D+00 -0.283845D+00  0.000000D+00
     21   0.000000D+00  0.000000D+00  0.000000D+00  0.000000D+00 -0.283845D+00
     22   0.243403D-02  0.000000D+00  0.000000D+00  0.000000D+00  0.000000D+00
     23   0.000000D+00  0.243403D-02  0.000000D+00  0.000000D+00  0.000000D+00
     24   0.000000D+00  0.000000D+00 -0.353836D-03  0.000000D+00  0.000000D+00
     25   0.000000D+00  0.000000D+00  0.313775D-02  0.000000D+00  0.000000D+00
     26   0.000000D+00  0.000000D+00  0.000000D+00  0.102782D-01  0.000000D+00
     27   0.000000D+00  0.000000D+00  0.000000D+00  0.000000D+00  0.102782D-01
     28   0.000000D+00  0.000000D+00  0.000000D+00  0.000000D+00  0.000000D+00
     29   0.000000D+00  0.000000D+00  0.172993D+00  0.000000D+00  0.000000D+00
     30   0.000000D+00  0.000000D+00  0.000000D+00  0.189903D+00  0.000000D+00
     31   0.000000D+00  0.000000D+00  0.000000D+00  0.000000D+00  0.189903D+00
     32   0.000000D+00  0.000000D+00  0.000000D+00  0.000000D+00  0.000000D+00
     33   0.000000D+00  0.000000D+00  0.000000D+00  0.000000D+00  0.000000D+00
     34   0.000000D+00  0.000000D+00  0.000000D+00  0.000000D+00  0.000000D+00
     35   0.000000D+00  0.000000D+00  0.000000D+00  0.000000D+00  0.000000D+00
     36   0.100000D+01  0.000000D+00  0.000000D+00  0.000000D+00  0.000000D+00
     37   0.000000D+00  0.100000D+01  0.000000D+00  0.000000D+00  0.000000D+00
     38   0.000000D+00  0.000000D+00  0.100000D+01  0.000000D+00  0.000000D+00
     39   0.000000D+00  0.000000D+00  0.000000D+00  0.100000D+01  0.000000D+00
     40   0.000000D+00  0.000000D+00  0.000000D+00  0.000000D+00  0.100000D+01
     41   0.000000D+00  0.000000D+00  0.000000D+00  0.000000D+00  0.000000D+00
     42   0.000000D+00  0.000000D+00  0.000000D+00  0.000000D+00  0.000000D+00
     43   0.000000D+00  0.000000D+00  0.000000D+00  0.000000D+00  0.000000D+00
     44   0.000000D+00  0.000000D+00  0.000000D+00  0.000000D+00  0.000000D+00
     45   0.784073D-01  0.000000D+00  0.000000D+00  0.000000D+00  0.000000D+00
     46   0.000000D+00  0.784073D-01  0.000000D+00  0.000000D+00  0.000000D+00
                41            42            43            44            45 
      1   0.140863D-02  0.307918D-02  0.000000D+00  0.000000D+00  0.000000D+00
      2   0.876893D-02  0.190665D-01  0.000000D+00  0.000000D+00  0.000000D+00
      3   0.000000D+00  0.000000D+00  0.125440D-02  0.000000D+00  0.000000D+00
      4   0.000000D+00  0.000000D+00  0.000000D+00  0.125440D-02  0.000000D+00
      5  -0.175444D-02 -0.397206D-02  0.000000D+00  0.000000D+00  0.000000D+00
      6   0.534715D-01  0.109229D+00  0.000000D+00  0.000000D+00  0.000000D+00
      7   0.000000D+00  0.000000D+00  0.222419D-01  0.000000D+00  0.000000D+00
      8   0.000000D+00  0.000000D+00  0.000000D+00  0.222419D-01  0.000000D+00
      9  -0.314027D-01 -0.630501D-01  0.000000D+00  0.000000D+00  0.000000D+00
     10   0.109539D-01  0.189674D-01  0.000000D+00  0.000000D+00  0.000000D+00
     11   0.000000D+00  0.000000D+00 -0.144402D-01  0.000000D+00  0.000000D+00
     12   0.000000D+00  0.000000D+00  0.000000D+00 -0.144402D-01  0.000000D+00
     13   0.000000D+00  0.000000D+00  0.000000D+00  0.000000D+00  0.243403D-02
     14   0.000000D+00  0.000000D+00  0.000000D+00  0.000000D+00  0.000000D+00
     15   0.337091D+00  0.307608D+00  0.000000D+00  0.000000D+00  0.000000D+00
     16   0.000000D+00  0.000000D+00  0.283845D+00  0.000000D+00  0.000000D+00
     17   0.000000D+00  0.000000D+00  0.000000D+00  0.283845D+00  0.000000D+00
     18  -0.385772D+00 -0.297134D+00  0.000000D+00  0.000000D+00  0.000000D+00
     19   0.297134D+00  0.109524D+00  0.000000D+00  0.000000D+00  0.000000D+00
     20   0.000000D+00  0.000000D+00 -0.419824D+00  0.000000D+00  0.000000D+00
     21   0.000000D+00  0.000000D+00  0.000000D+00 -0.419824D+00  0.000000D+00
     22   0.000000D+00  0.000000D+00  0.000000D+00  0.000000D+00  0.150872D+00
     23   0.000000D+00  0.000000D+00  0.000000D+00  0.000000D+00  0.000000D+00
     24   0.000000D+00  0.000000D+00  0.000000D+00  0.000000D+00  0.000000D+00
     25   0.000000D+00  0.000000D+00  0.000000D+00  0.000000D+00  0.000000D+00
     26   0.000000D+00  0.000000D+00  0.000000D+00  0.000000D+00  0.000000D+00
     27   0.000000D+00  0.000000D+00  0.000000D+00  0.000000D+00  0.000000D+00
     28   0.102782D-01  0.000000D+00  0.000000D+00  0.000000D+00  0.000000D+00
     29   0.000000D+00  0.000000D+00  0.000000D+00  0.000000D+00  0.000000D+00
     30   0.000000D+00  0.000000D+00  0.000000D+00  0.000000D+00  0.000000D+00
     31   0.000000D+00  0.000000D+00  0.000000D+00  0.000000D+00  0.000000D+00
     32   0.189903D+00  0.000000D+00  0.000000D+00  0.000000D+00  0.000000D+00
     33   0.000000D+00  0.784073D-01  0.000000D+00  0.000000D+00  0.000000D+00
     34   0.000000D+00  0.000000D+00  0.784073D-01  0.000000D+00  0.000000D+00
     35   0.000000D+00  0.000000D+00  0.000000D+00  0.784073D-01  0.000000D+00
     36   0.000000D+00  0.000000D+00  0.000000D+00  0.000000D+00  0.784073D-01
     37   0.000000D+00  0.000000D+00  0.000000D+00  0.000000D+00  0.000000D+00
     38   0.000000D+00  0.000000D+00  0.000000D+00  0.000000D+00  0.000000D+00
     39   0.000000D+00  0.000000D+00  0.000000D+00  0.000000D+00  0.000000D+00
     40   0.000000D+00  0.000000D+00  0.000000D+00  0.000000D+00  0.000000D+00
     41   0.100000D+01  0.000000D+00  0.000000D+00  0.000000D+00  0.000000D+00
     42   0.000000D+00  0.100000D+01  0.000000D+00  0.000000D+00  0.000000D+00
     43   0.000000D+00  0.000000D+00  0.100000D+01  0.000000D+00  0.000000D+00
     44   0.000000D+00  0.000000D+00  0.000000D+00  0.100000D+01  0.000000D+00
     45   0.000000D+00  0.000000D+00  0.000000D+00  0.000000D+00  0.100000D+01
     46   0.000000D+00  0.000000D+00  0.000000D+00  0.000000D+00  0.000000D+00
                46 
      1   0.000000D+00
      2   0.000000D+00
      3   0.000000D+00
      4   0.000000D+00
      5   0.000000D+00
      6   0.000000D+00
      7   0.000000D+00
      8   0.000000D+00
      9   0.000000D+00
     10   0.000000D+00
     11   0.000000D+00
     12   0.000000D+00
     13   0.000000D+00
     14   0.243403D-02
     15   0.000000D+00
     16   0.000000D+00
     17   0.000000D+00
     18   0.000000D+00
     19   0.000000D+00
     20   0.000000D+00
     21   0.000000D+00
     22   0.000000D+00
     23   0.150872D+00
     24   0.000000D+00
     25   0.000000D+00
     26   0.000000D+00
     27   0.000000D+00
     28   0.000000D+00
     29   0.000000D+00
     30   0.000000D+00
     31   0.000000D+00
     32   0.000000D+00
     33   0.000000D+00
     34   0.000000D+00
     35   0.000000D+00
     36   0.000000D+00
     37   0.784073D-01
     38   0.000000D+00
     39   0.000000D+00
     40   0.000000D+00
     41   0.000000D+00
     42   0.000000D+00
     43   0.000000D+00
     44   0.000000D+00
     45   0.000000D+00
     46   0.100000D+01
 Entering OneElI...
 Overlap between basis sets.
 Requested accuracy = 0.1000D-12
 PrsmSu:  NPrtUS=   1 ThrOK=F IAlg=1
 PRISM was handed  1608902530 working-precision words and  1068 shell-pairs
 IPart=  0 NShTot=        1068 NBatch=          89 AvBLen=        12.0
 CnvPC2: ToCart=F DoDens=F IPureD=0 IPureF=0.
 Transformed matrix in CnvPC2: 
                 1             2             3             4             5 
      1   0.999789D+00  0.408650D+00  0.000000D+00  0.000000D+00  0.000000D+00
      2   0.287568D+00  0.988932D+00  0.000000D+00  0.000000D+00  0.000000D+00
      3   0.000000D+00  0.000000D+00  0.999224D+00  0.000000D+00  0.000000D+00
      4   0.000000D+00  0.000000D+00  0.000000D+00  0.999224D+00  0.000000D+00
      5   0.000000D+00  0.000000D+00  0.000000D+00  0.000000D+00  0.999224D+00
      6   0.117599D-01  0.315764D+00  0.000000D+00  0.000000D+00  0.000000D+00
      7   0.000000D+00  0.000000D+00  0.337691D+00  0.000000D+00  0.000000D+00
      8   0.000000D+00  0.000000D+00  0.000000D+00  0.337691D+00  0.000000D+00
      9   0.000000D+00  0.000000D+00  0.000000D+00  0.000000D+00  0.337691D+00
     10   0.000000D+00  0.000000D+00  0.000000D+00  0.000000D+00  0.000000D+00
     11   0.000000D+00  0.000000D+00  0.000000D+00  0.000000D+00  0.000000D+00
     12   0.000000D+00  0.000000D+00  0.000000D+00  0.000000D+00  0.000000D+00
     13   0.000000D+00  0.000000D+00  0.000000D+00  0.000000D+00  0.000000D+00
     14   0.000000D+00  0.000000D+00  0.000000D+00  0.000000D+00  0.000000D+00
     15   0.258524D-04  0.714738D-02  0.000000D+00  0.000000D+00  0.000000D+00
     16   0.629438D-02  0.386865D-01  0.000000D+00  0.000000D+00  0.000000D+00
     17   0.284266D-02  0.175259D-01  0.000000D+00  0.000000D+00  0.000000D+00
     18   0.000000D+00  0.000000D+00  0.558729D-02  0.000000D+00  0.000000D+00
     19   0.000000D+00  0.000000D+00  0.000000D+00  0.558729D-02  0.000000D+00
     20   0.000000D+00  0.000000D+00  0.000000D+00  0.000000D+00  0.558729D-02
     21   0.000000D+00  0.000000D+00  0.291983D-03  0.000000D+00  0.000000D+00
     22   0.000000D+00  0.000000D+00  0.000000D+00  0.291983D-03  0.000000D+00
     23   0.000000D+00  0.000000D+00  0.000000D+00  0.000000D+00  0.291983D-03
     24   0.000000D+00  0.000000D+00  0.109792D-02  0.000000D+00  0.000000D+00
     25   0.000000D+00  0.000000D+00  0.000000D+00  0.109792D-02  0.000000D+00
     26   0.000000D+00  0.000000D+00  0.000000D+00  0.000000D+00  0.109792D-02
     27   0.124642D+00  0.608035D+00  0.000000D+00  0.000000D+00  0.000000D+00
     28   0.807516D-01  0.435001D+00  0.000000D+00  0.000000D+00  0.000000D+00
     29   0.519927D-01  0.297145D+00  0.000000D+00  0.000000D+00  0.000000D+00
     30   0.333600D-01  0.197271D+00  0.000000D+00  0.000000D+00  0.000000D+00
     31   0.213634D-01  0.128789D+00  0.000000D+00  0.000000D+00  0.000000D+00
     32   0.136663D-01  0.832787D-01  0.000000D+00  0.000000D+00  0.000000D+00
     33   0.000000D+00  0.000000D+00  0.167963D+00  0.000000D+00  0.000000D+00
     34   0.000000D+00  0.000000D+00  0.000000D+00  0.167963D+00  0.000000D+00
     35   0.000000D+00  0.000000D+00  0.000000D+00  0.000000D+00  0.167963D+00
     36   0.000000D+00  0.000000D+00  0.974571D-01  0.000000D+00  0.000000D+00
     37   0.000000D+00  0.000000D+00  0.000000D+00  0.974571D-01  0.000000D+00
     38   0.000000D+00  0.000000D+00  0.000000D+00  0.000000D+00  0.974571D-01
     39   0.000000D+00  0.000000D+00  0.548549D-01  0.000000D+00  0.000000D+00
     40   0.000000D+00  0.000000D+00  0.000000D+00  0.548549D-01  0.000000D+00
     41   0.000000D+00  0.000000D+00  0.000000D+00  0.000000D+00  0.548549D-01
     42   0.000000D+00  0.000000D+00  0.302737D-01  0.000000D+00  0.000000D+00
     43   0.000000D+00  0.000000D+00  0.000000D+00  0.302737D-01  0.000000D+00
     44   0.000000D+00  0.000000D+00  0.000000D+00  0.000000D+00  0.302737D-01
     45   0.000000D+00  0.000000D+00  0.165011D-01  0.000000D+00  0.000000D+00
     46   0.000000D+00  0.000000D+00  0.000000D+00  0.165011D-01  0.000000D+00
     47   0.000000D+00  0.000000D+00  0.000000D+00  0.000000D+00  0.165011D-01
     48   0.000000D+00  0.000000D+00  0.892489D-02  0.000000D+00  0.000000D+00
     49   0.000000D+00  0.000000D+00  0.000000D+00  0.892489D-02  0.000000D+00
     50   0.000000D+00  0.000000D+00  0.000000D+00  0.000000D+00  0.892489D-02
     51   0.000000D+00  0.000000D+00  0.000000D+00  0.000000D+00  0.000000D+00
     52   0.000000D+00  0.000000D+00  0.000000D+00  0.000000D+00  0.000000D+00
     53   0.000000D+00  0.000000D+00  0.000000D+00  0.000000D+00  0.000000D+00
     54   0.000000D+00  0.000000D+00  0.000000D+00  0.000000D+00  0.000000D+00
     55   0.000000D+00  0.000000D+00  0.000000D+00  0.000000D+00  0.000000D+00
     56   0.000000D+00  0.000000D+00  0.000000D+00  0.000000D+00  0.000000D+00
     57   0.000000D+00  0.000000D+00  0.000000D+00  0.000000D+00  0.000000D+00
     58   0.000000D+00  0.000000D+00  0.000000D+00  0.000000D+00  0.000000D+00
     59   0.000000D+00  0.000000D+00  0.000000D+00  0.000000D+00  0.000000D+00
     60   0.000000D+00  0.000000D+00  0.000000D+00  0.000000D+00  0.000000D+00
     61   0.000000D+00  0.000000D+00  0.000000D+00  0.000000D+00  0.000000D+00
     62   0.000000D+00  0.000000D+00  0.000000D+00  0.000000D+00  0.000000D+00
     63   0.000000D+00  0.000000D+00  0.000000D+00  0.000000D+00  0.000000D+00
     64   0.000000D+00  0.000000D+00  0.000000D+00  0.000000D+00  0.000000D+00
     65   0.000000D+00  0.000000D+00  0.000000D+00  0.000000D+00  0.000000D+00
     66   0.000000D+00  0.000000D+00  0.000000D+00  0.000000D+00  0.000000D+00
     67   0.000000D+00  0.000000D+00  0.000000D+00  0.000000D+00  0.000000D+00
     68   0.000000D+00  0.000000D+00  0.000000D+00  0.000000D+00  0.000000D+00
     69   0.000000D+00  0.000000D+00  0.000000D+00  0.000000D+00  0.000000D+00
     70   0.000000D+00  0.000000D+00  0.000000D+00  0.000000D+00  0.000000D+00
     71   0.000000D+00  0.000000D+00  0.000000D+00  0.000000D+00  0.000000D+00
     72   0.000000D+00  0.000000D+00  0.000000D+00  0.000000D+00  0.000000D+00
     73   0.000000D+00  0.000000D+00  0.000000D+00  0.000000D+00  0.000000D+00
     74   0.000000D+00  0.000000D+00  0.000000D+00  0.000000D+00  0.000000D+00
     75   0.000000D+00  0.000000D+00  0.000000D+00  0.000000D+00  0.000000D+00
     76   0.000000D+00  0.000000D+00  0.000000D+00  0.000000D+00  0.000000D+00
     77   0.000000D+00  0.000000D+00  0.000000D+00  0.000000D+00  0.000000D+00
     78   0.000000D+00  0.000000D+00  0.000000D+00  0.000000D+00  0.000000D+00
     79   0.000000D+00  0.000000D+00  0.000000D+00  0.000000D+00  0.000000D+00
     80   0.000000D+00  0.000000D+00  0.000000D+00  0.000000D+00  0.000000D+00
     81   0.000000D+00  0.000000D+00  0.000000D+00  0.000000D+00  0.000000D+00
     82   0.000000D+00  0.000000D+00  0.000000D+00  0.000000D+00  0.000000D+00
     83   0.000000D+00  0.000000D+00  0.000000D+00  0.000000D+00  0.000000D+00
     84   0.000000D+00  0.000000D+00  0.000000D+00  0.000000D+00  0.000000D+00
     85   0.000000D+00  0.000000D+00  0.000000D+00  0.000000D+00  0.000000D+00
     86   0.000000D+00  0.000000D+00  0.000000D+00  0.000000D+00  0.000000D+00
     87   0.000000D+00  0.000000D+00  0.000000D+00  0.000000D+00  0.000000D+00
     88   0.000000D+00  0.000000D+00  0.000000D+00  0.000000D+00  0.000000D+00
     89   0.000000D+00  0.000000D+00  0.000000D+00  0.000000D+00  0.000000D+00
     90   0.000000D+00  0.000000D+00  0.000000D+00  0.000000D+00  0.000000D+00
     91   0.000000D+00  0.000000D+00  0.000000D+00  0.000000D+00  0.000000D+00
     92   0.000000D+00  0.000000D+00  0.000000D+00  0.000000D+00  0.000000D+00
     93   0.000000D+00  0.000000D+00  0.000000D+00  0.000000D+00  0.000000D+00
     94   0.000000D+00  0.000000D+00  0.000000D+00  0.000000D+00  0.000000D+00
     95   0.000000D+00  0.000000D+00  0.000000D+00  0.000000D+00  0.000000D+00
     96   0.000000D+00  0.000000D+00  0.000000D+00  0.000000D+00  0.000000D+00
     97   0.000000D+00  0.000000D+00  0.000000D+00  0.000000D+00  0.000000D+00
     98   0.000000D+00  0.000000D+00  0.000000D+00  0.000000D+00  0.000000D+00
     99   0.000000D+00  0.000000D+00  0.000000D+00  0.000000D+00  0.000000D+00
    100   0.000000D+00  0.000000D+00  0.000000D+00  0.000000D+00  0.000000D+00
    101   0.000000D+00  0.000000D+00  0.000000D+00  0.000000D+00  0.000000D+00
    102   0.000000D+00  0.000000D+00  0.000000D+00  0.000000D+00  0.000000D+00
    103   0.000000D+00  0.000000D+00  0.000000D+00  0.000000D+00  0.000000D+00
    104   0.000000D+00  0.000000D+00  0.000000D+00  0.000000D+00  0.000000D+00
    105   0.000000D+00  0.000000D+00  0.000000D+00  0.000000D+00  0.000000D+00
    106   0.000000D+00  0.000000D+00  0.000000D+00  0.000000D+00  0.000000D+00
    107   0.000000D+00  0.000000D+00  0.000000D+00  0.000000D+00  0.000000D+00
    108   0.000000D+00  0.000000D+00  0.000000D+00  0.000000D+00  0.000000D+00
    109   0.000000D+00  0.000000D+00  0.000000D+00  0.000000D+00  0.000000D+00
    110   0.000000D+00  0.000000D+00  0.000000D+00  0.000000D+00  0.000000D+00
    111   0.000000D+00  0.000000D+00  0.000000D+00  0.000000D+00  0.000000D+00
    112   0.000000D+00  0.000000D+00  0.000000D+00  0.000000D+00  0.000000D+00
    113   0.000000D+00  0.000000D+00  0.000000D+00  0.000000D+00  0.000000D+00
    114   0.000000D+00  0.000000D+00  0.000000D+00  0.000000D+00  0.000000D+00
    115   0.000000D+00  0.000000D+00  0.000000D+00  0.000000D+00  0.000000D+00
    116   0.000000D+00  0.000000D+00  0.000000D+00  0.000000D+00  0.000000D+00
    117   0.000000D+00  0.000000D+00  0.000000D+00  0.000000D+00  0.000000D+00
    118   0.000000D+00  0.000000D+00  0.000000D+00  0.000000D+00  0.000000D+00
    119   0.000000D+00  0.000000D+00  0.000000D+00  0.000000D+00  0.000000D+00
    120   0.000000D+00  0.000000D+00  0.000000D+00  0.000000D+00  0.000000D+00
    121   0.000000D+00  0.000000D+00  0.000000D+00  0.000000D+00  0.000000D+00
    122   0.000000D+00  0.000000D+00  0.000000D+00  0.000000D+00  0.000000D+00
    123   0.000000D+00  0.000000D+00  0.000000D+00  0.000000D+00  0.000000D+00
    124   0.000000D+00  0.000000D+00  0.000000D+00  0.000000D+00  0.000000D+00
    125   0.000000D+00  0.000000D+00  0.000000D+00  0.000000D+00  0.000000D+00
    126   0.000000D+00  0.000000D+00  0.000000D+00  0.000000D+00  0.000000D+00
    127   0.000000D+00  0.000000D+00  0.000000D+00  0.000000D+00  0.000000D+00
    128   0.000000D+00  0.000000D+00  0.000000D+00  0.000000D+00  0.000000D+00
    129   0.000000D+00  0.000000D+00  0.000000D+00  0.000000D+00  0.000000D+00
    130   0.000000D+00  0.000000D+00  0.000000D+00  0.000000D+00  0.000000D+00
    131   0.000000D+00  0.000000D+00  0.000000D+00  0.000000D+00  0.000000D+00
    132   0.000000D+00  0.000000D+00  0.000000D+00  0.000000D+00  0.000000D+00
    133   0.000000D+00  0.000000D+00  0.000000D+00  0.000000D+00  0.000000D+00
    134   0.000000D+00  0.000000D+00  0.000000D+00  0.000000D+00  0.000000D+00
    135   0.000000D+00  0.000000D+00  0.000000D+00  0.000000D+00  0.000000D+00
    136   0.000000D+00  0.000000D+00  0.000000D+00  0.000000D+00  0.000000D+00
    137   0.000000D+00  0.000000D+00  0.000000D+00  0.000000D+00  0.000000D+00
    138   0.000000D+00  0.000000D+00  0.000000D+00  0.000000D+00  0.000000D+00
    139   0.000000D+00  0.000000D+00  0.000000D+00  0.000000D+00  0.000000D+00
    140   0.000000D+00  0.000000D+00  0.000000D+00  0.000000D+00  0.000000D+00
    141   0.000000D+00  0.000000D+00  0.000000D+00  0.000000D+00  0.000000D+00
    142   0.000000D+00  0.000000D+00  0.000000D+00  0.000000D+00  0.000000D+00
    143   0.000000D+00  0.000000D+00  0.000000D+00  0.000000D+00  0.000000D+00
    144   0.000000D+00  0.000000D+00  0.000000D+00  0.000000D+00  0.000000D+00
    145   0.000000D+00  0.000000D+00  0.000000D+00  0.000000D+00  0.000000D+00
    146   0.000000D+00  0.000000D+00  0.000000D+00  0.000000D+00  0.000000D+00
    147   0.000000D+00  0.000000D+00  0.000000D+00  0.000000D+00  0.000000D+00
    148   0.000000D+00  0.000000D+00  0.000000D+00  0.000000D+00  0.000000D+00
    149   0.000000D+00  0.000000D+00  0.000000D+00  0.000000D+00  0.000000D+00
    150   0.000000D+00  0.000000D+00  0.000000D+00  0.000000D+00  0.000000D+00
    151   0.000000D+00  0.000000D+00  0.000000D+00  0.000000D+00  0.000000D+00
    152   0.000000D+00  0.000000D+00  0.000000D+00  0.000000D+00  0.000000D+00
    153   0.000000D+00  0.000000D+00  0.000000D+00  0.000000D+00  0.000000D+00
    154   0.000000D+00  0.000000D+00  0.000000D+00  0.000000D+00  0.000000D+00
    155   0.000000D+00  0.000000D+00  0.000000D+00  0.000000D+00  0.000000D+00
    156   0.000000D+00  0.000000D+00  0.000000D+00  0.000000D+00  0.000000D+00
    157   0.000000D+00  0.000000D+00  0.000000D+00  0.000000D+00  0.000000D+00
    158   0.000000D+00  0.000000D+00  0.000000D+00  0.000000D+00  0.000000D+00
    159   0.000000D+00  0.000000D+00  0.000000D+00  0.000000D+00  0.000000D+00
    160   0.000000D+00  0.000000D+00  0.000000D+00  0.000000D+00  0.000000D+00
    161   0.000000D+00  0.000000D+00  0.000000D+00  0.000000D+00  0.000000D+00
    162   0.000000D+00  0.000000D+00  0.000000D+00  0.000000D+00  0.000000D+00
    163   0.000000D+00  0.000000D+00  0.000000D+00  0.000000D+00  0.000000D+00
    164   0.000000D+00  0.000000D+00  0.000000D+00  0.000000D+00  0.000000D+00
    165   0.000000D+00  0.000000D+00  0.000000D+00  0.000000D+00  0.000000D+00
    166   0.000000D+00  0.000000D+00  0.000000D+00  0.000000D+00  0.000000D+00
    167   0.000000D+00  0.000000D+00  0.000000D+00  0.000000D+00  0.000000D+00
    168   0.000000D+00  0.000000D+00  0.000000D+00  0.000000D+00  0.000000D+00
    169   0.000000D+00  0.000000D+00  0.000000D+00  0.000000D+00  0.000000D+00
    170   0.000000D+00  0.000000D+00  0.000000D+00  0.000000D+00  0.000000D+00
    171   0.000000D+00  0.000000D+00  0.000000D+00  0.000000D+00  0.000000D+00
    172   0.000000D+00  0.000000D+00  0.000000D+00  0.000000D+00  0.000000D+00
    173   0.000000D+00  0.000000D+00  0.000000D+00  0.000000D+00  0.000000D+00
    174   0.000000D+00  0.000000D+00  0.000000D+00  0.000000D+00  0.000000D+00
    175   0.000000D+00  0.000000D+00  0.000000D+00  0.000000D+00  0.000000D+00
    176   0.000000D+00  0.000000D+00  0.000000D+00  0.000000D+00  0.000000D+00
    177   0.000000D+00  0.000000D+00  0.000000D+00  0.000000D+00  0.000000D+00
    178   0.000000D+00  0.000000D+00  0.000000D+00  0.000000D+00  0.000000D+00
    179   0.000000D+00  0.000000D+00  0.000000D+00  0.000000D+00  0.000000D+00
[...]
   29    | -0.019509 -0.001377 -0.003483 -0.003483
   29    |  0.000000 -0.001876  0.000000  0.000000
         |
   30    | -0.002858 -0.019509 -0.003483 -0.003483
   30    | -0.002858  0.000000  0.000000  0.000000
         |
   31    | -0.008958 -0.008958  0.000000 -0.006083
   31    |  0.000000  0.000000  0.000000  0.000000
         |
   32    | -0.008958 -0.008958  0.000000  0.000000
   32    |  0.000000  0.000000  0.000000  0.000000
         |

                     Delta Factors
                     -------------

 AB - AA |     29        30        31        32
 BA - BB |     29        30        31        32
--------------------------------------------------
   29    |  1.285144  2.591958  1.534829  1.534829
   29    |  0.000000  1.995658  0.000000  0.000000
         |
   30    |  1.686273  1.285144  1.534829  1.534829
   30    |  1.686273  0.000000  0.000000  0.000000
         |
   31    |  1.132681  1.132681  0.000000  0.822580
   31    |  0.000000  0.000000  0.000000  0.000000
         |
   32    |  1.132681  1.132681  0.000000  0.000000
   32    |  0.000000  0.000000  0.000000  0.000000
         |

                   MP2(CBS) Pair Energies
                   ----------------------

 AB - AA |     29        30        31        32
 BA - BB |     29        30        31        32
--------------------------------------------------
   29    | -0.021367 -0.001424 -0.003553 -0.003553
   29    |  0.000000 -0.001925  0.000000  0.000000
         |
   30    | -0.003178 -0.021367 -0.003553 -0.003553
   30    | -0.003178  0.000000  0.000000  0.000000
         |
   31    | -0.009755 -0.009755  0.000000 -0.006158
   31    |  0.000000  0.000000  0.000000  0.000000
         |
   32    | -0.009755 -0.009755  0.000000  0.000000
   32    |  0.000000  0.000000  0.000000  0.000000
         |

                     Sum of ab pair energies =    -0.084930 A.U.
                     Sum of ba pair energies =    -0.003178 A.U.
                     Sum of aa pair energies =    -0.021796 A.U.
                     Sum of bb pair energies =    -0.001925 A.U.

           Sum of intraorbital pair energies =    -0.042734 A.U.
           Sum of interorbital pair energies =    -0.069095 A.U.
                                                  ----------
                         Total pair energies =    -0.111829 A.U.

                         Single Excitations  =    -0.001692 A.U.

                          Total second order =    -0.113521 A.U.



            MP2(CBS) (With Interference Correction) 
            ---------------------------------------

 AB - AA |     29        30        31        32
 BA - BB |     29        30        31        32
--------------------------------------------------
   29    | -0.020986 -0.001418 -0.003540 -0.003540
   29    |  0.000000 -0.001917  0.000000  0.000000
         |
   30    | -0.003144 -0.020986 -0.003540 -0.003540
   30    | -0.003144  0.000000  0.000000  0.000000
         |
   31    | -0.009618 -0.009618  0.000000 -0.006145
   31    |  0.000000  0.000000  0.000000  0.000000
         |
   32    | -0.009618 -0.009618  0.000000  0.000000
   32    |  0.000000  0.000000  0.000000  0.000000
         |

                     Sum of ab pair energies =    -0.083588 A.U.
                     Sum of ba pair energies =    -0.003144 A.U.
                     Sum of aa pair energies =    -0.021723 A.U.
                     Sum of bb pair energies =    -0.001917 A.U.

           Sum of intraorbital pair energies =    -0.041973 A.U.
           Sum of interorbital pair energies =    -0.068399 A.U.
                                                  ----------
                         Total pair energies =    -0.110372 A.U.

                         Single Excitations  =    -0.001692 A.U.

                          Total second order =    -0.112064 A.U.

                         E2(CBS) - E2(Dir) =      -0.002226 A.U.

 E2(CBS)=      -0.113521 CBS-Int=       0.001457 OIii=       0.381307

 **********************************************************************

            Population analysis using the SCF density.

 **********************************************************************

 Orbital symmetries:
       Occupied  (SGG) (SGU) (SGG) (SGU) (SGU) (SGG) (PIG) (PIG)
                 (PIU) (PIU) (SGG) (SGU) (SGG) (SGU) (PIU) (PIU)
                 (PIG) (PIG) (SGG) (PIU) (PIU) (PIG) (PIG) (DLTG)
                 (DLTG) (DLTU) (DLTU) (SGU) (SGG) (SGU) (PIU) (PIU)
       Virtual   (SGG) (SGU) (PIU) (PIU) (PIG) (PIG) (SGG) (SGG)
                 (PIG) (PIG) (SGU) (SGU) (PIU) (PIU) (SGG) (PIG)
                 (PIG) (DLTG) (DLTG) (SGG) (SGU) (PIU) (PIU) (SGU)
                 (DLTU) (DLTU) (SGG) (PIU) (PIU) (PIG) (PIG) (SGG)
                 (PIG) (PIG) (SGU) (SGU) (DLTG) (DLTG) (PHIU) (PHIU)
                 (PIU) (PIU) (DLTG) (DLTG) (SGG) (DLTU) (DLTU)
                 (PHIG) (PHIG) (SGU) (SGG) (PIG) (PIG) (PIU) (PIU)
                 (DLTU) (DLTU) (SGG) (PIG) (PIG) (PIU) (PIU) (SGU)
                 (SGU) (PIG) (PIG) (SGG) (PIU) (PIU) (SGG) (DLTG)
                 (DLTG) (PHIU) (PHIU) (DLTG) (DLTG) (SGU) (DLTU)
                 (DLTU) (PIG) (PIG) (PHIU) (PHIU) (?A) (?A) (PHIG)
                 (PHIG) (SGG) (PIU) (PIU) (?B) (?B) (DLTG) (DLTG)
                 (DLTU) (DLTU) (SGU) (SGG) (PHIG) (PHIG) (SGU)
                 (PIG) (PIG) (SGU) (PIU) (PIU) (PIU) (PIU) (PIG)
                 (PIG) (SGG) (DLTU) (DLTU) (?A) (?A) (?C) (?C)
                 (PHIU) (PHIU) (?D) (?D) (SGG) (PIG) (PIG) (?B)
                 (?B) (PIU) (PIU) (DLTG) (DLTG) (SGG) (SGU) (PIG)
                 (PIG) (PHIG) (PHIG) (DLTU) (DLTU) (SGU) (DLTG)
                 (DLTG) (PHIU) (PHIU) (PIU) (PIU) (DLTG) (DLTG)
                 (PHIG) (PHIG) (DLTU) (DLTU) (SGG) (SGU) (PIG)
                 (PIG) (SGG) (PIU) (PIU) (SGU) (?C) (?C) (?A) (?A)
                 (DLTU) (DLTU) (?E) (?E) (?F) (?F) (PHIU) (PHIU)
                 (SGU) (SGG) (DLTG) (DLTG) (?D) (?D) (SGU) (PIG)
                 (PIG) (PIU) (PIU) (PIG) (PIG) (?B) (?B) (PIU)
                 (PIU) (?A) (?A) (SGG) (PHIU) (PHIU) (?B) (?B)
                 (PHIG) (PHIG) (PIG) (PIG) (SGU) (DLTU) (DLTU)
                 (SGG) (DLTG) (DLTG) (PHIG) (PHIG) (PIU) (PIU)
                 (?A) (?A) (?C) (?C) (SGG) (PHIU) (PHIU) (?D) (?D)
                 (?B) (?B) (PIG) (PIG) (DLTU) (DLTU) (DLTG) (DLTG)
                 (SGU) (PHIG) (PHIG) (SGG) (PIU) (PIU) (DLTU) (DLTU)
                 (SGU) (PIG) (PIG) (PHIU) (PHIU) (SGU) (DLTG) (DLTG)
                 (PHIG) (PHIG) (PIU) (PIU) (SGG) (DLTU) (DLTU)
                 (DLTG) (DLTG) (PIG) (PIG) (?A) (?A) (DLTU) (DLTU)
                 (SGU) (PIU) (PIU) (?C) (?C) (PHIU) (PHIU) (?E)
                 (?E) (?G) (?G) (?H) (?H) (?F) (?F) (?D) (?D) (SGG)
                 (PIG) (PIG) (DLTG) (DLTG) (SGG) (SGU) (?B) (?B)
                 (SGU) (PIU) (PIU) (PIG) (PIG) (PIU) (PIU) (SGG)
                 (?C) (?C) (PHIG) (PHIG) (?E) (?E) (?A) (?A) (?F)
                 (?F) (SGU) (PIG) (PIG) (?D) (?D) (PHIU) (PHIU)
                 (DLTU) (DLTU) (?B) (?B) (SGG) (DLTG) (DLTG) (PIU)
                 (PIU) (PHIG) (PHIG) (DLTU) (DLTU) (PIG) (PIG)
                 (SGG) (SGU) (SGU) (?A) (?A) (?C) (?C) (?D) (?D)
                 (PHIU) (PHIU) (?B) (?B) (DLTG) (DLTG) (DLTU) (DLTU)
                 (PHIG) (PHIG) (PIG) (PIG) (?A) (?A) (PHIU) (PHIU)
                 (?B) (?B) (PIU) (PIU) (SGG) (SGU) (PHIG) (PHIG)
                 (SGG) (DLTG) (DLTG) (PHIU) (PHIU) (PHIG) (PHIG)
                 (DLTU) (DLTU) (PIU) (PIU) (DLTG) (DLTG) (PIG)
                 (PIG) (SGU) (DLTU) (DLTU) (PIU) (PIU) (SGG) (PIG)
                 (PIG) (SGU) (DLTG) (DLTG) (DLTU) (DLTU) (PIU)
                 (PIU) (PIG) (PIG) (SGG) (SGU) (PIU) (PIU) (PIG)
                 (PIG) (SGG) (SGU) (SGG) (SGU) (?A) (?A) (PHIU)
                 (PHIU) (?B) (?B) (PHIG) (PHIG) (DLTG) (DLTG) (SGG)
                 (DLTU) (DLTU) (PIU) (PIU) (PIG) (PIG) (SGU) (SGG)
                 (SGU)
 The electronic state is 3-SGG.
 Alpha  occ. eigenvalues -- -378.82693-378.82693 -48.17711 -48.17711 -42.50326
 Alpha  occ. eigenvalues --  -42.50326 -42.50326 -42.50326 -42.50276 -42.50275
 Alpha  occ. eigenvalues --   -6.40466  -6.40459  -4.49355  -4.49292  -4.49292
 Alpha  occ. eigenvalues --   -4.49292  -4.49284  -4.49284  -1.21191  -1.20757
 Alpha  occ. eigenvalues --   -1.20757  -1.20299  -1.20299  -1.20197  -1.20197
 Alpha  occ. eigenvalues --   -1.20186  -1.20186  -1.19898  -0.56714  -0.37693
 Alpha  occ. eigenvalues --   -0.23004  -0.23004
 Alpha virt. eigenvalues --   -0.02551   0.01432   0.01854   0.01854   0.02008
 Alpha virt. eigenvalues --    0.02008   0.02305   0.03598   0.03598   0.03686
 Alpha virt. eigenvalues --    0.06079   0.08158   0.08280   0.08280   0.08482
 Alpha virt. eigenvalues --    0.10706   0.10706   0.14468   0.14468   0.17043
 Alpha virt. eigenvalues --    0.18201   0.19647   0.19647   0.21669   0.21759
 Alpha virt. eigenvalues --    0.21759   0.23892   0.27135   0.27135   0.28332
 Alpha virt. eigenvalues --    0.28332   0.30277   0.30325   0.30325   0.33683
 Alpha virt. eigenvalues --    0.41667   0.42494   0.42494   0.43247   0.43247
 Alpha virt. eigenvalues --    0.45028   0.45028   0.49138   0.49138   0.49201
 Alpha virt. eigenvalues --    0.51589   0.51589   0.52190   0.52190   0.54171
 Alpha virt. eigenvalues --    0.55835   0.59746   0.59746   0.61214   0.61214
 Alpha virt. eigenvalues --    0.63700   0.63700   0.63904   0.68665   0.68665
 Alpha virt. eigenvalues --    0.68793   0.68793   0.71449   0.76392   0.79170
 Alpha virt. eigenvalues --    0.79170   0.84349   0.97196   0.97196   1.00265
 Alpha virt. eigenvalues --    1.02951   1.02951   1.08914   1.08914   1.09669
 Alpha virt. eigenvalues --    1.09669   1.11398   1.11398   1.11631   1.11886
 Alpha virt. eigenvalues --    1.11886   1.13712   1.13712   1.14063   1.14063
 Alpha virt. eigenvalues --    1.17962   1.17962   1.20193   1.21493   1.21493
 Alpha virt. eigenvalues --    1.22411   1.22411   1.27167   1.27167   1.28081
 Alpha virt. eigenvalues --    1.28081   1.31374   1.33464   1.35048   1.35048
 Alpha virt. eigenvalues --    1.38224   1.38862   1.38862   1.43758   1.47477
 Alpha virt. eigenvalues --    1.47477   1.53055   1.53055   1.55125   1.55125
 Alpha virt. eigenvalues --    1.55189   1.57271   1.57271   1.57894   1.57894
 Alpha virt. eigenvalues --    1.62550   1.62550   1.69959   1.69959   1.70109
 Alpha virt. eigenvalues --    1.70109   1.77502   1.80489   1.80489   1.84438
 Alpha virt. eigenvalues --    1.84438   1.88091   1.88091   1.90742   1.90742
 Alpha virt. eigenvalues --    1.91013   1.92036   2.01889   2.01889   2.09202
 Alpha virt. eigenvalues --    2.09202   2.16036   2.16036   2.17763   2.27380
 Alpha virt. eigenvalues --    2.27380   2.28819   2.28819   2.30068   2.30068
 Alpha virt. eigenvalues --    2.30288   2.30288   2.34602   2.34602   2.34998
 Alpha virt. eigenvalues --    2.34998   2.36872   2.43455   2.46620   2.46620
 Alpha virt. eigenvalues --    2.52303   2.59349   2.59349   2.60231   2.63590
 Alpha virt. eigenvalues --    2.63590   2.65483   2.65483   2.68883   2.68883
 Alpha virt. eigenvalues --    2.72526   2.72526   2.76913   2.76913   2.78796
 Alpha virt. eigenvalues --    2.78796   2.81508   2.86237   2.86800   2.86800
 Alpha virt. eigenvalues --    2.88796   2.88796   2.95104   2.95834   2.95834
 Alpha virt. eigenvalues --    2.98407   2.98407   3.04375   3.04375   3.12516
 Alpha virt. eigenvalues --    3.12516   3.13074   3.13074   3.16045   3.16045
 Alpha virt. eigenvalues --    3.21045   3.21794   3.21794   3.23845   3.23845
 Alpha virt. eigenvalues --    3.24470   3.24470   3.32960   3.32960   3.40338
 Alpha virt. eigenvalues --    3.40684   3.40684   3.46281   3.48794   3.48794
 Alpha virt. eigenvalues --    3.64526   3.64526   3.65715   3.65715   3.67081
 Alpha virt. eigenvalues --    3.67081   3.69648   3.69648   3.71182   3.72983
 Alpha virt. eigenvalues --    3.72983   3.73478   3.73478   3.82260   3.82260
 Alpha virt. eigenvalues --    3.86226   3.86226   3.92151   3.92151   3.94279
 Alpha virt. eigenvalues --    3.94279   3.97059   3.98312   3.98312   4.00382
 Alpha virt. eigenvalues --    4.02249   4.02249   4.10274   4.10274   4.13360
 Alpha virt. eigenvalues --    4.31475   4.31475   4.45325   4.45325   4.46539
 Alpha virt. eigenvalues --    4.49486   4.49486   4.50728   4.50728   4.64913
 Alpha virt. eigenvalues --    4.64913   4.65215   4.66161   4.66161   4.73731
 Alpha virt. eigenvalues --    4.73731   4.88615   4.88615   5.00753   5.00753
 Alpha virt. eigenvalues --    5.01260   5.01260   5.01397   5.05179   5.05179
 Alpha virt. eigenvalues --    5.06842   5.06842   5.16027   5.16027   5.17665
 Alpha virt. eigenvalues --    5.17665   5.21765   5.21765   5.22494   5.22494
 Alpha virt. eigenvalues --    5.25865   5.25865   5.40970   5.40970   5.47627
 Alpha virt. eigenvalues --    5.47870   5.47870   5.51331   5.51331   5.65982
 Alpha virt. eigenvalues --    5.75438   5.76657   5.76657   5.83831   5.93051
 Alpha virt. eigenvalues --    5.93051   5.99958   5.99958   6.00232   6.00232
 Alpha virt. eigenvalues --    6.02520   6.24657   6.24657   6.25696   6.25696
 Alpha virt. eigenvalues --    6.27703   6.27703   6.28500   6.28500   6.29818
 Alpha virt. eigenvalues --    6.29818   6.30149   6.30775   6.30775   6.35672
 Alpha virt. eigenvalues --    6.35672   6.45422   6.45422   6.47242   6.47242
 Alpha virt. eigenvalues --    6.51009   6.51009   6.60159   6.65663   6.65663
 Alpha virt. eigenvalues --    6.73762   6.73762   6.82526   6.82526   6.83607
 Alpha virt. eigenvalues --    6.83607   6.91644   6.91644   6.96931   7.04125
 Alpha virt. eigenvalues --    7.20341   7.34161   7.34161   7.36159   7.36159
 Alpha virt. eigenvalues --    7.39035   7.39035   7.39171   7.39171   7.44693
 Alpha virt. eigenvalues --    7.44693   7.45425   7.45425   7.47629   7.47629
 Alpha virt. eigenvalues --    7.49498   7.49498   7.49811   7.49811   7.63450
 Alpha virt. eigenvalues --    7.63450   7.66139   7.66139   7.66982   7.66982
 Alpha virt. eigenvalues --    7.71021   7.71021   7.74721   7.78689   7.83692
 Alpha virt. eigenvalues --    7.83692   7.96023   7.97296   7.97296   8.04909
 Alpha virt. eigenvalues --    8.04909   8.09538   8.09538   8.10334   8.10334
 Alpha virt. eigenvalues --    8.17325   8.17325   8.18891   8.18891   8.24446
 Alpha virt. eigenvalues --    8.24446   8.34793   8.48115   8.48115   8.68593
 Alpha virt. eigenvalues --    8.68593   8.74417   9.13387   9.13387   9.41902
 Alpha virt. eigenvalues --    9.98334   9.98334  10.12641  10.12641  10.58129
 Alpha virt. eigenvalues --   10.58129  10.84972  10.84972  11.32933  11.50537
 Alpha virt. eigenvalues --   13.11931  13.11931  13.15719  13.15719  13.28859
 Alpha virt. eigenvalues --   13.50909  14.00308  14.13630  17.79825  17.79825
 Alpha virt. eigenvalues --   17.80426  17.80426  17.81435  17.81435  17.87139
 Alpha virt. eigenvalues --   17.87139  17.94930  17.94930  17.98139  18.01514
 Alpha virt. eigenvalues --   18.01514  18.23530  18.23530  18.46232  18.46232
 Alpha virt. eigenvalues --   18.90141 450.13683 450.82005
          Condensed to atoms (all electrons):
              1          2
     1  Ga  30.669702   0.330298
     2  Ga   0.330298  30.669702
 Mulliken atomic charges:
              1
     1  Ga   0.000000
     2  Ga   0.000000
 Sum of Mulliken atomic charges =   0.00000
 Mulliken charges with hydrogens summed into heavy atoms:
              1
     1  Ga   0.000000
     2  Ga   0.000000
 Sum of Mulliken charges with hydrogens summed into heavy atoms =   0.00000
          Atomic-Atomic Spin Densities.
              1          2
     1  Ga   0.686788   0.313212
     2  Ga   0.313212   0.686788
 Mulliken atomic spin densities:
              1
     1  Ga   1.000000
     2  Ga   1.000000
 Sum of Mulliken atomic spin densities =   2.00000
 Electronic spatial extent (au):  <R**2>=            421.4919
 Charge=              0.0000 electrons
 Dipole moment (field-independent basis, Debye):
    X=              0.0000    Y=              0.0000    Z=              0.0000  Tot=              0.0000
 Quadrupole moment (field-independent basis, Debye-Ang):
   XX=            -37.7924   YY=            -37.7924   ZZ=            -27.4502
   XY=              0.0000   XZ=              0.0000   YZ=              0.0000
 Traceless Quadrupole moment (field-independent basis, Debye-Ang):
   XX=             -3.4474   YY=             -3.4474   ZZ=              6.8948
   XY=              0.0000   XZ=              0.0000   YZ=              0.0000
 Octapole moment (field-independent basis, Debye-Ang**2):
  XXX=              0.0000  YYY=              0.0000  ZZZ=              0.0000  XYY=              0.0000
  XXY=              0.0000  XXZ=              0.0000  XZZ=              0.0000  YZZ=              0.0000
  YYZ=              0.0000  XYZ=              0.0000
 Hexadecapole moment (field-independent basis, Debye-Ang**3):
 XXXX=            -88.1322 YYYY=            -88.1322 ZZZZ=           -323.5959 XXXY=              0.0000
 XXXZ=              0.0000 YYYX=              0.0000 YYYZ=              0.0000 ZZZX=              0.0000
 ZZZY=              0.0000 XXYY=            -29.3774 XXZZ=            -73.8698 YYZZ=            -73.8698
 XXYZ=              0.0000 YYXZ=              0.0000 ZZXY=              0.0000
 N-N= 2.037277794156D+02 E-N=-1.441696944490D+04  KE= 5.769091577875D+03
                          Isotropic Fermi Contact Couplings
        Atom                 a.u.       MegaHertz       Gauss      10(-4) cm-1
     1  Ga(69)             0.00000       0.00000       0.00000       0.00000
     2  Ga(69)             0.00000       0.00000       0.00000       0.00000
 --------------------------------------------------------
       Center         ----  Spin Dipole Couplings  ----
                      3XX-RR        3YY-RR        3ZZ-RR
 --------------------------------------------------------
     1   Atom        0.530154      0.530154     -1.060309
     2   Atom        0.530154      0.530154     -1.060309
 --------------------------------------------------------
                        XY            XZ            YZ
 --------------------------------------------------------
     1   Atom        0.000000      0.000000      0.000000
     2   Atom        0.000000      0.000000      0.000000
 --------------------------------------------------------


 ---------------------------------------------------------------------------------
              Anisotropic Spin Dipole Couplings in Principal Axis System
 ---------------------------------------------------------------------------------

       Atom             a.u.   MegaHertz   Gauss  10(-4) cm-1        Axes

              Baa    -1.0603  -136.163   -48.586   -45.419  0.0000  0.0000  1.0000
     1 Ga(69) Bbb     0.5302    68.081    24.293    22.710  0.0000  1.0000  0.0000
              Bcc     0.5302    68.081    24.293    22.710  1.0000  0.0000  0.0000
 
              Baa    -1.0603  -136.163   -48.586   -45.419  0.0000  0.0000  1.0000
     2 Ga(69) Bbb     0.5302    68.081    24.293    22.710 -0.0001  1.0000  0.0000
              Bcc     0.5302    68.081    24.293    22.710  1.0000  0.0001  0.0000
 

 ---------------------------------------------------------------------------------


 Test job not archived.
 1\1\GINC-C33\SP\ROMP2-RW\Gen\Ga2(3)\GPETERSSON\26-Aug-2012\0\\# ROMP2(
 RW) Gen GFinput Int=NoBasisTransform Int(Grid=Ultrafine) IOp(3/32=2,5/
 6=10,8/11=1,9/33=1) Maxdisk=128GB CBSextrapolate(Nmin=25,MinPop)\\Ga2\
 \0,3\Ga\Ga,1,2.49617062\\Version=EM64L-G09RevA.02\State=3-SGG\HF=-3846
 .5376278\MP2=-3846.6489237\E2(CBS)=-0.1135214\CBS-Int=-0.1120642\OIii=
 0.3813069\RMSD=3.874e-11\PG=D*H [C*(Ga1.Ga1)]\\@


 THOSE WITH THE GOLD MAKE THE RULES.

             -- PETER'S GOLDEN RULE
 Job cpu time:  2 days  6 hours 11 minutes 24.1 seconds.
 File lengths (MBytes):  RWF=   4324 Int=      0 D2E=      0 Chk=     16 Scr=      1
 Normal termination of Gaussian 09 at Sun Aug 26 06:48:27 2012.
