 Entering Gaussian System, Link 0=g09
 AtFile(1): 4ZaP-NR.gbs
 Initial command:
 /share/apps/gaussian/g09root/g09/l1.exe /localscratch/739816/Gau-1404.inp -scrdir=/localscratch/739816/
 Entering Link 1 = /share/apps/gaussian/g09root/g09/l1.exe PID=      1405.
  
 Copyright (c) 1988,1990,1992,1993,1995,1998,2003,2009, Gaussian, Inc.
                  All Rights Reserved.
  
 This is part of the Gaussian(R) 09 program.  It is based on
 the Gaussian(R) 03 system (copyright 2003, Gaussian, Inc.),
 the Gaussian(R) 98 system (copyright 1998, Gaussian, Inc.),
 the Gaussian(R) 94 system (copyright 1995, Gaussian, Inc.),
 the Gaussian 92(TM) system (copyright 1992, Gaussian, Inc.),
 the Gaussian 90(TM) system (copyright 1990, Gaussian, Inc.),
 the Gaussian 88(TM) system (copyright 1988, Gaussian, Inc.),
 the Gaussian 86(TM) system (copyright 1986, Carnegie Mellon
 University), and the Gaussian 82(TM) system (copyright 1983,
 Carnegie Mellon University). Gaussian is a federally registered
 trademark of Gaussian, Inc.
  
 This software contains proprietary and confidential information,
 including trade secrets, belonging to Gaussian, Inc.
  
 This software is provided under written license and may be
 used, copied, transmitted, or stored only in accord with that
 written license.
  
 The following legend is applicable only to US Government
 contracts under FAR:
  
                    RESTRICTED RIGHTS LEGEND
  
 Use, reproduction and disclosure by the US Government is
 subject to restrictions as set forth in subparagraphs (a)
 and (c) of the Commercial Computer Software - Restricted
 Rights clause in FAR 52.227-19.
  
 Gaussian, Inc.
 340 Quinnipiac St., Bldg. 40, Wallingford CT 06492
  
  
 ---------------------------------------------------------------
 Warning -- This program may not be used in any manner that
 competes with the business of Gaussian, Inc. or will provide
 assistance to any competitor of Gaussian, Inc.  The licensee
 of this program is prohibited from giving any competitor of
 Gaussian, Inc. access to this program.  By using this program,
 the user acknowledges that Gaussian, Inc. is engaged in the
 business of creating and licensing software in the field of
 computational chemistry and represents and warrants to the
 licensee that it is not a competitor of Gaussian, Inc. and that
 it will not use this program in any manner prohibited above.
 ---------------------------------------------------------------
  

 Cite this work as:
 Gaussian 09, Revision A.02,
 M. J. Frisch, G. W. Trucks, H. B. Schlegel, G. E. Scuseria, 
 M. A. Robb, J. R. Cheeseman, G. Scalmani, V. Barone, B. Mennucci, 
 G. A. Petersson, H. Nakatsuji, M. Caricato, X. Li, H. P. Hratchian, 
 A. F. Izmaylov, J. Bloino, G. Zheng, J. L. Sonnenberg, M. Hada, 
 M. Ehara, K. Toyota, R. Fukuda, J. Hasegawa, M. Ishida, T. Nakajima, 
 Y. Honda, O. Kitao, H. Nakai, T. Vreven, J. A. Montgomery, Jr., 
 J. E. Peralta, F. Ogliaro, M. Bearpark, J. J. Heyd, E. Brothers, 
 K. N. Kudin, V. N. Staroverov, R. Kobayashi, J. Normand, 
 K. Raghavachari, A. Rendell, J. C. Burant, S. S. Iyengar, J. Tomasi, 
 M. Cossi, N. Rega, J. M. Millam, M. Klene, J. E. Knox, J. B. Cross, 
 V. Bakken, C. Adamo, J. Jaramillo, R. Gomperts, R. E. Stratmann, 
 O. Yazyev, A. J. Austin, R. Cammi, C. Pomelli, J. W. Ochterski, 
 R. L. Martin, K. Morokuma, V. G. Zakrzewski, G. A. Voth, 
 P. Salvador, J. J. Dannenberg, S. Dapprich, A. D. Daniels, 
 O. Farkas, J. B. Foresman, J. V. Ortiz, J. Cioslowski, 
 and D. J. Fox, Gaussian, Inc., Wallingford CT, 2009.
 
 ******************************************
 Gaussian 09:  EM64L-G09RevA.02 11-Jun-2009
                29-Aug-2012 
 ******************************************
 % Mem=12GB
 % Nproc=8
 Will use up to    8 processors via shared memory.
 ----------------------------------------------------------------------
 # ROCCSD(T,RW) Gen GFinput Int=NoBasisTransform Int(Grid=Ultrafine) IO
 p(3/32=2,5/6=10,8/11=1,9/33=1) Maxdisk=128GB Opt=(Tight,Z-Matrix)
 ----------------------------------------------------------------------

 Warning:  this job cannot use analytic gradients
           and so will do many energy evaluations.

 1/7=10,18=40,29=20000,38=1/1,14;
 2/12=2,17=6,18=5,29=3,40=1/2;
 3/5=7,11=2,16=1,24=10,25=1,30=1,32=2,60=-1,75=-5,116=101/1,2,3;
 4//1;
 5/5=2,6=10,38=5/2;
 8/5=-1,6=4,9=120000,10=91,11=1/1,4;
 9/5=7,14=2,33=1/13;
 6/7=2,8=2,9=2,10=2/1;
 1/7=10,18=40/14(2);
 2/29=3/2;
 99//99;
 2/29=3/2;
 3/5=7,6=1,11=2,16=1,25=1,30=1,32=2,60=-1,75=-5,82=7,116=101/1,2,3;
 4/5=5,16=3/1;
 5/5=2,6=10,23=1,38=5/2;
 8/5=-1,6=4,9=120000,10=93,11=1/1,4;
 9/5=7,14=2,33=1/13;
 1/7=10,18=40/14(-6);
 2/29=3/2;
 6/7=2,8=2,9=2,10=2/1;
 99//99;
 ---
 Ga2
 ---
 Symbolic Z-matrix:
 Charge =  0 Multiplicity = 3
 Ga
 Ga                   1    R
       Variables:
  R                     2.49617                  
 

 NEF-NEF-NEF-NEF-NEF-NEF-NEF-NEF-NEF-NEF-NEF-NEF-NEF-NEF-NEF-NEF-NEF-NEF-
 NUMERICAL EIGENVECTOR FOLLOWING MINIMUM SEARCH
 INITIALIZATION PASS
                       ----------------------------
                       !    Initial Parameters    !
                       ! (Angstroms and Degrees)  !
 ----------------------                            ----------------------
 !      Name          Value   Derivative information (Atomic Units)     !
 ------------------------------------------------------------------------
 !        R          2.4962   estimate D2E/DX2                          !
 ------------------------------------------------------------------------


 ***************************************************
 ** O P T I M I Z A T I O N   P A R A M E T E R S **
 **  MAXIMUM NO. OF ITERATIONS      :          21 **
 **  MAXIMUM ALLOWED STEP LENGTH    :    0.300000 **
 ***************************************************



 NEF-NEF-NEF-NEF-NEF-NEF-NEF-NEF-NEF-NEF-NEF-NEF-NEF-NEF-NEF-NEF-NEF-NEF-
 ---------------------------------------------------------------------------------------------------
                            Z-MATRIX (ANGSTROMS AND DEGREES)
   CD    Cent   Atom    N1       Length/X        N2       Alpha/Y        N3        Beta/Z          J
 ---------------------------------------------------------------------------------------------------
      1      1  Ga
      2      2  Ga       1   2.496171(     1)
 ---------------------------------------------------------------------------------------------------
                         Z-Matrix orientation:                         
 ---------------------------------------------------------------------
 Center     Atomic      Atomic             Coordinates (Angstroms)
 Number     Number       Type             X           Y           Z
 ---------------------------------------------------------------------
      1         31           0        0.000000    0.000000    0.000000
      2         31           0        0.000000    0.000000    2.496171
 ---------------------------------------------------------------------
 Stoichiometry    Ga2(3)
 Framework group  D*H[C*(Ga.Ga)]
 Deg. of freedom     1
 Full point group                 D*H     NOp   8
 Largest Abelian subgroup         D2H     NOp   8
 Largest concise Abelian subgroup C2      NOp   2
                         Standard orientation:                         
 ---------------------------------------------------------------------
 Center     Atomic      Atomic             Coordinates (Angstroms)
 Number     Number       Type             X           Y           Z
 ---------------------------------------------------------------------
      1         31           0        0.000000    0.000000    1.248085
      2         31           0        0.000000    0.000000   -1.248085
 ---------------------------------------------------------------------
 Rotational constants (GHZ):      0.0000000      2.3535218      2.3535218
 General basis read from cards:  (5D, 7F)
 AO basis set in the form of general basis input (Overlap normalization):
      1 0
 S  14 1.00       0.000000000000
      0.6218969400D+07  0.7762035775D-05
      0.1101751090D+07  0.5217894658D-04
      0.2462305880D+06  0.2996613288D-03
      0.6647962550D+05  0.1345916348D-02
      0.2089420140D+05  0.5050564769D-02
      0.7407794270D+04  0.1630903616D-01
      0.2885164490D+04  0.4608171182D-01
      0.1207383880D+04  0.1131706217D+00
      0.5329599320D+03  0.2301193158D+00
      0.2443603370D+03  0.3457899646D+00
      0.1148741750D+03  0.2952737699D+00
      0.5475437700D+02  0.9041214937D-01
      0.2619838700D+02  0.4740356499D-02
      0.1246447600D+02  0.1590463961D-02
 S  12 1.00       0.000000000000
      0.2089420140D+05 -0.5184830963D-05
      0.7407794270D+04 -0.6891338934D-04
      0.2885164490D+04 -0.4796768588D-03
      0.1207383880D+04 -0.3086164641D-02
      0.5329599320D+03 -0.1430206871D-01
      0.2443603370D+03 -0.5224895284D-01
      0.1148741750D+03 -0.1009555460D+00
      0.5475437700D+02  0.7390979096D-02
      0.2619838700D+02  0.4403195533D+00
      0.1246447600D+02  0.5382989455D+00
      0.5840586000D+01  0.1240500098D+00
      0.2667719000D+01  0.4120522738D-02
 P  11 1.00       0.000000000000
      0.1306545420D+05 -0.1285206995D-03
      0.3267207980D+04 -0.1102029345D-02
      0.1031334460D+04 -0.6688402526D-02
      0.3862878680D+03 -0.2835700408D-01
      0.1631208570D+03 -0.9066296907D-01
      0.7448946800D+02 -0.2142022398D+00
      0.3557061900D+02 -0.3571072209D+00
      0.1729297600D+02 -0.3465467757D+00
      0.8378550000D+01 -0.1312773914D+00
      0.3976662000D+01 -0.1183467386D-01
      0.1822477000D+01 -0.1103838423D-02
 S  10 1.00       0.000000000000
      0.2443603370D+03  0.5901859516D-03
      0.1148741750D+03  0.2406279777D-02
      0.5475437700D+02  0.2738986431D-02
      0.2619838700D+02 -0.6586941761D-01
      0.1246447600D+02 -0.2338027510D+00
      0.5840586000D+01  0.7033465624D-01
      0.2667719000D+01  0.6579709240D+00
      0.1173945000D+01  0.4324877711D+00
      0.4909420000D+00  0.2484732468D-01
      0.1919510000D+00  0.3432049870D-02
 P  10 1.00       0.000000000000
      0.3862878680D+03 -0.1543479214D-03
      0.1631208570D+03 -0.1374979840D-02
      0.7448946800D+02 -0.6798976026D-02
      0.3557061900D+02 -0.1965231869D-01
      0.1729297600D+02 -0.1597239822D-01
      0.8378550000D+01  0.1441380041D+00
      0.3976662000D+01  0.4123508326D+00
      0.1822477000D+01  0.4291533826D+00
      0.7961160000D+00  0.1439432056D+00
      0.3272640000D+00  0.5615907247D-02
 D  10 1.00       0.000000000000
      0.5262890090D+03  0.3881530993D-03
      0.1590835530D+03  0.3628214140D-02
      0.6110422700D+02  0.1895989853D-01
      0.2676706900D+02  0.6319575762D-01
      0.1249757400D+02  0.1568371761D+00
      0.5978754000D+01  0.2693778495D+00
      0.2862552000D+01  0.3231139405D+00
      0.1344821000D+01  0.2910374953D+00
      0.6026250000D+00  0.1738598285D+00
      0.2452320000D+00  0.4451348352D-01
 S   8 1.00       0.000000000000
      0.2619838700D+02  0.5349915268D-03
      0.1246447600D+02  0.4474709862D-02
      0.5840586000D+01 -0.4260864531D-02
      0.2667719000D+01 -0.4291371652D-01
      0.1173945000D+01 -0.1664248896D+00
      0.4909420000D+00  0.1532272803D-01
      0.1919510000D+00  0.6326220507D+00
      0.6880400000D-01  0.4817979317D+00
 S   1 1.00       0.000000000000
      0.2203000438D-01  0.1000000000D+01
 P   8 1.00       0.000000000000
      0.1729297600D+02  0.5689271334D-04
      0.8378550000D+01 -0.2279448929D-02
      0.3976662000D+01 -0.5472307943D-02
      0.1822477000D+01 -0.1730260341D-01
      0.7961160000D+00  0.3861393644D-02
      0.3272640000D+00  0.2027315663D+00
      0.1248360000D+00  0.5249682388D+00
      0.4346300000D-01  0.4069266840D+00
 P   1 1.00       0.000000000000
      0.1441548650D-01  0.1000000000D+01
 S   1 1.00       0.000000000000
      0.4720920000D+00  0.1000000000D+01
 S   1 1.00       0.000000000000
      0.2839510000D+00  0.1000000000D+01
 P   1 1.00       0.000000000000
      0.7692850000D+00  0.1000000000D+01
 P   1 1.00       0.000000000000
      0.3888660000D+00  0.1000000000D+01
 P   1 1.00       0.000000000000
      0.1965680000D+00  0.1000000000D+01
 D   1 1.00       0.000000000000
      0.4293480000D+00  0.1000000000D+01
 D   1 1.00       0.000000000000
      0.2006560000D+00  0.1000000000D+01
 D   1 1.00       0.000000000000
      0.9377600000D-01  0.1000000000D+01
 F   1 1.00       0.000000000000
      0.4678710000D+00  0.1000000000D+01
 F   1 1.00       0.000000000000
      0.2034980000D+00  0.1000000000D+01
 G   1 1.00       0.000000000000
      0.3984653416D+00  0.1000000000D+01
 ****
      2 0
 S  14 1.00       0.000000000000
      0.6218969400D+07  0.7762035775D-05
      0.1101751090D+07  0.5217894658D-04
      0.2462305880D+06  0.2996613288D-03
      0.6647962550D+05  0.1345916348D-02
      0.2089420140D+05  0.5050564769D-02
      0.7407794270D+04  0.1630903616D-01
      0.2885164490D+04  0.4608171182D-01
      0.1207383880D+04  0.1131706217D+00
      0.5329599320D+03  0.2301193158D+00
      0.2443603370D+03  0.3457899646D+00
      0.1148741750D+03  0.2952737699D+00
      0.5475437700D+02  0.9041214937D-01
      0.2619838700D+02  0.4740356499D-02
      0.1246447600D+02  0.1590463961D-02
 S  12 1.00       0.000000000000
      0.2089420140D+05 -0.5184830963D-05
      0.7407794270D+04 -0.6891338934D-04
      0.2885164490D+04 -0.4796768588D-03
      0.1207383880D+04 -0.3086164641D-02
      0.5329599320D+03 -0.1430206871D-01
      0.2443603370D+03 -0.5224895284D-01
      0.1148741750D+03 -0.1009555460D+00
      0.5475437700D+02  0.7390979096D-02
      0.2619838700D+02  0.4403195533D+00
      0.1246447600D+02  0.5382989455D+00
      0.5840586000D+01  0.1240500098D+00
      0.2667719000D+01  0.4120522738D-02
 P  11 1.00       0.000000000000
      0.1306545420D+05 -0.1285206995D-03
      0.3267207980D+04 -0.1102029345D-02
      0.1031334460D+04 -0.6688402526D-02
      0.3862878680D+03 -0.2835700408D-01
      0.1631208570D+03 -0.9066296907D-01
      0.7448946800D+02 -0.2142022398D+00
      0.3557061900D+02 -0.3571072209D+00
      0.1729297600D+02 -0.3465467757D+00
      0.8378550000D+01 -0.1312773914D+00
      0.3976662000D+01 -0.1183467386D-01
      0.1822477000D+01 -0.1103838423D-02
 S  10 1.00       0.000000000000
      0.2443603370D+03  0.5901859516D-03
      0.1148741750D+03  0.2406279777D-02
      0.5475437700D+02  0.2738986431D-02
      0.2619838700D+02 -0.6586941761D-01
      0.1246447600D+02 -0.2338027510D+00
      0.5840586000D+01  0.7033465624D-01
      0.2667719000D+01  0.6579709240D+00
      0.1173945000D+01  0.4324877711D+00
      0.4909420000D+00  0.2484732468D-01
      0.1919510000D+00  0.3432049870D-02
 P  10 1.00       0.000000000000
      0.3862878680D+03 -0.1543479214D-03
      0.1631208570D+03 -0.1374979840D-02
      0.7448946800D+02 -0.6798976026D-02
      0.3557061900D+02 -0.1965231869D-01
      0.1729297600D+02 -0.1597239822D-01
      0.8378550000D+01  0.1441380041D+00
      0.3976662000D+01  0.4123508326D+00
      0.1822477000D+01  0.4291533826D+00
      0.7961160000D+00  0.1439432056D+00
      0.3272640000D+00  0.5615907247D-02
 D  10 1.00       0.000000000000
      0.5262890090D+03  0.3881530993D-03
      0.1590835530D+03  0.3628214140D-02
      0.6110422700D+02  0.1895989853D-01
      0.2676706900D+02  0.6319575762D-01
      0.1249757400D+02  0.1568371761D+00
      0.5978754000D+01  0.2693778495D+00
      0.2862552000D+01  0.3231139405D+00
      0.1344821000D+01  0.2910374953D+00
      0.6026250000D+00  0.1738598285D+00
      0.2452320000D+00  0.4451348352D-01
 S   8 1.00       0.000000000000
      0.2619838700D+02  0.5349915268D-03
      0.1246447600D+02  0.4474709862D-02
      0.5840586000D+01 -0.4260864531D-02
      0.2667719000D+01 -0.4291371652D-01
      0.1173945000D+01 -0.1664248896D+00
      0.4909420000D+00  0.1532272803D-01
      0.1919510000D+00  0.6326220507D+00
      0.6880400000D-01  0.4817979317D+00
 S   1 1.00       0.000000000000
      0.2203000438D-01  0.1000000000D+01
 P   8 1.00       0.000000000000
      0.1729297600D+02  0.5689271334D-04
      0.8378550000D+01 -0.2279448929D-02
      0.3976662000D+01 -0.5472307943D-02
      0.1822477000D+01 -0.1730260341D-01
      0.7961160000D+00  0.3861393644D-02
      0.3272640000D+00  0.2027315663D+00
      0.1248360000D+00  0.5249682388D+00
      0.4346300000D-01  0.4069266840D+00
 P   1 1.00       0.000000000000
      0.1441548650D-01  0.1000000000D+01
 S   1 1.00       0.000000000000
      0.4720920000D+00  0.1000000000D+01
 S   1 1.00       0.000000000000
      0.2839510000D+00  0.1000000000D+01
 P   1 1.00       0.000000000000
      0.7692850000D+00  0.1000000000D+01
 P   1 1.00       0.000000000000
      0.3888660000D+00  0.1000000000D+01
 P   1 1.00       0.000000000000
      0.1965680000D+00  0.1000000000D+01
 D   1 1.00       0.000000000000
      0.4293480000D+00  0.1000000000D+01
 D   1 1.00       0.000000000000
      0.2006560000D+00  0.1000000000D+01
 D   1 1.00       0.000000000000
      0.9377600000D-01  0.1000000000D+01
 F   1 1.00       0.000000000000
      0.4678710000D+00  0.1000000000D+01
 F   1 1.00       0.000000000000
      0.2034980000D+00  0.1000000000D+01
 G   1 1.00       0.000000000000
      0.3984653416D+00  0.1000000000D+01
 ****

 There are    29 symmetry adapted basis functions of AG  symmetry.
 There are     8 symmetry adapted basis functions of B1G symmetry.
 There are    17 symmetry adapted basis functions of B2G symmetry.
 There are    17 symmetry adapted basis functions of B3G symmetry.
 There are     8 symmetry adapted basis functions of AU  symmetry.
 There are    29 symmetry adapted basis functions of B1U symmetry.
 There are    17 symmetry adapted basis functions of B2U symmetry.
 There are    17 symmetry adapted basis functions of B3U symmetry.
 Integral buffers will be    131072 words long.
 Raffenetti 2 integral format.
 Two-electron integral symmetry is turned on.
   142 basis functions,   518 primitive gaussians,   174 cartesian basis functions
    32 alpha electrons       30 beta electrons
       nuclear repulsion energy       203.7277794156 Hartrees.
 NAtoms=    2 NActive=    2 NUniq=    1 SFac= 3.00D+00 NAtFMM=   80 NAOKFM=F Big=F
 One-electron integrals computed using PRISM.
 NBasis=   142 RedAO= F  NBF=    29     8    17    17     8    29    17    17
 NBsUse=   142 1.00D-04 NBFU=    29     8    17    17     8    29    17    17
 Harris functional with IExCor=  205 diagonalized for initial guess.
 ExpMin= 1.44D-02 ExpMax= 6.22D+06 ExpMxC= 7.41D+03 IAcc=3 IRadAn=         5 AccDes= 0.00D+00
 HarFok:  IExCor=  205 AccDes= 0.00D+00 IRadAn=         5 IDoV= 1
 ScaDFX=  1.000000  1.000000  1.000000  1.000000
 FoFCou: FMM=F IPFlag=           0 FMFlag=      100000 FMFlg1=           0
         NFxFlg=           0 DoJE=T BraDBF=F KetDBF=T FulRan=T
         Omega=  0.000000  0.000000  1.000000  0.000000  0.000000 ICntrl=     500 IOpCl=  0
         NMat0=    1 NMatS0=    1 NMatT0=    0 NMatD0=    1 NMtDS0=    0 NMtDT0=    0
         I1Cent=           4 NGrid=           0.
 Petite list used in FoFCou.
 Initial guess orbital symmetries:
       Occupied  (SGU) (SGG) (SGU) (SGG) (SGU) (SGG) (PIG) (PIG)
                 (PIU) (PIU) (SGG) (SGU) (SGG) (SGU) (PIU) (PIU)
                 (PIG) (PIG) (SGG) (PIU) (PIU) (DLTG) (DLTG) (DLTU)
                 (DLTU) (PIG) (PIG) (SGU) (SGG) (SGU) (PIU) (PIU)
       Virtual   (SGG) (PIG) (PIG) (SGG) (SGU) (PIU) (PIU) (SGG)
                 (PIG) (PIG) (SGU) (SGU) (DLTG) (DLTG) (PIU) (PIU)
                 (SGG) (DLTU) (DLTU) (PIU) (PIU) (PIG) (PIG) (SGU)
                 (SGG) (PIG) (PIG) (SGU) (SGG) (PIU) (PIU) (DLTG)
                 (DLTG) (PHIU) (PHIU) (DLTG) (DLTG) (SGG) (DLTU)
                 (DLTU) (PHIG) (PHIG) (PIG) (PIG) (SGU) (PIU) (PIU)
                 (SGU) (DLTU) (DLTU) (SGG) (PIG) (PIG) (PIU) (PIU)
                 (SGU) (SGG) (PIG) (PIG) (SGG) (PIU) (PIU) (DLTG)
                 (DLTG) (PHIU) (PHIU) (DLTG) (DLTG) (SGU) (DLTU)
                 (DLTU) (PIU) (PIU) (?A) (?A) (PIG) (PIG) (PHIU)
                 (PHIU) (?B) (?B) (PHIG) (PHIG) (DLTG) (DLTG) (SGG)
                 (DLTU) (DLTU) (PHIG) (PHIG) (PIG) (PIG) (SGU)
                 (SGU) (PIU) (PIU) (SGG) (DLTU) (DLTU) (SGU) (SGG)
                 (PIG) (PIG) (PIU) (PIU) (PIG) (PIG) (SGU) (SGG)
                 (SGU)
 The electronic state of the initial guess is 3-SGG.
 Requested convergence on RMS density matrix=1.00D-10 within 128 cycles.
 Requested convergence on MAX density matrix=1.00D-08.
 Requested convergence on             energy=1.00D-08.
 No special actions if energy rises.
 Keep R1 and R2 ints in memory in canonical form, NReq=236436732.
 SCF Done:  E(ROHF) =  -3846.53594010     A.U. after   14 cycles
             Convg  =    0.2174D-10             -V/T =  2.0000
 <Sx>= 0.0000 <Sy>= 0.0000 <Sz>= 1.0000 <S**2>= 2.0000 S= 1.0000
 <L.S>= 0.000000000000E+00
 Annihilation of the first spin contaminant:
 S**2 before annihilation     2.0000,   after     2.0000
 GenMOA:  NOpAll=  8 NOp2=8 NOpUse=  8 JSym2X=1
 <Sx>= 0.0000 <Sy>= 0.0000 <Sz>= 1.0000 <S**2>= 2.0000 S= 1.0000
 Range of M.O.s used for correlation:    19   142
 NBasis=   142 NAE=    32 NBE=    30 NFC=    18 NFV=     0
 NROrb=    124 NOA=    14 NOB=    12 NVA=   110 NVB=   112

 **** Warning!!: The largest alpha MO coefficient is  0.24239283D+02


 **** Warning!!: The largest beta MO coefficient is  0.24233717D+02

 Singles contribution to E2=   -0.1861636379D-02
 Semi-Direct transformation.
 ModeAB=           4 MOrb=            14 LenV=    1609738891
 LASXX=      1549687 LTotXX=     1549687 LenRXX=     3161805
 LTotAB=     1612118 MaxLAS=    14233464 LenRXY=           0
 NonZer=     4711492 LenScr=     7848960 LnRSAI=    14233464
 LnScr1=    22108672 LExtra=     1177323 Total=     48530224
 MaxDsk= 17179869184 SrtSym=           T ITran=            4
 JobTyp=1 Pass  1:  I=   1 to  14.
 (rs|ai) integrals will be sorted in core.
 ModeAB=           4 MOrb=            12 LenV=    1609738891
 LASXX=      1345687 LTotXX=     1345687 LenRXX=     2445199
 LTotAB=     1099512 MaxLAS=    12200112 LenRXY=           0
 NonZer=     3790886 LenScr=     6395904 LnRSAI=    12200112
 LnScr1=    19059200 LExtra=     4339128 Total=     44439543
 MaxDsk= 17179869184 SrtSym=           T ITran=            4
 JobTyp=2 Pass  1:  I=   1 to  12.
 (rs|ai) integrals will be sorted in core.
 Spin components of T(2) and E(2):
     alpha-alpha T2 =       0.3355670083D-01 E2=     -0.7316485716D-01
     alpha-beta  T2 =       0.1015593923D+00 E2=     -0.2521342375D+00
     beta-beta   T2 =       0.1088449471D-01 E2=     -0.4825677042D-01
 ANorm=    0.1071626593D+01
 E2 =    -0.3754175015D+00 EUMP2 =    -0.38469113576054D+04
 (S**2,0)=  0.20000D+01           (S**2,1)=  0.20000D+01
 E(PUHF)=      -0.38465359401D+04        E(PMP2)=      -0.38469113576D+04
 R2 and R3 integrals will be kept in memory, NReq=   236324677.
 Symmetry not used in FoFDir.
 MinBra= 0 MaxBra= 4 Meth= 1.
 IRaf=       0 NMat=   1 IRICut=       1 DoRegI=T DoRafI=F ISym2E= 0 JSym2E=0.
 PrsmSu:  NPrtUS=   8 ThrOK=T IAlg=1
 PRISM was handed   172207761 working-precision words and   897 shell-pairs
 PRISM was handed   172207761 working-precision words and   897 shell-pairs
 PRISM was handed   172207761 working-precision words and   897 shell-pairs
 PRISM was handed   172207761 working-precision words and   897 shell-pairs
 PRISM was handed   172207761 working-precision words and   897 shell-pairs
 PRISM was handed   172207761 working-precision words and   897 shell-pairs
 PRISM was handed   172207761 working-precision words and   897 shell-pairs
 PRISM was handed   172207761 working-precision words and   897 shell-pairs
 IPart=  6 NShTot=       48827 NBatch=        4759 AvBLen=        10.3
 IPart=  5 NShTot=       49031 NBatch=        4868 AvBLen=        10.1
 IPart=  7 NShTot=       48756 NBatch=        4760 AvBLen=        10.2
 IPart=  4 NShTot=       49080 NBatch=        4872 AvBLen=        10.1
 IPart=  2 NShTot=       50856 NBatch=        6396 AvBLen=         8.0
 IPart=  3 NShTot=       50715 NBatch=        6379 AvBLen=         8.0
 IPart=  1 NShTot=       51215 NBatch=        6507 AvBLen=         7.9
 IPart=  0 NShTot=       51439 NBatch=        6570 AvBLen=         7.8
 Iterations=  50 Convergence= 0.100D-06
 A(0)= 0.10000E+01      ANORM= 0.10705E+01      W(0)=-0.37355587E+00
 Singles contributions to ROMP2 energy
Alpha= -0.9104990251049E-03
Beta=  -0.9511373534114E-03
 Iteration Nr.   1
 **********************
 DD1Dir will call FoFMem   1 times, MxPair=       494
 NAB=   168 NAA=    91 NBB=    66.
 DD1Dir:  Pass   1 NRAB=   168 NRAA=    91 NRBB=    66 NR=   493.
 DD1Dir will call FoFMem   1 times, MxPair=       494
 NAB=   168 NAA=    91 NBB=    66.
 DD1Dir:  Pass   1 NRAB=   168 NRAA=    91 NRBB=    66 NR=   493.
 TestDE:  II= 99 I=2 DE=    0.583958235258D-01
 TestDE:  II= 99 I=1 DE=    0.128122568743D-01
 TestDE:  II= 99 I=3 DE=    0.552297108777D-02
 TestDE:  II= 19 I=1 DE=   -0.939779706610D-06
 TestDE:  II= 19 I=2 DE=   -0.564240348309D-05
 TestDE:  II= 19 I=3 DE=   -0.157584568679D-05
 Contribution from DD1=   -0.81580289D-05
 ExpSMa:  Full in-core algorithm.
 ExpSMa:  Full in-core algorithm.
 ExpSMa:  Full in-core algorithm.
 ExpSMa:  Full in-core algorithm.
 ExpSMa:  Full in-core algorithm.
 ExpSMa:  Full in-core algorithm.
 ExpSMa:  Full in-core algorithm.
 ExpSMa:  Full in-core algorithm.
 ExpSMa:  Full in-core algorithm.
 ExpSMa:  Full in-core algorithm.
 ExpSMa:  Full in-core algorithm.
 ExpSMa:  Full in-core algorithm.
 ExpSMa:  Full in-core algorithm.
 ExpSMa:  Full in-core algorithm.
 ExpSMa:  Full in-core algorithm.
 ExpSMa:  Full in-core algorithm.
 TestDE:  II= 70 I=2 DE=    0.397145791478D-05
 TestDE:  II= 50 I=1 DE=   -0.740339087006D-05
 TestDE:  II= 90 I=3 DE=    0.251991612018D-05
 Contribution from DD2=    0.72460120D-05
 TestDE:  II=  5 I=1 DE=   -0.211225195379D-01
 TestDE:  II=  5 I=1 DE=    0.166333697944D-04
 TestDE:  II=  7 I=2 DE=    0.397145791478D-05
 TestDE:  II=  7 I=2 DE=   -0.707512002663D-04
 TestDE:  II=  8 I=2 DE=   -0.873949085709D-01
 TestDE:  II=  8 I=2 DE=   -0.179459548409D-04
 TestDE:  II=  9 I=3 DE=   -0.809788394533D-02
 TestDE:  II=  9 I=3 DE=   -0.356292359983D-04
 Contribution from DD3=   -0.11166448D-03
 Singles added:  Sum=   -0.11261639D-03
 Entering DoROCS
 GetDE: DE=      0.00000000D+00
 MP3 Singles =       -0.21197666633D-03 Doubles=        0.11605335626D-01
 Linear MP4 energy terms:
 Singles =       -0.15262661595D-01
 Doubles =       -0.11350607331D-01
 Mixed  =        0.56460352147D-05
 Total MP4L =       -0.26607622891D-01
 TestDE:  II= 99 I=2 DE=   -0.125784599230D-02
 TestDE:  II= 99 I=1 DE=   -0.117402218009D-03
 TestDE:  II= 99 I=3 DE=   -0.506877271514D-04
 TestDE:  II= 99 I=1 DE=    0.107831089612D-02
 TestDE:  II= 11 I=2 DE=   -0.125784599230D-02
 TestDE:  II= 99 I=2 DE=    0.487849156529D-03
 TestDE:  II= 98 I=2 DE=    0.205660009679D-02
 TestDE:  II= 98 I=3 DE=    0.281895313069D-03
 TestDE:  II= 89 I=1 DE=    0.360787916766D-02
 TestDE:  II= 89 I=2 DE=    0.589845663247D-02
 TestDE:  II= 88 I=3 DE=    0.101445349766D-02
 TestDE:  II= 88 I=2 DE=    0.108989911078D-01
 TestDE:  II= 85 I=1 DE=    0.115844406896D-02
 TestDE:  II= 85 I=2 DE=    0.526238491683D-02
 TestDE:  II= 85 I=3 DE=   -0.297561742696D-03
 UMP4Q scratch file information:
   i      file        len
 ---     ------    ------
   1      19997    310464
   2      19998    310464
   3      19996    310464
   4      19995    310464
   5      19994    310464
   6      19993     12544
 total scratch length=     1564864
 UMP4(Q)= -0.527009172D-02
 MP4(R+Q)= -0.52700917D-02
 TestDE:  II= 71 I=2 DE=    0.144366415856D-04
 TestDE:  II= 70 I=2 DE=   -0.188137685418D-05
 TestDE:  II= 72 I=2 DE=    0.124862950952D-04
 TestDE:  II= 75 I=2 DE=    0.523924334584D-02
 TestDE:  II= 75 I=1 DE=    0.116219514498D-02
 TestDE:  II= 75 I=3 DE=   -0.293913180987D-03
 MP4 NL singles =        0.13812060359D-03
 MP4 NL doubles =        0.61075253098D-02
 MP4 L =       -0.26607622891D-01
 MP4 NL =        0.62456459134D-02
 MP4 Mixed =       -0.17146413079D-04
 RO-SDQ-MP4 Energy =       -0.20379123390D-01
 GetDE: DE=      0.00000000D+00
 TestDE:  II= 65 I=1 DE=    0.315585492006D-01
 TestDE:  II= 65 I=2 DE=    0.958262150764D-01
 TestDE:  II= 65 I=3 DE=    0.108582579096D-01
 Singles A-vector converged to   2.7202173D-03
 Singles A-vector converged to   6.4643540D-03
 The Euclidean norm of the A-vectors is   5.2105420D-02
 The Euclidean norm of the A-vectors is   6.7397862D-02
 The Euclidean norm of the A-vectors is   1.7153853D-01
 A(0)= 0.10000E+01      ANORM= 0.10647E+01      W(0)=-0.36754829E+00
 E3=        0.11393359D-01        EROMP3=      -0.38468999642D+04
 E4(SDQ)=  -0.20379123D-01        ROMP4(SDQ)=  -0.38469203434D+04
 DE(Corr)= -0.36920068     E(Corr)=     -3846.9051408    
 NORM(A)=   0.10646847D+01
 Iteration Nr.   2
 **********************
 DD1Dir will call FoFMem   1 times, MxPair=       494
 NAB=   168 NAA=    91 NBB=    66.
 DD1Dir:  Pass   1 NRAB=   168 NRAA=    91 NRBB=    66 NR=   493.
 TestDE:  II= 99 I=2 DE=    0.536217864687D-01
 TestDE:  II= 99 I=1 DE=    0.118258276492D-01
 TestDE:  II= 99 I=3 DE=    0.552783463256D-02
 TestDE:  II= 19 I=1 DE=    0.114705560029D-01
 TestDE:  II= 19 I=2 DE=    0.538326288466D-01
 TestDE:  II= 19 I=3 DE=    0.579868587892D-02
 Contribution from DD1=    0.71101871D-01
 ExpSMa:  Full in-core algorithm.
 ExpSMa:  Full in-core algorithm.
 ExpSMa:  Full in-core algorithm.
 ExpSMa:  Full in-core algorithm.
 ExpSMa:  Full in-core algorithm.
 ExpSMa:  Full in-core algorithm.
 ExpSMa:  Full in-core algorithm.
 ExpSMa:  Full in-core algorithm.
 ExpSMa:  Full in-core algorithm.
 ExpSMa:  Full in-core algorithm.
 ExpSMa:  Full in-core algorithm.
 ExpSMa:  Full in-core algorithm.
 ExpSMa:  Full in-core algorithm.
 ExpSMa:  Full in-core algorithm.
 ExpSMa:  Full in-core algorithm.
 ExpSMa:  Full in-core algorithm.
 TestDE:  II=419 I=1 DE=    0.244212882012D-01
 TestDE:  II=419 I=2 DE=    0.102959884797D+00
 TestDE:  II=419 I=3 DE=    0.146727140239D-01
 Contribution from DD2=    0.70952016D-01
 Contribution from DD3=    0.00000000D+00
 Singles added:  Sum=    0.14192361D+00
 Entering DoROCS
 TestDE:  II= 99 I=2 DE=    0.102959884797D+00
 TestDE:  II= 99 I=1 DE=    0.244212882012D-01
 TestDE:  II= 99 I=3 DE=    0.146727140239D-01
 TestDE:  II= 99 I=1 DE=    0.254262520629D-01
 TestDE:  II= 11 I=2 DE=    0.102959884797D+00
 TestDE:  II= 99 I=2 DE=    0.104447771137D+00
 TestDE:  II= 98 I=2 DE=    0.105775374682D+00
 TestDE:  II= 98 I=3 DE=    0.150039727247D-01
 TestDE:  II= 89 I=1 DE=    0.275270440737D-01
 TestDE:  II= 89 I=2 DE=    0.108993333880D+00
 TestDE:  II= 88 I=3 DE=    0.157045309915D-01
 TestDE:  II= 88 I=2 DE=    0.113142756692D+00
 TestDE:  II=  5 I=1 DE=   -0.212577630949D-01
 TestDE:  II=  7 I=2 DE=    0.882624967749D-01
 TestDE:  II=  8 I=2 DE=   -0.814423164977D-01
 TestDE:  II=  9 I=3 DE=   -0.950827065187D-02
 TestDE:  II= 50 I=1 DE=    0.626928097883D-02
 TestDE:  II= 70 I=2 DE=    0.682018027722D-02
 TestDE:  II= 90 I=3 DE=    0.619626033965D-02
 UMP4Q scratch file information:
   i      file        len
 ---     ------    ------
   1      19997    310464
   2      19998    310464
   3      19996    310464
   4      19995    310464
   5      19994    310464
   6      19993     12544
 total scratch length=     1564864
 TestDE:  II= 71 I=2 DE=    0.114271542359D-04
 TestDE:  II= 70 I=2 DE=   -0.148691258065D-05
 TestDE:  II= 72 I=2 DE=    0.987283648324D-05
 TestDE:  II= 75 I=2 DE=    0.680188204336D-02
 TestDE:  II= 75 I=1 DE=    0.627260408029D-02
 TestDE:  II= 75 I=3 DE=    0.619936907866D-02
 GetDE: DE=      0.00000000D+00
 TestDE:  II= 65 I=1 DE=    0.305657806649D-01
 TestDE:  II= 65 I=2 DE=    0.987392094831D-01
 TestDE:  II= 65 I=3 DE=    0.948401881959D-02
 Singles A-vector converged to   7.0614476D-02
 Singles A-vector converged to   1.3340429D-01
 The Euclidean norm of the A-vectors is   3.3203085D-01
 The Euclidean norm of the A-vectors is   4.5916251D-01
 The Euclidean norm of the A-vectors is   9.9608147D-01
 A(0)= 0.10000E+01      ANORM= 0.10669E+01      W(0)=-0.36455843E+00
 DE(Corr)= -0.35529700     E(CORR)=     -3846.8912371     Delta= 1.39D-02
 NORM(A)=   0.10668687D+01
 Iteration Nr.   3
 **********************
 DD1Dir will call FoFMem   1 times, MxPair=       494
 NAB=   168 NAA=    91 NBB=    66.
 DD1Dir:  Pass   1 NRAB=   168 NRAA=    91 NRBB=    66 NR=   493.
 TestDE:  II= 99 I=2 DE=    0.547812426843D-01
 TestDE:  II= 99 I=1 DE=    0.117093747594D-01
 TestDE:  II= 99 I=3 DE=    0.528699658900D-02
 TestDE:  II= 19 I=1 DE=    0.106055902817D-01
 TestDE:  II= 19 I=2 DE=    0.530135948977D-01
 TestDE:  II= 19 I=3 DE=    0.485701984174D-02
 Contribution from DD1=    0.68476205D-01
 ExpSMa:  Full in-core algorithm.
 ExpSMa:  Full in-core algorithm.
 ExpSMa:  Full in-core algorithm.
 ExpSMa:  Full in-core algorithm.
 ExpSMa:  Full in-core algorithm.
 ExpSMa:  Full in-core algorithm.
 ExpSMa:  Full in-core algorithm.
 ExpSMa:  Full in-core algorithm.
 ExpSMa:  Full in-core algorithm.
 ExpSMa:  Full in-core algorithm.
 ExpSMa:  Full in-core algorithm.
 ExpSMa:  Full in-core algorithm.
 ExpSMa:  Full in-core algorithm.
 ExpSMa:  Full in-core algorithm.
 ExpSMa:  Full in-core algorithm.
 ExpSMa:  Full in-core algorithm.
 TestDE:  II=419 I=1 DE=    0.231444569912D-01
 TestDE:  II=419 I=2 DE=    0.102182693200D+00
 TestDE:  II=419 I=3 DE=    0.130729253585D-01
 Contribution from DD2=    0.69923871D-01
 Contribution from DD3=    0.00000000D+00
 Singles added:  Sum=    0.13457362D+00
 Entering DoROCS
 TestDE:  II= 99 I=2 DE=    0.102182693200D+00
 TestDE:  II= 99 I=1 DE=    0.231444569912D-01
 TestDE:  II= 99 I=3 DE=    0.130729253585D-01
 TestDE:  II= 99 I=1 DE=    0.241513854399D-01
 TestDE:  II= 11 I=2 DE=    0.102182693200D+00
 TestDE:  II= 99 I=2 DE=    0.103712307704D+00
 TestDE:  II= 98 I=2 DE=    0.105083362208D+00
 TestDE:  II= 98 I=3 DE=    0.133561434653D-01
 TestDE:  II= 89 I=1 DE=    0.264412456755D-01
 TestDE:  II= 89 I=2 DE=    0.108723979318D+00
 TestDE:  II= 88 I=3 DE=    0.141181919222D-01
 TestDE:  II= 88 I=2 DE=    0.113420025333D+00
 TestDE:  II=  5 I=1 DE=   -0.213372160236D-01
 TestDE:  II=  7 I=2 DE=    0.856086746926D-01
 TestDE:  II=  8 I=2 DE=   -0.837559820816D-01
 TestDE:  II=  9 I=3 DE=   -0.880031943908D-02
 TestDE:  II= 50 I=1 DE=    0.510402965191D-02
 TestDE:  II= 70 I=2 DE=    0.185269261100D-02
 TestDE:  II= 90 I=3 DE=    0.531787248310D-02
 UMP4Q scratch file information:
   i      file        len
 ---     ------    ------
   1      19997    310464
   2      19998    310464
   3      19996    310464
   4      19995    310464
   5      19994    310464
   6      19993     12544
 total scratch length=     1564864
 TestDE:  II= 71 I=2 DE=    0.244972471691D-05
 TestDE:  II= 70 I=2 DE=   -0.307235591625D-05
 TestDE:  II= 72 I=2 DE=   -0.712055411032D-06
 TestDE:  II= 75 I=2 DE=    0.185949150587D-02
 TestDE:  II= 75 I=1 DE=    0.512027789639D-02
 TestDE:  II= 75 I=3 DE=    0.531964463934D-02
 GetDE: DE=      0.00000000D+00
 TestDE:  II= 65 I=1 DE=    0.312645236986D-01
 TestDE:  II= 65 I=2 DE=    0.103237554794D+00
 TestDE:  II= 65 I=3 DE=    0.933465507870D-02
 Singles A-vector converged to   5.3964093D-02
 Singles A-vector converged to   1.0054553D-01
 The Euclidean norm of the A-vectors is   2.4407130D-01
 The Euclidean norm of the A-vectors is   3.3027160D-01
 The Euclidean norm of the A-vectors is   7.3352059D-01
 A(0)= 0.10000E+01      ANORM= 0.10841E+01      W(0)=-0.37312968E+00
 DE(Corr)= -0.36035159     E(CORR)=     -3846.8962917     Delta=-5.05D-03
 NORM(A)=   0.10840762D+01
 Iteration Nr.   4
 **********************
 DD1Dir will call FoFMem   1 times, MxPair=       494
 NAB=   168 NAA=    91 NBB=    66.
 DD1Dir:  Pass   1 NRAB=   168 NRAA=    91 NRBB=    66 NR=   493.
 TestDE:  II= 99 I=2 DE=    0.633510805101D-01
 TestDE:  II= 99 I=1 DE=    0.119028165935D-01
 TestDE:  II= 99 I=3 DE=    0.492099457303D-02
 TestDE:  II= 19 I=1 DE=    0.928744315812D-02
 TestDE:  II= 19 I=2 DE=    0.576488450262D-01
 TestDE:  II= 19 I=3 DE=    0.313267116362D-02
 Contribution from DD1=    0.70068959D-01
 ExpSMa:  Full in-core algorithm.
 ExpSMa:  Full in-core algorithm.
 ExpSMa:  Full in-core algorithm.
 ExpSMa:  Full in-core algorithm.
 ExpSMa:  Full in-core algorithm.
 ExpSMa:  Full in-core algorithm.
 ExpSMa:  Full in-core algorithm.
 ExpSMa:  Full in-core algorithm.
 ExpSMa:  Full in-core algorithm.
 ExpSMa:  Full in-core algorithm.
 ExpSMa:  Full in-core algorithm.
 ExpSMa:  Full in-core algorithm.
 ExpSMa:  Full in-core algorithm.
 ExpSMa:  Full in-core algorithm.
 ExpSMa:  Full in-core algorithm.
 ExpSMa:  Full in-core algorithm.
 TestDE:  II=419 I=1 DE=    0.220276501919D-01
 TestDE:  II=419 I=2 DE=    0.113876211101D+00
 TestDE:  II=419 I=3 DE=    0.104667160993D-01
 Contribution from DD2=    0.76301618D-01
 Contribution from DD3=    0.00000000D+00
 Singles added:  Sum=    0.13274456D+00
 Entering DoROCS
 TestDE:  II= 99 I=2 DE=    0.113876211101D+00
 TestDE:  II= 99 I=1 DE=    0.220276501919D-01
 TestDE:  II= 99 I=3 DE=    0.104667160993D-01
 TestDE:  II= 99 I=1 DE=    0.233649926750D-01
 TestDE:  II= 11 I=2 DE=    0.113876211101D+00
 TestDE:  II= 99 I=2 DE=    0.116193187564D+00
 TestDE:  II= 98 I=2 DE=    0.118351062935D+00
 TestDE:  II= 98 I=3 DE=    0.107296587289D-01
 TestDE:  II= 89 I=1 DE=    0.262459767404D-01
 TestDE:  II= 89 I=2 DE=    0.123632692283D+00
 TestDE:  II= 88 I=3 DE=    0.115905278021D-01
 TestDE:  II= 88 I=2 DE=    0.130534602428D+00
 TestDE:  II=  5 I=1 DE=   -0.237736093951D-01
 TestDE:  II=  7 I=2 DE=    0.889101006579D-01
 TestDE:  II=  8 I=2 DE=   -0.102628338809D+00
 TestDE:  II=  9 I=3 DE=   -0.778643299767D-02
 TestDE:  II= 50 I=1 DE=    0.247236734526D-02
 TestDE:  II= 70 I=2 DE=   -0.137182381514D-01
 TestDE:  II= 90 I=3 DE=    0.380409480445D-02
 UMP4Q scratch file information:
   i      file        len
 ---     ------    ------
   1      19997    310464
   2      19998    310464
   3      19996    310464
   4      19995    310464
   5      19994    310464
   6      19993     12544
 total scratch length=     1564864
 TestDE:  II= 71 I=2 DE=   -0.888058431237D-04
 TestDE:  II= 70 I=2 DE=   -0.245667732892D-04
 TestDE:  II= 72 I=2 DE=   -0.923229160578D-04
 TestDE:  II= 75 I=2 DE=   -0.134755277662D-01
 TestDE:  II= 75 I=1 DE=    0.254869369025D-02
 TestDE:  II= 75 I=3 DE=    0.383810199906D-02
 GetDE: DE=      0.00000000D+00
 TestDE:  II= 65 I=1 DE=    0.343049365307D-01
 TestDE:  II= 65 I=2 DE=    0.123801555571D+00
 TestDE:  II= 65 I=3 DE=    0.913203156247D-02
 Singles A-vector converged to   1.3328027D-02
 Singles A-vector converged to   2.4052683D-02
 The Euclidean norm of the A-vectors is   5.3930485D-02
 The Euclidean norm of the A-vectors is   7.2094719D-02
 The Euclidean norm of the A-vectors is   1.6375159D-01
 A(0)= 0.10000E+01      ANORM= 0.10909E+01      W(0)=-0.37546037E+00
 DE(Corr)= -0.37266200     E(CORR)=     -3846.9086021     Delta=-1.23D-02
 NORM(A)=   0.10909476D+01
 Iteration Nr.   5
 **********************
 DD1Dir will call FoFMem   1 times, MxPair=       494
 NAB=   168 NAA=    91 NBB=    66.
 DD1Dir:  Pass   1 NRAB=   168 NRAA=    91 NRBB=    66 NR=   493.
 TestDE:  II= 99 I=2 DE=    0.661356035450D-01
 TestDE:  II= 99 I=1 DE=    0.118785341261D-01
 TestDE:  II= 99 I=3 DE=    0.479465896226D-02
 TestDE:  II= 19 I=1 DE=    0.888433681877D-02
 TestDE:  II= 19 I=2 DE=    0.594716638227D-01
 TestDE:  II= 19 I=3 DE=    0.270294545010D-02
 Contribution from DD1=    0.71058946D-01
 ExpSMa:  Full in-core algorithm.
 ExpSMa:  Full in-core algorithm.
 ExpSMa:  Full in-core algorithm.
 ExpSMa:  Full in-core algorithm.
 ExpSMa:  Full in-core algorithm.
 ExpSMa:  Full in-core algorithm.
 ExpSMa:  Full in-core algorithm.
 ExpSMa:  Full in-core algorithm.
 ExpSMa:  Full in-core algorithm.
 ExpSMa:  Full in-core algorithm.
 ExpSMa:  Full in-core algorithm.
 ExpSMa:  Full in-core algorithm.
 ExpSMa:  Full in-core algorithm.
 ExpSMa:  Full in-core algorithm.
 ExpSMa:  Full in-core algorithm.
 ExpSMa:  Full in-core algorithm.
 TestDE:  II=419 I=1 DE=    0.216907263133D-01
 TestDE:  II=419 I=2 DE=    0.118182568691D+00
 TestDE:  II=419 I=3 DE=    0.980222410974D-02
 Contribution from DD2=    0.78616573D-01
 Contribution from DD3=    0.00000000D+00
 Singles added:  Sum=    0.13281488D+00
 Entering DoROCS
 TestDE:  II= 99 I=2 DE=    0.118182568691D+00
 TestDE:  II= 99 I=1 DE=    0.216907263133D-01
 TestDE:  II= 99 I=3 DE=    0.980222410974D-02
 TestDE:  II= 99 I=1 DE=    0.231487991755D-01
 TestDE:  II= 11 I=2 DE=    0.118182568691D+00
 TestDE:  II= 99 I=2 DE=    0.120853125841D+00
 TestDE:  II= 98 I=2 DE=    0.123363564624D+00
 TestDE:  II= 98 I=3 DE=    0.100652586120D-01
 TestDE:  II= 89 I=1 DE=    0.261667568502D-01
 TestDE:  II= 89 I=2 DE=    0.129210592177D+00
 TestDE:  II= 88 I=3 DE=    0.109328939293D-01
 TestDE:  II= 88 I=2 DE=    0.136883650583D+00
 TestDE:  II=  5 I=1 DE=   -0.244696862888D-01
 TestDE:  II=  7 I=2 DE=    0.904167927035D-01
 TestDE:  II=  8 I=2 DE=   -0.109491997547D+00
 TestDE:  II=  9 I=3 DE=   -0.747748133531D-02
 TestDE:  II= 50 I=1 DE=    0.169707056144D-02
 TestDE:  II= 70 I=2 DE=   -0.190752048440D-01
 TestDE:  II= 90 I=3 DE=    0.345541259401D-02
 UMP4Q scratch file information:
   i      file        len
 ---     ------    ------
   1      19997    310464
   2      19998    310464
   3      19996    310464
   4      19995    310464
   5      19994    310464
   6      19993     12544
 total scratch length=     1564864
 TestDE:  II= 71 I=2 DE=   -0.123442352590D-03
 TestDE:  II= 70 I=2 DE=   -0.350004387789D-04
 TestDE:  II= 72 I=2 DE=   -0.125198355716D-03
 TestDE:  II= 75 I=2 DE=   -0.187403315307D-01
 TestDE:  II= 75 I=1 DE=    0.178901977196D-02
 TestDE:  II= 75 I=3 DE=    0.350078838998D-02
 GetDE: DE=      0.00000000D+00
 TestDE:  II= 65 I=1 DE=    0.351139099063D-01
 TestDE:  II= 65 I=2 DE=    0.131059010397D+00
 TestDE:  II= 65 I=3 DE=    0.905034129993D-02
 Singles A-vector converged to   2.3253053D-03
 Singles A-vector converged to   4.1261384D-03
 The Euclidean norm of the A-vectors is   1.0884067D-02
 The Euclidean norm of the A-vectors is   1.4066839D-02
 The Euclidean norm of the A-vectors is   3.1802029D-02
 A(0)= 0.10000E+01      ANORM= 0.10910E+01      W(0)=-0.37539461E+00
 DE(Corr)= -0.37601942     E(CORR)=     -3846.9119595     Delta=-3.36D-03
 NORM(A)=   0.10909935D+01
 Iteration Nr.   6
 **********************
 DD1Dir will call FoFMem   1 times, MxPair=       494
 NAB=   168 NAA=    91 NBB=    66.
 DD1Dir:  Pass   1 NRAB=   168 NRAA=    91 NRBB=    66 NR=   493.
 TestDE:  II= 99 I=2 DE=    0.660305051932D-01
 TestDE:  II= 99 I=1 DE=    0.118401037894D-01
 TestDE:  II= 99 I=3 DE=    0.479753696389D-02
 TestDE:  II= 19 I=1 DE=    0.888890432323D-02
 TestDE:  II= 19 I=2 DE=    0.594602636132D-01
 TestDE:  II= 19 I=3 DE=    0.275053466544D-02
 Contribution from DD1=    0.71099703D-01
 ExpSMa:  Full in-core algorithm.
 ExpSMa:  Full in-core algorithm.
 ExpSMa:  Full in-core algorithm.
 ExpSMa:  Full in-core algorithm.
 ExpSMa:  Full in-core algorithm.
 ExpSMa:  Full in-core algorithm.
 ExpSMa:  Full in-core algorithm.
 ExpSMa:  Full in-core algorithm.
 ExpSMa:  Full in-core algorithm.
 ExpSMa:  Full in-core algorithm.
 ExpSMa:  Full in-core algorithm.
 ExpSMa:  Full in-core algorithm.
 ExpSMa:  Full in-core algorithm.
 ExpSMa:  Full in-core algorithm.
 ExpSMa:  Full in-core algorithm.
 ExpSMa:  Full in-core algorithm.
 TestDE:  II=419 I=1 DE=    0.217131485163D-01
 TestDE:  II=419 I=2 DE=    0.118186982696D+00
 TestDE:  II=419 I=3 DE=    0.988258775293D-02
 Contribution from DD2=    0.78683016D-01
 Contribution from DD3=    0.00000000D+00
 Singles added:  Sum=    0.13296392D+00
 Entering DoROCS
 TestDE:  II= 99 I=2 DE=    0.118186982696D+00
 TestDE:  II= 99 I=1 DE=    0.217131485163D-01
 TestDE:  II= 99 I=3 DE=    0.988258775293D-02
 TestDE:  II= 99 I=1 DE=    0.231781477503D-01
 TestDE:  II= 11 I=2 DE=    0.118186982696D+00
 TestDE:  II= 99 I=2 DE=    0.120888403722D+00
 TestDE:  II= 98 I=2 DE=    0.123430534877D+00
 TestDE:  II= 98 I=3 DE=    0.101524519549D-01
 TestDE:  II= 89 I=1 DE=    0.261655655868D-01
 TestDE:  II= 89 I=2 DE=    0.129243519730D+00
 TestDE:  II= 88 I=3 DE=    0.110114712150D-01
 TestDE:  II= 88 I=2 DE=    0.136873260332D+00
 TestDE:  II=  5 I=1 DE=   -0.244201879956D-01
 TestDE:  II=  7 I=2 DE=    0.905341261568D-01
 TestDE:  II=  8 I=2 DE=   -0.109438518877D+00
 TestDE:  II=  9 I=3 DE=   -0.749688455769D-02
 TestDE:  II= 50 I=1 DE=    0.174537759120D-02
 TestDE:  II= 70 I=2 DE=   -0.189043927200D-01
 TestDE:  II= 90 I=3 DE=    0.351458665733D-02
 UMP4Q scratch file information:
   i      file        len
 ---     ------    ------
   1      19997    310464
   2      19998    310464
   3      19996    310464
   4      19995    310464
   5      19994    310464
   6      19993     12544
 total scratch length=     1564864
 TestDE:  II= 71 I=2 DE=   -0.118247643933D-03
 TestDE:  II= 70 I=2 DE=   -0.347195718757D-04
 TestDE:  II= 72 I=2 DE=   -0.119688351720D-03
 TestDE:  II= 75 I=2 DE=   -0.185813678959D-01
 TestDE:  II= 75 I=1 DE=    0.183258133443D-02
 TestDE:  II= 75 I=3 DE=    0.355711098990D-02
 GetDE: DE=      0.00000000D+00
 TestDE:  II= 65 I=1 DE=    0.350808598807D-01
 TestDE:  II= 65 I=2 DE=    0.131203610639D+00
 TestDE:  II= 65 I=3 DE=    0.905813375990D-02
 Singles A-vector converged to   1.9156131D-03
 Singles A-vector converged to   3.6086628D-03
 The Euclidean norm of the A-vectors is   8.5404120D-03
 The Euclidean norm of the A-vectors is   1.1693377D-02
 The Euclidean norm of the A-vectors is   2.5714347D-02
 A(0)= 0.10000E+01      ANORM= 0.10921E+01      W(0)=-0.37562204E+00
 DE(Corr)= -0.37571694     E(CORR)=     -3846.9116570     Delta= 3.02D-04
 NORM(A)=   0.10921080D+01
 Iteration Nr.   7
 **********************
 DD1Dir will call FoFMem   1 times, MxPair=       494
 NAB=   168 NAA=    91 NBB=    66.
 DD1Dir:  Pass   1 NRAB=   168 NRAA=    91 NRBB=    66 NR=   493.
 TestDE:  II= 99 I=2 DE=    0.663995692226D-01
 TestDE:  II= 99 I=1 DE=    0.118511473770D-01
 TestDE:  II= 99 I=3 DE=    0.478300916342D-02
 TestDE:  II= 19 I=1 DE=    0.884671919372D-02
 TestDE:  II= 19 I=2 DE=    0.596724921528D-01
 TestDE:  II= 19 I=3 DE=    0.269404193551D-02
 Contribution from DD1=    0.71213253D-01
 ExpSMa:  Full in-core algorithm.
 ExpSMa:  Full in-core algorithm.
 ExpSMa:  Full in-core algorithm.
 ExpSMa:  Full in-core algorithm.
 ExpSMa:  Full in-core algorithm.
 ExpSMa:  Full in-core algorithm.
 ExpSMa:  Full in-core algorithm.
 ExpSMa:  Full in-core algorithm.
 ExpSMa:  Full in-core algorithm.
 ExpSMa:  Full in-core algorithm.
 ExpSMa:  Full in-core algorithm.
 ExpSMa:  Full in-core algorithm.
 ExpSMa:  Full in-core algorithm.
 ExpSMa:  Full in-core algorithm.
 ExpSMa:  Full in-core algorithm.
 ExpSMa:  Full in-core algorithm.
 TestDE:  II=419 I=1 DE=    0.216904092199D-01
 TestDE:  II=419 I=2 DE=    0.118714940528D+00
 TestDE:  II=419 I=3 DE=    0.979135909942D-02
 Contribution from DD2=    0.78983456D-01
 Contribution from DD3=    0.00000000D+00
 Singles added:  Sum=    0.13287838D+00
 Entering DoROCS
 TestDE:  II= 99 I=2 DE=    0.118714940528D+00
 TestDE:  II= 99 I=1 DE=    0.216904092199D-01
 TestDE:  II= 99 I=3 DE=    0.979135909942D-02
 TestDE:  II= 99 I=1 DE=    0.231735930488D-01
 TestDE:  II= 11 I=2 DE=    0.118714940528D+00
 TestDE:  II= 99 I=2 DE=    0.121466807600D+00
 TestDE:  II= 98 I=2 DE=    0.124058671584D+00
 TestDE:  II= 98 I=3 DE=    0.100607654536D-01
 TestDE:  II= 89 I=1 DE=    0.261879827702D-01
 TestDE:  II= 89 I=2 DE=    0.129958620342D+00
 TestDE:  II= 88 I=3 DE=    0.109232796360D-01
 TestDE:  II= 88 I=2 DE=    0.137705660368D+00
 TestDE:  II=  5 I=1 DE=   -0.245761173252D-01
 TestDE:  II=  7 I=2 DE=    0.906964957179D-01
 TestDE:  II=  8 I=2 DE=   -0.110357186974D+00
 TestDE:  II=  9 I=3 DE=   -0.746852550594D-02
 TestDE:  II= 50 I=1 DE=    0.161186544499D-02
 TestDE:  II= 70 I=2 DE=   -0.196606912558D-01
 TestDE:  II= 90 I=3 DE=    0.345475413008D-02
 UMP4Q scratch file information:
   i      file        len
 ---     ------    ------
   1      19997    310464
   2      19998    310464
   3      19996    310464
   4      19995    310464
   5      19994    310464
   6      19993     12544
 total scratch length=     1564864
 TestDE:  II= 71 I=2 DE=   -0.123457570289D-03
 TestDE:  II= 70 I=2 DE=   -0.367509378399D-04
 TestDE:  II= 72 I=2 DE=   -0.124293473013D-03
 TestDE:  II= 75 I=2 DE=   -0.193236471533D-01
 TestDE:  II= 75 I=1 DE=    0.170084726955D-02
 TestDE:  II= 75 I=3 DE=    0.349893466685D-02
 GetDE: DE=      0.00000000D+00
 TestDE:  II= 65 I=1 DE=    0.352520799947D-01
 TestDE:  II= 65 I=2 DE=    0.132277274028D+00
 TestDE:  II= 65 I=3 DE=    0.905714236750D-02
 Singles A-vector converged to   3.9373002D-04
 Singles A-vector converged to   6.9525711D-04
 The Euclidean norm of the A-vectors is   1.6182092D-03
 The Euclidean norm of the A-vectors is   2.1657259D-03
 The Euclidean norm of the A-vectors is   5.3554483D-03
 A(0)= 0.10000E+01      ANORM= 0.10921E+01      W(0)=-0.37560859E+00
 DE(Corr)= -0.37619297     E(CORR)=     -3846.9121331     Delta=-4.76D-04
 NORM(A)=   0.10921438D+01
 Iteration Nr.   8
 **********************
 DD1Dir will call FoFMem   1 times, MxPair=       494
 NAB=   168 NAA=    91 NBB=    66.
 DD1Dir:  Pass   1 NRAB=   168 NRAA=    91 NRBB=    66 NR=   493.
 TestDE:  II= 99 I=2 DE=    0.663824691455D-01
 TestDE:  II= 99 I=1 DE=    0.118580649493D-01
 TestDE:  II= 99 I=3 DE=    0.478467297898D-02
 TestDE:  II= 19 I=1 DE=    0.885400975364D-02
 TestDE:  II= 19 I=2 DE=    0.596477249778D-01
 TestDE:  II= 19 I=3 DE=    0.269733354234D-02
 Contribution from DD1=    0.71199068D-01
 ExpSMa:  Full in-core algorithm.
 ExpSMa:  Full in-core algorithm.
 ExpSMa:  Full in-core algorithm.
 ExpSMa:  Full in-core algorithm.
 ExpSMa:  Full in-core algorithm.
 ExpSMa:  Full in-core algorithm.
 ExpSMa:  Full in-core algorithm.
 ExpSMa:  Full in-core algorithm.
 ExpSMa:  Full in-core algorithm.
 ExpSMa:  Full in-core algorithm.
 ExpSMa:  Full in-core algorithm.
 ExpSMa:  Full in-core algorithm.
 ExpSMa:  Full in-core algorithm.
 ExpSMa:  Full in-core algorithm.
 ExpSMa:  Full in-core algorithm.
 ExpSMa:  Full in-core algorithm.
 TestDE:  II=419 I=1 DE=    0.217053865780D-01
 TestDE:  II=419 I=2 DE=    0.118677082475D+00
 TestDE:  II=419 I=3 DE=    0.979710398187D-02
 Contribution from DD2=    0.78980505D-01
 Contribution from DD3=    0.00000000D+00
 Singles added:  Sum=    0.13285020D+00
 Entering DoROCS
 TestDE:  II= 99 I=2 DE=    0.118677082475D+00
 TestDE:  II= 99 I=1 DE=    0.217053865780D-01
 TestDE:  II= 99 I=3 DE=    0.979710398187D-02
 TestDE:  II= 99 I=1 DE=    0.231897354188D-01
 TestDE:  II= 11 I=2 DE=    0.118677082475D+00
 TestDE:  II= 99 I=2 DE=    0.121428672499D+00
 TestDE:  II= 98 I=2 DE=    0.124019626179D+00
 TestDE:  II= 98 I=3 DE=    0.100667095789D-01
 TestDE:  II= 89 I=1 DE=    0.262070007653D-01
 TestDE:  II= 89 I=2 DE=    0.129919522254D+00
 TestDE:  II= 88 I=3 DE=    0.109301771395D-01
 TestDE:  II= 88 I=2 DE=    0.137665958362D+00
 TestDE:  II=  5 I=1 DE=   -0.246015594279D-01
 TestDE:  II=  7 I=2 DE=    0.906829428988D-01
 TestDE:  II=  8 I=2 DE=   -0.110325499110D+00
 TestDE:  II=  9 I=3 DE=   -0.747595989090D-02
 TestDE:  II= 50 I=1 DE=    0.160544133742D-02
 TestDE:  II= 70 I=2 DE=   -0.196425562115D-01
 TestDE:  II= 90 I=3 DE=    0.345421724860D-02
 UMP4Q scratch file information:
   i      file        len
 ---     ------    ------
   1      19997    310464
   2      19998    310464
   3      19996    310464
   4      19995    310464
   5      19994    310464
   6      19993     12544
 total scratch length=     1564864
 TestDE:  II= 71 I=2 DE=   -0.123375373926D-03
 TestDE:  II= 70 I=2 DE=   -0.369186679720D-04
 TestDE:  II= 72 I=2 DE=   -0.124137881771D-03
 TestDE:  II= 75 I=2 DE=   -0.193056093223D-01
 TestDE:  II= 75 I=1 DE=    0.169408589198D-02
 TestDE:  II= 75 I=3 DE=    0.349826217730D-02
 GetDE: DE=      0.00000000D+00
 TestDE:  II= 65 I=1 DE=    0.352805705228D-01
 TestDE:  II= 65 I=2 DE=    0.132287820035D+00
 TestDE:  II= 65 I=3 DE=    0.906252228092D-02
 Singles A-vector converged to   1.3785319D-04
 Singles A-vector converged to   1.8614475D-04
 The Euclidean norm of the A-vectors is   6.5110743D-04
 The Euclidean norm of the A-vectors is   8.4362294D-04
 The Euclidean norm of the A-vectors is   1.9629298D-03
 A(0)= 0.10000E+01      ANORM= 0.10921E+01      W(0)=-0.37560830E+00
 DE(Corr)= -0.37617832     E(CORR)=     -3846.9121184     Delta= 1.47D-05
 NORM(A)=   0.10921488D+01
 Iteration Nr.   9
 **********************
 DD1Dir will call FoFMem   1 times, MxPair=       494
 NAB=   168 NAA=    91 NBB=    66.
 DD1Dir:  Pass   1 NRAB=   168 NRAA=    91 NRBB=    66 NR=   493.
 TestDE:  II= 99 I=2 DE=    0.663763591403D-01
 TestDE:  II= 99 I=1 DE=    0.118605919185D-01
 TestDE:  II= 99 I=3 DE=    0.478504050724D-02
 TestDE:  II= 19 I=1 DE=    0.885672621894D-02
 TestDE:  II= 19 I=2 DE=    0.596408096649D-01
 TestDE:  II= 19 I=3 DE=    0.269826340441D-02
 Contribution from DD1=    0.71195799D-01
 ExpSMa:  Full in-core algorithm.
 ExpSMa:  Full in-core algorithm.
 ExpSMa:  Full in-core algorithm.
 ExpSMa:  Full in-core algorithm.
 ExpSMa:  Full in-core algorithm.
 ExpSMa:  Full in-core algorithm.
 ExpSMa:  Full in-core algorithm.
 ExpSMa:  Full in-core algorithm.
 ExpSMa:  Full in-core algorithm.
 ExpSMa:  Full in-core algorithm.
 ExpSMa:  Full in-core algorithm.
 ExpSMa:  Full in-core algorithm.
 ExpSMa:  Full in-core algorithm.
 ExpSMa:  Full in-core algorithm.
 ExpSMa:  Full in-core algorithm.
 ExpSMa:  Full in-core algorithm.
 TestDE:  II=419 I=1 DE=    0.217106575640D-01
 TestDE:  II=419 I=2 DE=    0.118665278014D+00
 TestDE:  II=419 I=3 DE=    0.979866265533D-02
 Contribution from DD2=    0.78978799D-01
 Contribution from DD3=    0.00000000D+00
 Singles added:  Sum=    0.13284296D+00
 Entering DoROCS
 TestDE:  II= 99 I=2 DE=    0.118665278014D+00
 TestDE:  II= 99 I=1 DE=    0.217106575640D-01
 TestDE:  II= 99 I=3 DE=    0.979866265533D-02
 TestDE:  II= 99 I=1 DE=    0.231956169710D-01
 TestDE:  II= 11 I=2 DE=    0.118665278014D+00
 TestDE:  II= 99 I=2 DE=    0.121416405504D+00
 TestDE:  II= 98 I=2 DE=    0.124006624532D+00
 TestDE:  II= 98 I=3 DE=    0.100683299291D-01
 TestDE:  II= 89 I=1 DE=    0.262139783697D-01
 TestDE:  II= 89 I=2 DE=    0.129905661367D+00
 TestDE:  II= 88 I=3 DE=    0.109319532986D-01
 TestDE:  II= 88 I=2 DE=    0.137651034612D+00
 TestDE:  II=  5 I=1 DE=   -0.246104670599D-01
 TestDE:  II=  7 I=2 DE=    0.906768447423D-01
 TestDE:  II=  8 I=2 DE=   -0.110312378687D+00
 TestDE:  II=  9 I=3 DE=   -0.747796478588D-02
 TestDE:  II= 50 I=1 DE=    0.160351130982D-02
 TestDE:  II= 70 I=2 DE=   -0.196355339446D-01
 TestDE:  II= 90 I=3 DE=    0.345398851277D-02
 UMP4Q scratch file information:
   i      file        len
 ---     ------    ------
   1      19997    310464
   2      19998    310464
   3      19996    310464
   4      19995    310464
   5      19994    310464
   6      19993     12544
 total scratch length=     1564864
 TestDE:  II= 71 I=2 DE=   -0.123336880109D-03
 TestDE:  II= 70 I=2 DE=   -0.369524565621D-04
 TestDE:  II= 72 I=2 DE=   -0.124118891006D-03
 TestDE:  II= 75 I=2 DE=   -0.192986058166D-01
 TestDE:  II= 75 I=1 DE=    0.169202747254D-02
 TestDE:  II= 75 I=3 DE=    0.349796404750D-02
 GetDE: DE=      0.00000000D+00
 TestDE:  II= 65 I=1 DE=    0.352905959640D-01
 TestDE:  II= 65 I=2 DE=    0.132280204989D+00
 TestDE:  II= 65 I=3 DE=    0.906387948830D-02
 Singles A-vector converged to   6.5715026D-05
 Singles A-vector converged to   9.6958949D-05
 The Euclidean norm of the A-vectors is   3.1002008D-04
 The Euclidean norm of the A-vectors is   3.9294645D-04
 The Euclidean norm of the A-vectors is   8.7742376D-04
 A(0)= 0.10000E+01      ANORM= 0.10922E+01      W(0)=-0.37560342E+00
 DE(Corr)= -0.37617507     E(CORR)=     -3846.9121152     Delta= 3.24D-06
 NORM(A)=   0.10921513D+01
 Iteration Nr.  10
 **********************
 DD1Dir will call FoFMem   1 times, MxPair=       494
 NAB=   168 NAA=    91 NBB=    66.
 DD1Dir:  Pass   1 NRAB=   168 NRAA=    91 NRBB=    66 NR=   493.
 TestDE:  II= 99 I=2 DE=    0.663736058267D-01
 TestDE:  II= 99 I=1 DE=    0.118614159670D-01
 TestDE:  II= 99 I=3 DE=    0.478494839512D-02
 TestDE:  II= 19 I=1 DE=    0.885700611084D-02
 TestDE:  II= 19 I=2 DE=    0.596364601661D-01
 TestDE:  II= 19 I=3 DE=    0.269794519388D-02
 Contribution from DD1=    0.71191411D-01
 ExpSMa:  Full in-core algorithm.
 ExpSMa:  Full in-core algorithm.
 ExpSMa:  Full in-core algorithm.
 ExpSMa:  Full in-core algorithm.
 ExpSMa:  Full in-core algorithm.
 ExpSMa:  Full in-core algorithm.
 ExpSMa:  Full in-core algorithm.
 ExpSMa:  Full in-core algorithm.
 ExpSMa:  Full in-core algorithm.
 ExpSMa:  Full in-core algorithm.
 ExpSMa:  Full in-core algorithm.
 ExpSMa:  Full in-core algorithm.
 ExpSMa:  Full in-core algorithm.
 ExpSMa:  Full in-core algorithm.
 ExpSMa:  Full in-core algorithm.
 ExpSMa:  Full in-core algorithm.
 TestDE:  II=419 I=1 DE=    0.217114931850D-01
 TestDE:  II=419 I=2 DE=    0.118657724504D+00
 TestDE:  II=419 I=3 DE=    0.979806629739D-02
 Contribution from DD2=    0.78975873D-01
 Contribution from DD3=    0.00000000D+00
 Singles added:  Sum=    0.13283231D+00
 Entering DoROCS
 TestDE:  II= 99 I=2 DE=    0.118657724504D+00
 TestDE:  II= 99 I=1 DE=    0.217114931850D-01
 TestDE:  II= 99 I=3 DE=    0.979806629739D-02
 TestDE:  II= 99 I=1 DE=    0.231966757261D-01
 TestDE:  II= 11 I=2 DE=    0.118657724504D+00
 TestDE:  II= 99 I=2 DE=    0.121408546020D+00
 TestDE:  II= 98 I=2 DE=    0.123998294898D+00
 TestDE:  II= 98 I=3 DE=    0.100676957027D-01
 TestDE:  II= 89 I=1 DE=    0.262156468356D-01
 TestDE:  II= 89 I=2 DE=    0.129897308299D+00
 TestDE:  II= 88 I=3 DE=    0.109313993621D-01
 TestDE:  II= 88 I=2 DE=    0.137642618583D+00
 TestDE:  II=  5 I=1 DE=   -0.246133393096D-01
 TestDE:  II=  7 I=2 DE=    0.906708703854D-01
 TestDE:  II=  8 I=2 DE=   -0.110306842112D+00
 TestDE:  II=  9 I=3 DE=   -0.747789500816D-02
 TestDE:  II= 50 I=1 DE=    0.160230752592D-02
 TestDE:  II= 70 I=2 DE=   -0.196359717263D-01
 TestDE:  II= 90 I=3 DE=    0.345350435396D-02
 UMP4Q scratch file information:
   i      file        len
 ---     ------    ------
   1      19997    310464
   2      19998    310464
   3      19996    310464
   4      19995    310464
   5      19994    310464
   6      19993     12544
 total scratch length=     1564864
 TestDE:  II= 71 I=2 DE=   -0.123352430113D-03
 TestDE:  II= 70 I=2 DE=   -0.369594409499D-04
 TestDE:  II= 72 I=2 DE=   -0.124152238914D-03
 TestDE:  II= 75 I=2 DE=   -0.192989700989D-01
 TestDE:  II= 75 I=1 DE=    0.169080838974D-02
 TestDE:  II= 75 I=3 DE=    0.349748464212D-02
 GetDE: DE=      0.00000000D+00
 TestDE:  II= 65 I=1 DE=    0.352944978656D-01
 TestDE:  II= 65 I=2 DE=    0.132277237810D+00
 TestDE:  II= 65 I=3 DE=    0.906404907707D-02
 Singles A-vector converged to   2.4872514D-05
 Singles A-vector converged to   4.9464758D-05
 The Euclidean norm of the A-vectors is   1.5083563D-04
 The Euclidean norm of the A-vectors is   1.8917668D-04
 The Euclidean norm of the A-vectors is   4.2475882D-04
 A(0)= 0.10000E+01      ANORM= 0.10922E+01      W(0)=-0.37560585E+00
 DE(Corr)= -0.37617691     E(CORR)=     -3846.9121170     Delta=-1.83D-06
 NORM(A)=   0.10921515D+01
 Iteration Nr.  11
 **********************
 DD1Dir will call FoFMem   1 times, MxPair=       494
 NAB=   168 NAA=    91 NBB=    66.
 DD1Dir:  Pass   1 NRAB=   168 NRAA=    91 NRBB=    66 NR=   493.
 TestDE:  II= 99 I=2 DE=    0.663735416913D-01
 TestDE:  II= 99 I=1 DE=    0.118616628960D-01
 TestDE:  II= 99 I=3 DE=    0.478498634544D-02
 TestDE:  II= 19 I=1 DE=    0.885703015003D-02
 TestDE:  II= 19 I=2 DE=    0.596362411148D-01
 TestDE:  II= 19 I=3 DE=    0.269788828037D-02
 Contribution from DD1=    0.71191160D-01
 ExpSMa:  Full in-core algorithm.
 ExpSMa:  Full in-core algorithm.
 ExpSMa:  Full in-core algorithm.
 ExpSMa:  Full in-core algorithm.
 ExpSMa:  Full in-core algorithm.
 ExpSMa:  Full in-core algorithm.
 ExpSMa:  Full in-core algorithm.
 ExpSMa:  Full in-core algorithm.
 ExpSMa:  Full in-core algorithm.
 ExpSMa:  Full in-core algorithm.
 ExpSMa:  Full in-core algorithm.
 ExpSMa:  Full in-core algorithm.
 ExpSMa:  Full in-core algorithm.
 ExpSMa:  Full in-core algorithm.
 ExpSMa:  Full in-core algorithm.
 ExpSMa:  Full in-core algorithm.
 TestDE:  II=419 I=1 DE=    0.217119044799D-01
 TestDE:  II=419 I=2 DE=    0.118657707029D+00
 TestDE:  II=419 I=3 DE=    0.979807519458D-02
 Contribution from DD2=    0.78976527D-01
 Contribution from DD3=    0.00000000D+00
 Singles added:  Sum=    0.13283162D+00
 Entering DoROCS
 TestDE:  II= 99 I=2 DE=    0.118657707029D+00
 TestDE:  II= 99 I=1 DE=    0.217119044799D-01
 TestDE:  II= 99 I=3 DE=    0.979807519458D-02
 TestDE:  II= 99 I=1 DE=    0.231972684038D-01
 TestDE:  II= 11 I=2 DE=    0.118657707029D+00
 TestDE:  II= 99 I=2 DE=    0.121408521255D+00
 TestDE:  II= 98 I=2 DE=    0.123998165102D+00
 TestDE:  II= 98 I=3 DE=    0.100677083280D-01
 TestDE:  II= 89 I=1 DE=    0.262164324722D-01
 TestDE:  II= 89 I=2 DE=    0.129897065311D+00
 TestDE:  II= 88 I=3 DE=    0.109313813340D-01
 TestDE:  II= 88 I=2 DE=    0.137642202513D+00
 TestDE:  II=  5 I=1 DE=   -0.246141808915D-01
 TestDE:  II=  7 I=2 DE=    0.906702869323D-01
 TestDE:  II=  8 I=2 DE=   -0.110306469452D+00
 TestDE:  II=  9 I=3 DE=   -0.747772217423D-02
 TestDE:  II= 50 I=1 DE=    0.160225158070D-02
 TestDE:  II= 70 I=2 DE=   -0.196361825196D-01
 TestDE:  II= 90 I=3 DE=    0.345365915976D-02
 UMP4Q scratch file information:
   i      file        len
 ---     ------    ------
   1      19997    310464
   2      19998    310464
   3      19996    310464
   4      19995    310464
   5      19994    310464
   6      19993     12544
 total scratch length=     1564864
 TestDE:  II= 71 I=2 DE=   -0.123341939138D-03
 TestDE:  II= 70 I=2 DE=   -0.369451278626D-04
 TestDE:  II= 72 I=2 DE=   -0.124165517414D-03
 TestDE:  II= 75 I=2 DE=   -0.192991775089D-01
 TestDE:  II= 75 I=1 DE=    0.169074882832D-02
 TestDE:  II= 75 I=3 DE=    0.349764343668D-02
 GetDE: DE=      0.00000000D+00
 TestDE:  II= 65 I=1 DE=    0.352956702790D-01
 TestDE:  II= 65 I=2 DE=    0.132274733144D+00
 TestDE:  II= 65 I=3 DE=    0.906388843740D-02
 Singles A-vector converged to   9.3579032D-06
 Singles A-vector converged to   2.1494561D-05
 The Euclidean norm of the A-vectors is   5.0959984D-05
 The Euclidean norm of the A-vectors is   6.6815035D-05
 The Euclidean norm of the A-vectors is   1.6141404D-04
 A(0)= 0.10000E+01      ANORM= 0.10922E+01      W(0)=-0.37560497E+00
 DE(Corr)= -0.37617706     E(CORR)=     -3846.9121172     Delta=-1.51D-07
 NORM(A)=   0.10921517D+01
 Iteration Nr.  12
 **********************
 DD1Dir will call FoFMem   1 times, MxPair=       494
 NAB=   168 NAA=    91 NBB=    66.
 DD1Dir:  Pass   1 NRAB=   168 NRAA=    91 NRBB=    66 NR=   493.
 TestDE:  II= 99 I=2 DE=    0.663734162675D-01
 TestDE:  II= 99 I=1 DE=    0.118615945700D-01
 TestDE:  II= 99 I=3 DE=    0.478496831218D-02
 TestDE:  II= 19 I=1 DE=    0.885688715939D-02
 TestDE:  II= 19 I=2 DE=    0.596360481779D-01
 TestDE:  II= 19 I=3 DE=    0.269780783226D-02
 Contribution from DD1=    0.71190743D-01
 ExpSMa:  Full in-core algorithm.
 ExpSMa:  Full in-core algorithm.
 ExpSMa:  Full in-core algorithm.
 ExpSMa:  Full in-core algorithm.
 ExpSMa:  Full in-core algorithm.
 ExpSMa:  Full in-core algorithm.
 ExpSMa:  Full in-core algorithm.
 ExpSMa:  Full in-core algorithm.
 ExpSMa:  Full in-core algorithm.
 ExpSMa:  Full in-core algorithm.
 ExpSMa:  Full in-core algorithm.
 ExpSMa:  Full in-core algorithm.
 ExpSMa:  Full in-core algorithm.
 ExpSMa:  Full in-core algorithm.
 ExpSMa:  Full in-core algorithm.
 ExpSMa:  Full in-core algorithm.
 TestDE:  II=419 I=1 DE=    0.217117208067D-01
 TestDE:  II=419 I=2 DE=    0.118657293804D+00
 TestDE:  II=419 I=3 DE=    0.979788248900D-02
 Contribution from DD2=    0.78976154D-01
 Contribution from DD3=    0.00000000D+00
 Singles added:  Sum=    0.13283026D+00
 Entering DoROCS
 TestDE:  II= 99 I=2 DE=    0.118657293804D+00
 TestDE:  II= 99 I=1 DE=    0.217117208067D-01
 TestDE:  II= 99 I=3 DE=    0.979788248900D-02
 TestDE:  II= 99 I=1 DE=    0.231971216339D-01
 TestDE:  II= 11 I=2 DE=    0.118657293804D+00
 TestDE:  II= 99 I=2 DE=    0.121408108833D+00
 TestDE:  II= 98 I=2 DE=    0.123997726417D+00
 TestDE:  II= 98 I=3 DE=    0.100675069042D-01
 TestDE:  II= 89 I=1 DE=    0.262163192848D-01
 TestDE:  II= 89 I=2 DE=    0.129896622618D+00
 TestDE:  II= 88 I=3 DE=    0.109311512751D-01
 TestDE:  II= 88 I=2 DE=    0.137641706734D+00
 TestDE:  II=  5 I=1 DE=   -0.246142954043D-01
 TestDE:  II=  7 I=2 DE=    0.906692655565D-01
 TestDE:  II=  8 I=2 DE=   -0.110306126089D+00
 TestDE:  II=  9 I=3 DE=   -0.747751040106D-02
 TestDE:  II= 50 I=1 DE=    0.160202388044D-02
 TestDE:  II= 70 I=2 DE=   -0.196368605328D-01
 TestDE:  II= 90 I=3 DE=    0.345364087405D-02
 UMP4Q scratch file information:
   i      file        len
 ---     ------    ------
   1      19997    310464
   2      19998    310464
   3      19996    310464
   4      19995    310464
   5      19994    310464
   6      19993     12544
 total scratch length=     1564864
 TestDE:  II= 71 I=2 DE=   -0.123334536226D-03
 TestDE:  II= 70 I=2 DE=   -0.369365263951D-04
 TestDE:  II= 72 I=2 DE=   -0.124168653285D-03
 TestDE:  II= 75 I=2 DE=   -0.192998598081D-01
 TestDE:  II= 75 I=1 DE=    0.169052196924D-02
 TestDE:  II= 75 I=3 DE=    0.349763121480D-02
 GetDE: DE=      0.00000000D+00
 TestDE:  II= 65 I=1 DE=    0.352959834491D-01
 TestDE:  II= 65 I=2 DE=    0.132274204373D+00
 TestDE:  II= 65 I=3 DE=    0.906371761532D-02
 Singles A-vector converged to   4.8245806D-06
 Singles A-vector converged to   9.9018989D-06
 The Euclidean norm of the A-vectors is   2.5853639D-05
 The Euclidean norm of the A-vectors is   3.4470613D-05
 The Euclidean norm of the A-vectors is   8.3243040D-05
 A(0)= 0.10000E+01      ANORM= 0.10922E+01      W(0)=-0.37560539E+00
 DE(Corr)= -0.37617769     E(CORR)=     -3846.9121178     Delta=-6.30D-07
 NORM(A)=   0.10921522D+01
 Iteration Nr.  13
 **********************
 DD1Dir will call FoFMem   1 times, MxPair=       494
 NAB=   168 NAA=    91 NBB=    66.
 DD1Dir:  Pass   1 NRAB=   168 NRAA=    91 NRBB=    66 NR=   493.
 TestDE:  II= 99 I=2 DE=    0.663735612874D-01
 TestDE:  II= 99 I=1 DE=    0.118616431953D-01
 TestDE:  II= 99 I=3 DE=    0.478498603929D-02
 TestDE:  II= 19 I=1 DE=    0.885695319979D-02
 TestDE:  II= 19 I=2 DE=    0.596362451242D-01
 TestDE:  II= 19 I=3 DE=    0.269783039043D-02
 Contribution from DD1=    0.71191029D-01
 ExpSMa:  Full in-core algorithm.
 ExpSMa:  Full in-core algorithm.
 ExpSMa:  Full in-core algorithm.
 ExpSMa:  Full in-core algorithm.
 ExpSMa:  Full in-core algorithm.
 ExpSMa:  Full in-core algorithm.
 ExpSMa:  Full in-core algorithm.
 ExpSMa:  Full in-core algorithm.
 ExpSMa:  Full in-core algorithm.
 ExpSMa:  Full in-core algorithm.
 ExpSMa:  Full in-core algorithm.
 ExpSMa:  Full in-core algorithm.
 ExpSMa:  Full in-core algorithm.
 ExpSMa:  Full in-core algorithm.
 ExpSMa:  Full in-core algorithm.
 ExpSMa:  Full in-core algorithm.
 TestDE:  II=419 I=1 DE=    0.217119117631D-01
 TestDE:  II=419 I=2 DE=    0.118657720139D+00
 TestDE:  II=419 I=3 DE=    0.979792290738D-02
 Contribution from DD2=    0.78976526D-01
 Contribution from DD3=    0.00000000D+00
 Singles added:  Sum=    0.13283084D+00
 Entering DoROCS
 TestDE:  II= 99 I=2 DE=    0.118657720139D+00
 TestDE:  II= 99 I=1 DE=    0.217119117631D-01
 TestDE:  II= 99 I=3 DE=    0.979792290738D-02
 TestDE:  II= 99 I=1 DE=    0.231973563560D-01
 TestDE:  II= 11 I=2 DE=    0.118657720139D+00
 TestDE:  II= 99 I=2 DE=    0.121408580342D+00
 TestDE:  II= 98 I=2 DE=    0.123998231892D+00
 TestDE:  II= 98 I=3 DE=    0.100675520110D-01
 TestDE:  II= 89 I=1 DE=    0.262165839762D-01
 TestDE:  II= 89 I=2 DE=    0.129897132412D+00
 TestDE:  II= 88 I=3 DE=    0.109311841346D-01
 TestDE:  II= 88 I=2 DE=    0.137642196824D+00
 TestDE:  II=  5 I=1 DE=   -0.246146590610D-01
 TestDE:  II=  7 I=2 DE=    0.906694462465D-01
 TestDE:  II=  8 I=2 DE=   -0.110306386243D+00
 TestDE:  II=  9 I=3 DE=   -0.747749077021D-02
 TestDE:  II= 50 I=1 DE=    0.160192491520D-02
 TestDE:  II= 70 I=2 DE=   -0.196369399961D-01
 TestDE:  II= 90 I=3 DE=    0.345369336444D-02
 UMP4Q scratch file information:
   i      file        len
 ---     ------    ------
   1      19997    310464
   2      19998    310464
   3      19996    310464
   4      19995    310464
   5      19994    310464
   6      19993     12544
 total scratch length=     1564864
 TestDE:  II= 71 I=2 DE=   -0.123329037346D-03
 TestDE:  II= 70 I=2 DE=   -0.369324551569D-04
 TestDE:  II= 72 I=2 DE=   -0.124167279515D-03
 TestDE:  II= 75 I=2 DE=   -0.192999473713D-01
 TestDE:  II= 75 I=1 DE=    0.169042236621D-02
 TestDE:  II= 75 I=3 DE=    0.349768508051D-02
 GetDE: DE=      0.00000000D+00
 TestDE:  II= 65 I=1 DE=    0.352963426081D-01
 TestDE:  II= 65 I=2 DE=    0.132274275876D+00
 TestDE:  II= 65 I=3 DE=    0.906367457306D-02
 Singles A-vector converged to   2.5382417D-06
 Singles A-vector converged to   4.8760997D-06
 The Euclidean norm of the A-vectors is   1.3231004D-05
 The Euclidean norm of the A-vectors is   1.7217769D-05
 The Euclidean norm of the A-vectors is   4.1446985D-05
 A(0)= 0.10000E+01      ANORM= 0.10922E+01      W(0)=-0.37560525E+00
 DE(Corr)= -0.37617760     E(CORR)=     -3846.9121177     Delta= 8.40D-08
 NORM(A)=   0.10921525D+01
 Iteration Nr.  14
 **********************
 DD1Dir will call FoFMem   1 times, MxPair=       494
 NAB=   168 NAA=    91 NBB=    66.
 DD1Dir:  Pass   1 NRAB=   168 NRAA=    91 NRBB=    66 NR=   493.
 TestDE:  II= 99 I=2 DE=    0.663735936732D-01
 TestDE:  II= 99 I=1 DE=    0.118616775956D-01
 TestDE:  II= 99 I=3 DE=    0.478499186490D-02
 TestDE:  II= 19 I=1 DE=    0.885699249023D-02
 TestDE:  II= 19 I=2 DE=    0.596362906910D-01
 TestDE:  II= 19 I=3 DE=    0.269782821892D-02
 Contribution from DD1=    0.71191111D-01
 ExpSMa:  Full in-core algorithm.
 ExpSMa:  Full in-core algorithm.
 ExpSMa:  Full in-core algorithm.
 ExpSMa:  Full in-core algorithm.
 ExpSMa:  Full in-core algorithm.
 ExpSMa:  Full in-core algorithm.
 ExpSMa:  Full in-core algorithm.
 ExpSMa:  Full in-core algorithm.
 ExpSMa:  Full in-core algorithm.
 ExpSMa:  Full in-core algorithm.
 ExpSMa:  Full in-core algorithm.
 ExpSMa:  Full in-core algorithm.
 ExpSMa:  Full in-core algorithm.
 ExpSMa:  Full in-core algorithm.
 ExpSMa:  Full in-core algorithm.
 ExpSMa:  Full in-core algorithm.
 TestDE:  II=419 I=1 DE=    0.217120063207D-01
 TestDE:  II=419 I=2 DE=    0.118657763714D+00
 TestDE:  II=419 I=3 DE=    0.979789969056D-02
 Contribution from DD2=    0.78976558D-01
 Contribution from DD3=    0.00000000D+00
 Singles added:  Sum=    0.13283085D+00
 Entering DoROCS
 TestDE:  II= 99 I=2 DE=    0.118657763714D+00
 TestDE:  II= 99 I=1 DE=    0.217120063207D-01
 TestDE:  II= 99 I=3 DE=    0.979789969056D-02
 TestDE:  II= 99 I=1 DE=    0.231974728199D-01
 TestDE:  II= 11 I=2 DE=    0.118657763714D+00
 TestDE:  II= 99 I=2 DE=    0.121408637508D+00
 TestDE:  II= 98 I=2 DE=    0.123998298379D+00
 TestDE:  II= 98 I=3 DE=    0.100675283496D-01
 TestDE:  II= 89 I=1 DE=    0.262167268713D-01
 TestDE:  II= 89 I=2 DE=    0.129897210088D+00
 TestDE:  II= 88 I=3 DE=    0.109311533944D-01
 TestDE:  II= 88 I=2 DE=    0.137642268408D+00
 TestDE:  II=  5 I=1 DE=   -0.246149472646D-01
 TestDE:  II=  7 I=2 DE=    0.906693159113D-01
 TestDE:  II=  8 I=2 DE=   -0.110306403752D+00
 TestDE:  II=  9 I=3 DE=   -0.747746181732D-02
 TestDE:  II= 50 I=1 DE=    0.160177960670D-02
 TestDE:  II= 70 I=2 DE=   -0.196370878409D-01
 TestDE:  II= 90 I=3 DE=    0.345369157705D-02
 UMP4Q scratch file information:
   i      file        len
 ---     ------    ------
   1      19997    310464
   2      19998    310464
   3      19996    310464
   4      19995    310464
   5      19994    310464
   6      19993     12544
 total scratch length=     1564864
 TestDE:  II= 71 I=2 DE=   -0.123326012450D-03
 TestDE:  II= 70 I=2 DE=   -0.369302515865D-04
 TestDE:  II= 72 I=2 DE=   -0.124166827766D-03
 TestDE:  II= 75 I=2 DE=   -0.193000986348D-01
 TestDE:  II= 75 I=1 DE=    0.169027677580D-02
 TestDE:  II= 75 I=3 DE=    0.349768460385D-02
 GetDE: DE=      0.00000000D+00
 TestDE:  II= 65 I=1 DE=    0.352966418802D-01
 TestDE:  II= 65 I=2 DE=    0.132274333129D+00
 TestDE:  II= 65 I=3 DE=    0.906364133385D-02
 Singles A-vector converged to   9.9213579D-07
 Singles A-vector converged to   1.6121792D-06
 The Euclidean norm of the A-vectors is   5.1168375D-06
 The Euclidean norm of the A-vectors is   6.6437672D-06
 The Euclidean norm of the A-vectors is   1.5361088D-05
 A(0)= 0.10000E+01      ANORM= 0.10922E+01      W(0)=-0.37560525E+00
 DE(Corr)= -0.37617773     E(CORR)=     -3846.9121178     Delta=-1.25D-07
 NORM(A)=   0.10921527D+01
 Iteration Nr.  15
 **********************
 DD1Dir will call FoFMem   1 times, MxPair=       494
 NAB=   168 NAA=    91 NBB=    66.
 DD1Dir:  Pass   1 NRAB=   168 NRAA=    91 NRBB=    66 NR=   493.
 TestDE:  II= 99 I=2 DE=    0.663735892416D-01
 TestDE:  II= 99 I=1 DE=    0.118617141514D-01
 TestDE:  II= 99 I=3 DE=    0.478499612421D-02
 TestDE:  II= 19 I=1 DE=    0.885703480222D-02
 TestDE:  II= 19 I=2 DE=    0.596362924937D-01
 TestDE:  II= 19 I=3 DE=    0.269783310698D-02
 Contribution from DD1=    0.71191160D-01
 ExpSMa:  Full in-core algorithm.
 ExpSMa:  Full in-core algorithm.
 ExpSMa:  Full in-core algorithm.
 ExpSMa:  Full in-core algorithm.
 ExpSMa:  Full in-core algorithm.
 ExpSMa:  Full in-core algorithm.
 ExpSMa:  Full in-core algorithm.
 ExpSMa:  Full in-core algorithm.
 ExpSMa:  Full in-core algorithm.
 ExpSMa:  Full in-core algorithm.
 ExpSMa:  Full in-core algorithm.
 ExpSMa:  Full in-core algorithm.
 ExpSMa:  Full in-core algorithm.
 ExpSMa:  Full in-core algorithm.
 ExpSMa:  Full in-core algorithm.
 ExpSMa:  Full in-core algorithm.
 TestDE:  II=419 I=1 DE=    0.217120971974D-01
 TestDE:  II=419 I=2 DE=    0.118657762421D+00
 TestDE:  II=419 I=3 DE=    0.979790487061D-02
 Contribution from DD2=    0.78976604D-01
 Contribution from DD3=    0.00000000D+00
 Singles added:  Sum=    0.13283092D+00
 Entering DoROCS
 TestDE:  II= 99 I=2 DE=    0.118657762421D+00
 TestDE:  II= 99 I=1 DE=    0.217120971974D-01
 TestDE:  II= 99 I=3 DE=    0.979790487061D-02
 TestDE:  II= 99 I=1 DE=    0.231975769333D-01
 TestDE:  II= 11 I=2 DE=    0.118657762421D+00
 TestDE:  II= 99 I=2 DE=    0.121408641640D+00
 TestDE:  II= 98 I=2 DE=    0.123998306694D+00
 TestDE:  II= 98 I=3 DE=    0.100675343002D-01
 TestDE:  II= 89 I=1 DE=    0.262168489796D-01
 TestDE:  II= 89 I=2 DE=    0.129897220703D+00
 TestDE:  II= 88 I=3 DE=    0.109311584002D-01
 TestDE:  II= 88 I=2 DE=    0.137642274505D+00
 TestDE:  II=  5 I=1 DE=   -0.246151401675D-01
 TestDE:  II=  7 I=2 DE=    0.906692957971D-01
 TestDE:  II=  8 I=2 DE=   -0.110306390277D+00
 TestDE:  II=  9 I=3 DE=   -0.747746531816D-02
 TestDE:  II= 50 I=1 DE=    0.160170881215D-02
 TestDE:  II= 70 I=2 DE=   -0.196370944799D-01
 TestDE:  II= 90 I=3 DE=    0.345369308209D-02
 UMP4Q scratch file information:
   i      file        len
 ---     ------    ------
   1      19997    310464
   2      19998    310464
   3      19996    310464
   4      19995    310464
   5      19994    310464
   6      19993     12544
 total scratch length=     1564864
 TestDE:  II= 71 I=2 DE=   -0.123325001287D-03
 TestDE:  II= 70 I=2 DE=   -0.369297421437D-04
 TestDE:  II= 72 I=2 DE=   -0.124166487418D-03
 TestDE:  II= 75 I=2 DE=   -0.193001065691D-01
 TestDE:  II= 75 I=1 DE=    0.169020563825D-02
 TestDE:  II= 75 I=3 DE=    0.349768625597D-02
 GetDE: DE=      0.00000000D+00
 TestDE:  II= 65 I=1 DE=    0.352968292580D-01
 TestDE:  II= 65 I=2 DE=    0.132274351326D+00
 TestDE:  II= 65 I=3 DE=    0.906364072901D-02
 Singles A-vector converged to   4.3586252D-07
 Singles A-vector converged to   6.6396170D-07
 The Euclidean norm of the A-vectors is   2.1936363D-06
 The Euclidean norm of the A-vectors is   2.9610226D-06
 The Euclidean norm of the A-vectors is   6.9800593D-06
 A(0)= 0.10000E+01      ANORM= 0.10922E+01      W(0)=-0.37560526E+00
 DE(Corr)= -0.37617774     E(CORR)=     -3846.9121178     Delta=-1.06D-08
 NORM(A)=   0.10921528D+01
 Largest amplitude= 8.99D-02
    T4(aaa)= -0.18830076D-02
    T5(aaa)=  0.26740787D-03
    T4(aab)= -0.15756353D-01
    T5(aab)=  0.15359797D-02
    T4(abb)= -0.10117106D-01
    T5(abb)=  0.12001676D-02
    T4(bbb)= -0.85004436D-03
    T5(bbb)=  0.13607397D-03
 Time for triples=      477.81 seconds.
 T4(CCSD)= -0.28606511D-01
 T5(CCSD)=  0.31396291D-02
 CCSD(T)= -0.38469375847D+04

 **********************************************************************

            Population analysis using the SCF density.

 **********************************************************************

 Orbital symmetries:
       Occupied  (SGG) (SGU) (SGG) (SGU) (SGU) (SGG) (PIG) (PIG)
                 (PIU) (PIU) (SGG) (SGU) (SGG) (SGU) (PIU) (PIU)
                 (PIG) (PIG) (SGG) (PIU) (PIU) (PIG) (PIG) (DLTG)
                 (DLTG) (DLTU) (DLTU) (SGU) (SGG) (SGU) (PIU) (PIU)
       Virtual   (SGG) (SGU) (PIG) (PIG) (PIU) (PIU) (SGG) (SGG)
                 (PIG) (PIG) (SGU) (SGU) (DLTG) (DLTG) (PIU) (PIU)
                 (SGG) (DLTU) (DLTU) (PIU) (PIU) (PIG) (PIG) (SGU)
                 (SGG) (PIG) (PIG) (SGU) (SGG) (PIU) (PIU) (DLTG)
                 (DLTG) (PHIU) (PHIU) (DLTG) (DLTG) (SGG) (DLTU)
                 (DLTU) (PHIG) (PHIG) (PIG) (PIG) (SGU) (PIU) (PIU)
                 (DLTU) (DLTU) (SGU) (SGG) (PIG) (PIG) (PIU) (PIU)
                 (SGU) (PIG) (PIG) (SGG) (PIU) (PIU) (SGG) (DLTG)
                 (DLTG) (PHIU) (PHIU) (SGU) (DLTG) (DLTG) (?A)
                 (?A) (DLTU) (DLTU) (?B) (?B) (PIU) (PIU) (PHIU)
                 (PHIU) (PHIG) (PHIG) (PIG) (PIG) (DLTG) (DLTG)
                 (SGG) (DLTU) (DLTU) (PHIG) (PHIG) (SGU) (PIG)
                 (PIG) (PIU) (PIU) (SGU) (DLTU) (DLTU) (SGU) (SGG)
                 (SGG) (PIG) (PIG) (PIU) (PIU) (SGU) (PIG) (PIG)
                 (SGG) (SGU)
 The electronic state is 3-SGG.
 Alpha  occ. eigenvalues -- -378.82881-378.82881 -48.17881 -48.17880 -42.50494
 Alpha  occ. eigenvalues --  -42.50494 -42.50494 -42.50494 -42.50449 -42.50449
 Alpha  occ. eigenvalues --   -6.40596  -6.40590  -4.49504  -4.49441  -4.49406
 Alpha  occ. eigenvalues --   -4.49406  -4.49398  -4.49398  -1.21335  -1.20891
 Alpha  occ. eigenvalues --   -1.20891  -1.20405  -1.20405  -1.20332  -1.20332
 Alpha  occ. eigenvalues --   -1.20292  -1.20292  -1.20044  -0.56777  -0.37761
 Alpha  occ. eigenvalues --   -0.23033  -0.23033
 Alpha virt. eigenvalues --   -0.02612   0.02465   0.02542   0.02542   0.04369
 Alpha virt. eigenvalues --    0.04369   0.04723   0.05961   0.07076   0.07076
 Alpha virt. eigenvalues --    0.10163   0.18911   0.18911   0.19130   0.23722
 Alpha virt. eigenvalues --    0.23722   0.25342   0.28387   0.28387   0.33976
 Alpha virt. eigenvalues --    0.33976   0.36641   0.36641   0.37134   0.39148
 Alpha virt. eigenvalues --    0.39381   0.39381   0.47498   0.52025   0.64990
 Alpha virt. eigenvalues --    0.64990   0.65249   0.65249   0.69854   0.69854
 Alpha virt. eigenvalues --    0.73267   0.73267   0.73808   0.75834   0.75834
 Alpha virt. eigenvalues --    0.79699   0.79699   0.85179   0.85179   0.85935
 Alpha virt. eigenvalues --    0.89519   0.89519   0.95253   0.95253   0.97777
 Alpha virt. eigenvalues --    1.00737   1.09641   1.09641   1.27802   1.27802
 Alpha virt. eigenvalues --    1.29005   1.43855   1.43855   1.44147   1.73593
 Alpha virt. eigenvalues --    1.73593   1.73933   1.78489   1.78489   1.82563
 Alpha virt. eigenvalues --    1.82563   1.91167   1.91167   1.91329   1.91555
[...]
 Singles A-vector converged to   4.4041448D-06
 The Euclidean norm of the A-vectors is   1.2256413D-05
 The Euclidean norm of the A-vectors is   1.6118012D-05
 The Euclidean norm of the A-vectors is   3.9176725D-05
 A(0)= 0.10000E+01      ANORM= 0.10917E+01      W(0)=-0.37777014E+00
 DE(Corr)= -0.37838339     E(CORR)=     -3846.9127027     Delta= 8.42D-08
 NORM(A)=   0.10917348D+01
 Iteration Nr.  14
 **********************
 DD1Dir will call FoFMem   1 times, MxPair=       494
 NAB=   168 NAA=    91 NBB=    66.
 DD1Dir:  Pass   1 NRAB=   168 NRAA=    91 NRBB=    66 NR=   493.
 TestDE:  II= 99 I=2 DE=    0.665022726405D-01
 TestDE:  II= 99 I=1 DE=    0.116044664013D-01
 TestDE:  II= 99 I=3 DE=    0.482446663124D-02
 TestDE:  II= 19 I=1 DE=    0.856322245753D-02
 TestDE:  II= 19 I=2 DE=    0.596725610306D-01
 TestDE:  II= 19 I=3 DE=    0.272912294904D-02
 Contribution from DD1=    0.70964906D-01
 ExpSMa:  Full in-core algorithm.
 ExpSMa:  Full in-core algorithm.
 ExpSMa:  Full in-core algorithm.
 ExpSMa:  Full in-core algorithm.
 ExpSMa:  Full in-core algorithm.
 ExpSMa:  Full in-core algorithm.
 ExpSMa:  Full in-core algorithm.
 ExpSMa:  Full in-core algorithm.
 ExpSMa:  Full in-core algorithm.
 ExpSMa:  Full in-core algorithm.
 ExpSMa:  Full in-core algorithm.
 ExpSMa:  Full in-core algorithm.
 ExpSMa:  Full in-core algorithm.
 ExpSMa:  Full in-core algorithm.
 ExpSMa:  Full in-core algorithm.
 ExpSMa:  Full in-core algorithm.
 TestDE:  II=419 I=1 DE=    0.211767261968D-01
 TestDE:  II=419 I=2 DE=    0.118846114194D+00
 TestDE:  II=419 I=3 DE=    0.986675657968D-02
 Contribution from DD2=    0.78924691D-01
 Contribution from DD3=    0.00000000D+00
 Singles added:  Sum=    0.13241849D+00
 Entering DoROCS
 TestDE:  II= 99 I=2 DE=    0.118846114194D+00
 TestDE:  II= 99 I=1 DE=    0.211767261968D-01
 TestDE:  II= 99 I=3 DE=    0.986675657968D-02
 TestDE:  II= 99 I=1 DE=    0.225870950953D-01
 TestDE:  II= 11 I=2 DE=    0.118846114194D+00
 TestDE:  II= 99 I=2 DE=    0.121652714712D+00
 TestDE:  II= 98 I=2 DE=    0.124310398636D+00
 TestDE:  II= 98 I=3 DE=    0.101427046673D-01
 TestDE:  II= 89 I=1 DE=    0.254964400674D-01
 TestDE:  II= 89 I=2 DE=    0.130295191398D+00
 TestDE:  II= 88 I=3 DE=    0.110244419013D-01
 TestDE:  II= 88 I=2 DE=    0.138154351017D+00
 TestDE:  II=  5 I=1 DE=   -0.234451769869D-01
 TestDE:  II=  7 I=2 DE=    0.915200911085D-01
 TestDE:  II=  8 I=2 DE=   -0.110738352747D+00
 TestDE:  II=  9 I=3 DE=   -0.750448678988D-02
 TestDE:  II= 50 I=1 DE=    0.205126308056D-02
 TestDE:  II= 70 I=2 DE=   -0.192182616382D-01
 TestDE:  II= 90 I=3 DE=    0.351995511147D-02
 UMP4Q scratch file information:
   i      file        len
 ---     ------    ------
   1      19997    310464
   2      19998    310464
   3      19996    310464
   4      19995    310464
   5      19994    310464
   6      19993     12544
 total scratch length=     1564864
 TestDE:  II= 71 I=2 DE=   -0.124867604743D-03
 TestDE:  II= 70 I=2 DE=   -0.383940056526D-04
 TestDE:  II= 72 I=2 DE=   -0.125975978648D-03
 TestDE:  II= 75 I=2 DE=   -0.188773746143D-01
 TestDE:  II= 75 I=1 DE=    0.214209269387D-02
 TestDE:  II= 75 I=3 DE=    0.356314074562D-02
 GetDE: DE=      0.00000000D+00
 TestDE:  II= 65 I=1 DE=    0.337028887588D-01
 TestDE:  II= 65 I=2 DE=    0.132860594822D+00
 TestDE:  II= 65 I=3 DE=    0.916973705164D-02
 Singles A-vector converged to   9.0941184D-07
 Singles A-vector converged to   1.4491785D-06
 The Euclidean norm of the A-vectors is   4.5728651D-06
 The Euclidean norm of the A-vectors is   6.0472944D-06
 The Euclidean norm of the A-vectors is   1.4306135D-05
 A(0)= 0.10000E+01      ANORM= 0.10917E+01      W(0)=-0.37777015E+00
 DE(Corr)= -0.37838351     E(CORR)=     -3846.9127028     Delta=-1.22D-07
 NORM(A)=   0.10917350D+01
 Iteration Nr.  15
 **********************
 DD1Dir will call FoFMem   1 times, MxPair=       494
 NAB=   168 NAA=    91 NBB=    66.
 DD1Dir:  Pass   1 NRAB=   168 NRAA=    91 NRBB=    66 NR=   493.
 TestDE:  II= 99 I=2 DE=    0.665022862208D-01
 TestDE:  II= 99 I=1 DE=    0.116044890252D-01
 TestDE:  II= 99 I=3 DE=    0.482447008470D-02
 TestDE:  II= 19 I=1 DE=    0.856325033985D-02
 TestDE:  II= 19 I=2 DE=    0.596725767993D-01
 TestDE:  II= 19 I=3 DE=    0.272912719428D-02
 Contribution from DD1=    0.70964954D-01
 ExpSMa:  Full in-core algorithm.
 ExpSMa:  Full in-core algorithm.
 ExpSMa:  Full in-core algorithm.
 ExpSMa:  Full in-core algorithm.
 ExpSMa:  Full in-core algorithm.
 ExpSMa:  Full in-core algorithm.
 ExpSMa:  Full in-core algorithm.
 ExpSMa:  Full in-core algorithm.
 ExpSMa:  Full in-core algorithm.
 ExpSMa:  Full in-core algorithm.
 ExpSMa:  Full in-core algorithm.
 ExpSMa:  Full in-core algorithm.
 ExpSMa:  Full in-core algorithm.
 ExpSMa:  Full in-core algorithm.
 ExpSMa:  Full in-core algorithm.
 ExpSMa:  Full in-core algorithm.
 TestDE:  II=419 I=1 DE=    0.211767876436D-01
 TestDE:  II=419 I=2 DE=    0.118846144148D+00
 TestDE:  II=419 I=3 DE=    0.986676137029D-02
 Contribution from DD2=    0.78924739D-01
 Contribution from DD3=    0.00000000D+00
 Singles added:  Sum=    0.13241856D+00
 Entering DoROCS
 TestDE:  II= 99 I=2 DE=    0.118846144148D+00
 TestDE:  II= 99 I=1 DE=    0.211767876436D-01
 TestDE:  II= 99 I=3 DE=    0.986676137029D-02
 TestDE:  II= 99 I=1 DE=    0.225871655876D-01
 TestDE:  II= 11 I=2 DE=    0.118846144148D+00
 TestDE:  II= 99 I=2 DE=    0.121652752073D+00
 TestDE:  II= 98 I=2 DE=    0.124310442130D+00
 TestDE:  II= 98 I=3 DE=    0.101427102150D-01
 TestDE:  II= 89 I=1 DE=    0.254965222400D-01
 TestDE:  II= 89 I=2 DE=    0.130295240449D+00
 TestDE:  II= 88 I=3 DE=    0.110244466902D-01
 TestDE:  II= 88 I=2 DE=    0.138154401748D+00
 TestDE:  II=  5 I=1 DE=   -0.234453102453D-01
 TestDE:  II=  7 I=2 DE=    0.915200924304D-01
 TestDE:  II=  8 I=2 DE=   -0.110738385052D+00
 TestDE:  II=  9 I=3 DE=   -0.750449034959D-02
 TestDE:  II= 50 I=1 DE=    0.205121199461D-02
 TestDE:  II= 70 I=2 DE=   -0.192182926212D-01
 TestDE:  II= 90 I=3 DE=    0.351995634066D-02
 UMP4Q scratch file information:
   i      file        len
 ---     ------    ------
   1      19997    310464
   2      19998    310464
   3      19996    310464
   4      19995    310464
   5      19994    310464
   6      19993     12544
 total scratch length=     1564864
 TestDE:  II= 71 I=2 DE=   -0.124866840664D-03
 TestDE:  II= 70 I=2 DE=   -0.383936140161D-04
 TestDE:  II= 72 I=2 DE=   -0.125975730147D-03
 TestDE:  II= 75 I=2 DE=   -0.188774065967D-01
 TestDE:  II= 75 I=1 DE=    0.214204124360D-02
 TestDE:  II= 75 I=3 DE=    0.356314204763D-02
 GetDE: DE=      0.00000000D+00
 TestDE:  II= 65 I=1 DE=    0.337030166103D-01
 TestDE:  II= 65 I=2 DE=    0.132860673289D+00
 TestDE:  II= 65 I=3 DE=    0.916973708949D-02
 Singles A-vector converged to   4.0301378D-07
 Singles A-vector converged to   6.2652247D-07
 The Euclidean norm of the A-vectors is   1.9563355D-06
 The Euclidean norm of the A-vectors is   2.6729446D-06
 The Euclidean norm of the A-vectors is   6.3900519D-06
 A(0)= 0.10000E+01      ANORM= 0.10917E+01      W(0)=-0.37777016E+00
 DE(Corr)= -0.37838353     E(CORR)=     -3846.9127028     Delta=-1.08D-08
 NORM(A)=   0.10917350D+01
 Largest amplitude= 9.48D-02
    T4(aaa)= -0.18623438D-02
    T5(aaa)=  0.27141793D-03
    T4(aab)= -0.15855128D-01
    T5(aab)=  0.15624546D-02
    T4(abb)= -0.10255517D-01
    T5(abb)=  0.12118353D-02
    T4(bbb)= -0.85901161D-03
    T5(bbb)=  0.13601678D-03
 Time for triples=      485.93 seconds.
 T4(CCSD)= -0.28832001D-01
 T5(CCSD)=  0.31817246D-02
 CCSD(T)= -0.38469383531D+04

 NEF-NEF-NEF-NEF-NEF-NEF-NEF-NEF-NEF-NEF-NEF-NEF-NEF-NEF-NEF-NEF-NEF-NEF-
 NUMERICAL EIGENVECTOR FOLLOWING MINIMUM SEARCH
 GRADIENT ESTIMATION COMPLETE
 Hessian updated using Powell update
 ITERATION   4
 HESSIAN EIGENVECTORS AND EIGENVALUES
                           1
     Eigenvalues --     0.06567
   1         R          1.00000
 MINIMUM SEARCH. TAKING SIMPLE RFO STEP
 SEARCHING FOR LAMDA THAT MINIMIZES ALONG ALL MODES
 VALUE TAKEN    LAMDA=   0.00000000
 STEP TAKEN. STEPSIZE IS  0.000002
 CURRENT PARAMETER VALUES (INTERNAL COORDINATES)
    I        X         GRADIENT    DISPLACEMENT       NEWX
    1    4.555351      0.000000     -0.000002      4.555349
         ITEM               VALUE     THRESHOLD  CONVERGED?
 MAXIMUM FORCE            0.000000     0.000015     YES
 RMS     FORCE            0.000000     0.000010     YES
 MAXIMUM DISPLACEMENT     0.000002     0.000060     YES
 RMS     DISPLACEMENT     0.000002     0.000040     YES


 *************************************************
 **  CONVERGENCE CRITERIA APPARENTLY SATISFIED  **
 *************************************************


                       ----------------------------
                       !   Optimized Parameters   !
                       ! (Angstroms and Degrees)  !
 ----------------------                            ----------------------
 !      Name          Value   Derivative information (Atomic Units)     !
 ------------------------------------------------------------------------
 !        R          2.4106   -DE/DX =    0.0                           !
 ------------------------------------------------------------------------
 PREDICTED CHANGE IN ENERGY   0.000000

 NEF-NEF-NEF-NEF-NEF-NEF-NEF-NEF-NEF-NEF-NEF-NEF-NEF-NEF-NEF-NEF-NEF-NEF-
 ---------------------------------------------------------------------------------------------------
                            Z-MATRIX (ANGSTROMS AND DEGREES)
   CD    Cent   Atom    N1       Length/X        N2       Alpha/Y        N3        Beta/Z          J
 ---------------------------------------------------------------------------------------------------
      1      1  Ga
      2      2  Ga       1   2.410588(     1)
 ---------------------------------------------------------------------------------------------------
                         Z-Matrix orientation:                         
 ---------------------------------------------------------------------
 Center     Atomic      Atomic             Coordinates (Angstroms)
 Number     Number       Type             X           Y           Z
 ---------------------------------------------------------------------
      1         31           0        0.000000    0.000000    0.000000
      2         31           0        0.000000    0.000000    2.410588
 ---------------------------------------------------------------------
 Stoichiometry    Ga2(3)
 Framework group  D*H[C*(Ga.Ga)]
 Deg. of freedom     1
 Full point group                 D*H     NOp   8
 Largest Abelian subgroup         D2H     NOp   8
 Largest concise Abelian subgroup C2      NOp   2
                         Standard orientation:                         
 ---------------------------------------------------------------------
 Center     Atomic      Atomic             Coordinates (Angstroms)
 Number     Number       Type             X           Y           Z
 ---------------------------------------------------------------------
      1         31           0        0.000000    0.000000    1.205294
      2         31           0        0.000000    0.000000   -1.205294
 ---------------------------------------------------------------------
 Rotational constants (GHZ):      0.0000000      2.5236013      2.5236013

 **********************************************************************

            Population analysis using the SCF density.

 **********************************************************************

 Orbital symmetries:
       Occupied  (SGG) (SGU) (SGU) (SGG) (SGU) (SGG) (PIG) (PIG)
                 (PIU) (PIU) (SGG) (SGU) (SGG) (SGU) (PIU) (PIU)
                 (PIG) (PIG) (SGG) (PIU) (PIU) (DLTG) (DLTG) (PIG)
                 (PIG) (DLTU) (DLTU) (SGU) (SGG) (SGU) (PIU) (PIU)
       Virtual   (SGG) (SGU) (PIG) (PIG) (PIU) (PIU) (SGG) (SGG)
                 (PIG) (PIG) (SGU) (SGU) (DLTG) (DLTG) (PIU) (PIU)
                 (SGG) (DLTU) (DLTU) (PIU) (PIU) (SGU) (PIG) (PIG)
                 (SGG) (PIG) (PIG) (SGU) (SGG) (PIU) (PIU) (DLTG)
                 (DLTG) (PHIU) (PHIU) (DLTG) (DLTG) (SGG) (DLTU)
                 (DLTU) (PHIG) (PHIG) (PIG) (PIG) (SGU) (PIU) (PIU)
                 (DLTU) (DLTU) (SGU) (SGG) (PIG) (PIG) (PIU) (PIU)
                 (SGU) (PIG) (PIG) (SGG) (PIU) (PIU) (SGG) (DLTG)
                 (DLTG) (PHIU) (PHIU) (DLTG) (DLTG) (?A) (?A) (SGU)
                 (DLTU) (DLTU) (?B) (?B) (PHIU) (PHIU) (PIU) (PIU)
                 (PHIG) (PHIG) (PIG) (PIG) (DLTG) (DLTG) (SGG)
                 (DLTU) (DLTU) (PHIG) (PHIG) (PIG) (PIG) (SGU)
                 (PIU) (PIU) (SGU) (DLTU) (DLTU) (SGU) (SGG) (SGG)
                 (PIG) (PIG) (PIU) (PIU) (PIG) (PIG) (SGG) (SGU)
                 (SGU)
 The electronic state is 3-SGG.
 Alpha  occ. eigenvalues -- -378.82772-378.82772 -48.17803 -48.17803 -42.50417
 Alpha  occ. eigenvalues --  -42.50417 -42.50417 -42.50417 -42.50369 -42.50369
 Alpha  occ. eigenvalues --   -6.40534  -6.40524  -4.49478  -4.49382  -4.49341
 Alpha  occ. eigenvalues --   -4.49341  -4.49330  -4.49330  -1.21485  -1.20925
 Alpha  occ. eigenvalues --   -1.20925  -1.20344  -1.20344  -1.20202  -1.20202
 Alpha  occ. eigenvalues --   -1.20199  -1.20199  -1.19827  -0.57737  -0.37103
 Alpha  occ. eigenvalues --   -0.23568  -0.23568
 Alpha virt. eigenvalues --   -0.02576   0.02499   0.02810   0.02810   0.04325
 Alpha virt. eigenvalues --    0.04325   0.04733   0.06059   0.07322   0.07322
 Alpha virt. eigenvalues --    0.10248   0.18888   0.18888   0.19972   0.23918
 Alpha virt. eigenvalues --    0.23918   0.25308   0.28672   0.28672   0.33939
 Alpha virt. eigenvalues --    0.33939   0.37126   0.37219   0.37219   0.38569
 Alpha virt. eigenvalues --    0.39225   0.39225   0.49316   0.52828   0.65023
 Alpha virt. eigenvalues --    0.65023   0.65427   0.65427   0.69552   0.69552
 Alpha virt. eigenvalues --    0.73843   0.73843   0.74747   0.76203   0.76203
 Alpha virt. eigenvalues --    0.80274   0.80274   0.85949   0.85949   0.87548
 Alpha virt. eigenvalues --    0.90910   0.90910   0.96674   0.96674   0.99002
 Alpha virt. eigenvalues --    0.99774   1.09703   1.09703   1.27661   1.27661
 Alpha virt. eigenvalues --    1.31143   1.46090   1.46090   1.47684   1.72692
 Alpha virt. eigenvalues --    1.72692   1.73822   1.78353   1.78353   1.81583
 Alpha virt. eigenvalues --    1.81583   1.91103   1.91103   1.91172   1.91172
 Alpha virt. eigenvalues --    1.93295   1.95031   1.95031   1.96198   1.96198
 Alpha virt. eigenvalues --    1.99832   1.99832   2.00124   2.00124   2.02442
 Alpha virt. eigenvalues --    2.02442   2.03976   2.03976   2.05579   2.05579
 Alpha virt. eigenvalues --    2.08689   2.10645   2.10645   2.11356   2.11356
 Alpha virt. eigenvalues --    2.19135   2.19135   2.21484   2.40791   2.40791
 Alpha virt. eigenvalues --    2.41359   2.44618   2.44618   2.54719   2.54886
 Alpha virt. eigenvalues --    2.87994   2.89981   2.89981   4.10049   4.10049
 Alpha virt. eigenvalues --    4.23369   4.23369   4.41912   4.41953   5.17456
          Condensed to atoms (all electrons):
              1          2
     1  Ga  30.487195   0.512805
     2  Ga   0.512805  30.487195
 Mulliken atomic charges:
              1
     1  Ga   0.000000
     2  Ga   0.000000
 Sum of Mulliken atomic charges =   0.00000
 Mulliken charges with hydrogens summed into heavy atoms:
              1
     1  Ga   0.000000
     2  Ga   0.000000
 Sum of Mulliken charges with hydrogens summed into heavy atoms =   0.00000
          Atomic-Atomic Spin Densities.
              1          2
     1  Ga   0.681959   0.318041
     2  Ga   0.318041   0.681959
 Mulliken atomic spin densities:
              1
     1  Ga   1.000000
     2  Ga   1.000000
 Sum of Mulliken atomic spin densities =   2.00000
 Electronic spatial extent (au):  <R**2>=            398.3158
 Charge=              0.0000 electrons
 Dipole moment (field-independent basis, Debye):
    X=              0.0000    Y=              0.0000    Z=              0.0000  Tot=              0.0000
 Quadrupole moment (field-independent basis, Debye-Ang):
   XX=            -37.5841   YY=            -37.5841   ZZ=            -27.9580
   XY=              0.0000   XZ=              0.0000   YZ=              0.0000
 Traceless Quadrupole moment (field-independent basis, Debye-Ang):
   XX=             -3.2087   YY=             -3.2087   ZZ=              6.4174
   XY=              0.0000   XZ=              0.0000   YZ=              0.0000
 Octapole moment (field-independent basis, Debye-Ang**2):
  XXX=              0.0000  YYY=              0.0000  ZZZ=              0.0000  XYY=              0.0000
  XXY=              0.0000  XXZ=              0.0000  XZZ=              0.0000  YZZ=              0.0000
  YYZ=              0.0000  XYZ=              0.0000
 Hexadecapole moment (field-independent basis, Debye-Ang**3):
 XXXX=            -86.2508 YYYY=            -86.2508 ZZZZ=           -309.6303 XXXY=              0.0000
 XXXZ=              0.0000 YYYX=              0.0000 YYYZ=              0.0000 ZZZX=              0.0000
 ZZZY=              0.0000 XXYY=            -28.7503 XXZZ=            -70.3290 YYZZ=            -70.3290
 XXYZ=              0.0000 YYXZ=              0.0000 ZZXY=              0.0000
 N-N= 2.109606757906D+02 E-N=-1.443829867531D+04  KE= 5.769088755936D+03
                          Isotropic Fermi Contact Couplings
        Atom                 a.u.       MegaHertz       Gauss      10(-4) cm-1
     1  Ga(69)             0.00000       0.00000       0.00000       0.00000
     2  Ga(69)             0.00000       0.00000       0.00000       0.00000
 --------------------------------------------------------
       Center         ----  Spin Dipole Couplings  ----
                      3XX-RR        3YY-RR        3ZZ-RR
 --------------------------------------------------------
     1   Atom        0.549759      0.549759     -1.099518
     2   Atom        0.549759      0.549759     -1.099518
 --------------------------------------------------------
                        XY            XZ            YZ
 --------------------------------------------------------
     1   Atom        0.000000      0.000000      0.000000
     2   Atom        0.000000      0.000000      0.000000
 --------------------------------------------------------


 ---------------------------------------------------------------------------------
              Anisotropic Spin Dipole Couplings in Principal Axis System
 ---------------------------------------------------------------------------------

       Atom             a.u.   MegaHertz   Gauss  10(-4) cm-1        Axes

              Baa    -1.0995  -141.198   -50.383   -47.099  0.0000  0.0000  1.0000
     1 Ga(69) Bbb     0.5498    70.599    25.191    23.549  0.0000  1.0000  0.0000
              Bcc     0.5498    70.599    25.191    23.549  1.0000  0.0000  0.0000
 
              Baa    -1.0995  -141.198   -50.383   -47.099  0.0000  0.0000  1.0000
     2 Ga(69) Bbb     0.5498    70.599    25.191    23.549 -0.0003  1.0000  0.0000
              Bcc     0.5498    70.599    25.191    23.549  1.0000  0.0003  0.0000
 

 ---------------------------------------------------------------------------------


 Test job not archived.
 1\1\GINC-C31\FOpt\ROCCSD(T)-RW\Gen\Ga2(3)\GPETERSSON\30-Aug-2012\1\\# 
 ROCCSD(T,RW) Gen GFinput Int=NoBasisTransform Int(Grid=Ultrafine) IOp(
 3/32=2,5/6=10,8/11=1,9/33=1) Maxdisk=128GB Opt=(Tight,Z-Matrix)\\Ga2\\
 0,3\Ga\Ga,1,R\\R=2.41058811\\Version=EM64L-G09RevA.02\State=3-SGG\HF=-
 3846.5343208\MP2=-3846.9127422\MP3=-3846.9005805\PUHF=-3846.5343208\PM
 P2-0=-3846.9127422\MP4SDQ=-3846.9210367\CCSD=-3846.9127029\CCSD(T)=-38
 46.9383531\RMSD=4.721e-11\RMSF=1.308e-07\PG=D*H [C*(Ga1.Ga1)]\\@


0EVERYBODY IS IGNORANT, ONLY ON DIFFERENT SUBJECTS.
0          WILL ROGERS
 Job cpu time:  0 days  8 hours 50 minutes 49.2 seconds.
 File lengths (MBytes):  RWF=    375 Int=      0 D2E=      0 Chk=      3 Scr=      1
 Normal termination of Gaussian 09 at Thu Aug 30 00:21:14 2012.
