 Entering Gaussian System, Link 0=g09
 AtFile(1): 4ZaP-NR.gbs
 Initial command:
 /share/apps/gaussian/g09root/g09/l1.exe /localscratch/738025/Gau-433.inp -scrdir=/localscratch/738025/
 Entering Link 1 = /share/apps/gaussian/g09root/g09/l1.exe PID=       443.
  
 Copyright (c) 1988,1990,1992,1993,1995,1998,2003,2009, Gaussian, Inc.
                  All Rights Reserved.
  
 This is part of the Gaussian(R) 09 program.  It is based on
 the Gaussian(R) 03 system (copyright 2003, Gaussian, Inc.),
 the Gaussian(R) 98 system (copyright 1998, Gaussian, Inc.),
 the Gaussian(R) 94 system (copyright 1995, Gaussian, Inc.),
 the Gaussian 92(TM) system (copyright 1992, Gaussian, Inc.),
 the Gaussian 90(TM) system (copyright 1990, Gaussian, Inc.),
 the Gaussian 88(TM) system (copyright 1988, Gaussian, Inc.),
 the Gaussian 86(TM) system (copyright 1986, Carnegie Mellon
 University), and the Gaussian 82(TM) system (copyright 1983,
 Carnegie Mellon University). Gaussian is a federally registered
 trademark of Gaussian, Inc.
  
 This software contains proprietary and confidential information,
 including trade secrets, belonging to Gaussian, Inc.
  
 This software is provided under written license and may be
 used, copied, transmitted, or stored only in accord with that
 written license.
  
 The following legend is applicable only to US Government
 contracts under FAR:
  
                    RESTRICTED RIGHTS LEGEND
  
 Use, reproduction and disclosure by the US Government is
 subject to restrictions as set forth in subparagraphs (a)
 and (c) of the Commercial Computer Software - Restricted
 Rights clause in FAR 52.227-19.
  
 Gaussian, Inc.
 340 Quinnipiac St., Bldg. 40, Wallingford CT 06492
  
  
 ---------------------------------------------------------------
 Warning -- This program may not be used in any manner that
 competes with the business of Gaussian, Inc. or will provide
 assistance to any competitor of Gaussian, Inc.  The licensee
 of this program is prohibited from giving any competitor of
 Gaussian, Inc. access to this program.  By using this program,
 the user acknowledges that Gaussian, Inc. is engaged in the
 business of creating and licensing software in the field of
 computational chemistry and represents and warrants to the
 licensee that it is not a competitor of Gaussian, Inc. and that
 it will not use this program in any manner prohibited above.
 ---------------------------------------------------------------
  

 Cite this work as:
 Gaussian 09, Revision A.02,
 M. J. Frisch, G. W. Trucks, H. B. Schlegel, G. E. Scuseria, 
 M. A. Robb, J. R. Cheeseman, G. Scalmani, V. Barone, B. Mennucci, 
 G. A. Petersson, H. Nakatsuji, M. Caricato, X. Li, H. P. Hratchian, 
 A. F. Izmaylov, J. Bloino, G. Zheng, J. L. Sonnenberg, M. Hada, 
 M. Ehara, K. Toyota, R. Fukuda, J. Hasegawa, M. Ishida, T. Nakajima, 
 Y. Honda, O. Kitao, H. Nakai, T. Vreven, J. A. Montgomery, Jr., 
 J. E. Peralta, F. Ogliaro, M. Bearpark, J. J. Heyd, E. Brothers, 
 K. N. Kudin, V. N. Staroverov, R. Kobayashi, J. Normand, 
 K. Raghavachari, A. Rendell, J. C. Burant, S. S. Iyengar, J. Tomasi, 
 M. Cossi, N. Rega, J. M. Millam, M. Klene, J. E. Knox, J. B. Cross, 
 V. Bakken, C. Adamo, J. Jaramillo, R. Gomperts, R. E. Stratmann, 
 O. Yazyev, A. J. Austin, R. Cammi, C. Pomelli, J. W. Ochterski, 
 R. L. Martin, K. Morokuma, V. G. Zakrzewski, G. A. Voth, 
 P. Salvador, J. J. Dannenberg, S. Dapprich, A. D. Daniels, 
 O. Farkas, J. B. Foresman, J. V. Ortiz, J. Cioslowski, 
 and D. J. Fox, Gaussian, Inc., Wallingford CT, 2009.
 
 ******************************************
 Gaussian 09:  EM64L-G09RevA.02 11-Jun-2009
                25-Aug-2012 
 ******************************************
 % Mem=12GB
 % Nproc=8
 Will use up to    8 processors via shared memory.
 ----------------------------------------------------------------------
 # ROCCSD(T,RW) Gen GFinput Int=NoBasisTransform Int(Grid=Ultrafine) IO
 p(3/32=2,5/6=10,8/11=1,9/33=1) Maxdisk=128GB Opt=(Tight,Z-Matrix)
 ----------------------------------------------------------------------

 Warning:  this job cannot use analytic gradients
           and so will do many energy evaluations.

 1/7=10,18=40,29=20000,38=1/1,14;
 2/12=2,17=6,18=5,29=3,40=1/2;
 3/5=7,11=2,16=1,24=10,25=1,30=1,32=2,60=-1,75=-5,116=101/1,2,3;
 4//1;
 5/5=2,6=10,38=5/2;
 8/5=-1,6=4,9=120000,10=91,11=1/1,4;
 9/5=7,14=2,33=1/13;
 6/7=2,8=2,9=2,10=2/1;
 1/7=10,18=40/14(2);
 2/29=3/2;
 99//99;
 2/29=3/2;
 3/5=7,6=1,11=2,16=1,25=1,30=1,32=2,60=-1,75=-5,82=7,116=101/1,2,3;
 4/5=5,16=3/1;
 5/5=2,6=10,23=1,38=5/2;
 8/5=-1,6=4,9=120000,10=93,11=1/1,4;
 9/5=7,14=2,33=1/13;
 1/7=10,18=40/14(-6);
 2/29=3/2;
 6/7=2,8=2,9=2,10=2/1;
 99//99;
 ---
 Ga2
 ---
 Symbolic Z-matrix:
 Charge =  0 Multiplicity = 3
 Ga
 Ga                   1    R
       Variables:
  R                     2.                       
 

 NEF-NEF-NEF-NEF-NEF-NEF-NEF-NEF-NEF-NEF-NEF-NEF-NEF-NEF-NEF-NEF-NEF-NEF-
 NUMERICAL EIGENVECTOR FOLLOWING MINIMUM SEARCH
 INITIALIZATION PASS
                       ----------------------------
                       !    Initial Parameters    !
                       ! (Angstroms and Degrees)  !
 ----------------------                            ----------------------
 !      Name          Value   Derivative information (Atomic Units)     !
 ------------------------------------------------------------------------
 !        R          2.0      estimate D2E/DX2                          !
 ------------------------------------------------------------------------


 ***************************************************
 ** O P T I M I Z A T I O N   P A R A M E T E R S **
 **  MAXIMUM NO. OF ITERATIONS      :          21 **
 **  MAXIMUM ALLOWED STEP LENGTH    :    0.300000 **
 ***************************************************



 NEF-NEF-NEF-NEF-NEF-NEF-NEF-NEF-NEF-NEF-NEF-NEF-NEF-NEF-NEF-NEF-NEF-NEF-
 ---------------------------------------------------------------------------------------------------
                            Z-MATRIX (ANGSTROMS AND DEGREES)
   CD    Cent   Atom    N1       Length/X        N2       Alpha/Y        N3        Beta/Z          J
 ---------------------------------------------------------------------------------------------------
      1      1  Ga
      2      2  Ga       1   2.000000(     1)
 ---------------------------------------------------------------------------------------------------
                         Z-Matrix orientation:                         
 ---------------------------------------------------------------------
 Center     Atomic      Atomic             Coordinates (Angstroms)
 Number     Number       Type             X           Y           Z
 ---------------------------------------------------------------------
      1         31           0        0.000000    0.000000    0.000000
      2         31           0        0.000000    0.000000    2.000000
 ---------------------------------------------------------------------
 Stoichiometry    Ga2(3)
 Framework group  D*H[C*(Ga.Ga)]
 Deg. of freedom     1
 Full point group                 D*H     NOp   8
 Largest Abelian subgroup         D2H     NOp   8
 Largest concise Abelian subgroup C2      NOp   2
                         Standard orientation:                         
 ---------------------------------------------------------------------
 Center     Atomic      Atomic             Coordinates (Angstroms)
 Number     Number       Type             X           Y           Z
 ---------------------------------------------------------------------
      1         31           0        0.000000    0.000000    1.000000
      2         31           0        0.000000    0.000000   -1.000000
 ---------------------------------------------------------------------
 Rotational constants (GHZ):      0.0000000      3.6661208      3.6661208
 General basis read from cards:  (5D, 7F)
 AO basis set in the form of general basis input (Overlap normalization):
      1 0
 S  14 1.00       0.000000000000
      0.6218969400D+07  0.7762035775D-05
      0.1101751090D+07  0.5217894658D-04
      0.2462305880D+06  0.2996613288D-03
      0.6647962550D+05  0.1345916348D-02
      0.2089420140D+05  0.5050564769D-02
      0.7407794270D+04  0.1630903616D-01
      0.2885164490D+04  0.4608171182D-01
      0.1207383880D+04  0.1131706217D+00
      0.5329599320D+03  0.2301193158D+00
      0.2443603370D+03  0.3457899646D+00
      0.1148741750D+03  0.2952737699D+00
      0.5475437700D+02  0.9041214937D-01
      0.2619838700D+02  0.4740356499D-02
      0.1246447600D+02  0.1590463961D-02
 S  12 1.00       0.000000000000
      0.2089420140D+05 -0.5184830963D-05
      0.7407794270D+04 -0.6891338934D-04
      0.2885164490D+04 -0.4796768588D-03
      0.1207383880D+04 -0.3086164641D-02
      0.5329599320D+03 -0.1430206871D-01
      0.2443603370D+03 -0.5224895284D-01
      0.1148741750D+03 -0.1009555460D+00
      0.5475437700D+02  0.7390979096D-02
      0.2619838700D+02  0.4403195533D+00
      0.1246447600D+02  0.5382989455D+00
      0.5840586000D+01  0.1240500098D+00
      0.2667719000D+01  0.4120522738D-02
 P  11 1.00       0.000000000000
      0.1306545420D+05 -0.1285206995D-03
      0.3267207980D+04 -0.1102029345D-02
      0.1031334460D+04 -0.6688402526D-02
      0.3862878680D+03 -0.2835700408D-01
      0.1631208570D+03 -0.9066296907D-01
      0.7448946800D+02 -0.2142022398D+00
      0.3557061900D+02 -0.3571072209D+00
      0.1729297600D+02 -0.3465467757D+00
      0.8378550000D+01 -0.1312773914D+00
      0.3976662000D+01 -0.1183467386D-01
      0.1822477000D+01 -0.1103838423D-02
 S  10 1.00       0.000000000000
      0.2443603370D+03  0.5901859516D-03
      0.1148741750D+03  0.2406279777D-02
      0.5475437700D+02  0.2738986431D-02
      0.2619838700D+02 -0.6586941761D-01
      0.1246447600D+02 -0.2338027510D+00
      0.5840586000D+01  0.7033465624D-01
      0.2667719000D+01  0.6579709240D+00
      0.1173945000D+01  0.4324877711D+00
      0.4909420000D+00  0.2484732468D-01
      0.1919510000D+00  0.3432049870D-02
 P  10 1.00       0.000000000000
      0.3862878680D+03 -0.1543479214D-03
      0.1631208570D+03 -0.1374979840D-02
      0.7448946800D+02 -0.6798976026D-02
      0.3557061900D+02 -0.1965231869D-01
      0.1729297600D+02 -0.1597239822D-01
      0.8378550000D+01  0.1441380041D+00
      0.3976662000D+01  0.4123508326D+00
      0.1822477000D+01  0.4291533826D+00
      0.7961160000D+00  0.1439432056D+00
      0.3272640000D+00  0.5615907247D-02
 D  10 1.00       0.000000000000
      0.5262890090D+03  0.3881530993D-03
      0.1590835530D+03  0.3628214140D-02
      0.6110422700D+02  0.1895989853D-01
      0.2676706900D+02  0.6319575762D-01
      0.1249757400D+02  0.1568371761D+00
      0.5978754000D+01  0.2693778495D+00
      0.2862552000D+01  0.3231139405D+00
      0.1344821000D+01  0.2910374953D+00
      0.6026250000D+00  0.1738598285D+00
      0.2452320000D+00  0.4451348352D-01
 S   8 1.00       0.000000000000
      0.2619838700D+02  0.5349915268D-03
      0.1246447600D+02  0.4474709862D-02
      0.5840586000D+01 -0.4260864531D-02
      0.2667719000D+01 -0.4291371652D-01
      0.1173945000D+01 -0.1664248896D+00
      0.4909420000D+00  0.1532272803D-01
      0.1919510000D+00  0.6326220507D+00
      0.6880400000D-01  0.4817979317D+00
 S   1 1.00       0.000000000000
      0.2203000438D-01  0.1000000000D+01
 P   8 1.00       0.000000000000
      0.1729297600D+02  0.5689271334D-04
      0.8378550000D+01 -0.2279448929D-02
      0.3976662000D+01 -0.5472307943D-02
      0.1822477000D+01 -0.1730260341D-01
      0.7961160000D+00  0.3861393644D-02
      0.3272640000D+00  0.2027315663D+00
      0.1248360000D+00  0.5249682388D+00
      0.4346300000D-01  0.4069266840D+00
 P   1 1.00       0.000000000000
      0.1441548650D-01  0.1000000000D+01
 S   1 1.00       0.000000000000
      0.4720920000D+00  0.1000000000D+01
 S   1 1.00       0.000000000000
      0.2839510000D+00  0.1000000000D+01
 P   1 1.00       0.000000000000
      0.7692850000D+00  0.1000000000D+01
 P   1 1.00       0.000000000000
      0.3888660000D+00  0.1000000000D+01
 P   1 1.00       0.000000000000
      0.1965680000D+00  0.1000000000D+01
 D   1 1.00       0.000000000000
      0.4293480000D+00  0.1000000000D+01
 D   1 1.00       0.000000000000
      0.2006560000D+00  0.1000000000D+01
 D   1 1.00       0.000000000000
      0.9377600000D-01  0.1000000000D+01
 F   1 1.00       0.000000000000
      0.4678710000D+00  0.1000000000D+01
 F   1 1.00       0.000000000000
      0.2034980000D+00  0.1000000000D+01
 G   1 1.00       0.000000000000
      0.3984653416D+00  0.1000000000D+01
 ****
      2 0
 S  14 1.00       0.000000000000
      0.6218969400D+07  0.7762035775D-05
      0.1101751090D+07  0.5217894658D-04
      0.2462305880D+06  0.2996613288D-03
      0.6647962550D+05  0.1345916348D-02
      0.2089420140D+05  0.5050564769D-02
      0.7407794270D+04  0.1630903616D-01
      0.2885164490D+04  0.4608171182D-01
      0.1207383880D+04  0.1131706217D+00
      0.5329599320D+03  0.2301193158D+00
      0.2443603370D+03  0.3457899646D+00
      0.1148741750D+03  0.2952737699D+00
      0.5475437700D+02  0.9041214937D-01
      0.2619838700D+02  0.4740356499D-02
      0.1246447600D+02  0.1590463961D-02
 S  12 1.00       0.000000000000
      0.2089420140D+05 -0.5184830963D-05
      0.7407794270D+04 -0.6891338934D-04
      0.2885164490D+04 -0.4796768588D-03
      0.1207383880D+04 -0.3086164641D-02
      0.5329599320D+03 -0.1430206871D-01
      0.2443603370D+03 -0.5224895284D-01
      0.1148741750D+03 -0.1009555460D+00
      0.5475437700D+02  0.7390979096D-02
      0.2619838700D+02  0.4403195533D+00
      0.1246447600D+02  0.5382989455D+00
      0.5840586000D+01  0.1240500098D+00
      0.2667719000D+01  0.4120522738D-02
 P  11 1.00       0.000000000000
      0.1306545420D+05 -0.1285206995D-03
      0.3267207980D+04 -0.1102029345D-02
      0.1031334460D+04 -0.6688402526D-02
      0.3862878680D+03 -0.2835700408D-01
      0.1631208570D+03 -0.9066296907D-01
      0.7448946800D+02 -0.2142022398D+00
      0.3557061900D+02 -0.3571072209D+00
      0.1729297600D+02 -0.3465467757D+00
      0.8378550000D+01 -0.1312773914D+00
      0.3976662000D+01 -0.1183467386D-01
      0.1822477000D+01 -0.1103838423D-02
 S  10 1.00       0.000000000000
      0.2443603370D+03  0.5901859516D-03
      0.1148741750D+03  0.2406279777D-02
      0.5475437700D+02  0.2738986431D-02
      0.2619838700D+02 -0.6586941761D-01
      0.1246447600D+02 -0.2338027510D+00
      0.5840586000D+01  0.7033465624D-01
      0.2667719000D+01  0.6579709240D+00
      0.1173945000D+01  0.4324877711D+00
      0.4909420000D+00  0.2484732468D-01
      0.1919510000D+00  0.3432049870D-02
 P  10 1.00       0.000000000000
      0.3862878680D+03 -0.1543479214D-03
      0.1631208570D+03 -0.1374979840D-02
      0.7448946800D+02 -0.6798976026D-02
      0.3557061900D+02 -0.1965231869D-01
      0.1729297600D+02 -0.1597239822D-01
      0.8378550000D+01  0.1441380041D+00
      0.3976662000D+01  0.4123508326D+00
      0.1822477000D+01  0.4291533826D+00
      0.7961160000D+00  0.1439432056D+00
      0.3272640000D+00  0.5615907247D-02
 D  10 1.00       0.000000000000
      0.5262890090D+03  0.3881530993D-03
      0.1590835530D+03  0.3628214140D-02
      0.6110422700D+02  0.1895989853D-01
      0.2676706900D+02  0.6319575762D-01
      0.1249757400D+02  0.1568371761D+00
      0.5978754000D+01  0.2693778495D+00
      0.2862552000D+01  0.3231139405D+00
      0.1344821000D+01  0.2910374953D+00
      0.6026250000D+00  0.1738598285D+00
      0.2452320000D+00  0.4451348352D-01
 S   8 1.00       0.000000000000
      0.2619838700D+02  0.5349915268D-03
      0.1246447600D+02  0.4474709862D-02
      0.5840586000D+01 -0.4260864531D-02
      0.2667719000D+01 -0.4291371652D-01
      0.1173945000D+01 -0.1664248896D+00
      0.4909420000D+00  0.1532272803D-01
      0.1919510000D+00  0.6326220507D+00
      0.6880400000D-01  0.4817979317D+00
 S   1 1.00       0.000000000000
      0.2203000438D-01  0.1000000000D+01
 P   8 1.00       0.000000000000
      0.1729297600D+02  0.5689271334D-04
      0.8378550000D+01 -0.2279448929D-02
      0.3976662000D+01 -0.5472307943D-02
      0.1822477000D+01 -0.1730260341D-01
      0.7961160000D+00  0.3861393644D-02
      0.3272640000D+00  0.2027315663D+00
      0.1248360000D+00  0.5249682388D+00
      0.4346300000D-01  0.4069266840D+00
 P   1 1.00       0.000000000000
      0.1441548650D-01  0.1000000000D+01
 S   1 1.00       0.000000000000
      0.4720920000D+00  0.1000000000D+01
 S   1 1.00       0.000000000000
      0.2839510000D+00  0.1000000000D+01
 P   1 1.00       0.000000000000
      0.7692850000D+00  0.1000000000D+01
 P   1 1.00       0.000000000000
      0.3888660000D+00  0.1000000000D+01
 P   1 1.00       0.000000000000
      0.1965680000D+00  0.1000000000D+01
 D   1 1.00       0.000000000000
      0.4293480000D+00  0.1000000000D+01
 D   1 1.00       0.000000000000
      0.2006560000D+00  0.1000000000D+01
 D   1 1.00       0.000000000000
      0.9377600000D-01  0.1000000000D+01
 F   1 1.00       0.000000000000
      0.4678710000D+00  0.1000000000D+01
 F   1 1.00       0.000000000000
      0.2034980000D+00  0.1000000000D+01
 G   1 1.00       0.000000000000
      0.3984653416D+00  0.1000000000D+01
 ****

 There are    29 symmetry adapted basis functions of AG  symmetry.
 There are     8 symmetry adapted basis functions of B1G symmetry.
 There are    17 symmetry adapted basis functions of B2G symmetry.
 There are    17 symmetry adapted basis functions of B3G symmetry.
 There are     8 symmetry adapted basis functions of AU  symmetry.
 There are    29 symmetry adapted basis functions of B1U symmetry.
 There are    17 symmetry adapted basis functions of B2U symmetry.
 There are    17 symmetry adapted basis functions of B3U symmetry.
 Integral buffers will be    131072 words long.
 Raffenetti 2 integral format.
 Two-electron integral symmetry is turned on.
   142 basis functions,   518 primitive gaussians,   174 cartesian basis functions
    32 alpha electrons       30 beta electrons
       nuclear repulsion energy       254.2696487275 Hartrees.
 NAtoms=    2 NActive=    2 NUniq=    1 SFac= 3.00D+00 NAtFMM=   80 NAOKFM=F Big=F
 One-electron integrals computed using PRISM.
 NBasis=   142 RedAO= F  NBF=    29     8    17    17     8    29    17    17
 NBsUse=   142 1.00D-04 NBFU=    29     8    17    17     8    29    17    17
 Harris functional with IExCor=  205 diagonalized for initial guess.
 ExpMin= 1.44D-02 ExpMax= 6.22D+06 ExpMxC= 7.41D+03 IAcc=3 IRadAn=         5 AccDes= 0.00D+00
 HarFok:  IExCor=  205 AccDes= 0.00D+00 IRadAn=         5 IDoV= 1
 ScaDFX=  1.000000  1.000000  1.000000  1.000000
 FoFCou: FMM=F IPFlag=           0 FMFlag=      100000 FMFlg1=           0
         NFxFlg=           0 DoJE=T BraDBF=F KetDBF=T FulRan=T
         Omega=  0.000000  0.000000  1.000000  0.000000  0.000000 ICntrl=     500 IOpCl=  0
         NMat0=    1 NMatS0=    1 NMatT0=    0 NMatD0=    1 NMtDS0=    0 NMtDT0=    0
         I1Cent=           4 NGrid=           0.
 Petite list used in FoFCou.
 Initial guess orbital symmetries:
       Occupied  (SGU) (SGG) (SGU) (SGG) (SGU) (SGG) (PIG) (PIG)
                 (PIU) (PIU) (SGG) (SGU) (SGG) (SGU) (PIU) (PIU)
                 (PIG) (PIG) (SGG) (PIU) (PIU) (DLTG) (DLTG) (DLTU)
                 (DLTU) (PIG) (PIG) (SGU) (SGG) (SGU) (PIU) (PIU)
       Virtual   (SGG) (PIG) (PIG) (SGG) (SGU) (PIU) (PIU) (SGG)
                 (PIG) (PIG) (SGU) (DLTG) (DLTG) (SGU) (SGG) (PIU)
                 (PIU) (DLTU) (DLTU) (PIU) (PIU) (PIG) (PIG) (SGG)
                 (SGU) (PIG) (PIG) (SGG) (SGU) (DLTG) (DLTG) (PHIU)
                 (PHIU) (PIU) (PIU) (DLTG) (DLTG) (SGG) (DLTU)
                 (DLTU) (PHIG) (PHIG) (PIG) (PIG) (SGG) (SGU) (PIU)
                 (PIU) (SGU) (DLTU) (DLTU) (PIG) (PIG) (PIU) (PIU)
                 (SGU) (PIG) (PIG) (SGG) (PIU) (PIU) (SGG) (DLTG)
                 (DLTG) (PHIU) (PHIU) (DLTG) (DLTG) (?A) (?A) (DLTU)
                 (DLTU) (PHIU) (PHIU) (SGU) (?B) (?B) (PHIG) (PHIG)
                 (PIG) (PIG) (PIU) (PIU) (SGG) (DLTU) (DLTU) (DLTG)
                 (DLTG) (SGG) (PIG) (PIG) (PHIG) (PHIG) (SGU) (PIU)
                 (PIU) (SGU) (DLTU) (DLTU) (SGU) (PIG) (PIG) (SGG)
                 (PIU) (PIU) (PIG) (PIG) (SGG) (SGU) (SGU)
 The electronic state of the initial guess is 3-SGG.
 Requested convergence on RMS density matrix=1.00D-10 within 128 cycles.
 Requested convergence on MAX density matrix=1.00D-08.
 Requested convergence on             energy=1.00D-08.
 No special actions if energy rises.
 Keep R1 and R2 ints in memory in canonical form, NReq=236436732.
 SCF Done:  E(ROHF) =  -3846.48271458     A.U. after   14 cycles
             Convg  =    0.5999D-10             -V/T =  1.9999
 <Sx>= 0.0000 <Sy>= 0.0000 <Sz>= 1.0000 <S**2>= 2.0000 S= 1.0000
 <L.S>= 0.000000000000E+00
 Annihilation of the first spin contaminant:
 S**2 before annihilation     2.0000,   after     2.0000
 GenMOA:  NOpAll=  8 NOp2=8 NOpUse=  8 JSym2X=1
 <Sx>= 0.0000 <Sy>= 0.0000 <Sz>= 1.0000 <S**2>= 2.0000 S= 1.0000
 Range of M.O.s used for correlation:    29   142
 NBasis=   142 NAE=    32 NBE=    30 NFC=    28 NFV=     0
 NROrb=    114 NOA=     4 NOB=     2 NVA=   110 NVB=   112

 **** Warning!!: The largest alpha MO coefficient is  0.48940786D+02


 **** Warning!!: The largest beta MO coefficient is  0.48933667D+02

 Singles contribution to E2=   -0.1867432260D-02
 Semi-Direct transformation.
 ModeAB=           4 MOrb=             4 LenV=    1609773102
 LASXX=       364357 LTotXX=      364357 LenRXX=      740724
 LTotAB=      376367 MaxLAS=     3741936 LenRXY=           0
 NonZer=     1105081 LenScr=     2357760 LnRSAI=     3741936
 LnScr1=     6312960 LExtra=     1177557 Total=     14330937
 MaxDsk= 17179869184 SrtSym=           T ITran=            4
 JobTyp=1 Pass  1:  I=   1 to   4.
 (rs|ai) integrals will be sorted in core.
 ModeAB=           4 MOrb=             2 LenV=    1609773102
 LASXX=       186733 LTotXX=      186733 LenRXX=      366605
 LTotAB=      179872 MaxLAS=     1870968 LenRXY=           0
 NonZer=      553338 LenScr=     1571840 LnRSAI=     1870968
 LnScr1=     3507200 LExtra=     1918281 Total=      9234894
 MaxDsk= 17179869184 SrtSym=           T ITran=            4
 JobTyp=2 Pass  1:  I=   1 to   2.
 (rs|ai) integrals will be sorted in core.
 Spin components of T(2) and E(2):
     alpha-alpha T2 =       0.1937520381D-01 E2=     -0.2124873719D-01
     alpha-beta  T2 =       0.6917583298D-01 E2=     -0.8662410427D-01
     beta-beta   T2 =       0.1860381611D-02 E2=     -0.2512056417D-02
 ANorm=    0.1045316142D+01
 E2 =    -0.1122523301D+00 EUMP2 =    -0.38465949669143D+04
 (S**2,0)=  0.20000D+01           (S**2,1)=  0.20000D+01
 E(PUHF)=      -0.38464827146D+04        E(PMP2)=      -0.38465949669D+04
 R2 and R3 integrals will be kept in memory, NReq=   236324677.
 Symmetry not used in FoFDir.
 MinBra= 0 MaxBra= 4 Meth= 1.
 IRaf=       0 NMat=   1 IRICut=       1 DoRegI=T DoRafI=F ISym2E= 0 JSym2E=0.
 PrsmSu:  NPrtUS=   8 ThrOK=T IAlg=1
 PRISM was handed   172203804 working-precision words and   900 shell-pairs
 PRISM was handed   172203804 working-precision words and   900 shell-pairs
 PRISM was handed   172203804 working-precision words and   900 shell-pairs
 PRISM was handed   172203804 working-precision words and   900 shell-pairs
 PRISM was handed   172203804 working-precision words and   900 shell-pairs
 PRISM was handed   172203804 working-precision words and   900 shell-pairs
 PRISM was handed   172203804 working-precision words and   900 shell-pairs
 PRISM was handed   172203804 working-precision words and   900 shell-pairs
 IPart=  7 NShTot=       48807 NBatch=        4791 AvBLen=        10.2
 IPart=  5 NShTot=       49109 NBatch=        4954 AvBLen=         9.9
 IPart=  6 NShTot=       48886 NBatch=        4784 AvBLen=        10.2
 IPart=  4 NShTot=       49181 NBatch=        4946 AvBLen=         9.9
 IPart=  3 NShTot=       51010 NBatch=        6528 AvBLen=         7.8
 IPart=  2 NShTot=       51132 NBatch=        6549 AvBLen=         7.8
 IPart=  1 NShTot=       51477 NBatch=        6709 AvBLen=         7.7
 IPart=  0 NShTot=       51658 NBatch=        6786 AvBLen=         7.6
 Iterations=  50 Convergence= 0.100D-06
 A(0)= 0.10000E+01      ANORM= 0.10442E+01      W(0)=-0.11038490E+00
 Singles contributions to ROMP2 energy
Alpha= -0.9061300647444E-03
Beta=  -0.9613021956505E-03
 Iteration Nr.   1
 **********************
 DD1Dir will call FoFMem   1 times, MxPair=        24
 NAB=     8 NAA=     6 NBB=     1.
 DD1Dir:  Pass   1 NRAB=     8 NRAA=     6 NRBB=     1 NR=    23.
 DD1Dir will call FoFMem   1 times, MxPair=        24
 NAB=     8 NAA=     6 NBB=     1.
 DD1Dir:  Pass   1 NRAB=     8 NRAA=     6 NRBB=     1 NR=    23.
 TestDE:  II= 99 I=2 DE=    0.362949789251D-01
 TestDE:  II= 99 I=1 DE=    0.648533932377D-02
 TestDE:  II= 99 I=3 DE=    0.711179736534D-03
 TestDE:  II= 19 I=1 DE=   -0.388828739538D-05
 TestDE:  II= 19 I=2 DE=   -0.676242910001D-05
 TestDE:  II= 19 I=3 DE=    0.339695131984D-06
 Contribution from DD1=   -0.10311021D-04
 ExpSMa:  Full in-core algorithm.
 ExpSMa:  Full in-core algorithm.
 ExpSMa:  Full in-core algorithm.
 ExpSMa:  Full in-core algorithm.
 ExpSMa:  Full in-core algorithm.
 ExpSMa:  Full in-core algorithm.
 ExpSMa:  Full in-core algorithm.
 TestDE:  II= 70 I=2 DE=   -0.585336227532D-05
 TestDE:  II= 50 I=1 DE=   -0.358826716513D-06
 TestDE:  II= 90 I=3 DE=   -0.225784563900D-05
 Contribution from DD2=    0.18409867D-05
 TestDE:  II=  5 I=1 DE=   -0.127227313882D-01
 TestDE:  II=  5 I=1 DE=   -0.173853301118D-04
 TestDE:  II=  7 I=2 DE=   -0.585336227532D-05
 TestDE:  II=  7 I=2 DE=   -0.650127845054D-04
 TestDE:  II=  8 I=2 DE=   -0.447342313082D-01
 TestDE:  II=  8 I=2 DE=   -0.127431298793D-04
 TestDE:  II=  9 I=3 DE=   -0.110156265736D-02
 TestDE:  II=  9 I=3 DE=   -0.270223384618D-05
 Contribution from DD3=   -0.91990116D-04
 Singles added:  Sum=   -0.10050146D-03
 Entering DoROCS
 GetDE: DE=      0.00000000D+00
 MP3 Singles =       -0.20389890166D-03 Doubles=       -0.15433896251D-01
 Linear MP4 energy terms:
 Singles =       -0.98208846289D-03
 Doubles =       -0.54840280986D-02
 Mixed  =       -0.52121137229D-07
 Total MP4L =       -0.64661686826D-02
 TestDE:  II= 99 I=2 DE=   -0.119622706912D-02
 TestDE:  II= 99 I=1 DE=   -0.109102799205D-03
 TestDE:  II= 99 I=3 DE=   -0.963346305076D-05
 TestDE:  II= 99 I=1 DE=    0.425944941256D-03
 TestDE:  II= 11 I=2 DE=   -0.119622706912D-02
 TestDE:  II= 99 I=2 DE=   -0.279162862640D-03
 TestDE:  II= 98 I=2 DE=    0.615450370202D-03
 TestDE:  II= 98 I=3 DE=    0.305033714025D-04
 TestDE:  II= 89 I=1 DE=    0.178406103487D-02
 TestDE:  II= 89 I=2 DE=    0.307514582670D-02
 TestDE:  II= 88 I=3 DE=    0.204768892393D-03
 TestDE:  II= 88 I=2 DE=    0.639826683812D-02
 TestDE:  II= 85 I=1 DE=    0.108480714131D-02
 TestDE:  II= 85 I=2 DE=    0.457413561642D-02
 TestDE:  II= 85 I=3 DE=    0.128267495885D-03
 UMP4Q scratch file information:
   i      file        len
 ---     ------    ------
   1      19997     25872
   2      19998     25872
   3      19996     25872
   4      19995     25872
   5      19994     25872
   6      19993     12544
 total scratch length=      141904
 UMP4(Q)=  0.214250054D-01
 MP4(R+Q)=  0.21425005D-01
 TestDE:  II= 71 I=2 DE=    0.107377483314D-04
 TestDE:  II= 70 I=2 DE=   -0.404779639635D-07
 TestDE:  II= 72 I=2 DE=    0.894377957565D-05
 TestDE:  II= 75 I=2 DE=    0.455517685009D-02
 TestDE:  II= 75 I=1 DE=    0.108624710518D-02
 TestDE:  II= 75 I=3 DE=    0.129862673851D-03
 MP4 NL singles =        0.10054241376D-03
 MP4 NL doubles =        0.57712866291D-02
 MP4 L =       -0.64661686826D-02
 MP4 NL =        0.58718290429D-02
 MP4 Mixed =       -0.11745491656D-04
 RO-SDQ-MP4 Energy =       -0.60608513136D-03
 GetDE: DE=      0.00000000D+00
 TestDE:  II= 65 I=1 DE=    0.181828203900D-01
 TestDE:  II= 65 I=2 DE=    0.645215750783D-01
 TestDE:  II= 65 I=3 DE=    0.175401133091D-02
 Singles A-vector converged to   1.9687411D-03
 Singles A-vector converged to   4.8263677D-03
 The Euclidean norm of the A-vectors is   2.3396472D-02
 The Euclidean norm of the A-vectors is   2.5961492D-02
 The Euclidean norm of the A-vectors is   7.3274460D-02
 A(0)= 0.10000E+01      ANORM= 0.10400E+01      W(0)=-0.10490050E+00
 E3=       -0.15637795D-01        EROMP3=      -0.38466106047D+04
 E4(SDQ)=  -0.60608513D-03        ROMP4(SDQ)=  -0.38466112108D+04
 DE(Corr)= -0.10640755     E(Corr)=     -3846.5891221    
 NORM(A)=   0.10399642D+01
 Iteration Nr.   2
 **********************
 DD1Dir will call FoFMem   1 times, MxPair=        24
 NAB=     8 NAA=     6 NBB=     1.
 DD1Dir:  Pass   1 NRAB=     8 NRAA=     6 NRBB=     1 NR=    23.
 TestDE:  II= 99 I=2 DE=    0.326277723527D-01
 TestDE:  II= 99 I=1 DE=    0.583627107710D-02
 TestDE:  II= 99 I=3 DE=    0.641284987775D-03
 TestDE:  II= 19 I=1 DE=    0.583577356384D-02
 TestDE:  II= 19 I=2 DE=    0.327984895881D-01
 TestDE:  II= 19 I=3 DE=    0.612805376129D-03
 Contribution from DD1=    0.39247069D-01
 ExpSMa:  Full in-core algorithm.
 ExpSMa:  Full in-core algorithm.
 ExpSMa:  Full in-core algorithm.
 ExpSMa:  Full in-core algorithm.
 ExpSMa:  Full in-core algorithm.
 ExpSMa:  Full in-core algorithm.
 ExpSMa:  Full in-core algorithm.
 TestDE:  II=419 I=1 DE=    0.976993328067D-02
 TestDE:  II=419 I=2 DE=    0.500100318955D-01
 TestDE:  II=419 I=3 DE=    0.978519567405D-03
 Contribution from DD2=    0.21511416D-01
 Contribution from DD3=    0.00000000D+00
 Singles added:  Sum=    0.60611949D-01
 Entering DoROCS
 TestDE:  II= 99 I=2 DE=    0.500100318955D-01
 TestDE:  II= 99 I=1 DE=    0.976993328067D-02
 TestDE:  II= 99 I=3 DE=    0.978519567405D-03
 TestDE:  II= 99 I=1 DE=    0.102082657298D-01
 TestDE:  II= 11 I=2 DE=    0.500100318955D-01
 TestDE:  II= 99 I=2 DE=    0.507468022931D-01
 TestDE:  II= 98 I=2 DE=    0.514564169569D-01
 TestDE:  II= 98 I=3 DE=    0.101216741657D-02
 TestDE:  II= 89 I=1 DE=    0.113456459258D-01
 TestDE:  II= 89 I=2 DE=    0.534882650953D-01
 TestDE:  II= 88 I=3 DE=    0.116035658682D-02
 TestDE:  II= 88 I=2 DE=    0.562419434258D-01
 TestDE:  II=  5 I=1 DE=   -0.119991664695D-01
 TestDE:  II=  7 I=2 DE=    0.318989478891D-01
 TestDE:  II=  8 I=2 DE=   -0.399664842610D-01
 TestDE:  II=  9 I=3 DE=   -0.105845578023D-02
 TestDE:  II= 50 I=1 DE=   -0.653520543704D-03
 TestDE:  II= 70 I=2 DE=   -0.806753637195D-02
 TestDE:  II= 90 I=3 DE=    0.101900806594D-03
 UMP4Q scratch file information:
   i      file        len
 ---     ------    ------
   1      19997     25872
   2      19998     25872
   3      19996     25872
   4      19995     25872
   5      19994     25872
   6      19993     12544
 total scratch length=      141904
 TestDE:  II= 71 I=2 DE=    0.903172541038D-05
 TestDE:  II= 70 I=2 DE=   -0.167025341992D-06
 TestDE:  II= 72 I=2 DE=    0.746245386656D-05
 TestDE:  II= 75 I=2 DE=   -0.808324871332D-02
 TestDE:  II= 75 I=1 DE=   -0.652364725392D-03
 TestDE:  II= 75 I=3 DE=    0.103072381417D-03
 GetDE: DE=      0.00000000D+00
 TestDE:  II= 65 I=1 DE=    0.189328714583D-01
 TestDE:  II= 65 I=2 DE=    0.731499058006D-01
 TestDE:  II= 65 I=3 DE=    0.169231997392D-02
 Singles A-vector converged to   2.6127425D-02
 Singles A-vector converged to   5.2781070D-02
 The Euclidean norm of the A-vectors is   9.6384641D-02
 The Euclidean norm of the A-vectors is   9.9619244D-02
 The Euclidean norm of the A-vectors is   2.6814461D-01
 A(0)= 0.10000E+01      ANORM= 0.10436E+01      W(0)=-0.10859410E+00
 DE(Corr)= -0.12162259     E(CORR)=     -3846.6043372     Delta=-1.52D-02
 NORM(A)=   0.10436240D+01
 Iteration Nr.   3
 **********************
 DD1Dir will call FoFMem   1 times, MxPair=        24
 NAB=     8 NAA=     6 NBB=     1.
 DD1Dir:  Pass   1 NRAB=     8 NRAA=     6 NRBB=     1 NR=    23.
 TestDE:  II= 99 I=2 DE=    0.349430928546D-01
 TestDE:  II= 99 I=1 DE=    0.599616230952D-02
 TestDE:  II= 99 I=3 DE=    0.627648271090D-03
 TestDE:  II= 19 I=1 DE=    0.601708541804D-02
 TestDE:  II= 19 I=2 DE=    0.351203218733D-01
 TestDE:  II= 19 I=3 DE=    0.602888600012D-03
 Contribution from DD1=    0.41740296D-01
 ExpSMa:  Full in-core algorithm.
 ExpSMa:  Full in-core algorithm.
 ExpSMa:  Full in-core algorithm.
 ExpSMa:  Full in-core algorithm.
 ExpSMa:  Full in-core algorithm.
 ExpSMa:  Full in-core algorithm.
 ExpSMa:  Full in-core algorithm.
 TestDE:  II=419 I=1 DE=    0.101524623577D-01
 TestDE:  II=419 I=2 DE=    0.541638507118D-01
 TestDE:  II=419 I=3 DE=    0.971477942104D-03
 Contribution from DD2=    0.23547495D-01
 Contribution from DD3=    0.00000000D+00
 Singles added:  Sum=    0.64881521D-01
 Entering DoROCS
 TestDE:  II= 99 I=2 DE=    0.541638507118D-01
 TestDE:  II= 99 I=1 DE=    0.101524623577D-01
 TestDE:  II= 99 I=3 DE=    0.971477942104D-03
 TestDE:  II= 99 I=1 DE=    0.106549589430D-01
 TestDE:  II= 11 I=2 DE=    0.541638507118D-01
 TestDE:  II= 99 I=2 DE=    0.550726165572D-01
 TestDE:  II= 98 I=2 DE=    0.559555782656D-01
 TestDE:  II= 98 I=3 DE=    0.100906102424D-02
 TestDE:  II= 89 I=1 DE=    0.118688788563D-01
 TestDE:  II= 89 I=2 DE=    0.582496757330D-01
 TestDE:  II= 88 I=3 DE=    0.116138915908D-02
 TestDE:  II= 88 I=2 DE=    0.613702342688D-01
 TestDE:  II=  5 I=1 DE=   -0.125908100306D-01
 TestDE:  II=  7 I=2 DE=    0.342489366724D-01
 TestDE:  II=  8 I=2 DE=   -0.443325088570D-01
 TestDE:  II=  9 I=3 DE=   -0.105125360983D-02
 TestDE:  II= 50 I=1 DE=   -0.721931174258D-03
 TestDE:  II= 70 I=2 DE=   -0.100835721846D-01
 TestDE:  II= 90 I=3 DE=    0.110135549250D-03
 UMP4Q scratch file information:
   i      file        len
 ---     ------    ------
   1      19997     25872
   2      19998     25872
   3      19996     25872
   4      19995     25872
   5      19994     25872
   6      19993     12544
 total scratch length=      141904
 TestDE:  II= 71 I=2 DE=    0.101132665580D-04
 TestDE:  II= 70 I=2 DE=   -0.116298382556D-05
 TestDE:  II= 72 I=2 DE=    0.734409082191D-05
 TestDE:  II= 75 I=2 DE=   -0.100992024985D-01
 TestDE:  II= 75 I=1 DE=   -0.720773968025D-03
 TestDE:  II= 75 I=3 DE=    0.110489163067D-03
 GetDE: DE=      0.00000000D+00
 TestDE:  II= 65 I=1 DE=    0.194309745547D-01
 TestDE:  II= 65 I=2 DE=    0.785596138213D-01
 TestDE:  II= 65 I=3 DE=    0.168808468564D-02
 Singles A-vector converged to   2.1444139D-02
 Singles A-vector converged to   4.3347381D-02
 The Euclidean norm of the A-vectors is   7.7334359D-02
 The Euclidean norm of the A-vectors is   7.9904786D-02
 The Euclidean norm of the A-vectors is   2.2095660D-01
 A(0)= 0.10000E+01      ANORM= 0.10535E+01      W(0)=-0.11674787E+00
 DE(Corr)= -0.12269674     E(CORR)=     -3846.6054113     Delta=-1.07D-03
 NORM(A)=   0.10534942D+01
 Iteration Nr.   4
 **********************
 DD1Dir will call FoFMem   1 times, MxPair=        24
 NAB=     8 NAA=     6 NBB=     1.
 DD1Dir:  Pass   1 NRAB=     8 NRAA=     6 NRBB=     1 NR=    23.
 TestDE:  II= 99 I=2 DE=    0.412845327510D-01
 TestDE:  II= 99 I=1 DE=    0.616725543615D-02
 TestDE:  II= 99 I=3 DE=    0.589283926675D-03
 TestDE:  II= 19 I=1 DE=    0.622626201920D-02
 TestDE:  II= 19 I=2 DE=    0.414057290560D-01
 TestDE:  II= 19 I=3 DE=    0.570448285910D-03
 Contribution from DD1=    0.48202439D-01
 ExpSMa:  Full in-core algorithm.
 ExpSMa:  Full in-core algorithm.
 ExpSMa:  Full in-core algorithm.
 ExpSMa:  Full in-core algorithm.
 ExpSMa:  Full in-core algorithm.
 ExpSMa:  Full in-core algorithm.
 ExpSMa:  Full in-core algorithm.
 TestDE:  II=419 I=1 DE=    0.106500950626D-01
 TestDE:  II=419 I=2 DE=    0.654421594213D-01
 TestDE:  II=419 I=3 DE=    0.932634695381D-03
 Contribution from DD2=    0.28822450D-01
 Contribution from DD3=    0.00000000D+00
 Singles added:  Sum=    0.75800022D-01
 Entering DoROCS
 TestDE:  II= 99 I=2 DE=    0.654421594213D-01
 TestDE:  II= 99 I=1 DE=    0.106500950626D-01
 TestDE:  II= 99 I=3 DE=    0.932634695381D-03
 TestDE:  II= 99 I=1 DE=    0.112811246243D-01
 TestDE:  II= 11 I=2 DE=    0.654421594213D-01
 TestDE:  II= 99 I=2 DE=    0.668768956114D-01
 TestDE:  II= 98 I=2 DE=    0.682951418257D-01
 TestDE:  II= 98 I=3 DE=    0.976975123290D-03
 TestDE:  II= 89 I=1 DE=    0.126244173197D-01
 TestDE:  II= 89 I=2 DE=    0.713701865321D-01
 TestDE:  II= 88 I=3 DE=    0.113405677503D-02
 TestDE:  II= 88 I=2 DE=    0.755935863298D-01
 TestDE:  II=  5 I=1 DE=   -0.133602155425D-01
 TestDE:  II=  7 I=2 DE=    0.406644195997D-01
 TestDE:  II=  8 I=2 DE=   -0.564173380656D-01
 TestDE:  II=  9 I=3 DE=   -0.997543386425D-03
 TestDE:  II= 50 I=1 DE=   -0.735798222812D-03
 TestDE:  II= 70 I=2 DE=   -0.157529184659D-01
 TestDE:  II= 90 I=3 DE=    0.136513388605D-03
 UMP4Q scratch file information:
   i      file        len
 ---     ------    ------
   1      19997     25872
   2      19998     25872
   3      19996     25872
   4      19995     25872
   5      19994     25872
   6      19993     12544
 total scratch length=      141904
 TestDE:  II= 71 I=2 DE=    0.116892835640D-04
 TestDE:  II= 70 I=2 DE=   -0.511693116202D-05
 TestDE:  II= 72 I=2 DE=    0.606556597955D-05
 TestDE:  II= 75 I=2 DE=   -0.157647265869D-01
 TestDE:  II= 75 I=1 DE=   -0.734899933707D-03
 TestDE:  II= 75 I=3 DE=    0.134054530012D-03
 GetDE: DE=      0.00000000D+00
 TestDE:  II= 65 I=1 DE=    0.199533346356D-01
 TestDE:  II= 65 I=2 DE=    0.929426287149D-01
 TestDE:  II= 65 I=3 DE=    0.163668011177D-02
 Singles A-vector converged to   1.3176984D-02
 Singles A-vector converged to   2.7563937D-02
 The Euclidean norm of the A-vectors is   4.4085350D-02
 The Euclidean norm of the A-vectors is   4.5449335D-02
 The Euclidean norm of the A-vectors is   1.2373292D-01
 A(0)= 0.10000E+01      ANORM= 0.10757E+01      W(0)=-0.12999314E+00
 DE(Corr)= -0.12505565     E(CORR)=     -3846.6077702     Delta=-2.36D-03
 NORM(A)=   0.10756876D+01
 Iteration Nr.   5
 **********************
 DD1Dir will call FoFMem   1 times, MxPair=        24
 NAB=     8 NAA=     6 NBB=     1.
 DD1Dir:  Pass   1 NRAB=     8 NRAA=     6 NRBB=     1 NR=    23.
 TestDE:  II= 99 I=2 DE=    0.540162493601D-01
 TestDE:  II= 99 I=1 DE=    0.626098710906D-02
 TestDE:  II= 99 I=3 DE=    0.510519049775D-03
 TestDE:  II= 19 I=1 DE=    0.638296035560D-02
 TestDE:  II= 19 I=2 DE=    0.537521564996D-01
 TestDE:  II= 19 I=3 DE=    0.499131405950D-03
 Contribution from DD1=    0.60634248D-01
 ExpSMa:  Full in-core algorithm.
 ExpSMa:  Full in-core algorithm.
 ExpSMa:  Full in-core algorithm.
 ExpSMa:  Full in-core algorithm.
 ExpSMa:  Full in-core algorithm.
 ExpSMa:  Full in-core algorithm.
 ExpSMa:  Full in-core algorithm.
 TestDE:  II=419 I=1 DE=    0.111858032045D-01
 TestDE:  II=419 I=2 DE=    0.885094989343D-01
 TestDE:  II=419 I=3 DE=    0.848979958603D-03
 Contribution from DD2=    0.39910034D-01
 Contribution from DD3=    0.00000000D+00
 Singles added:  Sum=    0.96578510D-01
 Entering DoROCS
 TestDE:  II= 99 I=2 DE=    0.885094989343D-01
 TestDE:  II= 99 I=1 DE=    0.111858032045D-01
 TestDE:  II= 99 I=3 DE=    0.848979958603D-03
 TestDE:  II= 99 I=1 DE=    0.120366466393D-01
 TestDE:  II= 11 I=2 DE=    0.885094989343D-01
 TestDE:  II= 99 I=2 DE=    0.913407680240D-01
 TestDE:  II= 98 I=2 DE=    0.941754309570D-01
 TestDE:  II= 98 I=3 DE=    0.903625698639D-03
 TestDE:  II= 89 I=1 DE=    0.135472150631D-01
 TestDE:  II= 89 I=2 DE=    0.990332386345D-01
 TestDE:  II= 88 I=3 DE=    0.106442909431D-02
 TestDE:  II= 88 I=2 DE=    0.105834095522D+00
 TestDE:  II=  5 I=1 DE=   -0.143273282277D-01
 TestDE:  II=  7 I=2 DE=    0.534036159312D-01
 TestDE:  II=  8 I=2 DE=   -0.828130999293D-01
 TestDE:  II=  9 I=3 DE=   -0.902401151116D-03
 TestDE:  II= 50 I=1 DE=   -0.780113164624D-03
 TestDE:  II= 70 I=2 DE=   -0.294094839981D-01
 TestDE:  II= 90 I=3 DE=    0.162027943195D-03
 UMP4Q scratch file information:
   i      file        len
 ---     ------    ------
   1      19997     25872
   2      19998     25872
   3      19996     25872
   4      19995     25872
   5      19994     25872
   6      19993     12544
 total scratch length=      141904
 TestDE:  II= 71 I=2 DE=    0.192916480273D-04
 TestDE:  II= 70 I=2 DE=   -0.230729219676D-04
 TestDE:  II= 72 I=2 DE=    0.814379657560D-05
 TestDE:  II= 75 I=2 DE=   -0.294127170470D-01
 TestDE:  II= 75 I=1 DE=   -0.783988157451D-03
 TestDE:  II= 75 I=3 DE=    0.148138215114D-03
 GetDE: DE=      0.00000000D+00
 TestDE:  II= 65 I=1 DE=    0.204085419576D-01
 TestDE:  II= 65 I=2 DE=    0.122262159759D+00
 TestDE:  II= 65 I=3 DE=    0.154319430719D-02
 Singles A-vector converged to   4.7728219D-03
 Singles A-vector converged to   9.4893684D-03
 The Euclidean norm of the A-vectors is   1.9174380D-02
 The Euclidean norm of the A-vectors is   1.9918650D-02
 The Euclidean norm of the A-vectors is   5.4157962D-02
 A(0)= 0.10000E+01      ANORM= 0.10675E+01      W(0)=-0.12512653E+00
 DE(Corr)= -0.12920225     E(CORR)=     -3846.6119168     Delta=-4.15D-03
 NORM(A)=   0.10674555D+01
 Iteration Nr.   6
 **********************
 DD1Dir will call FoFMem   1 times, MxPair=        24
 NAB=     8 NAA=     6 NBB=     1.
 DD1Dir:  Pass   1 NRAB=     8 NRAA=     6 NRBB=     1 NR=    23.
 TestDE:  II= 99 I=2 DE=    0.492980929721D-01
 TestDE:  II= 99 I=1 DE=    0.612925247731D-02
 TestDE:  II= 99 I=3 DE=    0.533410180841D-03
 TestDE:  II= 19 I=1 DE=    0.622214370608D-02
 TestDE:  II= 19 I=2 DE=    0.491183072994D-01
 TestDE:  II= 19 I=3 DE=    0.520855456819D-03
 Contribution from DD1=    0.55861306D-01
 ExpSMa:  Full in-core algorithm.
 ExpSMa:  Full in-core algorithm.
 ExpSMa:  Full in-core algorithm.
 ExpSMa:  Full in-core algorithm.
 ExpSMa:  Full in-core algorithm.
 ExpSMa:  Full in-core algorithm.
 ExpSMa:  Full in-core algorithm.
 TestDE:  II=419 I=1 DE=    0.108036140461D-01
 TestDE:  II=419 I=2 DE=    0.799230879756D-01
 TestDE:  II=419 I=3 DE=    0.874258700542D-03
 Contribution from DD2=    0.35739654D-01
 Contribution from DD3=    0.00000000D+00
 Singles added:  Sum=    0.88540273D-01
 Entering DoROCS
 TestDE:  II= 99 I=2 DE=    0.799230879756D-01
 TestDE:  II= 99 I=1 DE=    0.108036140461D-01
 TestDE:  II= 99 I=3 DE=    0.874258700542D-03
 TestDE:  II= 99 I=1 DE=    0.115545502857D-01
 TestDE:  II= 11 I=2 DE=    0.799230879756D-01
 TestDE:  II= 99 I=2 DE=    0.822176423339D-01
 TestDE:  II= 98 I=2 DE=    0.845076712456D-01
 TestDE:  II= 98 I=3 DE=    0.925363080532D-03
 TestDE:  II= 89 I=1 DE=    0.129712927846D-01
 TestDE:  II= 89 I=2 DE=    0.886967463474D-01
 TestDE:  II= 88 I=3 DE=    0.108440758565D-02
 TestDE:  II= 88 I=2 DE=    0.945295868962D-01
 TestDE:  II=  5 I=1 DE=   -0.136795440702D-01
 TestDE:  II=  7 I=2 DE=    0.486291829191D-01
 TestDE:  II=  8 I=2 DE=   -0.730637601151D-01
 TestDE:  II=  9 I=3 DE=   -0.933814117266D-03
 TestDE:  II= 50 I=1 DE=   -0.708251285575D-03
 TestDE:  II= 70 I=2 DE=   -0.244345771960D-01
 TestDE:  II= 90 I=3 DE=    0.150593468380D-03
 UMP4Q scratch file information:
   i      file        len
 ---     ------    ------
   1      19997     25872
   2      19998     25872
   3      19996     25872
   4      19995     25872
   5      19994     25872
   6      19993     12544
 total scratch length=      141904
 TestDE:  II= 71 I=2 DE=    0.156590777539D-04
 TestDE:  II= 70 I=2 DE=   -0.164462745360D-04
 TestDE:  II= 72 I=2 DE=    0.619980146590D-05
 TestDE:  II= 75 I=2 DE=   -0.244391519983D-01
 TestDE:  II= 75 I=1 DE=   -0.710823376992D-03
 TestDE:  II= 75 I=3 DE=    0.140588359249D-03
 GetDE: DE=      0.00000000D+00
 TestDE:  II= 65 I=1 DE=    0.200095751974D-01
 TestDE:  II= 65 I=2 DE=    0.112205878077D+00
 TestDE:  II= 65 I=3 DE=    0.157544804497D-02
 Singles A-vector converged to   1.5403968D-03
 Singles A-vector converged to   3.2330102D-03
 The Euclidean norm of the A-vectors is   5.2606016D-03
 The Euclidean norm of the A-vectors is   5.4664106D-03
 The Euclidean norm of the A-vectors is   1.3383076D-02
 A(0)= 0.10000E+01      ANORM= 0.10695E+01      W(0)=-0.12613864E+00
 DE(Corr)= -0.12781166     E(CORR)=     -3846.6105262     Delta= 1.39D-03
 NORM(A)=   0.10694759D+01
 Iteration Nr.   7
 **********************
 DD1Dir will call FoFMem   1 times, MxPair=        24
 NAB=     8 NAA=     6 NBB=     1.
 DD1Dir:  Pass   1 NRAB=     8 NRAA=     6 NRBB=     1 NR=    23.
 TestDE:  II= 99 I=2 DE=    0.503557175076D-01
 TestDE:  II= 99 I=1 DE=    0.614130221392D-02
 TestDE:  II= 99 I=3 DE=    0.529923844387D-03
 TestDE:  II= 19 I=1 DE=    0.623597693748D-02
 TestDE:  II= 19 I=2 DE=    0.500964132886D-01
 TestDE:  II= 19 I=3 DE=    0.517878878795D-03
 Contribution from DD1=    0.56850269D-01
 ExpSMa:  Full in-core algorithm.
 ExpSMa:  Full in-core algorithm.
 ExpSMa:  Full in-core algorithm.
 ExpSMa:  Full in-core algorithm.
 ExpSMa:  Full in-core algorithm.
 ExpSMa:  Full in-core algorithm.
 ExpSMa:  Full in-core algorithm.
 TestDE:  II=419 I=1 DE=    0.108502774875D-01
 TestDE:  II=419 I=2 DE=    0.817939536084D-01
 TestDE:  II=419 I=3 DE=    0.873662230575D-03
 Contribution from DD2=    0.36667624D-01
 Contribution from DD3=    0.00000000D+00
 Singles added:  Sum=    0.90119022D-01
 Entering DoROCS
 TestDE:  II= 99 I=2 DE=    0.817939536084D-01
 TestDE:  II= 99 I=1 DE=    0.108502774875D-01
 TestDE:  II= 99 I=3 DE=    0.873662230575D-03
 TestDE:  II= 99 I=1 DE=    0.116172886526D-01
 TestDE:  II= 11 I=2 DE=    0.817939536084D-01
 TestDE:  II= 99 I=2 DE=    0.842162740024D-01
 TestDE:  II= 98 I=2 DE=    0.866341276783D-01
 TestDE:  II= 98 I=3 DE=    0.925968665074D-03
 TestDE:  II= 89 I=1 DE=    0.130472290122D-01
 TestDE:  II= 89 I=2 DE=    0.909829397239D-01
 TestDE:  II= 88 I=3 DE=    0.108662474357D-02
 TestDE:  II= 88 I=2 DE=    0.970465717504D-01
 TestDE:  II=  5 I=1 DE=   -0.137649776578D-01
 TestDE:  II=  7 I=2 DE=    0.496884067833D-01
 TestDE:  II=  8 I=2 DE=   -0.753003165906D-01
 TestDE:  II=  9 I=3 DE=   -0.937655215533D-03
 TestDE:  II= 50 I=1 DE=   -0.717748645588D-03
 TestDE:  II= 70 I=2 DE=   -0.256119098072D-01
 TestDE:  II= 90 I=3 DE=    0.148969528042D-03
 UMP4Q scratch file information:
   i      file        len
 ---     ------    ------
   1      19997     25872
   2      19998     25872
   3      19996     25872
   4      19995     25872
   5      19994     25872
   6      19993     12544
 total scratch length=      141904
 TestDE:  II= 71 I=2 DE=    0.166647943735D-04
 TestDE:  II= 70 I=2 DE=   -0.187237798660D-04
 TestDE:  II= 72 I=2 DE=    0.675440795401D-05
 TestDE:  II= 75 I=2 DE=   -0.256158028211D-01
 TestDE:  II= 75 I=1 DE=   -0.721404205109D-03
 TestDE:  II= 75 I=3 DE=    0.137328784708D-03
 GetDE: DE=      0.00000000D+00
 TestDE:  II= 65 I=1 DE=    0.200545788863D-01
 TestDE:  II= 65 I=2 DE=    0.114765976432D+00
 TestDE:  II= 65 I=3 DE=    0.157808272696D-02
 Singles A-vector converged to   1.3638725D-04
 Singles A-vector converged to   2.4092524D-04
 The Euclidean norm of the A-vectors is   5.4105877D-04
 The Euclidean norm of the A-vectors is   5.9361756D-04
 The Euclidean norm of the A-vectors is   1.6414944D-03
 A(0)= 0.10000E+01      ANORM= 0.10693E+01      W(0)=-0.12606369E+00
 DE(Corr)= -0.12812573     E(CORR)=     -3846.6108403     Delta=-3.14D-04
 NORM(A)=   0.10693485D+01
 Iteration Nr.   8
 **********************
 DD1Dir will call FoFMem   1 times, MxPair=        24
 NAB=     8 NAA=     6 NBB=     1.
 DD1Dir:  Pass   1 NRAB=     8 NRAA=     6 NRBB=     1 NR=    23.
 TestDE:  II= 99 I=2 DE=    0.502574332652D-01
 TestDE:  II= 99 I=1 DE=    0.614917432565D-02
 TestDE:  II= 99 I=3 DE=    0.531096136381D-03
 TestDE:  II= 19 I=1 DE=    0.624359013776D-02
 TestDE:  II= 19 I=2 DE=    0.499980558365D-01
 TestDE:  II= 19 I=3 DE=    0.519008284488D-03
 Contribution from DD1=    0.56760654D-01
 ExpSMa:  Full in-core algorithm.
 ExpSMa:  Full in-core algorithm.
 ExpSMa:  Full in-core algorithm.
 ExpSMa:  Full in-core algorithm.
 ExpSMa:  Full in-core algorithm.
 ExpSMa:  Full in-core algorithm.
 ExpSMa:  Full in-core algorithm.
 TestDE:  II=419 I=1 DE=    0.108653269967D-01
 TestDE:  II=419 I=2 DE=    0.816182863951D-01
 TestDE:  II=419 I=3 DE=    0.875608189795D-03
 Contribution from DD2=    0.36598567D-01
 Contribution from DD3=    0.00000000D+00
 Singles added:  Sum=    0.89967934D-01
 Entering DoROCS
 TestDE:  II= 99 I=2 DE=    0.816182863951D-01
 TestDE:  II= 99 I=1 DE=    0.108653269967D-01
 TestDE:  II= 99 I=3 DE=    0.875608189795D-03
 TestDE:  II= 99 I=1 DE=    0.116331963008D-01
 TestDE:  II= 11 I=2 DE=    0.816182863951D-01
 TestDE:  II= 99 I=2 DE=    0.840310731178D-01
 TestDE:  II= 98 I=2 DE=    0.864386319907D-01
 TestDE:  II= 98 I=3 DE=    0.927979288586D-03
 TestDE:  II= 89 I=1 DE=    0.130652111892D-01
 TestDE:  II= 89 I=2 DE=    0.907737922610D-01
 TestDE:  II= 88 I=3 DE=    0.108891241147D-02
 TestDE:  II= 88 I=2 DE=    0.968167778999D-01
 TestDE:  II=  5 I=1 DE=   -0.137928607150D-01
 TestDE:  II=  7 I=2 DE=    0.495899274061D-01
 TestDE:  II=  8 I=2 DE=   -0.751079253242D-01
 TestDE:  II=  9 I=3 DE=   -0.940906864170D-03
 TestDE:  II= 50 I=1 DE=   -0.727649525783D-03
 TestDE:  II= 70 I=2 DE=   -0.255179979182D-01
 TestDE:  II= 90 I=3 DE=    0.148005547301D-03
 UMP4Q scratch file information:
   i      file        len
 ---     ------    ------
   1      19997     25872
   2      19998     25872
   3      19996     25872
   4      19995     25872
   5      19994     25872
   6      19993     12544
 total scratch length=      141904
 TestDE:  II= 71 I=2 DE=    0.165720153288D-04
 TestDE:  II= 70 I=2 DE=   -0.186158702642D-04
 TestDE:  II= 72 I=2 DE=    0.664073691999D-05
 TestDE:  II= 75 I=2 DE=   -0.255217775945D-01
 TestDE:  II= 75 I=1 DE=   -0.731328579314D-03
 TestDE:  II= 75 I=3 DE=    0.136414754726D-03
 GetDE: DE=      0.00000000D+00
 TestDE:  II= 65 I=1 DE=    0.200849390883D-01
 TestDE:  II= 65 I=2 DE=    0.114556734630D+00
 TestDE:  II= 65 I=3 DE=    0.158120045719D-02
 Singles A-vector converged to   6.2919779D-05
 Singles A-vector converged to   1.0606790D-04
 The Euclidean norm of the A-vectors is   2.4122431D-04
 The Euclidean norm of the A-vectors is   2.5590230D-04
 The Euclidean norm of the A-vectors is   5.6162562D-04
 A(0)= 0.10000E+01      ANORM= 0.10694E+01      W(0)=-0.12607214E+00
 DE(Corr)= -0.12810680     E(CORR)=     -3846.6108214     Delta= 1.89D-05
 NORM(A)=   0.10693600D+01
 Iteration Nr.   9
 **********************
 DD1Dir will call FoFMem   1 times, MxPair=        24
 NAB=     8 NAA=     6 NBB=     1.
 DD1Dir:  Pass   1 NRAB=     8 NRAA=     6 NRBB=     1 NR=    23.
 TestDE:  II= 99 I=2 DE=    0.502590325263D-01
 TestDE:  II= 99 I=1 DE=    0.615396150318D-02
 TestDE:  II= 99 I=3 DE=    0.531585510499D-03
 TestDE:  II= 19 I=1 DE=    0.624830753098D-02
 TestDE:  II= 19 I=2 DE=    0.499979512294D-01
 TestDE:  II= 19 I=3 DE=    0.519432521570D-03
 Contribution from DD1=    0.56765691D-01
 ExpSMa:  Full in-core algorithm.
 ExpSMa:  Full in-core algorithm.
 ExpSMa:  Full in-core algorithm.
 ExpSMa:  Full in-core algorithm.
 ExpSMa:  Full in-core algorithm.
 ExpSMa:  Full in-core algorithm.
 ExpSMa:  Full in-core algorithm.
 TestDE:  II=419 I=1 DE=    0.108746579301D-01
 TestDE:  II=419 I=2 DE=    0.816162623862D-01
 TestDE:  II=419 I=3 DE=    0.876345693565D-03
 Contribution from DD2=    0.36601575D-01
 Contribution from DD3=    0.00000000D+00
 Singles added:  Sum=    0.89972326D-01
 Entering DoROCS
 TestDE:  II= 99 I=2 DE=    0.816162623862D-01
 TestDE:  II= 99 I=1 DE=    0.108746579301D-01
 TestDE:  II= 99 I=3 DE=    0.876345693565D-03
 TestDE:  II= 99 I=1 DE=    0.116435594238D-01
 TestDE:  II= 11 I=2 DE=    0.816162623862D-01
 TestDE:  II= 99 I=2 DE=    0.840290868914D-01
 TestDE:  II= 98 I=2 DE=    0.864362184396D-01
 TestDE:  II= 98 I=3 DE=    0.928762845979D-03
 TestDE:  II= 89 I=1 DE=    0.130773192094D-01
 TestDE:  II= 89 I=2 DE=    0.907717722098D-01
 TestDE:  II= 88 I=3 DE=    0.108984506224D-02
 TestDE:  II= 88 I=2 DE=    0.968147340140D-01
 TestDE:  II=  5 I=1 DE=   -0.138087889404D-01
 TestDE:  II=  7 I=2 DE=    0.495902779407D-01
 TestDE:  II=  8 I=2 DE=   -0.751050256703D-01
 TestDE:  II=  9 I=3 DE=   -0.942091761692D-03
 TestDE:  II= 50 I=1 DE=   -0.731469730923D-03
 TestDE:  II= 70 I=2 DE=   -0.255147477296D-01
 TestDE:  II= 90 I=3 DE=    0.147753300549D-03
 UMP4Q scratch file information:
   i      file        len
 ---     ------    ------
   1      19997     25872
   2      19998     25872
   3      19996     25872
   4      19995     25872
   5      19994     25872
   6      19993     12544
 total scratch length=      141904
 TestDE:  II= 71 I=2 DE=    0.165851177517D-04
 TestDE:  II= 70 I=2 DE=   -0.185995128704D-04
 TestDE:  II= 72 I=2 DE=    0.661758518606D-05
 TestDE:  II= 75 I=2 DE=   -0.255185259049D-01
 TestDE:  II= 75 I=1 DE=   -0.735175364245D-03
 TestDE:  II= 75 I=3 DE=    0.136162279583D-03
 GetDE: DE=      0.00000000D+00
 TestDE:  II= 65 I=1 DE=    0.201003294162D-01
 TestDE:  II= 65 I=2 DE=    0.114549626022D+00
 TestDE:  II= 65 I=3 DE=    0.158222911170D-02
 Singles A-vector converged to   2.5938267D-05
 Singles A-vector converged to   5.5379112D-05
 The Euclidean norm of the A-vectors is   1.0671376D-04
 The Euclidean norm of the A-vectors is   1.0983940D-04
 The Euclidean norm of the A-vectors is   2.4392848D-04
 A(0)= 0.10000E+01      ANORM= 0.10694E+01      W(0)=-0.12607032E+00
 DE(Corr)= -0.12810664     E(CORR)=     -3846.6108212     Delta= 1.60D-07
 NORM(A)=   0.10693587D+01
 Iteration Nr.  10
 **********************
 DD1Dir will call FoFMem   1 times, MxPair=        24
 NAB=     8 NAA=     6 NBB=     1.
 DD1Dir:  Pass   1 NRAB=     8 NRAA=     6 NRBB=     1 NR=    23.
 TestDE:  II= 99 I=2 DE=    0.502557690228D-01
 TestDE:  II= 99 I=1 DE=    0.615505124229D-02
 TestDE:  II= 99 I=3 DE=    0.531694289275D-03
 TestDE:  II= 19 I=1 DE=    0.624944419642D-02
 TestDE:  II= 19 I=2 DE=    0.499946403634D-01
 TestDE:  II= 19 I=3 DE=    0.519501459844D-03
 Contribution from DD1=    0.56763586D-01
 ExpSMa:  Full in-core algorithm.
 ExpSMa:  Full in-core algorithm.
 ExpSMa:  Full in-core algorithm.
 ExpSMa:  Full in-core algorithm.
 ExpSMa:  Full in-core algorithm.
 ExpSMa:  Full in-core algorithm.
 ExpSMa:  Full in-core algorithm.
 TestDE:  II=419 I=1 DE=    0.108771573618D-01
 TestDE:  II=419 I=2 DE=    0.816106011274D-01
 TestDE:  II=419 I=3 DE=    0.876410722802D-03
 Contribution from DD2=    0.36600583D-01
 Contribution from DD3=    0.00000000D+00
 Singles added:  Sum=    0.89968818D-01
 Entering DoROCS
 TestDE:  II= 99 I=2 DE=    0.816106011274D-01
 TestDE:  II= 99 I=1 DE=    0.108771573618D-01
 TestDE:  II= 99 I=3 DE=    0.876410722802D-03
 TestDE:  II= 99 I=1 DE=    0.116464470917D-01
 TestDE:  II= 11 I=2 DE=    0.816106011274D-01
 TestDE:  II= 99 I=2 DE=    0.840232280720D-01
 TestDE:  II= 98 I=2 DE=    0.864298696711D-01
 TestDE:  II= 98 I=3 DE=    0.928831167375D-03
 TestDE:  II= 89 I=1 DE=    0.130806820993D-01
 TestDE:  II= 89 I=2 DE=    0.907649476110D-01
 TestDE:  II= 88 I=3 DE=    0.108990912569D-02
 TestDE:  II= 88 I=2 DE=    0.968069942791D-01
 TestDE:  II=  5 I=1 DE=   -0.138137744214D-01
 TestDE:  II=  7 I=2 DE=    0.495851023728D-01
 TestDE:  II=  8 I=2 DE=   -0.750988015621D-01
 TestDE:  II=  9 I=3 DE=   -0.942160733665D-03
 TestDE:  II= 50 I=1 DE=   -0.733092322181D-03
 TestDE:  II= 70 I=2 DE=   -0.255136991893D-01
 TestDE:  II= 90 I=3 DE=    0.147748392023D-03
 UMP4Q scratch file information:
   i      file        len
 ---     ------    ------
   1      19997     25872
   2      19998     25872
   3      19996     25872
   4      19995     25872
   5      19994     25872
   6      19993     12544
 total scratch length=      141904
 TestDE:  II= 71 I=2 DE=    0.165951393769D-04
 TestDE:  II= 70 I=2 DE=   -0.185675283176D-04
 TestDE:  II= 72 I=2 DE=    0.660541047750D-05
 TestDE:  II= 75 I=2 DE=   -0.255175025883D-01
 TestDE:  II= 75 I=1 DE=   -0.736804357258D-03
 TestDE:  II= 75 I=3 DE=    0.136175563982D-03
 GetDE: DE=      0.00000000D+00
 TestDE:  II= 65 I=1 DE=    0.201058474755D-01
 TestDE:  II= 65 I=2 DE=    0.114541651402D+00
 TestDE:  II= 65 I=3 DE=    0.158226101290D-02
 Singles A-vector converged to   7.5492192D-06
 Singles A-vector converged to   2.1221049D-05
 The Euclidean norm of the A-vectors is   4.2677707D-05
 The Euclidean norm of the A-vectors is   4.6569550D-05
 The Euclidean norm of the A-vectors is   1.0811562D-04
 A(0)= 0.10000E+01      ANORM= 0.10694E+01      W(0)=-0.12607137E+00
 DE(Corr)= -0.12810704     E(CORR)=     -3846.6108216     Delta=-3.97D-07
 NORM(A)=   0.10693610D+01
 Iteration Nr.  11
 **********************
 DD1Dir will call FoFMem   1 times, MxPair=        24
 NAB=     8 NAA=     6 NBB=     1.
 DD1Dir:  Pass   1 NRAB=     8 NRAA=     6 NRBB=     1 NR=    23.
 TestDE:  II= 99 I=2 DE=    0.502570049036D-01
 TestDE:  II= 99 I=1 DE=    0.615547570878D-02
 TestDE:  II= 99 I=3 DE=    0.531699387814D-03
 TestDE:  II= 19 I=1 DE=    0.624990117376D-02
 TestDE:  II= 19 I=2 DE=    0.499959266627D-01
 TestDE:  II= 19 I=3 DE=    0.519478528272D-03
 Contribution from DD1=    0.56765306D-01
 ExpSMa:  Full in-core algorithm.
 ExpSMa:  Full in-core algorithm.
 ExpSMa:  Full in-core algorithm.
 ExpSMa:  Full in-core algorithm.
 ExpSMa:  Full in-core algorithm.
 ExpSMa:  Full in-core algorithm.
 ExpSMa:  Full in-core algorithm.
 TestDE:  II=419 I=1 DE=    0.108781131411D-01
 TestDE:  II=419 I=2 DE=    0.816126950632D-01
 TestDE:  II=419 I=3 DE=    0.876324375008D-03
 Contribution from DD2=    0.36601826D-01
 Contribution from DD3=    0.00000000D+00
 Singles added:  Sum=    0.89971828D-01
 Entering DoROCS
 TestDE:  II= 99 I=2 DE=    0.816126950632D-01
 TestDE:  II= 99 I=1 DE=    0.108781131411D-01
 TestDE:  II= 99 I=3 DE=    0.876324375008D-03
 TestDE:  II= 99 I=1 DE=    0.116475762510D-01
 TestDE:  II= 11 I=2 DE=    0.816126950632D-01
 TestDE:  II= 99 I=2 DE=    0.840254515889D-01
 TestDE:  II= 98 I=2 DE=    0.864320690279D-01
 TestDE:  II= 98 I=3 DE=    0.928739072797D-03
 TestDE:  II= 89 I=1 DE=    0.130820180088D-01
 TestDE:  II= 89 I=2 DE=    0.907673267114D-01
 TestDE:  II= 88 I=3 DE=    0.108979103664D-02
 TestDE:  II= 88 I=2 DE=    0.968095055137D-01
 TestDE:  II=  5 I=1 DE=   -0.138156237825D-01
 TestDE:  II=  7 I=2 DE=    0.495852281624D-01
 TestDE:  II=  8 I=2 DE=   -0.751006546040D-01
 TestDE:  II=  9 I=3 DE=   -0.941977836000D-03
 TestDE:  II= 50 I=1 DE=   -0.733605773747D-03
 TestDE:  II= 70 I=2 DE=   -0.255154264415D-01
 TestDE:  II= 90 I=3 DE=    0.147813200639D-03
 UMP4Q scratch file information:
   i      file        len
 ---     ------    ------
   1      19997     25872
   2      19998     25872
   3      19996     25872
   4      19995     25872
   5      19994     25872
   6      19993     12544
 total scratch length=      141904
 TestDE:  II= 71 I=2 DE=    0.166037019245D-04
 TestDE:  II= 70 I=2 DE=   -0.185472011207D-04
 TestDE:  II= 72 I=2 DE=    0.660153650500D-05
 TestDE:  II= 75 I=2 DE=   -0.255192522877D-01
 TestDE:  II= 75 I=1 DE=   -0.737318425121D-03
 TestDE:  II= 75 I=3 DE=    0.136252238891D-03
 GetDE: DE=      0.00000000D+00
 TestDE:  II= 65 I=1 DE=    0.201078417409D-01
 TestDE:  II= 65 I=2 DE=    0.114542957515D+00
 TestDE:  II= 65 I=3 DE=    0.158206267672D-02
 Singles A-vector converged to   2.0584377D-06
 Singles A-vector converged to   4.4388444D-06
 The Euclidean norm of the A-vectors is   9.0839694D-06
 The Euclidean norm of the A-vectors is   1.0938796D-05
 The Euclidean norm of the A-vectors is   2.6097865D-05
 A(0)= 0.10000E+01      ANORM= 0.10694E+01      W(0)=-0.12607123E+00
 DE(Corr)= -0.12810748     E(CORR)=     -3846.6108221     Delta=-4.42D-07
 NORM(A)=   0.10693607D+01
 Iteration Nr.  12
 **********************
 DD1Dir will call FoFMem   1 times, MxPair=        24
 NAB=     8 NAA=     6 NBB=     1.
 DD1Dir:  Pass   1 NRAB=     8 NRAA=     6 NRBB=     1 NR=    23.
 TestDE:  II= 99 I=2 DE=    0.502568374980D-01
 TestDE:  II= 99 I=1 DE=    0.615555772914D-02
 TestDE:  II= 99 I=3 DE=    0.531685006054D-03
 TestDE:  II= 19 I=1 DE=    0.624999579630D-02
 TestDE:  II= 19 I=2 DE=    0.499957973627D-01
 TestDE:  II= 19 I=3 DE=    0.519461051860D-03
 Contribution from DD1=    0.56765254D-01
 ExpSMa:  Full in-core algorithm.
 ExpSMa:  Full in-core algorithm.
 ExpSMa:  Full in-core algorithm.
 ExpSMa:  Full in-core algorithm.
 ExpSMa:  Full in-core algorithm.
 ExpSMa:  Full in-core algorithm.
 ExpSMa:  Full in-core algorithm.
 TestDE:  II=419 I=1 DE=    0.108782853993D-01
 TestDE:  II=419 I=2 DE=    0.816124180012D-01
 TestDE:  II=419 I=3 DE=    0.876284082432D-03
 Contribution from DD2=    0.36601733D-01
 Contribution from DD3=    0.00000000D+00
 Singles added:  Sum=    0.89971834D-01
 Entering DoROCS
 TestDE:  II= 99 I=2 DE=    0.816124180012D-01
 TestDE:  II= 99 I=1 DE=    0.108782853993D-01
 TestDE:  II= 99 I=3 DE=    0.876284082432D-03
 TestDE:  II= 99 I=1 DE=    0.116477714893D-01
 TestDE:  II= 11 I=2 DE=    0.816124180012D-01
 TestDE:  II= 99 I=2 DE=    0.840251644703D-01
 TestDE:  II= 98 I=2 DE=    0.864317432122D-01
 TestDE:  II= 98 I=3 DE=    0.928696473529D-03
 TestDE:  II= 89 I=1 DE=    0.130822383544D-01
 TestDE:  II= 89 I=2 DE=    0.907669739143D-01
 TestDE:  II= 88 I=3 DE=    0.108973777240D-02
 TestDE:  II= 88 I=2 DE=    0.968090926794D-01
 TestDE:  II=  5 I=1 DE=   -0.138159366318D-01
 TestDE:  II=  7 I=2 DE=    0.495849270801D-01
 TestDE:  II=  8 I=2 DE=   -0.751001713984D-01
 TestDE:  II=  9 I=3 DE=   -0.941900284725D-03
 TestDE:  II= 50 I=1 DE=   -0.733698277360D-03
 TestDE:  II= 70 I=2 DE=   -0.255152443183D-01
 TestDE:  II= 90 I=3 DE=    0.147837487676D-03
 UMP4Q scratch file information:
   i      file        len
 ---     ------    ------
   1      19997     25872
   2      19998     25872
   3      19996     25872
   4      19995     25872
   5      19994     25872
   6      19993     12544
 total scratch length=      141904
 TestDE:  II= 71 I=2 DE=    0.166031328264D-04
 TestDE:  II= 70 I=2 DE=   -0.185426690266D-04
 TestDE:  II= 72 I=2 DE=    0.659912449480D-05
 TestDE:  II= 75 I=2 DE=   -0.255190710435D-01
 TestDE:  II= 75 I=1 DE=   -0.737410028891D-03
 TestDE:  II= 75 I=3 DE=    0.136279123110D-03
 GetDE: DE=      0.00000000D+00
 TestDE:  II= 65 I=1 DE=    0.201081362998D-01
 TestDE:  II= 65 I=2 DE=    0.114542432802D+00
 TestDE:  II= 65 I=3 DE=    0.158198720289D-02
 Singles A-vector converged to   9.5270873D-07
 Singles A-vector converged to   1.3249132D-06
 The Euclidean norm of the A-vectors is   2.7527221D-06
 The Euclidean norm of the A-vectors is   3.2890574D-06
 The Euclidean norm of the A-vectors is   8.7510965D-06
 A(0)= 0.10000E+01      ANORM= 0.10694E+01      W(0)=-0.12607120E+00
 DE(Corr)= -0.12810742     E(CORR)=     -3846.6108220     Delta= 6.06D-08
 NORM(A)=   0.10693608D+01
 Dominant configurations:
 ***********************
 Spin Case        I    J    A    B          Value
   ABAB          30   30   33   31      -0.125483D+00
 Largest amplitude= 1.25D-01
    T4(aaa)= -0.44056914D-03
    T5(aaa)=  0.10392568D-04
    T4(aab)= -0.65416814D-02
    T5(aab)=  0.11368462D-03
    T4(abb)= -0.16858568D-02
    T5(abb)=  0.35883555D-04
 Time for triples=      109.98 seconds.
 T4(CCSD)= -0.86681074D-02
 T5(CCSD)=  0.15996075D-03
 CCSD(T)= -0.38466193302D+04

 **********************************************************************

            Population analysis using the SCF density.

 **********************************************************************

 Orbital symmetries:
       Occupied  (SGG) (SGU) (SGU) (SGG) (SGU) (SGG) (PIG) (PIG)
                 (PIU) (PIU) (SGG) (SGU) (SGG) (SGU) (PIU) (PIU)
                 (PIG) (PIG) (SGG) (PIU) (PIU) (DLTG) (DLTG) (DLTU)
                 (DLTU) (PIG) (PIG) (SGU) (SGG) (SGU) (PIU) (PIU)
       Virtual   (SGG) (SGU) (PIG) (PIG) (PIU) (PIU) (SGG) (SGG)
                 (PIG) (PIG) (SGU) (DLTG) (DLTG) (SGU) (PIU) (PIU)
                 (SGG) (DLTU) (DLTU) (PIU) (PIU) (SGG) (PIG) (PIG)
                 (SGU) (PIG) (PIG) (SGG) (SGU) (DLTG) (DLTG) (PIU)
                 (PIU) (PHIU) (PHIU) (DLTG) (DLTG) (DLTU) (DLTU)
                 (SGG) (PHIG) (PHIG) (PIG) (PIG) (SGG) (SGU) (PIU)
                 (PIU) (DLTU) (DLTU) (SGU) (PIG) (PIG) (PIU) (PIU)
                 (SGU) (PIG) (PIG) (SGG) (PIU) (PIU) (SGG) (DLTG)
                 (DLTG) (PHIU) (PHIU) (?A) (?A) (DLTG) (DLTG) (DLTU)
                 (DLTU) (PHIU) (PHIU) (?B) (?B) (SGU) (PHIG) (PHIG)
                 (PIU) (PIU) (SGG) (PIG) (PIG) (DLTU) (DLTU) (DLTG)
                 (DLTG) (SGG) (PIG) (PIG) (PHIG) (PHIG) (SGU) (PIU)
                 (PIU) (DLTU) (DLTU) (SGU) (SGU) (PIG) (PIG) (SGG)
                 (PIU) (PIU) (PIG) (PIG) (SGG) (SGU) (SGU)
 The electronic state is 3-SGG.
 Alpha  occ. eigenvalues -- -378.82853-378.82853 -48.18182 -48.18182 -42.50764
 Alpha  occ. eigenvalues --  -42.50764 -42.50763 -42.50763 -42.50738 -42.50737
 Alpha  occ. eigenvalues --   -6.41151  -6.41042  -4.50628  -4.49891  -4.49828
 Alpha  occ. eigenvalues --   -4.49828  -4.49750  -4.49750  -1.24330  -1.22607
 Alpha  occ. eigenvalues --   -1.22607  -1.20863  -1.20863  -1.20375  -1.20375
 Alpha  occ. eigenvalues --   -1.19950  -1.19950  -1.18845  -0.62937  -0.34046
 Alpha  occ. eigenvalues --   -0.26706  -0.26706
 Alpha virt. eigenvalues --   -0.01934   0.02658   0.03763   0.03763   0.04103
 Alpha virt. eigenvalues --    0.04103   0.04784   0.06632   0.08914   0.08914
 Alpha virt. eigenvalues --    0.10593   0.18795   0.18795   0.24057   0.24516
 Alpha virt. eigenvalues --    0.24516   0.25213   0.30032   0.30032   0.33786
 Alpha virt. eigenvalues --    0.33786   0.34508   0.35233   0.35233   0.37311
 Alpha virt. eigenvalues --    0.42383   0.42383   0.57613   0.59039   0.63693
 Alpha virt. eigenvalues --    0.63693   0.68142   0.68142   0.68178   0.68178
 Alpha virt. eigenvalues --    0.77382   0.77382   0.78095   0.78095   0.78786
 Alpha virt. eigenvalues --    0.83326   0.83326   0.87474   0.87474   0.89525
 Alpha virt. eigenvalues --    0.95515   0.97234   0.97234   1.03457   1.03457
 Alpha virt. eigenvalues --    1.05536   1.07769   1.07769   1.27076   1.27076
 Alpha virt. eigenvalues --    1.44290   1.57664   1.57664   1.62803   1.71842
 Alpha virt. eigenvalues --    1.71842   1.75792   1.75909   1.75909   1.78963
 Alpha virt. eigenvalues --    1.78963   1.87403   1.87403   1.93238   1.93238
 Alpha virt. eigenvalues --    1.96919   1.96919   1.99092   1.99092   2.00331
 Alpha virt. eigenvalues --    2.00331   2.03044   2.05695   2.05695   2.06562
 Alpha virt. eigenvalues --    2.06562   2.08803   2.09093   2.09093   2.17656
 Alpha virt. eigenvalues --    2.17656   2.18014   2.18014   2.18999   2.21592
 Alpha virt. eigenvalues --    2.21592   2.25176   2.25176   2.38850   2.66644
 Alpha virt. eigenvalues --    2.66644   2.69701   2.69701   2.70844   3.10526
 Alpha virt. eigenvalues --    3.17528   3.17528   3.30170   4.09811   4.09811
 Alpha virt. eigenvalues --    4.34550   4.34550   4.49341   5.05376   6.95145
          Condensed to atoms (all electrons):
              1          2
     1  Ga  30.255555   0.744445
     2  Ga   0.744445  30.255555
 Mulliken atomic charges:
              1
     1  Ga   0.000000
     2  Ga   0.000000
 Sum of Mulliken atomic charges =   0.00000
 Mulliken charges with hydrogens summed into heavy atoms:
              1
     1  Ga   0.000000
     2  Ga   0.000000
 Sum of Mulliken charges with hydrogens summed into heavy atoms =   0.00000
          Atomic-Atomic Spin Densities.
              1          2
     1  Ga   0.639262   0.360738
     2  Ga   0.360738   0.639262
 Mulliken atomic spin densities:
              1
     1  Ga   1.000000
     2  Ga   1.000000
 Sum of Mulliken atomic spin densities =   2.00000
 Electronic spatial extent (au):  <R**2>=            297.2096
 Charge=              0.0000 electrons
 Dipole moment (field-independent basis, Debye):
    X=              0.0000    Y=              0.0000    Z=              0.0000  Tot=              0.0000
 Quadrupole moment (field-independent basis, Debye-Ang):
   XX=            -35.8093   YY=            -35.8093   ZZ=            -30.3397
   XY=              0.0000   XZ=              0.0000   YZ=              0.0000
 Traceless Quadrupole moment (field-independent basis, Debye-Ang):
   XX=             -1.8232   YY=             -1.8232   ZZ=              3.6464
   XY=              0.0000   XZ=              0.0000   YZ=              0.0000
 Octapole moment (field-independent basis, Debye-Ang**2):
  XXX=              0.0000  YYY=              0.0000  ZZZ=              0.0000  XYY=              0.0000
  XXY=              0.0000  XXZ=              0.0000  XZZ=              0.0000  YZZ=              0.0000
  YYZ=              0.0000  XYZ=              0.0000
 Hexadecapole moment (field-independent basis, Debye-Ang**3):
 XXXX=            -73.7701 YYYY=            -73.7701 ZZZZ=           -243.3992 XXXY=              0.0000
 XXXZ=              0.0000 YYYX=              0.0000 YYYZ=              0.0000 ZZZX=              0.0000
 ZZZY=              0.0000 XXYY=            -24.5900 XXZZ=            -53.8260 YYZZ=            -53.8260
 XXYZ=              0.0000 YYXZ=              0.0000 ZZXY=              0.0000
 N-N= 2.542696487275D+02 E-N=-1.456624726758D+04  KE= 5.769587778390D+03
                          Isotropic Fermi Contact Couplings
        Atom                 a.u.       MegaHertz       Gauss      10(-4) cm-1
     1  Ga(69)             0.00000       0.00000       0.00000       0.00000
     2  Ga(69)             0.00000       0.00000       0.00000       0.00000
 --------------------------------------------------------
       Center         ----  Spin Dipole Couplings  ----
                      3XX-RR        3YY-RR        3ZZ-RR
 --------------------------------------------------------
     1   Atom        0.682457      0.682457     -1.364915
     2   Atom        0.682457      0.682457     -1.364915
 --------------------------------------------------------
                        XY            XZ            YZ
 --------------------------------------------------------
     1   Atom        0.000000      0.000000      0.000000
     2   Atom        0.000000      0.000000      0.000000
 --------------------------------------------------------


 ---------------------------------------------------------------------------------
              Anisotropic Spin Dipole Couplings in Principal Axis System
 ---------------------------------------------------------------------------------

       Atom             a.u.   MegaHertz   Gauss  10(-4) cm-1        Axes

              Baa    -1.3649  -175.280   -62.544   -58.467  0.0000  0.0000  1.0000
     1 Ga(69) Bbb     0.6825    87.640    31.272    29.234 -0.0025  1.0000  0.0000
              Bcc     0.6825    87.640    31.272    29.234  1.0000  0.0025  0.0000
 
              Baa    -1.3649  -175.280   -62.544   -58.467  0.0000  0.0000  1.0000
     2 Ga(69) Bbb     0.6825    87.640    31.272    29.234  0.0000  1.0000  0.0000
              Bcc     0.6825    87.640    31.272    29.234  1.0000  0.0000  0.0000
 

 ---------------------------------------------------------------------------------


 NEF-NEF-NEF-NEF-NEF-NEF-NEF-NEF-NEF-NEF-NEF-NEF-NEF-NEF-NEF-NEF-NEF-NEF-
 NUMERICAL EIGENVECTOR FOLLOWING MINIMUM SEARCH
 NUMERICALLY ESTIMATING GRADIENTS
 ITERATION   0 VARIABLE  1 STEP  1

 NEF-NEF-NEF-NEF-NEF-NEF-NEF-NEF-NEF-NEF-NEF-NEF-NEF-NEF-NEF-NEF-NEF-NEF-
 ---------------------------------------------------------------------------------------------------
                            Z-MATRIX (ANGSTROMS AND DEGREES)
   CD    Cent   Atom    N1       Length/X        N2       Alpha/Y        N3        Beta/Z          J
 ---------------------------------------------------------------------------------------------------
      1      1  Ga
      2      2  Ga       1   2.000054(     1)
 ---------------------------------------------------------------------------------------------------
                         Z-Matrix orientation:                         
 ---------------------------------------------------------------------
 Center     Atomic      Atomic             Coordinates (Angstroms)
 Number     Number       Type             X           Y           Z
 ---------------------------------------------------------------------
      1         31           0        0.000000    0.000000    0.000000
      2         31           0        0.000000    0.000000    2.000054
 ---------------------------------------------------------------------
 Stoichiometry    Ga2(3)
 Framework group  D*H[C*(Ga.Ga)]
 Deg. of freedom     1
 Full point group                 D*H     NOp   8
 Largest Abelian subgroup         D2H     NOp   8
 Largest concise Abelian subgroup C2      NOp   2
                         Standard orientation:                         
 ---------------------------------------------------------------------
 Center     Atomic      Atomic             Coordinates (Angstroms)
 Number     Number       Type             X           Y           Z
 ---------------------------------------------------------------------
      1         31           0        0.000000    0.000000    1.000027
      2         31           0        0.000000    0.000000   -1.000027
 ---------------------------------------------------------------------
 Rotational constants (GHZ):      0.0000000      3.6659230      3.6659230
 Basis read from rwf:  (5D, 7F)
 There are    29 symmetry adapted basis functions of AG  symmetry.
 There are     8 symmetry adapted basis functions of B1G symmetry.
 There are    17 symmetry adapted basis functions of B2G symmetry.
 There are    17 symmetry adapted basis functions of B3G symmetry.
 There are     8 symmetry adapted basis functions of AU  symmetry.
 There are    29 symmetry adapted basis functions of B1U symmetry.
 There are    17 symmetry adapted basis functions of B2U symmetry.
 There are    17 symmetry adapted basis functions of B3U symmetry.
 Integral buffers will be    131072 words long.
 Raffenetti 2 integral format.
 Two-electron integral symmetry is turned on.
   142 basis functions,   518 primitive gaussians,   174 cartesian basis functions
    32 alpha electrons       30 beta electrons
       nuclear repulsion energy       254.2627892997 Hartrees.
 NAtoms=    2 NActive=    2 NUniq=    1 SFac= 3.00D+00 NAtFMM=   80 NAOKFM=F Big=F
 One-electron integrals computed using PRISM.
 NBasis=   142 RedAO= F  NBF=    29     8    17    17     8    29    17    17
 NBsUse=   142 1.00D-04 NBFU=    29     8    17    17     8    29    17    17
 Initial guess read from the read-write file.
 B after Tr=     0.000000    0.000000    0.000000
         Rot=    1.000000    0.000000    0.000000    0.000000 Ang=   0.00 deg.
 Initial guess orbital symmetries:
       Occupied  (SGG) (SGU) (SGU) (SGG) (SGU) (SGG) (PIG) (PIG)
                 (PIU) (PIU) (SGG) (SGU) (SGG) (SGU) (PIU) (PIU)
                 (PIG) (PIG) (SGG) (PIU) (PIU) (DLTG) (DLTG) (DLTU)
                 (DLTU) (PIG) (PIG) (SGU) (SGG) (SGU) (PIU) (PIU)
       Virtual   (SGG) (SGU) (PIG) (PIG) (PIU) (PIU) (SGG) (SGG)
                 (PIG) (PIG) (SGU) (DLTG) (DLTG) (SGU) (PIU) (PIU)
                 (SGG) (DLTU) (DLTU) (PIU) (PIU) (SGG) (PIG) (PIG)
                 (SGU) (PIG) (PIG) (SGG) (SGU) (DLTG) (DLTG) (PIU)
                 (PIU) (PHIU) (PHIU) (DLTG) (DLTG) (DLTU) (DLTU)
                 (SGG) (PHIG) (PHIG) (PIG) (PIG) (SGG) (SGU) (PIU)
                 (PIU) (DLTU) (DLTU) (SGU) (PIG) (PIG) (PIU) (PIU)
                 (SGU) (PIG) (PIG) (SGG) (PIU) (PIU) (SGG) (DLTG)
                 (DLTG) (PHIU) (PHIU) (?A) (?A) (DLTG) (DLTG) (DLTU)
                 (DLTU) (PHIU) (PHIU) (?B) (?B) (SGU) (PHIG) (PHIG)
                 (PIU) (PIU) (SGG) (PIG) (PIG) (DLTU) (DLTU) (DLTG)
                 (DLTG) (SGG) (PIG) (PIG) (PHIG) (PHIG) (SGU) (PIU)
                 (PIU) (DLTU) (DLTU) (SGU) (SGU) (PIG) (PIG) (SGG)
                 (PIU) (PIU) (PIG) (PIG) (SGG) (SGU) (SGU)
 Harris functional with IExCor=  205 diagonalized for initial guess.
 ExpMin= 1.44D-02 ExpMax= 6.22D+06 ExpMxC= 7.41D+03 IAcc=3 IRadAn=         5 AccDes= 0.00D+00
 HarFok:  IExCor=  205 AccDes= 0.00D+00 IRadAn=         5 IDoV= 1
 ScaDFX=  1.000000  1.000000  1.000000  1.000000
 FoFCou: FMM=F IPFlag=           0 FMFlag=      100000 FMFlg1=           0
         NFxFlg=           0 DoJE=T BraDBF=F KetDBF=T FulRan=T
         Omega=  0.000000  0.000000  1.000000  0.000000  0.000000 ICntrl=     500 IOpCl=  0
         NMat0=    1 NMatS0=    1 NMatT0=    0 NMatD0=    1 NMtDS0=    0 NMtDT0=    0
         I1Cent=           4 NGrid=           0.
 Petite list used in FoFCou.
 Requested convergence on RMS density matrix=1.00D-10 within 128 cycles.
 Requested convergence on MAX density matrix=1.00D-08.
 Requested convergence on             energy=1.00D-08.
 No special actions if energy rises.
 Keep R1 and R2 ints in memory in canonical form, NReq=236436732.
 SCF Done:  E(ROHF) =  -3846.48272955     A.U. after    8 cycles
             Convg  =    0.4239D-10             -V/T =  1.9999
 <Sx>= 0.0000 <Sy>= 0.0000 <Sz>= 1.0000 <S**2>= 2.0000 S= 1.0000
 <L.S>= 0.000000000000E+00
 Annihilation of the first spin contaminant:
 S**2 before annihilation     2.0000,   after     2.0000
 GenMOA:  NOpAll=  8 NOp2=8 NOpUse=  8 JSym2X=1
 <Sx>= 0.0000 <Sy>= 0.0000 <Sz>= 1.0000 <S**2>= 2.0000 S= 1.0000
 Range of M.O.s used for correlation:    29   142
 NBasis=   142 NAE=    32 NBE=    30 NFC=    28 NFV=     0
 NROrb=    114 NOA=     4 NOB=     2 NVA=   110 NVB=   112

 **** Warning!!: The largest alpha MO coefficient is  0.48938947D+02


 **** Warning!!: The largest beta MO coefficient is  0.48931828D+02

 Singles contribution to E2=   -0.1867417951D-02
 Semi-Direct transformation.
 ModeAB=           4 MOrb=             4 LenV=    1609773102
 LASXX=       364357 LTotXX=      364357 LenRXX=      740724
 LTotAB=      376367 MaxLAS=     3741936 LenRXY=           0
 NonZer=     1105081 LenScr=     2357760 LnRSAI=     3741936
 LnScr1=     6312960 LExtra=     1177263 Total=     14330643
 MaxDsk= 17179869184 SrtSym=           T ITran=            4
 JobTyp=1 Pass  1:  I=   1 to   4.
 (rs|ai) integrals will be sorted in core.
 ModeAB=           4 MOrb=             2 LenV=    1609773102
 LASXX=       186733 LTotXX=      186733 LenRXX=      366605
 LTotAB=      179872 MaxLAS=     1870968 LenRXY=           0
 NonZer=      553338 LenScr=     1571840 LnRSAI=     1870968
 LnScr1=     3507200 LExtra=     1917987 Total=      9234600
 MaxDsk= 17179869184 SrtSym=           T ITran=            4
 JobTyp=2 Pass  1:  I=   1 to   2.
 (rs|ai) integrals will be sorted in core.
 Spin components of T(2) and E(2):
     alpha-alpha T2 =       0.1937560682D-01 E2=     -0.2124881368D-01
     alpha-beta  T2 =       0.6917586702D-01 E2=     -0.8662385159D-01
     beta-beta   T2 =       0.1860355646D-02 E2=     -0.2512006517D-02
 ANorm=    0.1045316343D+01
 E2 =    -0.1122520897D+00 EUMP2 =    -0.38465949816434D+04
 (S**2,0)=  0.20000D+01           (S**2,1)=  0.20000D+01
 E(PUHF)=      -0.38464827296D+04        E(PMP2)=      -0.38465949816D+04
 R2 and R3 integrals will be kept in memory, NReq=   236324677.
 Symmetry not used in FoFDir.
 MinBra= 0 MaxBra= 4 Meth= 1.
 IRaf=       0 NMat=   1 IRICut=       1 DoRegI=T DoRafI=F ISym2E= 0 JSym2E=0.
 PrsmSu:  NPrtUS=   8 ThrOK=T IAlg=1
 PRISM was handed   172203804 working-precision words and   900 shell-pairs
 PRISM was handed   172203804 working-precision words and   900 shell-pairs
 PRISM was handed   172203804 working-precision words and   900 shell-pairs
 PRISM was handed   172203804 working-precision words and   900 shell-pairs
 PRISM was handed   172203804 working-precision words and   900 shell-pairs
 PRISM was handed   172203804 working-precision words and   900 shell-pairs
 PRISM was handed   172203804 working-precision words and   900 shell-pairs
 PRISM was handed   172203804 working-precision words and   900 shell-pairs
 IPart=  6 NShTot=       48886 NBatch=        4784 AvBLen=        10.2
 IPart=  5 NShTot=       49109 NBatch=        4954 AvBLen=         9.9
 IPart=  7 NShTot=       48807 NBatch=        4791 AvBLen=        10.2
[...]
 TestDE:  II= 70 I=2 DE=   -0.194855980025D-04
 TestDE:  II= 72 I=2 DE=    0.961625840788D-05
 TestDE:  II= 75 I=2 DE=   -0.262100080493D-01
 TestDE:  II= 75 I=1 DE=   -0.240452755364D-02
 TestDE:  II= 75 I=3 DE=    0.651670772413D-04
 GetDE: DE=      0.00000000D+00
 TestDE:  II= 65 I=1 DE=    0.282018193856D-01
 TestDE:  II= 65 I=2 DE=    0.111244453716D+00
 TestDE:  II= 65 I=3 DE=    0.131259258289D-02
 Singles A-vector converged to   5.8224779D-06
 Singles A-vector converged to   1.3357535D-05
 The Euclidean norm of the A-vectors is   2.4312943D-05
 The Euclidean norm of the A-vectors is   2.7167052D-05
 The Euclidean norm of the A-vectors is   5.8488205D-05
 A(0)= 0.10000E+01      ANORM= 0.10719E+01      W(0)=-0.12290509E+00
 DE(Corr)= -0.12480358     E(CORR)=     -3846.6607431     Delta=-6.85D-07
 NORM(A)=   0.10718607D+01
 Iteration Nr.  12
 **********************
 DD1Dir will call FoFMem   1 times, MxPair=        24
 NAB=     8 NAA=     6 NBB=     1.
 DD1Dir:  Pass   1 NRAB=     8 NRAA=     6 NRBB=     1 NR=    23.
 TestDE:  II= 99 I=2 DE=    0.491454855800D-01
 TestDE:  II= 99 I=1 DE=    0.764699492942D-02
 TestDE:  II= 99 I=3 DE=    0.394399095209D-03
 TestDE:  II= 19 I=1 DE=    0.768055163550D-02
 TestDE:  II= 19 I=2 DE=    0.491262966173D-01
 TestDE:  II= 19 I=3 DE=    0.370276048474D-03
 Contribution from DD1=    0.57177124D-01
 ExpSMa:  Full in-core algorithm.
 ExpSMa:  Full in-core algorithm.
 ExpSMa:  Full in-core algorithm.
 ExpSMa:  Full in-core algorithm.
 ExpSMa:  Full in-core algorithm.
 ExpSMa:  Full in-core algorithm.
 ExpSMa:  Full in-core algorithm.
 TestDE:  II=419 I=1 DE=    0.136449894272D-01
 TestDE:  II=419 I=2 DE=    0.798021245033D-01
 TestDE:  II=419 I=3 DE=    0.634369466988D-03
 Contribution from DD2=    0.36904359D-01
 Contribution from DD3=    0.00000000D+00
 Singles added:  Sum=    0.90582799D-01
 Entering DoROCS
 TestDE:  II= 99 I=2 DE=    0.798021245033D-01
 TestDE:  II= 99 I=1 DE=    0.136449894272D-01
 TestDE:  II= 99 I=3 DE=    0.634369466988D-03
 TestDE:  II= 99 I=1 DE=    0.147908182033D-01
 TestDE:  II= 11 I=2 DE=    0.798021245033D-01
 TestDE:  II= 99 I=2 DE=    0.819413298089D-01
 TestDE:  II= 98 I=2 DE=    0.839699936821D-01
 TestDE:  II= 98 I=3 DE=    0.678760615211D-03
 TestDE:  II= 89 I=1 DE=    0.167468090181D-01
 TestDE:  II= 89 I=2 DE=    0.878790023146D-01
 TestDE:  II= 88 I=3 DE=    0.804870774298D-03
 TestDE:  II= 88 I=2 DE=    0.933236901770D-01
 TestDE:  II=  5 I=1 DE=   -0.191432766257D-01
 TestDE:  II=  7 I=2 DE=    0.461677292914D-01
 TestDE:  II=  8 I=2 DE=   -0.723775495429D-01
 TestDE:  II=  9 I=3 DE=   -0.726672374796D-03
 TestDE:  II= 50 I=1 DE=   -0.239646760753D-02
 TestDE:  II= 70 I=2 DE=   -0.262098202515D-01
 TestDE:  II= 90 I=3 DE=    0.781983995019D-04
 UMP4Q scratch file information:
   i      file        len
 ---     ------    ------
   1      19997     25872
   2      19998     25872
   3      19996     25872
   4      19995     25872
   5      19994     25872
   6      19993     12544
 total scratch length=      141904
 TestDE:  II= 71 I=2 DE=    0.187892782901D-04
 TestDE:  II= 70 I=2 DE=   -0.194748764216D-04
 TestDE:  II= 72 I=2 DE=    0.961704537544D-05
 TestDE:  II= 75 I=2 DE=   -0.262096419223D-01
 TestDE:  II= 75 I=1 DE=   -0.240486530347D-02
 TestDE:  II= 75 I=3 DE=    0.652178673435D-04
 GetDE: DE=      0.00000000D+00
 TestDE:  II= 65 I=1 DE=    0.282028479381D-01
 TestDE:  II= 65 I=2 DE=    0.111243330753D+00
 TestDE:  II= 65 I=3 DE=    0.131245960775D-02
 Singles A-vector converged to   2.9644933D-06
 Singles A-vector converged to   5.1838182D-06
 The Euclidean norm of the A-vectors is   1.2064977D-05
 The Euclidean norm of the A-vectors is   1.3154846D-05
 The Euclidean norm of the A-vectors is   2.5824542D-05
 A(0)= 0.10000E+01      ANORM= 0.10719E+01      W(0)=-0.12290487E+00
 DE(Corr)= -0.12480353     E(CORR)=     -3846.6607430     Delta= 4.97D-08
 NORM(A)=   0.10718610D+01
 Iteration Nr.  13
 **********************
 DD1Dir will call FoFMem   1 times, MxPair=        24
 NAB=     8 NAA=     6 NBB=     1.
 DD1Dir:  Pass   1 NRAB=     8 NRAA=     6 NRBB=     1 NR=    23.
 TestDE:  II= 99 I=2 DE=    0.491452657956D-01
 TestDE:  II= 99 I=1 DE=    0.764711735658D-02
 TestDE:  II= 99 I=3 DE=    0.394401306876D-03
 TestDE:  II= 19 I=1 DE=    0.768067952588D-02
 TestDE:  II= 19 I=2 DE=    0.491260787124D-01
 TestDE:  II= 19 I=3 DE=    0.370272097724D-03
 Contribution from DD1=    0.57177030D-01
 ExpSMa:  Full in-core algorithm.
 ExpSMa:  Full in-core algorithm.
 ExpSMa:  Full in-core algorithm.
 ExpSMa:  Full in-core algorithm.
 ExpSMa:  Full in-core algorithm.
 ExpSMa:  Full in-core algorithm.
 ExpSMa:  Full in-core algorithm.
 TestDE:  II=419 I=1 DE=    0.136452564879D-01
 TestDE:  II=419 I=2 DE=    0.798017542847D-01
 TestDE:  II=419 I=3 DE=    0.634355376118D-03
 Contribution from DD2=    0.36904336D-01
 Contribution from DD3=    0.00000000D+00
 Singles added:  Sum=    0.90582586D-01
 Entering DoROCS
 TestDE:  II= 99 I=2 DE=    0.798017542847D-01
 TestDE:  II= 99 I=1 DE=    0.136452564879D-01
 TestDE:  II= 99 I=3 DE=    0.634355376118D-03
 TestDE:  II= 99 I=1 DE=    0.147911166489D-01
 TestDE:  II= 11 I=2 DE=    0.798017542847D-01
 TestDE:  II= 99 I=2 DE=    0.819409595243D-01
 TestDE:  II= 98 I=2 DE=    0.839696152754D-01
 TestDE:  II= 98 I=3 DE=    0.678745690134D-03
 TestDE:  II= 89 I=1 DE=    0.167471497279D-01
 TestDE:  II= 89 I=2 DE=    0.878786071468D-01
 TestDE:  II= 88 I=3 DE=    0.804850565917D-03
 TestDE:  II= 88 I=2 DE=    0.933232437561D-01
 TestDE:  II=  5 I=1 DE=   -0.191438628117D-01
 TestDE:  II=  7 I=2 DE=    0.461673917598D-01
 TestDE:  II=  8 I=2 DE=   -0.723771175426D-01
 TestDE:  II=  9 I=3 DE=   -0.726644467611D-03
 TestDE:  II= 50 I=1 DE=   -0.239671308387D-02
 TestDE:  II= 70 I=2 DE=   -0.262097257827D-01
 TestDE:  II= 90 I=3 DE=    0.782060983062D-04
 UMP4Q scratch file information:
   i      file        len
 ---     ------    ------
   1      19997     25872
   2      19998     25872
   3      19996     25872
   4      19995     25872
   5      19994     25872
   6      19993     12544
 total scratch length=      141904
 TestDE:  II= 71 I=2 DE=    0.187933309360D-04
 TestDE:  II= 70 I=2 DE=   -0.194719124360D-04
 TestDE:  II= 72 I=2 DE=    0.961744397569D-05
 TestDE:  II= 75 I=2 DE=   -0.262095528078D-01
 TestDE:  II= 75 I=1 DE=   -0.240511100266D-02
 TestDE:  II= 75 I=3 DE=    0.652270418460D-04
 GetDE: DE=      0.00000000D+00
 TestDE:  II= 65 I=1 DE=    0.282034281829D-01
 TestDE:  II= 65 I=2 DE=    0.111243022232D+00
 TestDE:  II= 65 I=3 DE=    0.131242419770D-02
 Singles A-vector converged to   8.9948251D-07
 Singles A-vector converged to   1.2857035D-06
 The Euclidean norm of the A-vectors is   4.2405554D-06
 The Euclidean norm of the A-vectors is   4.4269991D-06
 The Euclidean norm of the A-vectors is   9.1269887D-06
 A(0)= 0.10000E+01      ANORM= 0.10719E+01      W(0)=-0.12290504E+00
 DE(Corr)= -0.12480354     E(CORR)=     -3846.6607430     Delta=-1.34D-08
 NORM(A)=   0.10718615D+01
 Dominant configurations:
 ***********************
 Spin Case        I    J    A    B          Value
   ABAB          30   30   33   31      -0.101472D+00
 Largest amplitude= 1.01D-01
    T4(aaa)= -0.57771994D-03
    T5(aaa)=  0.21897158D-04
    T4(aab)= -0.66064609D-02
    T5(aab)=  0.10851117D-03
    T4(abb)= -0.13847312D-02
    T5(abb)=  0.20574956D-04
 Time for triples=      110.53 seconds.
 T4(CCSD)= -0.85689120D-02
 T5(CCSD)=  0.15098329D-03
 CCSD(T)= -0.38466691610D+04

 NEF-NEF-NEF-NEF-NEF-NEF-NEF-NEF-NEF-NEF-NEF-NEF-NEF-NEF-NEF-NEF-NEF-NEF-
 NUMERICAL EIGENVECTOR FOLLOWING MINIMUM SEARCH
 GRADIENT ESTIMATION COMPLETE
 Hessian updated using Powell update
 ITERATION   5
 HESSIAN EIGENVECTORS AND EIGENVALUES
                           1
     Eigenvalues --     0.05614
   1         R          1.00000
 MINIMUM SEARCH. TAKING SIMPLE RFO STEP
 SEARCHING FOR LAMDA THAT MINIMIZES ALONG ALL MODES
 VALUE TAKEN    LAMDA=   0.00000000
 STEP TAKEN. STEPSIZE IS  0.000014
 CURRENT PARAMETER VALUES (INTERNAL COORDINATES)
    I        X         GRADIENT    DISPLACEMENT       NEWX
    1    4.717079      0.000001     -0.000014      4.717065
         ITEM               VALUE     THRESHOLD  CONVERGED?
 MAXIMUM FORCE            0.000001     0.000015     YES
 RMS     FORCE            0.000001     0.000010     YES
 MAXIMUM DISPLACEMENT     0.000014     0.000060     YES
 RMS     DISPLACEMENT     0.000014     0.000040     YES


 *************************************************
 **  CONVERGENCE CRITERIA APPARENTLY SATISFIED  **
 *************************************************


                       ----------------------------
                       !   Optimized Parameters   !
                       ! (Angstroms and Degrees)  !
 ----------------------                            ----------------------
 !      Name          Value   Derivative information (Atomic Units)     !
 ------------------------------------------------------------------------
 !        R          2.4962   -DE/DX =    0.0                           !
 ------------------------------------------------------------------------
 PREDICTED CHANGE IN ENERGY   0.000000

 NEF-NEF-NEF-NEF-NEF-NEF-NEF-NEF-NEF-NEF-NEF-NEF-NEF-NEF-NEF-NEF-NEF-NEF-
 ---------------------------------------------------------------------------------------------------
                            Z-MATRIX (ANGSTROMS AND DEGREES)
   CD    Cent   Atom    N1       Length/X        N2       Alpha/Y        N3        Beta/Z          J
 ---------------------------------------------------------------------------------------------------
      1      1  Ga
      2      2  Ga       1   2.496171(     1)
 ---------------------------------------------------------------------------------------------------
                         Z-Matrix orientation:                         
 ---------------------------------------------------------------------
 Center     Atomic      Atomic             Coordinates (Angstroms)
 Number     Number       Type             X           Y           Z
 ---------------------------------------------------------------------
      1         31           0        0.000000    0.000000    0.000000
      2         31           0        0.000000    0.000000    2.496171
 ---------------------------------------------------------------------
 Stoichiometry    Ga2(3)
 Framework group  D*H[C*(Ga.Ga)]
 Deg. of freedom     1
 Full point group                 D*H     NOp   8
 Largest Abelian subgroup         D2H     NOp   8
 Largest concise Abelian subgroup C2      NOp   2
                         Standard orientation:                         
 ---------------------------------------------------------------------
 Center     Atomic      Atomic             Coordinates (Angstroms)
 Number     Number       Type             X           Y           Z
 ---------------------------------------------------------------------
      1         31           0        0.000000    0.000000    1.248085
      2         31           0        0.000000    0.000000   -1.248085
 ---------------------------------------------------------------------
 Rotational constants (GHZ):      0.0000000      2.3535218      2.3535218

 **********************************************************************

            Population analysis using the SCF density.

 **********************************************************************

 Orbital symmetries:
       Occupied  (SGG) (SGU) (SGG) (SGU) (SGU) (SGG) (PIG) (PIG)
                 (PIU) (PIU) (SGG) (SGU) (SGG) (SGU) (PIU) (PIU)
                 (PIG) (PIG) (SGG) (PIU) (PIU) (PIG) (PIG) (DLTG)
                 (DLTG) (DLTU) (DLTU) (SGU) (SGG) (SGU) (PIU) (PIU)
       Virtual   (SGG) (SGU) (PIG) (PIG) (PIU) (PIU) (SGG) (SGG)
                 (PIG) (PIG) (SGU) (SGU) (DLTG) (DLTG) (PIU) (PIU)
                 (SGG) (DLTU) (DLTU) (PIU) (PIU) (PIG) (PIG) (SGU)
                 (SGG) (PIG) (PIG) (SGU) (SGG) (PIU) (PIU) (DLTG)
                 (DLTG) (PHIU) (PHIU) (DLTG) (DLTG) (SGG) (DLTU)
                 (DLTU) (PHIG) (PHIG) (PIG) (PIG) (SGU) (PIU) (PIU)
                 (DLTU) (DLTU) (SGU) (SGG) (PIG) (PIG) (PIU) (PIU)
                 (SGU) (PIG) (PIG) (SGG) (PIU) (PIU) (SGG) (DLTG)
                 (DLTG) (PHIU) (PHIU) (SGU) (DLTG) (DLTG) (?A)
                 (?A) (DLTU) (DLTU) (?B) (?B) (PIU) (PIU) (PHIU)
                 (PHIU) (PHIG) (PHIG) (PIG) (PIG) (DLTG) (DLTG)
                 (SGG) (DLTU) (DLTU) (PHIG) (PHIG) (SGU) (PIG)
                 (PIG) (PIU) (PIU) (SGU) (DLTU) (DLTU) (SGU) (SGG)
                 (SGG) (PIG) (PIG) (PIU) (PIU) (SGU) (PIG) (PIG)
                 (SGG) (SGU)
 The electronic state is 3-SGG.
 Alpha  occ. eigenvalues -- -378.82881-378.82881 -48.17880 -48.17880 -42.50494
 Alpha  occ. eigenvalues --  -42.50494 -42.50494 -42.50494 -42.50449 -42.50448
 Alpha  occ. eigenvalues --   -6.40596  -6.40590  -4.49504  -4.49441  -4.49406
 Alpha  occ. eigenvalues --   -4.49406  -4.49398  -4.49398  -1.21335  -1.20891
 Alpha  occ. eigenvalues --   -1.20891  -1.20405  -1.20405  -1.20331  -1.20331
 Alpha  occ. eigenvalues --   -1.20292  -1.20292  -1.20044  -0.56778  -0.37761
 Alpha  occ. eigenvalues --   -0.23034  -0.23034
 Alpha virt. eigenvalues --   -0.02612   0.02465   0.02542   0.02542   0.04369
 Alpha virt. eigenvalues --    0.04369   0.04723   0.05961   0.07076   0.07076
 Alpha virt. eigenvalues --    0.10163   0.18911   0.18911   0.19131   0.23722
 Alpha virt. eigenvalues --    0.23722   0.25342   0.28387   0.28387   0.33976
 Alpha virt. eigenvalues --    0.33976   0.36642   0.36642   0.37134   0.39148
 Alpha virt. eigenvalues --    0.39381   0.39381   0.47500   0.52026   0.64990
 Alpha virt. eigenvalues --    0.64990   0.65249   0.65249   0.69854   0.69854
 Alpha virt. eigenvalues --    0.73267   0.73267   0.73808   0.75834   0.75834
 Alpha virt. eigenvalues --    0.79699   0.79699   0.85179   0.85179   0.85936
 Alpha virt. eigenvalues --    0.89520   0.89520   0.95255   0.95255   0.97778
 Alpha virt. eigenvalues --    1.00737   1.09641   1.09641   1.27802   1.27802
 Alpha virt. eigenvalues --    1.29006   1.43857   1.43857   1.44150   1.73592
 Alpha virt. eigenvalues --    1.73592   1.73933   1.78489   1.78489   1.82562
 Alpha virt. eigenvalues --    1.82562   1.91167   1.91167   1.91331   1.91555
 Alpha virt. eigenvalues --    1.91555   1.94648   1.94648   1.95607   1.95607
 Alpha virt. eigenvalues --    1.98694   1.98694   1.99937   1.99937   2.01640
 Alpha virt. eigenvalues --    2.01640   2.02587   2.02587   2.04079   2.04079
 Alpha virt. eigenvalues --    2.08020   2.09150   2.09150   2.09264   2.09264
 Alpha virt. eigenvalues --    2.18077   2.18250   2.18250   2.35616   2.35616
 Alpha virt. eigenvalues --    2.36073   2.39986   2.39986   2.44305   2.52465
 Alpha virt. eigenvalues --    2.84384   2.84934   2.84934   4.10042   4.10042
 Alpha virt. eigenvalues --    4.19741   4.21860   4.21860   4.41277   4.98188
          Condensed to atoms (all electrons):
              1          2
     1  Ga  30.533063   0.466937
     2  Ga   0.466937  30.533063
 Mulliken atomic charges:
              1
     1  Ga   0.000000
     2  Ga   0.000000
 Sum of Mulliken atomic charges =   0.00000
 Mulliken charges with hydrogens summed into heavy atoms:
              1
     1  Ga   0.000000
     2  Ga   0.000000
 Sum of Mulliken charges with hydrogens summed into heavy atoms =   0.00000
          Atomic-Atomic Spin Densities.
              1          2
     1  Ga   0.691634   0.308366
     2  Ga   0.308366   0.691634
 Mulliken atomic spin densities:
              1
     1  Ga   1.000000
     2  Ga   1.000000
 Sum of Mulliken atomic spin densities =   2.00000
 Electronic spatial extent (au):  <R**2>=            421.7757
 Charge=              0.0000 electrons
 Dipole moment (field-independent basis, Debye):
    X=              0.0000    Y=              0.0000    Z=              0.0000  Tot=              0.0000
 Quadrupole moment (field-independent basis, Debye-Ang):
   XX=            -37.9389   YY=            -37.9389   ZZ=            -27.5390
   XY=              0.0000   XZ=              0.0000   YZ=              0.0000
 Traceless Quadrupole moment (field-independent basis, Debye-Ang):
   XX=             -3.4666   YY=             -3.4666   ZZ=              6.9333
   XY=              0.0000   XZ=              0.0000   YZ=              0.0000
 Octapole moment (field-independent basis, Debye-Ang**2):
  XXX=              0.0000  YYY=              0.0000  ZZZ=              0.0000  XYY=              0.0000
  XXY=              0.0000  XXZ=              0.0000  XZZ=              0.0000  YZZ=              0.0000
  YYZ=              0.0000  XYZ=              0.0000
 Hexadecapole moment (field-independent basis, Debye-Ang**3):
 XXXX=            -88.9709 YYYY=            -88.9709 ZZZZ=           -325.6278 XXXY=              0.0000
 XXXZ=              0.0000 YYYX=              0.0000 YYYZ=              0.0000 ZZZX=              0.0000
 ZZZY=              0.0000 XXYY=            -29.6570 XXZZ=            -74.3988 YYZZ=            -74.3988
 XXYZ=              0.0000 YYXZ=              0.0000 ZZXY=              0.0000
 N-N= 2.037277794772D+02 E-N=-1.441683306974D+04  KE= 5.769042137111D+03
                          Isotropic Fermi Contact Couplings
        Atom                 a.u.       MegaHertz       Gauss      10(-4) cm-1
     1  Ga(69)             0.00000       0.00000       0.00000       0.00000
     2  Ga(69)             0.00000       0.00000       0.00000       0.00000
 --------------------------------------------------------
       Center         ----  Spin Dipole Couplings  ----
                      3XX-RR        3YY-RR        3ZZ-RR
 --------------------------------------------------------
     1   Atom        0.531644      0.531644     -1.063288
     2   Atom        0.531644      0.531644     -1.063288
 --------------------------------------------------------
                        XY            XZ            YZ
 --------------------------------------------------------
     1   Atom        0.000000      0.000000      0.000000
     2   Atom        0.000000      0.000000      0.000000
 --------------------------------------------------------


 ---------------------------------------------------------------------------------
              Anisotropic Spin Dipole Couplings in Principal Axis System
 ---------------------------------------------------------------------------------

       Atom             a.u.   MegaHertz   Gauss  10(-4) cm-1        Axes

              Baa    -1.0633  -136.546   -48.723   -45.547  0.0000  0.0000  1.0000
     1 Ga(69) Bbb     0.5316    68.273    24.361    22.773  1.0000  0.0000  0.0000
              Bcc     0.5316    68.273    24.361    22.773  0.0000  1.0000  0.0000
 
              Baa    -1.0633  -136.546   -48.723   -45.547  0.0000  0.0000  1.0000
     2 Ga(69) Bbb     0.5316    68.273    24.361    22.773  1.0000 -0.0003  0.0000
              Bcc     0.5316    68.273    24.361    22.773  0.0003  1.0000  0.0000
 

 ---------------------------------------------------------------------------------


 Test job not archived.
 1\1\GINC-C32\FOpt\ROCCSD(T)-RW\Gen\Ga2(3)\GPETERSSON\25-Aug-2012\1\\# 
 ROCCSD(T,RW) Gen GFinput Int=NoBasisTransform Int(Grid=Ultrafine) IOp(
 3/32=2,5/6=10,8/11=1,9/33=1) Maxdisk=128GB Opt=(Tight,Z-Matrix)\\Ga2\\
 0,3\Ga\Ga,1,R\\R=2.49617062\\Version=EM64L-G09RevA.02\State=3-SGG\HF=-
 3846.5359401\MP2=-3846.6431366\MP3=-3846.6597583\PUHF=-3846.5359401\PM
 P2-0=-3846.6431366\MP4SDQ=-3846.6611218\CCSD=-3846.6607431\CCSD(T)=-38
 46.669161\RMSD=2.375e-11\RMSF=7.849e-07\PG=D*H [C*(Ga1.Ga1)]\\@


 BE NOT THE FIRST BY WHOM THE NEW ARE TRIED,
 NOR YET THE THE LAST TO LAY THE OLD ASIDE.

                          -- ALEXANDER POPE
 Job cpu time:  0 days  3 hours 31 minutes  2.0 seconds.
 File lengths (MBytes):  RWF=    114 Int=      0 D2E=      0 Chk=      3 Scr=      1
 Normal termination of Gaussian 09 at Sat Aug 25 17:40:07 2012.
