 Entering Gaussian System, Link 0=g09
 AtFile(1): 6ZaPa-NR.gbs
 Initial command:
 /share/apps/gaussian/g09root/g09/l1.exe /localscratch/933596/Gau-17895.inp -scrdir=/localscratch/933596/
 Entering Link 1 = /share/apps/gaussian/g09root/g09/l1.exe PID=     17896.
  
 Copyright (c) 1988,1990,1992,1993,1995,1998,2003,2009, Gaussian, Inc.
                  All Rights Reserved.
  
 This is part of the Gaussian(R) 09 program.  It is based on
 the Gaussian(R) 03 system (copyright 2003, Gaussian, Inc.),
 the Gaussian(R) 98 system (copyright 1998, Gaussian, Inc.),
 the Gaussian(R) 94 system (copyright 1995, Gaussian, Inc.),
 the Gaussian 92(TM) system (copyright 1992, Gaussian, Inc.),
 the Gaussian 90(TM) system (copyright 1990, Gaussian, Inc.),
 the Gaussian 88(TM) system (copyright 1988, Gaussian, Inc.),
 the Gaussian 86(TM) system (copyright 1986, Carnegie Mellon
 University), and the Gaussian 82(TM) system (copyright 1983,
 Carnegie Mellon University). Gaussian is a federally registered
 trademark of Gaussian, Inc.
  
 This software contains proprietary and confidential information,
 including trade secrets, belonging to Gaussian, Inc.
  
 This software is provided under written license and may be
 used, copied, transmitted, or stored only in accord with that
 written license.
  
 The following legend is applicable only to US Government
 contracts under FAR:
  
                    RESTRICTED RIGHTS LEGEND
  
 Use, reproduction and disclosure by the US Government is
 subject to restrictions as set forth in subparagraphs (a)
 and (c) of the Commercial Computer Software - Restricted
 Rights clause in FAR 52.227-19.
  
 Gaussian, Inc.
 340 Quinnipiac St., Bldg. 40, Wallingford CT 06492
  
  
 ---------------------------------------------------------------
 Warning -- This program may not be used in any manner that
 competes with the business of Gaussian, Inc. or will provide
 assistance to any competitor of Gaussian, Inc.  The licensee
 of this program is prohibited from giving any competitor of
 Gaussian, Inc. access to this program.  By using this program,
 the user acknowledges that Gaussian, Inc. is engaged in the
 business of creating and licensing software in the field of
 computational chemistry and represents and warrants to the
 licensee that it is not a competitor of Gaussian, Inc. and that
 it will not use this program in any manner prohibited above.
 ---------------------------------------------------------------
  

 Cite this work as:
 Gaussian 09, Revision A.02,
 M. J. Frisch, G. W. Trucks, H. B. Schlegel, G. E. Scuseria, 
 M. A. Robb, J. R. Cheeseman, G. Scalmani, V. Barone, B. Mennucci, 
 G. A. Petersson, H. Nakatsuji, M. Caricato, X. Li, H. P. Hratchian, 
 A. F. Izmaylov, J. Bloino, G. Zheng, J. L. Sonnenberg, M. Hada, 
 M. Ehara, K. Toyota, R. Fukuda, J. Hasegawa, M. Ishida, T. Nakajima, 
 Y. Honda, O. Kitao, H. Nakai, T. Vreven, J. A. Montgomery, Jr., 
 J. E. Peralta, F. Ogliaro, M. Bearpark, J. J. Heyd, E. Brothers, 
 K. N. Kudin, V. N. Staroverov, R. Kobayashi, J. Normand, 
 K. Raghavachari, A. Rendell, J. C. Burant, S. S. Iyengar, J. Tomasi, 
 M. Cossi, N. Rega, J. M. Millam, M. Klene, J. E. Knox, J. B. Cross, 
 V. Bakken, C. Adamo, J. Jaramillo, R. Gomperts, R. E. Stratmann, 
 O. Yazyev, A. J. Austin, R. Cammi, C. Pomelli, J. W. Ochterski, 
 R. L. Martin, K. Morokuma, V. G. Zakrzewski, G. A. Voth, 
 P. Salvador, J. J. Dannenberg, S. Dapprich, A. D. Daniels, 
 O. Farkas, J. B. Foresman, J. V. Ortiz, J. Cioslowski, 
 and D. J. Fox, Gaussian, Inc., Wallingford CT, 2009.
 
 ******************************************
 Gaussian 09:  EM64L-G09RevA.02 11-Jun-2009
                 4-May-2013 
 ******************************************
 % Mem=6GB
 % Nproc=8
 Will use up to    8 processors via shared memory.
 ----------------------------------------------------------------------
 # ROMP2(RW) Gen GFinput Int=NoBasisTransform Int(Grid=Ultrafine) IOp(3
 /32=2,5/6=10,8/11=1,9/33=1) Maxdisk=128GB CBSextrapolate(Nmin=20,MinPo
 p)
 ----------------------------------------------------------------------
 1/38=1/1;
 2/12=2,17=6,18=5,40=1/2;
 3/5=7,11=2,16=1,24=10,25=1,30=1,32=2,60=-1,75=-5,116=101/1,2,3;
 4//1;
 5/5=2,6=10,38=5/2;
 8/5=-1,10=91,11=1/1;
 9/16=-3,33=1,75=2,81=20,83=4/6,4;
 6/7=2,8=2,9=2,10=2/1;
 99/5=1,9=1/99;
 ---
 Ga2
 ---
 Symbolic Z-matrix:
 Charge =  0 Multiplicity = 3
 Ga
 Ga                   1     2.49617 
 
                          Input orientation:                          
 ---------------------------------------------------------------------
 Center     Atomic      Atomic             Coordinates (Angstroms)
 Number     Number       Type             X           Y           Z
 ---------------------------------------------------------------------
      1         31           0        0.000000    0.000000    0.000000
      2         31           0        0.000000    0.000000    2.496171
 ---------------------------------------------------------------------
 Stoichiometry    Ga2(3)
 Framework group  D*H[C*(Ga.Ga)]
 Deg. of freedom     1
 Full point group                 D*H     NOp   8
 Largest Abelian subgroup         D2H     NOp   8
 Largest concise Abelian subgroup C2      NOp   2
                         Standard orientation:                         
 ---------------------------------------------------------------------
 Center     Atomic      Atomic             Coordinates (Angstroms)
 Number     Number       Type             X           Y           Z
 ---------------------------------------------------------------------
      1         31           0        0.000000    0.000000    1.248085
      2         31           0        0.000000    0.000000   -1.248085
 ---------------------------------------------------------------------
 Rotational constants (GHZ):      0.0000000      2.3535218      2.3535218
 General basis read from cards:  (5D, 7F)
 AO basis set in the form of general basis input (Overlap normalization):
      1 0
 S  17 1.00       0.000000000000
      0.3233447220D+08  0.9632316966D-06
      0.6109123520D+07  0.5942815974D-05
      0.1405069680D+07  0.3368607103D-04
      0.3811579500D+06  0.1526740774D-03
      0.1186323790D+06  0.5898912654D-03
      0.4135967220D+05  0.1989507389D-02
      0.1582170680D+05  0.6005871973D-02
      0.6524721130D+04  0.1647516038D-01
      0.2857570760D+04  0.4127789172D-01
      0.1312433700D+04  0.9336910071D-01
      0.6254718650D+03  0.1837910385D+00
      0.3065769410D+03  0.2906673886D+00
      0.1534020740D+03  0.3131802779D+00
      0.7785922100D+02  0.1710398306D+00
      0.3985952800D+02  0.2919416843D-01
      0.2047593500D+02  0.1530501157D-02
      0.1050127200D+02  0.8354013168D-04
 S  15 1.00       0.000000000000
      0.4135967220D+05 -0.1293348375D-05
      0.1582170680D+05 -0.1112226881D-04
      0.6524721130D+04 -0.7815628451D-04
      0.2857570760D+04 -0.4611793250D-03
      0.1312433700D+04 -0.2304279891D-02
      0.6254718650D+03 -0.9813259230D-02
      0.3065769410D+03 -0.3366903786D-01
      0.1534020740D+03 -0.7981268148D-01
      0.7785922100D+02 -0.7441201674D-01
      0.3985952800D+02  0.1514157920D+00
      0.2047593500D+02  0.5045055397D+00
      0.1050127200D+02  0.4049778846D+00
      0.5348542000D+01  0.7896325679D-01
      0.2689711000D+01  0.3853447019D-02
      0.1326684000D+01 -0.1479162677D-02
 P  15 1.00       0.000000000000
      0.5262527840D+05  0.1080213645D-04
      0.1394831110D+05  0.8627855641D-04
      0.4441518170D+04  0.5536972749D-03
      0.1640945570D+04  0.2681648466D-02
      0.6820594260D+03  0.1036153204D-01
      0.3104203680D+03  0.3264106172D-01
      0.1510828740D+03  0.8533303869D-01
      0.7704367200D+02  0.1798367933D+00
      0.4044807800D+02  0.2924256861D+00
      0.2153889300D+02  0.3304965102D+00
      0.1148846400D+02  0.2012602273D+00
      0.6073871000D+01  0.4871453064D-01
      0.3155508000D+01  0.3937260104D-02
      0.1599456000D+01  0.2895801638D-03
      0.7863530000D+00  0.2586145261D-04
 S  11 1.00       0.000000000000
      0.3065769410D+03  0.1425775279D-03
      0.1534020740D+03  0.1577392357D-02
      0.7785922100D+02  0.2894460864D-02
      0.3985952800D+02 -0.7373167873D-02
      0.2047593500D+02 -0.1133081701D+00
      0.1050127200D+02 -0.2046236117D+00
      0.5348542000D+01  0.1309695120D+00
      0.2689711000D+01  0.5663780687D+00
      0.1326684000D+01  0.4441015316D+00
      0.6368390000D+00  0.7320727293D-01
      0.2947520000D+00  0.8199529011D-03
 P  12 1.00       0.000000000000
      0.3104203680D+03 -0.2420191256D-03
      0.1510828740D+03 -0.1302425731D-02
      0.7704367200D+02 -0.5550718420D-02
      0.4044807800D+02 -0.1423960073D-01
      0.2153889300D+02 -0.2219629321D-01
      0.1148846400D+02  0.4169705457D-01
      0.6073871000D+01  0.2323026481D+00
      0.3155508000D+01  0.3951250295D+00
      0.1599456000D+01  0.3386134562D+00
      0.7863530000D+00  0.1176462750D+00
      0.3731390000D+00  0.9469426459D-02
      0.1701790000D+00  0.1168761411D-02
 D  14 1.00       0.000000000000
      0.2055828420D+04  0.1948985063D-04
      0.6185839610D+03  0.2072551038D-03
      0.2365174580D+03  0.1324307915D-02
      0.1054961500D+03  0.5898914462D-02
      0.5166452700D+02  0.1968821367D-01
      0.2668079100D+02  0.5201777390D-01
      0.1417407000D+02  0.1147043633D+00
      0.7639545000D+01  0.1962705038D+00
      0.4146007000D+01  0.2538408130D+00
      0.2252146000D+01  0.2637333155D+00
      0.1213559000D+01  0.2248300369D+00
      0.6379280000D+00  0.1467253798D+00
      0.3177690000D+00  0.5801296649D-01
      0.1432420000D+00  0.8132862497D-02
 S  10 1.00       0.000000000000
      0.3985952800D+02  0.3949547682D-04
      0.2047593500D+02  0.3825552196D-03
      0.1050127200D+02  0.2764792242D-02
      0.5348542000D+01 -0.5692911404D-02
      0.2689711000D+01 -0.2950466199D-01
      0.1326684000D+01 -0.1295258070D+00
      0.6368390000D+00 -0.8303496387D-01
      0.2947520000D+00  0.3001625850D+00
      0.1300850000D+00  0.6052970437D+00
      0.5402600000D-01  0.2679650988D+00
 S   1 1.00       0.000000000000
      0.5939600000D-01  0.1000000000D+01
 S   1 1.00       0.000000000000
      0.1993700000D-01  0.1000000000D+01
 P  10 1.00       0.000000000000
      0.2153889300D+02  0.4449490952D-04
      0.1148846400D+02 -0.6458289840D-03
      0.6073871000D+01 -0.3053579562D-02
      0.3155508000D+01 -0.6417240816D-02
      0.1599456000D+01 -0.1565872165D-01
      0.7863530000D+00  0.2788048136D-02
      0.3731390000D+00  0.1374664334D+00
      0.1701790000D+00  0.3543766639D+00
      0.7431400000D-01  0.4568123103D+00
      0.3096000000D-01  0.1935534026D+00
 P   1 1.00       0.000000000000
      0.7775000000D-02  0.1000000000D+01
 P   1 1.00       0.000000000000
      0.2209400000D-01  0.1000000000D+01
 S   1 1.00       0.000000000000
      0.2284789000D+01  0.1000000000D+01
 S   1 1.00       0.000000000000
      0.1157948000D+01  0.1000000000D+01
 S   1 1.00       0.000000000000
      0.5868560000D+00  0.1000000000D+01
 S   1 1.00       0.000000000000
      0.2974230000D+00  0.1000000000D+01
 S   1 1.00       0.000000000000
      0.1507360000D+00  0.1000000000D+01
 P   1 1.00       0.000000000000
      0.1236199000D+01  0.1000000000D+01
 P   1 1.00       0.000000000000
      0.6821490000D+00  0.1000000000D+01
 P   1 1.00       0.000000000000
      0.3764180000D+00  0.1000000000D+01
 P   1 1.00       0.000000000000
      0.2077120000D+00  0.1000000000D+01
 P   1 1.00       0.000000000000
      0.1146180000D+00  0.1000000000D+01
 D   1 1.00       0.000000000000
      0.1044448000D+01  0.1000000000D+01
 D   1 1.00       0.000000000000
      0.5417110000D+00  0.1000000000D+01
 D   1 1.00       0.000000000000
      0.2809630000D+00  0.1000000000D+01
 D   1 1.00       0.000000000000
      0.1457240000D+00  0.1000000000D+01
 D   1 1.00       0.000000000000
      0.7558100000D-01  0.1000000000D+01
 D   1 1.00       0.000000000000
      0.3920070000D-01  0.1000000000D+01
 F   1 1.00       0.000000000000
      0.9843310000D+00  0.1000000000D+01
 F   1 1.00       0.000000000000
      0.5280160000D+00  0.1000000000D+01
 F   1 1.00       0.000000000000
      0.2832390000D+00  0.1000000000D+01
 F   1 1.00       0.000000000000
      0.1519360000D+00  0.1000000000D+01
 F   1 1.00       0.000000000000
      0.8150200000D-01  0.1000000000D+01
 G   1 1.00       0.000000000000
      0.7736980000D+00  0.1000000000D+01
 G   1 1.00       0.000000000000
      0.4244200000D+00  0.1000000000D+01
 G   1 1.00       0.000000000000
      0.2328200000D+00  0.1000000000D+01
 G   1 1.00       0.000000000000
      0.1277160000D+00  0.1000000000D+01
 H   1 1.00       0.000000000000
      0.6767090000D+00  0.1000000000D+01
 H   1 1.00       0.000000000000
      0.3443740000D+00  0.1000000000D+01
 H   1 1.00       0.000000000000
      0.1752500000D+00  0.1000000000D+01
 I   1 1.00       0.000000000000
      0.5361126425D+00  0.1000000000D+01
 ****
      2 0
 S  17 1.00       0.000000000000
      0.3233447220D+08  0.9632316966D-06
      0.6109123520D+07  0.5942815974D-05
      0.1405069680D+07  0.3368607103D-04
      0.3811579500D+06  0.1526740774D-03
      0.1186323790D+06  0.5898912654D-03
      0.4135967220D+05  0.1989507389D-02
      0.1582170680D+05  0.6005871973D-02
      0.6524721130D+04  0.1647516038D-01
      0.2857570760D+04  0.4127789172D-01
      0.1312433700D+04  0.9336910071D-01
      0.6254718650D+03  0.1837910385D+00
      0.3065769410D+03  0.2906673886D+00
      0.1534020740D+03  0.3131802779D+00
      0.7785922100D+02  0.1710398306D+00
      0.3985952800D+02  0.2919416843D-01
      0.2047593500D+02  0.1530501157D-02
      0.1050127200D+02  0.8354013168D-04
 S  15 1.00       0.000000000000
      0.4135967220D+05 -0.1293348375D-05
      0.1582170680D+05 -0.1112226881D-04
      0.6524721130D+04 -0.7815628451D-04
      0.2857570760D+04 -0.4611793250D-03
      0.1312433700D+04 -0.2304279891D-02
      0.6254718650D+03 -0.9813259230D-02
      0.3065769410D+03 -0.3366903786D-01
      0.1534020740D+03 -0.7981268148D-01
      0.7785922100D+02 -0.7441201674D-01
      0.3985952800D+02  0.1514157920D+00
      0.2047593500D+02  0.5045055397D+00
      0.1050127200D+02  0.4049778846D+00
      0.5348542000D+01  0.7896325679D-01
      0.2689711000D+01  0.3853447019D-02
      0.1326684000D+01 -0.1479162677D-02
 P  15 1.00       0.000000000000
      0.5262527840D+05  0.1080213645D-04
      0.1394831110D+05  0.8627855641D-04
      0.4441518170D+04  0.5536972749D-03
      0.1640945570D+04  0.2681648466D-02
      0.6820594260D+03  0.1036153204D-01
      0.3104203680D+03  0.3264106172D-01
      0.1510828740D+03  0.8533303869D-01
      0.7704367200D+02  0.1798367933D+00
      0.4044807800D+02  0.2924256861D+00
      0.2153889300D+02  0.3304965102D+00
      0.1148846400D+02  0.2012602273D+00
      0.6073871000D+01  0.4871453064D-01
      0.3155508000D+01  0.3937260104D-02
      0.1599456000D+01  0.2895801638D-03
      0.7863530000D+00  0.2586145261D-04
 S  11 1.00       0.000000000000
      0.3065769410D+03  0.1425775279D-03
      0.1534020740D+03  0.1577392357D-02
      0.7785922100D+02  0.2894460864D-02
      0.3985952800D+02 -0.7373167873D-02
      0.2047593500D+02 -0.1133081701D+00
      0.1050127200D+02 -0.2046236117D+00
      0.5348542000D+01  0.1309695120D+00
      0.2689711000D+01  0.5663780687D+00
      0.1326684000D+01  0.4441015316D+00
      0.6368390000D+00  0.7320727293D-01
      0.2947520000D+00  0.8199529011D-03
 P  12 1.00       0.000000000000
      0.3104203680D+03 -0.2420191256D-03
      0.1510828740D+03 -0.1302425731D-02
      0.7704367200D+02 -0.5550718420D-02
      0.4044807800D+02 -0.1423960073D-01
      0.2153889300D+02 -0.2219629321D-01
      0.1148846400D+02  0.4169705457D-01
      0.6073871000D+01  0.2323026481D+00
      0.3155508000D+01  0.3951250295D+00
      0.1599456000D+01  0.3386134562D+00
      0.7863530000D+00  0.1176462750D+00
      0.3731390000D+00  0.9469426459D-02
      0.1701790000D+00  0.1168761411D-02
 D  14 1.00       0.000000000000
      0.2055828420D+04  0.1948985063D-04
      0.6185839610D+03  0.2072551038D-03
      0.2365174580D+03  0.1324307915D-02
      0.1054961500D+03  0.5898914462D-02
      0.5166452700D+02  0.1968821367D-01
      0.2668079100D+02  0.5201777390D-01
      0.1417407000D+02  0.1147043633D+00
      0.7639545000D+01  0.1962705038D+00
      0.4146007000D+01  0.2538408130D+00
      0.2252146000D+01  0.2637333155D+00
      0.1213559000D+01  0.2248300369D+00
      0.6379280000D+00  0.1467253798D+00
      0.3177690000D+00  0.5801296649D-01
      0.1432420000D+00  0.8132862497D-02
 S  10 1.00       0.000000000000
      0.3985952800D+02  0.3949547682D-04
      0.2047593500D+02  0.3825552196D-03
      0.1050127200D+02  0.2764792242D-02
      0.5348542000D+01 -0.5692911404D-02
      0.2689711000D+01 -0.2950466199D-01
      0.1326684000D+01 -0.1295258070D+00
      0.6368390000D+00 -0.8303496387D-01
      0.2947520000D+00  0.3001625850D+00
      0.1300850000D+00  0.6052970437D+00
      0.5402600000D-01  0.2679650988D+00
 S   1 1.00       0.000000000000
      0.5939600000D-01  0.1000000000D+01
 S   1 1.00       0.000000000000
      0.1993700000D-01  0.1000000000D+01
 P  10 1.00       0.000000000000
      0.2153889300D+02  0.4449490952D-04
      0.1148846400D+02 -0.6458289840D-03
      0.6073871000D+01 -0.3053579562D-02
      0.3155508000D+01 -0.6417240816D-02
      0.1599456000D+01 -0.1565872165D-01
      0.7863530000D+00  0.2788048136D-02
      0.3731390000D+00  0.1374664334D+00
      0.1701790000D+00  0.3543766639D+00
      0.7431400000D-01  0.4568123103D+00
      0.3096000000D-01  0.1935534026D+00
 P   1 1.00       0.000000000000
      0.7775000000D-02  0.1000000000D+01
 P   1 1.00       0.000000000000
      0.2209400000D-01  0.1000000000D+01
 S   1 1.00       0.000000000000
      0.2284789000D+01  0.1000000000D+01
 S   1 1.00       0.000000000000
      0.1157948000D+01  0.1000000000D+01
 S   1 1.00       0.000000000000
      0.5868560000D+00  0.1000000000D+01
 S   1 1.00       0.000000000000
      0.2974230000D+00  0.1000000000D+01
 S   1 1.00       0.000000000000
      0.1507360000D+00  0.1000000000D+01
 P   1 1.00       0.000000000000
      0.1236199000D+01  0.1000000000D+01
 P   1 1.00       0.000000000000
      0.6821490000D+00  0.1000000000D+01
 P   1 1.00       0.000000000000
      0.3764180000D+00  0.1000000000D+01
 P   1 1.00       0.000000000000
      0.2077120000D+00  0.1000000000D+01
 P   1 1.00       0.000000000000
      0.1146180000D+00  0.1000000000D+01
 D   1 1.00       0.000000000000
      0.1044448000D+01  0.1000000000D+01
 D   1 1.00       0.000000000000
      0.5417110000D+00  0.1000000000D+01
 D   1 1.00       0.000000000000
      0.2809630000D+00  0.1000000000D+01
 D   1 1.00       0.000000000000
      0.1457240000D+00  0.1000000000D+01
 D   1 1.00       0.000000000000
      0.7558100000D-01  0.1000000000D+01
 D   1 1.00       0.000000000000
      0.3920070000D-01  0.1000000000D+01
 F   1 1.00       0.000000000000
      0.9843310000D+00  0.1000000000D+01
 F   1 1.00       0.000000000000
      0.5280160000D+00  0.1000000000D+01
 F   1 1.00       0.000000000000
      0.2832390000D+00  0.1000000000D+01
 F   1 1.00       0.000000000000
      0.1519360000D+00  0.1000000000D+01
 F   1 1.00       0.000000000000
      0.8150200000D-01  0.1000000000D+01
 G   1 1.00       0.000000000000
      0.7736980000D+00  0.1000000000D+01
 G   1 1.00       0.000000000000
      0.4244200000D+00  0.1000000000D+01
 G   1 1.00       0.000000000000
      0.2328200000D+00  0.1000000000D+01
 G   1 1.00       0.000000000000
      0.1277160000D+00  0.1000000000D+01
 H   1 1.00       0.000000000000
      0.6767090000D+00  0.1000000000D+01
 H   1 1.00       0.000000000000
      0.3443740000D+00  0.1000000000D+01
 H   1 1.00       0.000000000000
      0.1752500000D+00  0.1000000000D+01
 I   1 1.00       0.000000000000
      0.5361126425D+00  0.1000000000D+01
 ****

 There are    70 symmetry adapted basis functions of AG  symmetry.
 There are    29 symmetry adapted basis functions of B1G symmetry.
 There are    47 symmetry adapted basis functions of B2G symmetry.
 There are    47 symmetry adapted basis functions of B3G symmetry.
 There are    29 symmetry adapted basis functions of AU  symmetry.
 There are    70 symmetry adapted basis functions of B1U symmetry.
 There are    47 symmetry adapted basis functions of B2U symmetry.
 There are    47 symmetry adapted basis functions of B3U symmetry.
 Integral buffers will be    131072 words long.
 Raffenetti 2 integral format.
 Two-electron integral symmetry is turned on.
   386 basis functions,  1026 primitive gaussians,   568 cartesian basis functions
    32 alpha electrons       30 beta electrons
       nuclear repulsion energy       203.7277794156 Hartrees.
 NAtoms=    2 NActive=    2 NUniq=    1 SFac= 3.00D+00 NAtFMM=   80 NAOKFM=F Big=F
 One-electron integrals computed using PRISM.
 NBasis=   386 RedAO= F  NBF=    70    29    47    47    29    70    47    47
 NBsUse=   386 1.00D-04 NBFU=    70    29    47    47    29    70    47    47
 Harris functional with IExCor=  205 diagonalized for initial guess.
 ExpMin= 7.78D-03 ExpMax= 3.23D+07 ExpMxC= 6.52D+03 IAcc=3 IRadAn=         5 AccDes= 0.00D+00
 HarFok:  IExCor=  205 AccDes= 0.00D+00 IRadAn=         5 IDoV= 1
 ScaDFX=  1.000000  1.000000  1.000000  1.000000
 FoFCou: FMM=F IPFlag=           0 FMFlag=      100000 FMFlg1=           0
         NFxFlg=           0 DoJE=T BraDBF=F KetDBF=T FulRan=T
         Omega=  0.000000  0.000000  1.000000  0.000000  0.000000 ICntrl=     500 IOpCl=  0
         NMat0=    1 NMatS0=    1 NMatT0=    0 NMatD0=    1 NMtDS0=    0 NMtDT0=    0
         I1Cent=           4 NGrid=           0.
 Petite list used in FoFCou.
 Initial guess orbital symmetries:
       Occupied  (SGU) (SGG) (SGU) (SGG) (SGU) (SGG) (PIG) (PIG)
                 (PIU) (PIU) (SGG) (SGU) (SGG) (SGU) (PIU) (PIU)
                 (PIG) (PIG) (SGG) (PIU) (PIU) (DLTG) (DLTG) (DLTU)
                 (DLTU) (PIG) (PIG) (SGU) (SGG) (SGU) (PIU) (PIU)
       Virtual   (SGG) (PIG) (PIG) (SGG) (SGU) (PIU) (PIU) (SGG)
                 (PIG) (PIG) (DLTG) (DLTG) (SGU) (SGG) (PIU) (PIU)
                 (SGU) (PIG) (PIG) (PIU) (PIU) (DLTU) (DLTU) (SGU)
                 (SGG) (SGU) (SGG) (PIG) (PIG) (DLTG) (DLTG) (PIU)
                 (PIU) (SGG) (PHIU) (PHIU) (SGU) (PIU) (PIU) (PIG)
                 (PIG) (DLTU) (DLTU) (DLTG) (DLTG) (PHIG) (PHIG)
                 (SGG) (PIG) (PIG) (SGU) (PIU) (PIU) (SGU) (DLTU)
                 (DLTU) (SGG) (SGU) (PIG) (PIG) (PIU) (PIU) (?A)
                 (?A) (DLTG) (DLTG) (PHIU) (PHIU) (SGG) (DLTU)
                 (DLTU) (?B) (?B) (SGG) (PIG) (PIG) (PIU) (PIU)
                 (DLTG) (DLTG) (PHIU) (PHIU) (PHIG) (PHIG) (SGU)
                 (PIG) (PIG) (SGG) (DLTG) (DLTG) (SGU) (PIU) (PIU)
                 (PHIG) (PHIG) (DLTU) (DLTU) (SGU) (PIG) (PIG)
                 (PIU) (PIU) (SGG) (?C) (?C) (SGU) (DLTU) (DLTU)
                 (?A) (?A) (?D) (?D) (SGG) (PIU) (PIU) (PIG) (PIG)
                 (PHIU) (PHIU) (DLTG) (DLTG) (?B) (?B) (DLTU) (DLTU)
                 (SGG) (DLTG) (DLTG) (?A) (?A) (SGU) (PHIU) (PHIU)
                 (PHIG) (PHIG) (PIG) (PIG) (SGU) (?B) (?B) (PIU)
                 (PIU) (PHIU) (PHIU) (DLTU) (DLTU) (DLTG) (DLTG)
                 (SGG) (SGG) (PHIG) (PHIG) (PIU) (PIU) (PIG) (PIG)
                 (SGU) (DLTG) (DLTG) (PHIG) (PHIG) (PIG) (PIG)
                 (PIU) (PIU) (DLTU) (DLTU) (SGG) (PIG) (PIG) (SGU)
                 (SGG) (SGU) (PIU) (PIU) (DLTU) (DLTU) (SGU) (PHIU)
                 (PHIU) (PIG) (PIG) (?A) (?A) (?C) (?C) (DLTG)
                 (DLTG) (?D) (?D) (SGG) (PIU) (PIU) (?B) (?B) (SGG)
                 (DLTG) (DLTG) (DLTU) (DLTU) (PHIG) (PHIG) (?A)
                 (?A) (PIG) (PIG) (PHIU) (PHIU) (DLTU) (DLTU) (?B)
                 (?B) (PHIU) (PHIU) (PIU) (PIU) (SGU) (DLTG) (DLTG)
                 (SGG) (PHIG) (PHIG) (PIG) (PIG) (PHIG) (PHIG)
                 (DLTG) (DLTG) (SGU) (PIU) (PIU) (DLTU) (DLTU)
                 (SGU) (PIU) (PIU) (PIG) (PIG) (SGG) (SGU) (DLTU)
                 (DLTU) (SGG) (?A) (?A) (PIU) (PIU) (?C) (?C) (PHIU)
                 (PHIU) (PIG) (PIG) (?E) (?E) (?F) (?F) (?D) (?D)
                 (PIG) (PIG) (SGU) (SGG) (DLTG) (DLTG) (?B) (?B)
                 (PIU) (PIU) (SGG) (SGU) (PHIG) (PHIG) (?A) (?A)
                 (DLTU) (DLTU) (?C) (?C) (?D) (?D) (PHIU) (PHIU)
                 (SGG) (SGU) (DLTG) (DLTG) (?B) (?B) (PHIU) (PHIU)
                 (PHIG) (PHIG) (PIG) (PIG) (DLTU) (DLTU) (PIU)
                 (PIU) (SGG) (?A) (?A) (PHIU) (PHIU) (?B) (?B)
                 (SGU) (PIG) (PIG) (DLTG) (DLTG) (PHIG) (PHIG)
                 (PHIG) (PHIG) (DLTG) (DLTG) (PIU) (PIU) (DLTU)
                 (DLTU) (PIG) (PIG) (SGG) (SGU) (PIU) (PIU) (DLTU)
                 (DLTU) (DLTG) (DLTG) (PIG) (PIG) (DLTU) (DLTU)
                 (PIU) (PIU) (SGU) (SGG) (SGU) (PIG) (PIG) (SGG)
                 (SGU) (PIU) (PIU) (PIG) (PIG) (SGG) (SGG) (SGU)
                 (SGU) (SGG) (SGU)
 The electronic state of the initial guess is 3-SGG.
 Requested convergence on RMS density matrix=1.00D-10 within 128 cycles.
 Requested convergence on MAX density matrix=1.00D-08.
 Requested convergence on             energy=1.00D-08.
 No special actions if energy rises.
 Initial convergence to 1.0D-05 achieved.  Increase integral accuracy.
 SCF Done:  E(ROHF) =  -3846.53757968     A.U. after   17 cycles
             Convg  =    0.9847D-10             -V/T =  2.0000
 <Sx>= 0.0000 <Sy>= 0.0000 <Sz>= 1.0000 <S**2>= 2.0000 S= 1.0000
 <L.S>= 0.000000000000E+00
 Annihilation of the first spin contaminant:
 S**2 before annihilation     2.0000,   after     2.0000
 GenMOA:  NOpAll=  8 NOp2=8 NOpUse=  8 JSym2X=1
 <Sx>= 0.0000 <Sy>= 0.0000 <Sz>= 1.0000 <S**2>= 2.0000 S= 1.0000
 Range of M.O.s used for correlation:    29   386
 NBasis=   386 NAE=    32 NBE=    30 NFC=    28 NFV=     0
 NROrb=    358 NOA=     4 NOB=     2 NVA=   354 NVB=   356

 **** Warning!!: The largest alpha MO coefficient is  0.10102221D+04


 **** Warning!!: The largest beta MO coefficient is  0.10102035D+04

 Singles contribution to E2=   -0.1692888204D-02
 Disk-based method using OVN memory for  4 occupieds at a time.
 Permanent disk used for amplitudes and <ij||ab> integrals=     2892536 words.
 Estimated scratch disk usage=   303173520 words.
 IUseRI=2 ITolRI= 6 IR12RI=0
 Actual    scratch disk usage=   299926664 words.
 GetIJB would need an additional   834287577 words of memory to use all   8 processors.
 JobTyp=2 Pass  1:  I=   1 to   4 NPSUse=  1 ParTrn=F ParDer=F DoDerP=F.
 (rs|ai) integrals will be sorted in core.
 T,EIJ(AA): I=   1 J=   2      0.9475959E-03     -0.1385539E-02
 T,EIJ(AA): I=   1 J=   3      0.1244970E-02     -0.1867851E-02
 T,EIJ(AA): I=   1 J=   4      0.1244970E-02     -0.1867851E-02
 T,EIJ(AA): I=   2 J=   3      0.5854142E-02     -0.5146183E-02
 T,EIJ(AA): I=   2 J=   4      0.5854142E-02     -0.5146183E-02
 T,EIJ(AA): I=   3 J=   4      0.7616687E-02     -0.6137997E-02
 T,EIJ(AB): I=   1 J=   1      0.6886553E-02     -0.1193165E-01
 T,EIJ(AB): I=   1 J=   2      0.4581100E-02     -0.7564470E-02
 T,EIJ(AB): I=   2 J=   1      0.6801878E-02     -0.9706143E-02
 T,EIJ(AB): I=   2 J=   2      0.1690919E-01     -0.1856005E-01
 T,EIJ(AB): I=   3 J=   1      0.6561588E-02     -0.9236688E-02
 T,EIJ(AB): I=   3 J=   2      0.9537702E-02     -0.9774398E-02
 T,EIJ(AB): I=   4 J=   1      0.6561588E-02     -0.9236688E-02
 T,EIJ(AB): I=   4 J=   2      0.9537702E-02     -0.9774398E-02
 Actual    scratch disk usage=   301616016 words.
 GetIJB would need an additional   834279625 words of memory to use all   8 processors.
 JobTyp=3 Pass  1:  I=   1 to   2 NPSUse=  1 ParTrn=F ParDer=F DoDerP=F.
 (rs|ai) integrals will be sorted in core.
 T,EIJ(BB): I=   1 J=   2      0.1475479E-02     -0.1885085E-02
 Spin components of T(2) and E(2):
     alpha-alpha T2 =       0.2276250688D-01 E2=     -0.2155160437D-01
     alpha-beta  T2 =       0.6737730386D-01 E2=     -0.8578447792D-01
     beta-beta   T2 =       0.1475478751D-02 E2=     -0.1885084984D-02
 ANorm=    0.1045900419D+01
 E2 =    -0.1109140555D+00 EUMP2 =    -0.38466484937341D+04

 Complete Basis Set (CBS) Extrapolation:
 M. R. Nyden and G. A. Petersson, JCP 75, 1843 (1981)
 G. A. Petersson and M. A. Al-Laham, JCP 94, 6081 (1991)
 G. A. Petersson, T. Tensfeldt, and J. A. Montgomery, JCP 94, 6091 (1991)
 J. A. Montgomery, J. W. Ochterski, and G. A. Petersson, JCP 101, 5900 (1994)
 
 Minimum Number of PNO for Extrapolation =  20
 Absolute Overlaps: IRadAn =         5
 LocTrn: ILocal=3 LocCor=F DoCore=F.
 Entering OneElI...
 Overlap between basis sets.
 Requested accuracy = 0.1000D-12
 PrsmSu:  NPrtUS=   1 ThrOK=F IAlg=1
 PRISM was handed   804657230 working-precision words and   136 shell-pairs
 IPart=  0 NShTot=         136 NBatch=          15 AvBLen=         9.1
 CnvPC2: ToCart=F DoDens=F IPureD=0 IPureF=0.
 Transformed matrix in CnvPC2: 
                 1             2             3             4             5 
      1   0.100000D+01  0.399707D+00  0.000000D+00  0.000000D+00  0.000000D+00
      2   0.399707D+00  0.100000D+01  0.000000D+00  0.000000D+00  0.000000D+00
      3   0.000000D+00  0.000000D+00  0.100000D+01  0.000000D+00  0.000000D+00
      4   0.000000D+00  0.000000D+00  0.000000D+00  0.100000D+01  0.000000D+00
      5   0.000000D+00  0.000000D+00  0.000000D+00  0.000000D+00  0.100000D+01
      6   0.262553D-01  0.313572D+00  0.000000D+00  0.000000D+00  0.000000D+00
      7   0.000000D+00  0.000000D+00  0.326517D+00  0.000000D+00  0.000000D+00
      8   0.000000D+00  0.000000D+00  0.000000D+00  0.326517D+00  0.000000D+00
      9   0.000000D+00  0.000000D+00  0.000000D+00  0.000000D+00  0.326517D+00
     10   0.000000D+00  0.000000D+00  0.000000D+00  0.000000D+00  0.000000D+00
     11   0.000000D+00  0.000000D+00  0.000000D+00  0.000000D+00  0.000000D+00
     12   0.000000D+00  0.000000D+00  0.000000D+00  0.000000D+00  0.000000D+00
     13   0.000000D+00  0.000000D+00  0.000000D+00  0.000000D+00  0.000000D+00
     14   0.000000D+00  0.000000D+00  0.000000D+00  0.000000D+00  0.000000D+00
     15  -0.353836D-03  0.313775D-02  0.000000D+00  0.000000D+00  0.000000D+00
     16   0.000000D+00  0.000000D+00  0.102782D-01  0.000000D+00  0.000000D+00
     17   0.000000D+00  0.000000D+00  0.000000D+00  0.102782D-01  0.000000D+00
     18   0.000000D+00  0.000000D+00  0.000000D+00  0.000000D+00  0.102782D-01
     19   0.000000D+00  0.000000D+00  0.000000D+00  0.000000D+00  0.000000D+00
     20   0.000000D+00  0.000000D+00  0.000000D+00  0.000000D+00  0.000000D+00
     21   0.000000D+00  0.000000D+00  0.000000D+00  0.000000D+00  0.000000D+00
     22   0.000000D+00  0.000000D+00  0.000000D+00  0.000000D+00  0.000000D+00
     23   0.000000D+00  0.000000D+00  0.000000D+00  0.000000D+00  0.000000D+00
     24   0.000000D+00  0.000000D+00  0.000000D+00  0.000000D+00  0.000000D+00
     25   0.000000D+00  0.000000D+00  0.000000D+00  0.000000D+00  0.000000D+00
     26   0.000000D+00  0.000000D+00  0.000000D+00  0.000000D+00  0.000000D+00
     27   0.000000D+00  0.000000D+00  0.000000D+00  0.000000D+00  0.000000D+00
     28   0.000000D+00  0.000000D+00  0.000000D+00  0.000000D+00  0.000000D+00
     29   0.000000D+00  0.000000D+00  0.000000D+00  0.000000D+00  0.000000D+00
     30   0.000000D+00  0.000000D+00  0.000000D+00  0.000000D+00  0.000000D+00
     31   0.000000D+00  0.000000D+00  0.000000D+00  0.000000D+00  0.000000D+00
     32   0.000000D+00  0.000000D+00  0.000000D+00  0.000000D+00  0.000000D+00
     33   0.000000D+00  0.000000D+00  0.000000D+00  0.000000D+00  0.000000D+00
     34   0.000000D+00  0.000000D+00  0.000000D+00  0.000000D+00  0.000000D+00
     35   0.000000D+00  0.000000D+00  0.000000D+00  0.000000D+00  0.000000D+00
     36   0.000000D+00  0.000000D+00  0.000000D+00  0.000000D+00  0.000000D+00
     37   0.000000D+00  0.000000D+00  0.000000D+00  0.000000D+00  0.000000D+00
     38   0.793463D-03  0.495496D-02  0.000000D+00  0.000000D+00 -0.108144D-02
     39   0.000000D+00  0.000000D+00  0.332913D-03  0.000000D+00  0.000000D+00
     40   0.000000D+00  0.000000D+00  0.000000D+00  0.332913D-03  0.000000D+00
     41   0.140863D-02  0.876893D-02  0.000000D+00  0.000000D+00 -0.175444D-02
     42   0.307918D-02  0.190665D-01  0.000000D+00  0.000000D+00 -0.397206D-02
     43   0.000000D+00  0.000000D+00  0.125440D-02  0.000000D+00  0.000000D+00
     44   0.000000D+00  0.000000D+00  0.000000D+00  0.125440D-02  0.000000D+00
     45   0.000000D+00  0.000000D+00  0.000000D+00  0.000000D+00  0.000000D+00
     46   0.000000D+00  0.000000D+00  0.000000D+00  0.000000D+00  0.000000D+00
                 6             7             8             9            10 
      1   0.262553D-01  0.000000D+00  0.000000D+00  0.000000D+00  0.000000D+00
      2   0.313572D+00  0.000000D+00  0.000000D+00  0.000000D+00  0.000000D+00
      3   0.000000D+00  0.326517D+00  0.000000D+00  0.000000D+00  0.000000D+00
      4   0.000000D+00  0.000000D+00  0.326517D+00  0.000000D+00  0.000000D+00
      5   0.000000D+00  0.000000D+00  0.000000D+00  0.326517D+00  0.000000D+00
      6   0.100000D+01  0.000000D+00  0.000000D+00  0.000000D+00  0.000000D+00
      7   0.000000D+00  0.100000D+01  0.000000D+00  0.000000D+00  0.000000D+00
      8   0.000000D+00  0.000000D+00  0.100000D+01  0.000000D+00  0.000000D+00
      9   0.000000D+00  0.000000D+00  0.000000D+00  0.100000D+01  0.000000D+00
     10   0.000000D+00  0.000000D+00  0.000000D+00  0.000000D+00  0.100000D+01
     11   0.000000D+00  0.000000D+00  0.000000D+00  0.000000D+00  0.000000D+00
     12   0.000000D+00  0.000000D+00  0.000000D+00  0.000000D+00  0.000000D+00
     13   0.000000D+00  0.000000D+00  0.000000D+00  0.000000D+00  0.000000D+00
     14   0.000000D+00  0.000000D+00  0.000000D+00  0.000000D+00  0.000000D+00
     15   0.172993D+00  0.000000D+00  0.000000D+00  0.000000D+00  0.000000D+00
     16   0.000000D+00  0.189903D+00  0.000000D+00  0.000000D+00  0.000000D+00
     17   0.000000D+00  0.000000D+00  0.189903D+00  0.000000D+00  0.000000D+00
     18   0.000000D+00  0.000000D+00  0.000000D+00  0.189903D+00  0.000000D+00
     19   0.000000D+00  0.000000D+00  0.000000D+00  0.000000D+00  0.784073D-01
     20   0.000000D+00  0.000000D+00  0.000000D+00  0.000000D+00  0.000000D+00
     21   0.000000D+00  0.000000D+00  0.000000D+00  0.000000D+00  0.000000D+00
     22   0.000000D+00  0.000000D+00  0.000000D+00  0.000000D+00  0.000000D+00
     23   0.000000D+00  0.000000D+00  0.000000D+00  0.000000D+00  0.000000D+00
     24   0.000000D+00  0.000000D+00  0.000000D+00  0.000000D+00  0.000000D+00
     25   0.000000D+00  0.000000D+00  0.000000D+00  0.000000D+00  0.000000D+00
     26   0.000000D+00  0.000000D+00  0.000000D+00  0.000000D+00  0.000000D+00
     27   0.000000D+00  0.000000D+00  0.000000D+00  0.000000D+00  0.000000D+00
     28   0.000000D+00  0.000000D+00  0.000000D+00  0.000000D+00  0.000000D+00
     29   0.000000D+00  0.000000D+00  0.000000D+00  0.000000D+00  0.000000D+00
     30   0.000000D+00  0.000000D+00  0.000000D+00  0.000000D+00  0.000000D+00
     31   0.000000D+00  0.000000D+00  0.000000D+00  0.000000D+00  0.000000D+00
     32   0.000000D+00  0.000000D+00  0.000000D+00  0.000000D+00  0.000000D+00
     33   0.000000D+00  0.000000D+00  0.000000D+00  0.000000D+00  0.177432D-05
     34   0.000000D+00  0.000000D+00  0.000000D+00  0.000000D+00  0.000000D+00
     35   0.000000D+00  0.000000D+00  0.000000D+00  0.000000D+00  0.000000D+00
     36   0.000000D+00  0.000000D+00  0.000000D+00  0.000000D+00  0.000000D+00
     37   0.000000D+00  0.000000D+00  0.000000D+00  0.000000D+00  0.000000D+00
     38   0.309590D-01  0.000000D+00  0.000000D+00 -0.193999D-01  0.664606D-02
     39   0.000000D+00  0.622325D-02  0.000000D+00  0.000000D+00  0.000000D+00
     40   0.000000D+00  0.000000D+00  0.622325D-02  0.000000D+00  0.000000D+00
     41   0.534715D-01  0.000000D+00  0.000000D+00 -0.314027D-01  0.109539D-01
     42   0.109229D+00  0.000000D+00  0.000000D+00 -0.630501D-01  0.189674D-01
     43   0.000000D+00  0.222419D-01  0.000000D+00  0.000000D+00  0.000000D+00
     44   0.000000D+00  0.000000D+00  0.222419D-01  0.000000D+00  0.000000D+00
     45   0.000000D+00  0.000000D+00  0.000000D+00  0.000000D+00  0.000000D+00
     46   0.000000D+00  0.000000D+00  0.000000D+00  0.000000D+00  0.000000D+00
                11            12            13            14            15 
      1   0.000000D+00  0.000000D+00  0.000000D+00  0.000000D+00 -0.353836D-03
      2   0.000000D+00  0.000000D+00  0.000000D+00  0.000000D+00  0.313775D-02
      3   0.000000D+00  0.000000D+00  0.000000D+00  0.000000D+00  0.000000D+00
      4   0.000000D+00  0.000000D+00  0.000000D+00  0.000000D+00  0.000000D+00
      5   0.000000D+00  0.000000D+00  0.000000D+00  0.000000D+00  0.000000D+00
      6   0.000000D+00  0.000000D+00  0.000000D+00  0.000000D+00  0.172993D+00
      7   0.000000D+00  0.000000D+00  0.000000D+00  0.000000D+00  0.000000D+00
      8   0.000000D+00  0.000000D+00  0.000000D+00  0.000000D+00  0.000000D+00
      9   0.000000D+00  0.000000D+00  0.000000D+00  0.000000D+00  0.000000D+00
     10   0.000000D+00  0.000000D+00  0.000000D+00  0.000000D+00  0.000000D+00
     11   0.100000D+01  0.000000D+00  0.000000D+00  0.000000D+00  0.000000D+00
     12   0.000000D+00  0.100000D+01  0.000000D+00  0.000000D+00  0.000000D+00
     13   0.000000D+00  0.000000D+00  0.100000D+01  0.000000D+00  0.000000D+00
     14   0.000000D+00  0.000000D+00  0.000000D+00  0.100000D+01  0.000000D+00
     15   0.000000D+00  0.000000D+00  0.000000D+00  0.000000D+00  0.100000D+01
     16   0.000000D+00  0.000000D+00  0.000000D+00  0.000000D+00  0.000000D+00
     17   0.000000D+00  0.000000D+00  0.000000D+00  0.000000D+00  0.000000D+00
     18   0.000000D+00  0.000000D+00  0.000000D+00  0.000000D+00  0.000000D+00
     19   0.000000D+00  0.000000D+00  0.000000D+00  0.000000D+00  0.000000D+00
     20   0.784073D-01  0.000000D+00  0.000000D+00  0.000000D+00  0.000000D+00
     21   0.000000D+00  0.784073D-01  0.000000D+00  0.000000D+00  0.000000D+00
     22   0.000000D+00  0.000000D+00  0.784073D-01  0.000000D+00  0.000000D+00
     23   0.000000D+00  0.000000D+00  0.000000D+00  0.784073D-01  0.000000D+00
     24   0.000000D+00  0.000000D+00  0.000000D+00  0.000000D+00  0.793463D-03
     25   0.000000D+00  0.000000D+00  0.000000D+00  0.000000D+00  0.495496D-02
     26   0.000000D+00  0.000000D+00  0.000000D+00  0.000000D+00  0.000000D+00
     27   0.000000D+00  0.000000D+00  0.000000D+00  0.000000D+00  0.000000D+00
     28   0.000000D+00  0.000000D+00  0.000000D+00  0.000000D+00  0.108144D-02
     29   0.000000D+00  0.000000D+00  0.000000D+00  0.000000D+00  0.309590D-01
     30   0.000000D+00  0.000000D+00  0.000000D+00  0.000000D+00  0.000000D+00
     31   0.000000D+00  0.000000D+00  0.000000D+00  0.000000D+00  0.000000D+00
     32   0.000000D+00  0.000000D+00  0.000000D+00  0.000000D+00  0.193999D-01
     33   0.000000D+00  0.000000D+00  0.000000D+00  0.000000D+00  0.664606D-02
     34   0.000000D+00  0.000000D+00  0.000000D+00  0.000000D+00  0.000000D+00
     35   0.000000D+00  0.000000D+00  0.000000D+00  0.000000D+00  0.000000D+00
     36   0.000000D+00  0.000000D+00  0.000000D+00  0.000000D+00  0.000000D+00
     37   0.000000D+00  0.000000D+00  0.000000D+00  0.000000D+00  0.000000D+00
     38   0.000000D+00  0.000000D+00  0.000000D+00  0.000000D+00  0.272400D+00
     39  -0.411451D-02  0.000000D+00  0.000000D+00  0.000000D+00  0.000000D+00
     40   0.000000D+00 -0.411451D-02  0.000000D+00  0.000000D+00  0.000000D+00
     41   0.000000D+00  0.000000D+00  0.000000D+00  0.000000D+00  0.337091D+00
     42   0.000000D+00  0.000000D+00  0.000000D+00  0.000000D+00  0.307608D+00
     43  -0.144402D-01  0.000000D+00  0.000000D+00  0.000000D+00  0.000000D+00
     44   0.000000D+00 -0.144402D-01  0.000000D+00  0.000000D+00  0.000000D+00
     45   0.000000D+00  0.000000D+00  0.243403D-02  0.000000D+00  0.000000D+00
     46   0.000000D+00  0.000000D+00  0.000000D+00  0.243403D-02  0.000000D+00
                16            17            18            19            20 
      1   0.000000D+00  0.000000D+00  0.000000D+00  0.000000D+00  0.000000D+00
      2   0.000000D+00  0.000000D+00  0.000000D+00  0.000000D+00  0.000000D+00
      3   0.102782D-01  0.000000D+00  0.000000D+00  0.000000D+00  0.000000D+00
      4   0.000000D+00  0.102782D-01  0.000000D+00  0.000000D+00  0.000000D+00
      5   0.000000D+00  0.000000D+00  0.102782D-01  0.000000D+00  0.000000D+00
      6   0.000000D+00  0.000000D+00  0.000000D+00  0.000000D+00  0.000000D+00
      7   0.189903D+00  0.000000D+00  0.000000D+00  0.000000D+00  0.000000D+00
      8   0.000000D+00  0.189903D+00  0.000000D+00  0.000000D+00  0.000000D+00
      9   0.000000D+00  0.000000D+00  0.189903D+00  0.000000D+00  0.000000D+00
     10   0.000000D+00  0.000000D+00  0.000000D+00  0.784073D-01  0.000000D+00
     11   0.000000D+00  0.000000D+00  0.000000D+00  0.000000D+00  0.784073D-01
     12   0.000000D+00  0.000000D+00  0.000000D+00  0.000000D+00  0.000000D+00
     13   0.000000D+00  0.000000D+00  0.000000D+00  0.000000D+00  0.000000D+00
     14   0.000000D+00  0.000000D+00  0.000000D+00  0.000000D+00  0.000000D+00
     15   0.000000D+00  0.000000D+00  0.000000D+00  0.000000D+00  0.000000D+00
     16   0.100000D+01  0.000000D+00  0.000000D+00  0.000000D+00  0.000000D+00
     17   0.000000D+00  0.100000D+01  0.000000D+00  0.000000D+00  0.000000D+00
     18   0.000000D+00  0.000000D+00  0.100000D+01  0.000000D+00  0.000000D+00
     19   0.000000D+00  0.000000D+00  0.000000D+00  0.100000D+01  0.000000D+00
     20   0.000000D+00  0.000000D+00  0.000000D+00  0.000000D+00  0.100000D+01
     21   0.000000D+00  0.000000D+00  0.000000D+00  0.000000D+00  0.000000D+00
     22   0.000000D+00  0.000000D+00  0.000000D+00  0.000000D+00  0.000000D+00
     23   0.000000D+00  0.000000D+00  0.000000D+00  0.000000D+00  0.000000D+00
     24   0.000000D+00  0.000000D+00 -0.140863D-02  0.307918D-02  0.000000D+00
     25   0.000000D+00  0.000000D+00 -0.876893D-02  0.190665D-01  0.000000D+00
     26   0.332913D-03  0.000000D+00  0.000000D+00  0.000000D+00 -0.125440D-02
     27   0.000000D+00  0.332913D-03  0.000000D+00  0.000000D+00  0.000000D+00
     28   0.000000D+00  0.000000D+00 -0.175444D-02  0.397206D-02  0.000000D+00
     29   0.000000D+00  0.000000D+00 -0.534715D-01  0.109229D+00  0.000000D+00
     30   0.622325D-02  0.000000D+00  0.000000D+00  0.000000D+00 -0.222419D-01
     31   0.000000D+00  0.622325D-02  0.000000D+00  0.000000D+00  0.000000D+00
     32   0.000000D+00  0.000000D+00 -0.314027D-01  0.630501D-01  0.000000D+00
     33   0.000000D+00  0.000000D+00 -0.109539D-01  0.189674D-01  0.000000D+00
     34   0.411451D-02  0.000000D+00  0.000000D+00  0.000000D+00 -0.144402D-01
     35   0.000000D+00  0.411451D-02  0.000000D+00  0.000000D+00  0.000000D+00
     36   0.000000D+00  0.000000D+00  0.000000D+00  0.000000D+00  0.000000D+00
     37   0.000000D+00  0.000000D+00  0.000000D+00  0.000000D+00  0.000000D+00
     38   0.000000D+00  0.000000D+00 -0.337091D+00  0.307608D+00  0.000000D+00
     39   0.146897D+00  0.000000D+00  0.000000D+00  0.000000D+00 -0.283845D+00
     40   0.000000D+00  0.146897D+00  0.000000D+00  0.000000D+00  0.000000D+00
     41   0.000000D+00  0.000000D+00 -0.385772D+00  0.297134D+00  0.000000D+00
     42   0.000000D+00  0.000000D+00 -0.297134D+00  0.109524D+00  0.000000D+00
     43   0.283845D+00  0.000000D+00  0.000000D+00  0.000000D+00 -0.419824D+00
     44   0.000000D+00  0.283845D+00  0.000000D+00  0.000000D+00  0.000000D+00
     45   0.000000D+00  0.000000D+00  0.000000D+00  0.000000D+00  0.000000D+00
     46   0.000000D+00  0.000000D+00  0.000000D+00  0.000000D+00  0.000000D+00
                21            22            23            24            25 
      1   0.000000D+00  0.000000D+00  0.000000D+00  0.000000D+00  0.000000D+00
      2   0.000000D+00  0.000000D+00  0.000000D+00  0.000000D+00  0.000000D+00
      3   0.000000D+00  0.000000D+00  0.000000D+00  0.000000D+00  0.000000D+00
      4   0.000000D+00  0.000000D+00  0.000000D+00  0.000000D+00  0.000000D+00
      5   0.000000D+00  0.000000D+00  0.000000D+00  0.000000D+00  0.000000D+00
      6   0.000000D+00  0.000000D+00  0.000000D+00  0.000000D+00  0.000000D+00
      7   0.000000D+00  0.000000D+00  0.000000D+00  0.000000D+00  0.000000D+00
      8   0.000000D+00  0.000000D+00  0.000000D+00  0.000000D+00  0.000000D+00
      9   0.000000D+00  0.000000D+00  0.000000D+00  0.000000D+00  0.000000D+00
     10   0.000000D+00  0.000000D+00  0.000000D+00  0.000000D+00  0.000000D+00
     11   0.000000D+00  0.000000D+00  0.000000D+00  0.000000D+00  0.000000D+00
     12   0.784073D-01  0.000000D+00  0.000000D+00  0.000000D+00  0.000000D+00
     13   0.000000D+00  0.784073D-01  0.000000D+00  0.000000D+00  0.000000D+00
     14   0.000000D+00  0.000000D+00  0.784073D-01  0.000000D+00  0.000000D+00
     15   0.000000D+00  0.000000D+00  0.000000D+00  0.793463D-03  0.495496D-02
     16   0.000000D+00  0.000000D+00  0.000000D+00  0.000000D+00  0.000000D+00
     17   0.000000D+00  0.000000D+00  0.000000D+00  0.000000D+00  0.000000D+00
     18   0.000000D+00  0.000000D+00  0.000000D+00 -0.140863D-02 -0.876893D-02
     19   0.000000D+00  0.000000D+00  0.000000D+00  0.307918D-02  0.190665D-01
     20   0.000000D+00  0.000000D+00  0.000000D+00  0.000000D+00  0.000000D+00
     21   0.100000D+01  0.000000D+00  0.000000D+00  0.000000D+00  0.000000D+00
     22   0.000000D+00  0.100000D+01  0.000000D+00  0.000000D+00  0.000000D+00
     23   0.000000D+00  0.000000D+00  0.100000D+01  0.000000D+00  0.000000D+00
     24   0.000000D+00  0.000000D+00  0.000000D+00  0.100000D+01  0.399707D+00
     25   0.000000D+00  0.000000D+00  0.000000D+00  0.399707D+00  0.100000D+01
     26   0.000000D+00  0.000000D+00  0.000000D+00  0.000000D+00  0.000000D+00
     27  -0.125440D-02  0.000000D+00  0.000000D+00  0.000000D+00  0.000000D+00
     28   0.000000D+00  0.000000D+00  0.000000D+00  0.000000D+00  0.000000D+00
     29   0.000000D+00  0.000000D+00  0.000000D+00  0.262553D-01  0.313572D+00
     30   0.000000D+00  0.000000D+00  0.000000D+00  0.000000D+00  0.000000D+00
     31  -0.222419D-01  0.000000D+00  0.000000D+00  0.000000D+00  0.000000D+00
     32   0.000000D+00  0.000000D+00  0.000000D+00  0.000000D+00  0.000000D+00
     33   0.000000D+00  0.000000D+00  0.000000D+00  0.000000D+00  0.000000D+00
     34   0.000000D+00  0.000000D+00  0.000000D+00  0.000000D+00  0.000000D+00
     35  -0.144402D-01  0.000000D+00  0.000000D+00  0.000000D+00  0.000000D+00
     36   0.000000D+00  0.243403D-02  0.000000D+00  0.000000D+00  0.000000D+00
     37   0.000000D+00  0.000000D+00  0.243403D-02  0.000000D+00  0.000000D+00
     38   0.000000D+00  0.000000D+00  0.000000D+00 -0.353836D-03  0.313775D-02
     39   0.000000D+00  0.000000D+00  0.000000D+00  0.000000D+00  0.000000D+00
     40  -0.283845D+00  0.000000D+00  0.000000D+00  0.000000D+00  0.000000D+00
     41   0.000000D+00  0.000000D+00  0.000000D+00  0.000000D+00  0.000000D+00
     42   0.000000D+00  0.000000D+00  0.000000D+00  0.000000D+00  0.000000D+00
     43   0.000000D+00  0.000000D+00  0.000000D+00  0.000000D+00  0.000000D+00
     44  -0.419824D+00  0.000000D+00  0.000000D+00  0.000000D+00  0.000000D+00
     45   0.000000D+00  0.150872D+00  0.000000D+00  0.000000D+00  0.000000D+00
     46   0.000000D+00  0.000000D+00  0.150872D+00  0.000000D+00  0.000000D+00
                26            27            28            29            30 
      1   0.000000D+00  0.000000D+00  0.000000D+00  0.000000D+00  0.000000D+00
      2   0.000000D+00  0.000000D+00  0.000000D+00  0.000000D+00  0.000000D+00
      3   0.000000D+00  0.000000D+00  0.000000D+00  0.000000D+00  0.000000D+00
      4   0.000000D+00  0.000000D+00  0.000000D+00  0.000000D+00  0.000000D+00
      5   0.000000D+00  0.000000D+00  0.000000D+00  0.000000D+00  0.000000D+00
      6   0.000000D+00  0.000000D+00  0.000000D+00  0.000000D+00  0.000000D+00
      7   0.000000D+00  0.000000D+00  0.000000D+00  0.000000D+00  0.000000D+00
      8   0.000000D+00  0.000000D+00  0.000000D+00  0.000000D+00  0.000000D+00
      9   0.000000D+00  0.000000D+00  0.000000D+00  0.000000D+00  0.000000D+00
     10   0.000000D+00  0.000000D+00  0.000000D+00  0.000000D+00  0.000000D+00
     11   0.000000D+00  0.000000D+00  0.000000D+00  0.000000D+00  0.000000D+00
     12   0.000000D+00  0.000000D+00  0.000000D+00  0.000000D+00  0.000000D+00
     13   0.000000D+00  0.000000D+00  0.000000D+00  0.000000D+00  0.000000D+00
     14   0.000000D+00  0.000000D+00  0.000000D+00  0.000000D+00  0.000000D+00
     15   0.000000D+00  0.000000D+00  0.108144D-02  0.309590D-01  0.000000D+00
     16   0.332913D-03  0.000000D+00  0.000000D+00  0.000000D+00  0.622325D-02
     17   0.000000D+00  0.332913D-03  0.000000D+00  0.000000D+00  0.000000D+00
     18   0.000000D+00  0.000000D+00 -0.175444D-02 -0.534715D-01  0.000000D+00
     19   0.000000D+00  0.000000D+00  0.397206D-02  0.109229D+00  0.000000D+00
     20  -0.125440D-02  0.000000D+00  0.000000D+00  0.000000D+00 -0.222419D-01
     21   0.000000D+00 -0.125440D-02  0.000000D+00  0.000000D+00  0.000000D+00
     22   0.000000D+00  0.000000D+00  0.000000D+00  0.000000D+00  0.000000D+00
     23   0.000000D+00  0.000000D+00  0.000000D+00  0.000000D+00  0.000000D+00
     24   0.000000D+00  0.000000D+00  0.000000D+00  0.262553D-01  0.000000D+00
     25   0.000000D+00  0.000000D+00  0.000000D+00  0.313572D+00  0.000000D+00
     26   0.100000D+01  0.000000D+00  0.000000D+00  0.000000D+00  0.326517D+00
     27   0.000000D+00  0.100000D+01  0.000000D+00  0.000000D+00  0.000000D+00
     28   0.000000D+00  0.000000D+00  0.100000D+01  0.000000D+00  0.000000D+00
     29   0.000000D+00  0.000000D+00  0.000000D+00  0.100000D+01  0.000000D+00
     30   0.326517D+00  0.000000D+00  0.000000D+00  0.000000D+00  0.100000D+01
     31   0.000000D+00  0.326517D+00  0.000000D+00  0.000000D+00  0.000000D+00
     32   0.000000D+00  0.000000D+00  0.326517D+00  0.000000D+00  0.000000D+00
     33   0.000000D+00  0.000000D+00  0.000000D+00  0.000000D+00  0.000000D+00
     34   0.000000D+00  0.000000D+00  0.000000D+00  0.000000D+00  0.000000D+00
     35   0.000000D+00  0.000000D+00  0.000000D+00  0.000000D+00  0.000000D+00
     36   0.000000D+00  0.000000D+00  0.000000D+00  0.000000D+00  0.000000D+00
     37   0.000000D+00  0.000000D+00  0.000000D+00  0.000000D+00  0.000000D+00
     38   0.000000D+00  0.000000D+00  0.000000D+00  0.172993D+00  0.000000D+00
     39   0.102782D-01  0.000000D+00  0.000000D+00  0.000000D+00  0.189903D+00
     40   0.000000D+00  0.102782D-01  0.000000D+00  0.000000D+00  0.000000D+00
     41   0.000000D+00  0.000000D+00  0.102782D-01  0.000000D+00  0.000000D+00
     42   0.000000D+00  0.000000D+00  0.000000D+00  0.000000D+00  0.000000D+00
     43   0.000000D+00  0.000000D+00  0.000000D+00  0.000000D+00  0.000000D+00
     44   0.000000D+00  0.000000D+00  0.000000D+00  0.000000D+00  0.000000D+00
     45   0.000000D+00  0.000000D+00  0.000000D+00  0.000000D+00  0.000000D+00
     46   0.000000D+00  0.000000D+00  0.000000D+00  0.000000D+00  0.000000D+00
                31            32            33            34            35 
      1   0.000000D+00  0.000000D+00  0.000000D+00  0.000000D+00  0.000000D+00
      2   0.000000D+00  0.000000D+00  0.000000D+00  0.000000D+00  0.000000D+00
      3   0.000000D+00  0.000000D+00  0.000000D+00  0.000000D+00  0.000000D+00
      4   0.000000D+00  0.000000D+00  0.000000D+00  0.000000D+00  0.000000D+00
      5   0.000000D+00  0.000000D+00  0.000000D+00  0.000000D+00  0.000000D+00
      6   0.000000D+00  0.000000D+00  0.000000D+00  0.000000D+00  0.000000D+00
      7   0.000000D+00  0.000000D+00  0.000000D+00  0.000000D+00  0.000000D+00
      8   0.000000D+00  0.000000D+00  0.000000D+00  0.000000D+00  0.000000D+00
      9   0.000000D+00  0.000000D+00  0.000000D+00  0.000000D+00  0.000000D+00
     10   0.000000D+00  0.000000D+00  0.177432D-05  0.000000D+00  0.000000D+00
     11   0.000000D+00  0.000000D+00  0.000000D+00  0.000000D+00  0.000000D+00
     12   0.000000D+00  0.000000D+00  0.000000D+00  0.000000D+00  0.000000D+00
     13   0.000000D+00  0.000000D+00  0.000000D+00  0.000000D+00  0.000000D+00
     14   0.000000D+00  0.000000D+00  0.000000D+00  0.000000D+00  0.000000D+00
     15   0.000000D+00  0.193999D-01  0.664606D-02  0.000000D+00  0.000000D+00
     16   0.000000D+00  0.000000D+00  0.000000D+00  0.411451D-02  0.000000D+00
     17   0.622325D-02  0.000000D+00  0.000000D+00  0.000000D+00  0.411451D-02
     18   0.000000D+00 -0.314027D-01 -0.109539D-01  0.000000D+00  0.000000D+00
     19   0.000000D+00  0.630501D-01  0.189674D-01  0.000000D+00  0.000000D+00
     20   0.000000D+00  0.000000D+00  0.000000D+00 -0.144402D-01  0.000000D+00
     21  -0.222419D-01  0.000000D+00  0.000000D+00  0.000000D+00 -0.144402D-01
     22   0.000000D+00  0.000000D+00  0.000000D+00  0.000000D+00  0.000000D+00
     23   0.000000D+00  0.000000D+00  0.000000D+00  0.000000D+00  0.000000D+00
     24   0.000000D+00  0.000000D+00  0.000000D+00  0.000000D+00  0.000000D+00
     25   0.000000D+00  0.000000D+00  0.000000D+00  0.000000D+00  0.000000D+00
     26   0.000000D+00  0.000000D+00  0.000000D+00  0.000000D+00  0.000000D+00
     27   0.326517D+00  0.000000D+00  0.000000D+00  0.000000D+00  0.000000D+00
     28   0.000000D+00  0.326517D+00  0.000000D+00  0.000000D+00  0.000000D+00
     29   0.000000D+00  0.000000D+00  0.000000D+00  0.000000D+00  0.000000D+00
     30   0.000000D+00  0.000000D+00  0.000000D+00  0.000000D+00  0.000000D+00
     31   0.100000D+01  0.000000D+00  0.000000D+00  0.000000D+00  0.000000D+00
     32   0.000000D+00  0.100000D+01  0.000000D+00  0.000000D+00  0.000000D+00
     33   0.000000D+00  0.000000D+00  0.100000D+01  0.000000D+00  0.000000D+00
     34   0.000000D+00  0.000000D+00  0.000000D+00  0.100000D+01  0.000000D+00
     35   0.000000D+00  0.000000D+00  0.000000D+00  0.000000D+00  0.100000D+01
     36   0.000000D+00  0.000000D+00  0.000000D+00  0.000000D+00  0.000000D+00
     37   0.000000D+00  0.000000D+00  0.000000D+00  0.000000D+00  0.000000D+00
     38   0.000000D+00  0.000000D+00  0.000000D+00  0.000000D+00  0.000000D+00
     39   0.000000D+00  0.000000D+00  0.000000D+00  0.000000D+00  0.000000D+00
     40   0.189903D+00  0.000000D+00  0.000000D+00  0.000000D+00  0.000000D+00
     41   0.000000D+00  0.189903D+00  0.000000D+00  0.000000D+00  0.000000D+00
     42   0.000000D+00  0.000000D+00  0.784073D-01  0.000000D+00  0.000000D+00
     43   0.000000D+00  0.000000D+00  0.000000D+00  0.784073D-01  0.000000D+00
     44   0.000000D+00  0.000000D+00  0.000000D+00  0.000000D+00  0.784073D-01
     45   0.000000D+00  0.000000D+00  0.000000D+00  0.000000D+00  0.000000D+00
     46   0.000000D+00  0.000000D+00  0.000000D+00  0.000000D+00  0.000000D+00
                36            37            38            39            40 
      1   0.000000D+00  0.000000D+00  0.793463D-03  0.000000D+00  0.000000D+00
      2   0.000000D+00  0.000000D+00  0.495496D-02  0.000000D+00  0.000000D+00
      3   0.000000D+00  0.000000D+00  0.000000D+00  0.332913D-03  0.000000D+00
      4   0.000000D+00  0.000000D+00  0.000000D+00  0.000000D+00  0.332913D-03
      5   0.000000D+00  0.000000D+00 -0.108144D-02  0.000000D+00  0.000000D+00
      6   0.000000D+00  0.000000D+00  0.309590D-01  0.000000D+00  0.000000D+00
      7   0.000000D+00  0.000000D+00  0.000000D+00  0.622325D-02  0.000000D+00
      8   0.000000D+00  0.000000D+00  0.000000D+00  0.000000D+00  0.622325D-02
      9   0.000000D+00  0.000000D+00 -0.193999D-01  0.000000D+00  0.000000D+00
     10   0.000000D+00  0.000000D+00  0.664606D-02  0.000000D+00  0.000000D+00
     11   0.000000D+00  0.000000D+00  0.000000D+00 -0.411451D-02  0.000000D+00
     12   0.000000D+00  0.000000D+00  0.000000D+00  0.000000D+00 -0.411451D-02
     13   0.000000D+00  0.000000D+00  0.000000D+00  0.000000D+00  0.000000D+00
     14   0.000000D+00  0.000000D+00  0.000000D+00  0.000000D+00  0.000000D+00
     15   0.000000D+00  0.000000D+00  0.272400D+00  0.000000D+00  0.000000D+00
     16   0.000000D+00  0.000000D+00  0.000000D+00  0.146897D+00  0.000000D+00
     17   0.000000D+00  0.000000D+00  0.000000D+00  0.000000D+00  0.146897D+00
     18   0.000000D+00  0.000000D+00 -0.337091D+00  0.000000D+00  0.000000D+00
     19   0.000000D+00  0.000000D+00  0.307608D+00  0.000000D+00  0.000000D+00
     20   0.000000D+00  0.000000D+00  0.000000D+00 -0.283845D+00  0.000000D+00
     21   0.000000D+00  0.000000D+00  0.000000D+00  0.000000D+00 -0.283845D+00
     22   0.243403D-02  0.000000D+00  0.000000D+00  0.000000D+00  0.000000D+00
     23   0.000000D+00  0.243403D-02  0.000000D+00  0.000000D+00  0.000000D+00
     24   0.000000D+00  0.000000D+00 -0.353836D-03  0.000000D+00  0.000000D+00
     25   0.000000D+00  0.000000D+00  0.313775D-02  0.000000D+00  0.000000D+00
     26   0.000000D+00  0.000000D+00  0.000000D+00  0.102782D-01  0.000000D+00
     27   0.000000D+00  0.000000D+00  0.000000D+00  0.000000D+00  0.102782D-01
     28   0.000000D+00  0.000000D+00  0.000000D+00  0.000000D+00  0.000000D+00
     29   0.000000D+00  0.000000D+00  0.172993D+00  0.000000D+00  0.000000D+00
     30   0.000000D+00  0.000000D+00  0.000000D+00  0.189903D+00  0.000000D+00
     31   0.000000D+00  0.000000D+00  0.000000D+00  0.000000D+00  0.189903D+00
     32   0.000000D+00  0.000000D+00  0.000000D+00  0.000000D+00  0.000000D+00
     33   0.000000D+00  0.000000D+00  0.000000D+00  0.000000D+00  0.000000D+00
     34   0.000000D+00  0.000000D+00  0.000000D+00  0.000000D+00  0.000000D+00
     35   0.000000D+00  0.000000D+00  0.000000D+00  0.000000D+00  0.000000D+00
     36   0.100000D+01  0.000000D+00  0.000000D+00  0.000000D+00  0.000000D+00
     37   0.000000D+00  0.100000D+01  0.000000D+00  0.000000D+00  0.000000D+00
     38   0.000000D+00  0.000000D+00  0.100000D+01  0.000000D+00  0.000000D+00
     39   0.000000D+00  0.000000D+00  0.000000D+00  0.100000D+01  0.000000D+00
     40   0.000000D+00  0.000000D+00  0.000000D+00  0.000000D+00  0.100000D+01
     41   0.000000D+00  0.000000D+00  0.000000D+00  0.000000D+00  0.000000D+00
     42   0.000000D+00  0.000000D+00  0.000000D+00  0.000000D+00  0.000000D+00
     43   0.000000D+00  0.000000D+00  0.000000D+00  0.000000D+00  0.000000D+00
     44   0.000000D+00  0.000000D+00  0.000000D+00  0.000000D+00  0.000000D+00
     45   0.784073D-01  0.000000D+00  0.000000D+00  0.000000D+00  0.000000D+00
     46   0.000000D+00  0.784073D-01  0.000000D+00  0.000000D+00  0.000000D+00
                41            42            43            44            45 
      1   0.140863D-02  0.307918D-02  0.000000D+00  0.000000D+00  0.000000D+00
      2   0.876893D-02  0.190665D-01  0.000000D+00  0.000000D+00  0.000000D+00
      3   0.000000D+00  0.000000D+00  0.125440D-02  0.000000D+00  0.000000D+00
      4   0.000000D+00  0.000000D+00  0.000000D+00  0.125440D-02  0.000000D+00
      5  -0.175444D-02 -0.397206D-02  0.000000D+00  0.000000D+00  0.000000D+00
      6   0.534715D-01  0.109229D+00  0.000000D+00  0.000000D+00  0.000000D+00
      7   0.000000D+00  0.000000D+00  0.222419D-01  0.000000D+00  0.000000D+00
      8   0.000000D+00  0.000000D+00  0.000000D+00  0.222419D-01  0.000000D+00
      9  -0.314027D-01 -0.630501D-01  0.000000D+00  0.000000D+00  0.000000D+00
     10   0.109539D-01  0.189674D-01  0.000000D+00  0.000000D+00  0.000000D+00
     11   0.000000D+00  0.000000D+00 -0.144402D-01  0.000000D+00  0.000000D+00
     12   0.000000D+00  0.000000D+00  0.000000D+00 -0.144402D-01  0.000000D+00
     13   0.000000D+00  0.000000D+00  0.000000D+00  0.000000D+00  0.243403D-02
     14   0.000000D+00  0.000000D+00  0.000000D+00  0.000000D+00  0.000000D+00
     15   0.337091D+00  0.307608D+00  0.000000D+00  0.000000D+00  0.000000D+00
     16   0.000000D+00  0.000000D+00  0.283845D+00  0.000000D+00  0.000000D+00
     17   0.000000D+00  0.000000D+00  0.000000D+00  0.283845D+00  0.000000D+00
     18  -0.385772D+00 -0.297134D+00  0.000000D+00  0.000000D+00  0.000000D+00
     19   0.297134D+00  0.109524D+00  0.000000D+00  0.000000D+00  0.000000D+00
     20   0.000000D+00  0.000000D+00 -0.419824D+00  0.000000D+00  0.000000D+00
     21   0.000000D+00  0.000000D+00  0.000000D+00 -0.419824D+00  0.000000D+00
     22   0.000000D+00  0.000000D+00  0.000000D+00  0.000000D+00  0.150872D+00
     23   0.000000D+00  0.000000D+00  0.000000D+00  0.000000D+00  0.000000D+00
     24   0.000000D+00  0.000000D+00  0.000000D+00  0.000000D+00  0.000000D+00
     25   0.000000D+00  0.000000D+00  0.000000D+00  0.000000D+00  0.000000D+00
     26   0.000000D+00  0.000000D+00  0.000000D+00  0.000000D+00  0.000000D+00
     27   0.000000D+00  0.000000D+00  0.000000D+00  0.000000D+00  0.000000D+00
     28   0.102782D-01  0.000000D+00  0.000000D+00  0.000000D+00  0.000000D+00
     29   0.000000D+00  0.000000D+00  0.000000D+00  0.000000D+00  0.000000D+00
     30   0.000000D+00  0.000000D+00  0.000000D+00  0.000000D+00  0.000000D+00
     31   0.000000D+00  0.000000D+00  0.000000D+00  0.000000D+00  0.000000D+00
     32   0.189903D+00  0.000000D+00  0.000000D+00  0.000000D+00  0.000000D+00
     33   0.000000D+00  0.784073D-01  0.000000D+00  0.000000D+00  0.000000D+00
     34   0.000000D+00  0.000000D+00  0.784073D-01  0.000000D+00  0.000000D+00
     35   0.000000D+00  0.000000D+00  0.000000D+00  0.784073D-01  0.000000D+00
     36   0.000000D+00  0.000000D+00  0.000000D+00  0.000000D+00  0.784073D-01
     37   0.000000D+00  0.000000D+00  0.000000D+00  0.000000D+00  0.000000D+00
     38   0.000000D+00  0.000000D+00  0.000000D+00  0.000000D+00  0.000000D+00
     39   0.000000D+00  0.000000D+00  0.000000D+00  0.000000D+00  0.000000D+00
     40   0.000000D+00  0.000000D+00  0.000000D+00  0.000000D+00  0.000000D+00
     41   0.100000D+01  0.000000D+00  0.000000D+00  0.000000D+00  0.000000D+00
     42   0.000000D+00  0.100000D+01  0.000000D+00  0.000000D+00  0.000000D+00
     43   0.000000D+00  0.000000D+00  0.100000D+01  0.000000D+00  0.000000D+00
     44   0.000000D+00  0.000000D+00  0.000000D+00  0.100000D+01  0.000000D+00
     45   0.000000D+00  0.000000D+00  0.000000D+00  0.000000D+00  0.100000D+01
     46   0.000000D+00  0.000000D+00  0.000000D+00  0.000000D+00  0.000000D+00
                46 
      1   0.000000D+00
      2   0.000000D+00
      3   0.000000D+00
      4   0.000000D+00
      5   0.000000D+00
      6   0.000000D+00
      7   0.000000D+00
      8   0.000000D+00
      9   0.000000D+00
     10   0.000000D+00
     11   0.000000D+00
     12   0.000000D+00
     13   0.000000D+00
     14   0.243403D-02
     15   0.000000D+00
     16   0.000000D+00
     17   0.000000D+00
     18   0.000000D+00
     19   0.000000D+00
     20   0.000000D+00
     21   0.000000D+00
     22   0.000000D+00
     23   0.150872D+00
     24   0.000000D+00
     25   0.000000D+00
     26   0.000000D+00
     27   0.000000D+00
     28   0.000000D+00
     29   0.000000D+00
     30   0.000000D+00
     31   0.000000D+00
     32   0.000000D+00
     33   0.000000D+00
     34   0.000000D+00
     35   0.000000D+00
     36   0.000000D+00
     37   0.784073D-01
     38   0.000000D+00
     39   0.000000D+00
     40   0.000000D+00
     41   0.000000D+00
     42   0.000000D+00
     43   0.000000D+00
     44   0.000000D+00
     45   0.000000D+00
     46   0.100000D+01
 Entering OneElI...
 Overlap between basis sets.
 Requested accuracy = 0.1000D-12
 PrsmSu:  NPrtUS=   1 ThrOK=F IAlg=1
 PRISM was handed   804121637 working-precision words and   978 shell-pairs
 IPart=  0 NShTot=         978 NBatch=          86 AvBLen=        11.4
 CnvPC2: ToCart=F DoDens=F IPureD=0 IPureF=0.
 Transformed matrix in CnvPC2: 
                 1             2             3             4             5 
      1   0.999793D+00  0.408249D+00  0.000000D+00  0.000000D+00  0.000000D+00
      2   0.287523D+00  0.988918D+00  0.000000D+00  0.000000D+00  0.000000D+00
      3   0.000000D+00  0.000000D+00  0.999220D+00  0.000000D+00  0.000000D+00
      4   0.000000D+00  0.000000D+00  0.000000D+00  0.999220D+00  0.000000D+00
      5   0.000000D+00  0.000000D+00  0.000000D+00  0.000000D+00  0.999220D+00
      6   0.124652D-01  0.317864D+00  0.000000D+00  0.000000D+00  0.000000D+00
      7   0.000000D+00  0.000000D+00  0.339582D+00  0.000000D+00  0.000000D+00
      8   0.000000D+00  0.000000D+00  0.000000D+00  0.339582D+00  0.000000D+00
      9   0.000000D+00  0.000000D+00  0.000000D+00  0.000000D+00  0.339582D+00
     10   0.000000D+00  0.000000D+00  0.000000D+00  0.000000D+00  0.000000D+00
     11   0.000000D+00  0.000000D+00  0.000000D+00  0.000000D+00  0.000000D+00
     12   0.000000D+00  0.000000D+00  0.000000D+00  0.000000D+00  0.000000D+00
     13   0.000000D+00  0.000000D+00  0.000000D+00  0.000000D+00  0.000000D+00
     14   0.000000D+00  0.000000D+00  0.000000D+00  0.000000D+00  0.000000D+00
     15   0.167639D-03  0.992567D-02  0.000000D+00  0.000000D+00  0.000000D+00
     16   0.703009D-02  0.431758D-01  0.000000D+00  0.000000D+00  0.000000D+00
     17   0.310155D-02  0.191182D-01  0.000000D+00  0.000000D+00  0.000000D+00
     18   0.000000D+00  0.000000D+00  0.522019D-02  0.000000D+00  0.000000D+00
     19   0.000000D+00  0.000000D+00  0.000000D+00  0.522019D-02  0.000000D+00
     20   0.000000D+00  0.000000D+00  0.000000D+00  0.000000D+00  0.522019D-02
     21   0.000000D+00  0.000000D+00  0.298440D-03  0.000000D+00  0.000000D+00
     22   0.000000D+00  0.000000D+00  0.000000D+00  0.298440D-03  0.000000D+00
     23   0.000000D+00  0.000000D+00  0.000000D+00  0.000000D+00  0.298440D-03
     24   0.000000D+00  0.000000D+00  0.109860D-02  0.000000D+00  0.000000D+00
     25   0.000000D+00  0.000000D+00  0.000000D+00  0.109860D-02  0.000000D+00
     26   0.000000D+00  0.000000D+00  0.000000D+00  0.000000D+00  0.109860D-02
     27   0.105960D+00  0.539704D+00  0.000000D+00  0.000000D+00  0.000000D+00
     28   0.644358D-01  0.359235D+00  0.000000D+00  0.000000D+00  0.000000D+00
     29   0.389491D-01  0.228082D+00  0.000000D+00  0.000000D+00  0.000000D+00
     30   0.234706D-01  0.141041D+00  0.000000D+00  0.000000D+00  0.000000D+00
     31   0.141210D-01  0.859984D-01  0.000000D+00  0.000000D+00  0.000000D+00
     32   0.000000D+00  0.000000D+00  0.140148D+00  0.000000D+00  0.000000D+00
     33   0.000000D+00  0.000000D+00  0.000000D+00  0.140148D+00  0.000000D+00
     34   0.000000D+00  0.000000D+00  0.000000D+00  0.000000D+00  0.140148D+00
     35   0.000000D+00  0.000000D+00  0.722432D-01  0.000000D+00  0.000000D+00
     36   0.000000D+00  0.000000D+00  0.000000D+00  0.722432D-01  0.000000D+00
     37   0.000000D+00  0.000000D+00  0.000000D+00  0.000000D+00  0.722432D-01
     38   0.000000D+00  0.000000D+00  0.359832D-01  0.000000D+00  0.000000D+00
     39   0.000000D+00  0.000000D+00  0.000000D+00  0.359832D-01  0.000000D+00
     40   0.000000D+00  0.000000D+00  0.000000D+00  0.000000D+00  0.359832D-01
     41   0.000000D+00  0.000000D+00  0.175654D-01  0.000000D+00  0.000000D+00
     42   0.000000D+00  0.000000D+00  0.000000D+00  0.175654D-01  0.000000D+00
     43   0.000000D+00  0.000000D+00  0.000000D+00  0.000000D+00  0.175654D-01
     44   0.000000D+00  0.000000D+00  0.847658D-02  0.000000D+00  0.000000D+00
     45   0.000000D+00  0.000000D+00  0.000000D+00  0.847658D-02  0.000000D+00
     46   0.000000D+00  0.000000D+00  0.000000D+00  0.000000D+00  0.847658D-02
     47   0.000000D+00  0.000000D+00  0.000000D+00  0.000000D+00  0.000000D+00
     48   0.000000D+00  0.000000D+00  0.000000D+00  0.000000D+00  0.000000D+00
     49   0.000000D+00  0.000000D+00  0.000000D+00  0.000000D+00  0.000000D+00
     50   0.000000D+00  0.000000D+00  0.000000D+00  0.000000D+00  0.000000D+00
     51   0.000000D+00  0.000000D+00  0.000000D+00  0.000000D+00  0.000000D+00
     52   0.000000D+00  0.000000D+00  0.000000D+00  0.000000D+00  0.000000D+00
     53   0.000000D+00  0.000000D+00  0.000000D+00  0.000000D+00  0.000000D+00
     54   0.000000D+00  0.000000D+00  0.000000D+00  0.000000D+00  0.000000D+00
     55   0.000000D+00  0.000000D+00  0.000000D+00  0.000000D+00  0.000000D+00
     56   0.000000D+00  0.000000D+00  0.000000D+00  0.000000D+00  0.000000D+00
     57   0.000000D+00  0.000000D+00  0.000000D+00  0.000000D+00  0.000000D+00
     58   0.000000D+00  0.000000D+00  0.000000D+00  0.000000D+00  0.000000D+00
     59   0.000000D+00  0.000000D+00  0.000000D+00  0.000000D+00  0.000000D+00
     60   0.000000D+00  0.000000D+00  0.000000D+00  0.000000D+00  0.000000D+00
     61   0.000000D+00  0.000000D+00  0.000000D+00  0.000000D+00  0.000000D+00
     62   0.000000D+00  0.000000D+00  0.000000D+00  0.000000D+00  0.000000D+00
     63   0.000000D+00  0.000000D+00  0.000000D+00  0.000000D+00  0.000000D+00
     64   0.000000D+00  0.000000D+00  0.000000D+00  0.000000D+00  0.000000D+00
     65   0.000000D+00  0.000000D+00  0.000000D+00  0.000000D+00  0.000000D+00
     66   0.000000D+00  0.000000D+00  0.000000D+00  0.000000D+00  0.000000D+00
     67   0.000000D+00  0.000000D+00  0.000000D+00  0.000000D+00  0.000000D+00
     68   0.000000D+00  0.000000D+00  0.000000D+00  0.000000D+00  0.000000D+00
     69   0.000000D+00  0.000000D+00  0.000000D+00  0.000000D+00  0.000000D+00
     70   0.000000D+00  0.000000D+00  0.000000D+00  0.000000D+00  0.000000D+00
     71   0.000000D+00  0.000000D+00  0.000000D+00  0.000000D+00  0.000000D+00
     72   0.000000D+00  0.000000D+00  0.000000D+00  0.000000D+00  0.000000D+00
     73   0.000000D+00  0.000000D+00  0.000000D+00  0.000000D+00  0.000000D+00
     74   0.000000D+00  0.000000D+00  0.000000D+00  0.000000D+00  0.000000D+00
     75   0.000000D+00  0.000000D+00  0.000000D+00  0.000000D+00  0.000000D+00
     76   0.000000D+00  0.000000D+00  0.000000D+00  0.000000D+00  0.000000D+00
     77   0.000000D+00  0.000000D+00  0.000000D+00  0.000000D+00  0.000000D+00
     78   0.000000D+00  0.000000D+00  0.000000D+00  0.000000D+00  0.000000D+00
     79   0.000000D+00  0.000000D+00  0.000000D+00  0.000000D+00  0.000000D+00
     80   0.000000D+00  0.000000D+00  0.000000D+00  0.000000D+00  0.000000D+00
     81   0.000000D+00  0.000000D+00  0.000000D+00  0.000000D+00  0.000000D+00
     82   0.000000D+00  0.000000D+00  0.000000D+00  0.000000D+00  0.000000D+00
     83   0.000000D+00  0.000000D+00  0.000000D+00  0.000000D+00  0.000000D+00
     84   0.000000D+00  0.000000D+00  0.000000D+00  0.000000D+00  0.000000D+00
     85   0.000000D+00  0.000000D+00  0.000000D+00  0.000000D+00  0.000000D+00
     86   0.000000D+00  0.000000D+00  0.000000D+00  0.000000D+00  0.000000D+00
     87   0.000000D+00  0.000000D+00  0.000000D+00  0.000000D+00  0.000000D+00
     88   0.000000D+00  0.000000D+00  0.000000D+00  0.000000D+00  0.000000D+00
     89   0.000000D+00  0.000000D+00  0.000000D+00  0.000000D+00  0.000000D+00
     90   0.000000D+00  0.000000D+00  0.000000D+00  0.000000D+00  0.000000D+00
     91   0.000000D+00  0.000000D+00  0.000000D+00  0.000000D+00  0.000000D+00
     92   0.000000D+00  0.000000D+00  0.000000D+00  0.000000D+00  0.000000D+00
     93   0.000000D+00  0.000000D+00  0.000000D+00  0.000000D+00  0.000000D+00
     94   0.000000D+00  0.000000D+00  0.000000D+00  0.000000D+00  0.000000D+00
     95   0.000000D+00  0.000000D+00  0.000000D+00  0.000000D+00  0.000000D+00
     96   0.000000D+00  0.000000D+00  0.000000D+00  0.000000D+00  0.000000D+00
     97   0.000000D+00  0.000000D+00  0.000000D+00  0.000000D+00  0.000000D+00
     98   0.000000D+00  0.000000D+00  0.000000D+00  0.000000D+00  0.000000D+00
     99   0.000000D+00  0.000000D+00  0.000000D+00  0.000000D+00  0.000000D+00
    100   0.000000D+00  0.000000D+00  0.000000D+00  0.000000D+00  0.000000D+00
    101   0.000000D+00  0.000000D+00  0.000000D+00  0.000000D+00  0.000000D+00
    102   0.000000D+00  0.000000D+00  0.000000D+00  0.000000D+00  0.000000D+00
    103   0.000000D+00  0.000000D+00  0.000000D+00  0.000000D+00  0.000000D+00
    104   0.000000D+00  0.000000D+00  0.000000D+00  0.000000D+00  0.000000D+00
    105   0.000000D+00  0.000000D+00  0.000000D+00  0.000000D+00  0.000000D+00
    106   0.000000D+00  0.000000D+00  0.000000D+00  0.000000D+00  0.000000D+00
    107   0.000000D+00  0.000000D+00  0.000000D+00  0.000000D+00  0.000000D+00
    108   0.000000D+00  0.000000D+00  0.000000D+00  0.000000D+00  0.000000D+00
    109   0.000000D+00  0.000000D+00  0.000000D+00  0.000000D+00  0.000000D+00
    110   0.000000D+00  0.000000D+00  0.000000D+00  0.000000D+00  0.000000D+00
    111   0.000000D+00  0.000000D+00  0.000000D+00  0.000000D+00  0.000000D+00
    112   0.000000D+00  0.000000D+00  0.000000D+00  0.000000D+00  0.000000D+00
    113   0.000000D+00  0.000000D+00  0.000000D+00  0.000000D+00  0.000000D+00
    114   0.000000D+00  0.000000D+00  0.000000D+00  0.000000D+00  0.000000D+00
    115   0.000000D+00  0.000000D+00  0.000000D+00  0.000000D+00  0.000000D+00
    116   0.000000D+00  0.000000D+00  0.000000D+00  0.000000D+00  0.000000D+00
    117   0.000000D+00  0.000000D+00  0.000000D+00  0.000000D+00  0.000000D+00
    118   0.000000D+00  0.000000D+00  0.000000D+00  0.000000D+00  0.000000D+00
    119   0.000000D+00  0.000000D+00  0.000000D+00  0.000000D+00  0.000000D+00
    120   0.000000D+00  0.000000D+00  0.000000D+00  0.000000D+00  0.000000D+00
    121   0.000000D+00  0.000000D+00  0.000000D+00  0.000000D+00  0.000000D+00
    122   0.000000D+00  0.000000D+00  0.000000D+00  0.000000D+00  0.000000D+00
    123   0.000000D+00  0.000000D+00  0.000000D+00  0.000000D+00  0.000000D+00
    124   0.000000D+00  0.000000D+00  0.000000D+00  0.000000D+00  0.000000D+00
    125   0.000000D+00  0.000000D+00  0.000000D+00  0.000000D+00  0.000000D+00
    126   0.000000D+00  0.000000D+00  0.000000D+00  0.000000D+00  0.000000D+00
    127   0.000000D+00  0.000000D+00  0.000000D+00  0.000000D+00  0.000000D+00
    128   0.000000D+00  0.000000D+00  0.000000D+00  0.000000D+00  0.000000D+00
    129   0.000000D+00  0.000000D+00  0.000000D+00  0.000000D+00  0.000000D+00
    130   0.000000D+00  0.000000D+00  0.000000D+00  0.000000D+00  0.000000D+00
    131   0.000000D+00  0.000000D+00  0.000000D+00  0.000000D+00  0.000000D+00
    132   0.000000D+00  0.000000D+00  0.000000D+00  0.000000D+00  0.000000D+00
    133   0.000000D+00  0.000000D+00  0.000000D+00  0.000000D+00  0.000000D+00
    134   0.000000D+00  0.000000D+00  0.000000D+00  0.000000D+00  0.000000D+00
    135   0.000000D+00  0.000000D+00  0.000000D+00  0.000000D+00  0.000000D+00
    136   0.000000D+00  0.000000D+00  0.000000D+00  0.000000D+00  0.000000D+00
    137   0.000000D+00  0.000000D+00  0.000000D+00  0.000000D+00  0.000000D+00
    138   0.000000D+00  0.000000D+00  0.000000D+00  0.000000D+00  0.000000D+00
    139   0.000000D+00  0.000000D+00  0.000000D+00  0.000000D+00  0.000000D+00
    140   0.000000D+00  0.000000D+00  0.000000D+00  0.000000D+00  0.000000D+00
    141   0.000000D+00  0.000000D+00  0.000000D+00  0.000000D+00  0.000000D+00
    142   0.000000D+00  0.000000D+00  0.000000D+00  0.000000D+00  0.000000D+00
    143   0.000000D+00  0.000000D+00  0.000000D+00  0.000000D+00  0.000000D+00
    144   0.000000D+00  0.000000D+00  0.000000D+00  0.000000D+00  0.000000D+00
    145   0.000000D+00  0.000000D+00  0.000000D+00  0.000000D+00  0.000000D+00
    146   0.000000D+00  0.000000D+00  0.000000D+00  0.000000D+00  0.000000D+00
    147   0.000000D+00  0.000000D+00  0.000000D+00  0.000000D+00  0.000000D+00
    148   0.000000D+00  0.000000D+00  0.000000D+00  0.000000D+00  0.000000D+00
    149   0.000000D+00  0.000000D+00  0.000000D+00  0.000000D+00  0.000000D+00
    150   0.000000D+00  0.000000D+00  0.000000D+00  0.000000D+00  0.000000D+00
    151   0.000000D+00  0.000000D+00  0.000000D+00  0.000000D+00  0.000000D+00
    152   0.000000D+00  0.000000D+00  0.000000D+00  0.000000D+00  0.000000D+00
    153   0.000000D+00  0.000000D+00  0.000000D+00  0.000000D+00  0.000000D+00
    154   0.000000D+00  0.000000D+00  0.000000D+00  0.000000D+00  0.000000D+00
    155   0.000000D+00  0.000000D+00  0.000000D+00  0.000000D+00  0.000000D+00
    156   0.000000D+00  0.000000D+00  0.000000D+00  0.000000D+00  0.000000D+00
    157   0.000000D+00  0.000000D+00  0.000000D+00  0.000000D+00  0.000000D+00
    158   0.000000D+00  0.000000D+00  0.000000D+00  0.000000D+00  0.000000D+00
    159   0.000000D+00  0.000000D+00  0.000000D+00  0.000000D+00  0.000000D+00
    160   0.000000D+00  0.000000D+00  0.000000D+00  0.000000D+00  0.000000D+00
    161   0.000000D+00  0.000000D+00  0.000000D+00  0.000000D+00  0.000000D+00
    162   0.000000D+00  0.000000D+00  0.000000D+00  0.000000D+00  0.000000D+00
    163   0.000000D+00  0.000000D+00  0.000000D+00  0.000000D+00  0.000000D+00
    164   0.000000D+00  0.000000D+00  0.000000D+00  0.000000D+00  0.000000D+00
    165   0.000000D+00  0.000000D+00  0.000000D+00  0.000000D+00  0.000000D+00
    166   0.000000D+00  0.000000D+00  0.000000D+00  0.000000D+00  0.000000D+00
    167   0.000000D+00  0.000000D+00  0.000000D+00  0.000000D+00  0.000000D+00
    168   0.000000D+00  0.000000D+00  0.000000D+00  0.000000D+00  0.000000D+00
    169   0.000000D+00  0.000000D+00  0.000000D+00  0.000000D+00  0.000000D+00
    170   0.000000D+00  0.000000D+00  0.000000D+00  0.000000D+00  0.000000D+00
    171   0.000000D+00  0.000000D+00  0.000000D+00  0.000000D+00  0.000000D+00
    172   0.000000D+00  0.000000D+00  0.000000D+00  0.000000D+00  0.000000D+00
    173   0.000000D+00  0.000000D+00  0.000000D+00  0.000000D+00  0.000000D+00
    174   0.000000D+00  0.000000D+00  0.000000D+00  0.000000D+00  0.000000D+00
    175   0.000000D+00  0.000000D+00  0.000000D+00  0.000000D+00  0.000000D+00
    176   0.000000D+00  0.000000D+00  0.000000D+00  0.000000D+00  0.000000D+00
    177   0.000000D+00  0.000000D+00  0.000000D+00  0.000000D+00  0.000000D+00
    178   0.000000D+00  0.000000D+00  0.000000D+00  0.000000D+00  0.000000D+00
    179   0.000000D+00  0.000000D+00  0.000000D+00  0.000000D+00  0.000000D+00
    180   0.000000D+00  0.000000D+00  0.000000D+00  0.000000D+00  0.000000D+00
    181   0.000000D+00  0.000000D+00  0.000000D+00  0.000000D+00  0.000000D+00
    182   0.000000D+00  0.000000D+00  0.000000D+00  0.000000D+00  0.000000D+00
    183   0.000000D+00  0.000000D+00  0.000000D+00  0.000000D+00  0.000000D+00
    184   0.000000D+00  0.000000D+00  0.000000D+00  0.000000D+00  0.000000D+00
    185   0.000000D+00  0.000000D+00  0.000000D+00  0.000000D+00  0.000000D+00
    186   0.000000D+00  0.000000D+00  0.000000D+00  0.000000D+00  0.000000D+00
    187   0.000000D+00  0.000000D+00  0.000000D+00  0.000000D+00  0.000000D+00
    188   0.000000D+00  0.000000D+00  0.000000D+00  0.000000D+00  0.000000D+00
    189   0.000000D+00  0.000000D+00  0.000000D+00  0.000000D+00  0.000000D+00
    190   0.000000D+00  0.000000D+00  0.000000D+00  0.000000D+00  0.000000D+00
    191   0.000000D+00  0.000000D+00  0.000000D+00  0.000000D+00  0.000000D+00
    192   0.000000D+00  0.000000D+00  0.000000D+00  0.000000D+00  0.000000D+00
    193   0.000000D+00  0.000000D+00  0.000000D+00  0.000000D+00  0.000000D+00
    194   0.000000D+00  0.000000D+00  0.000000D+00  0.000000D+00  0.000000D+00
    195   0.000000D+00  0.000000D+00  0.000000D+00  0.000000D+00  0.000000D+00
    196   0.000000D+00  0.000000D+00  0.000000D+00  0.000000D+00  0.000000D+00
    197   0.000000D+00  0.000000D+00  0.000000D+00  0.000000D+00  0.000000D+00
    198   0.000000D+00  0.000000D+00  0.000000D+00  0.000000D+00  0.000000D+00
    199   0.000000D+00  0.000000D+00  0.000000D+00  0.000000D+00  0.000000D+00
    200   0.000000D+00  0.000000D+00  0.000000D+00  0.000000D+00  0.000000D+00
    201   0.000000D+00  0.000000D+00  0.000000D+00  0.000000D+00  0.000000D+00
    202   0.198525D-05  0.127288D-04  0.000000D+00  0.000000D+00 -0.402785D-05
    203   0.538664D-04  0.341201D-03  0.000000D+00  0.000000D+00 -0.946663D-04
    204   0.000000D+00  0.000000D+00  0.224000D-04  0.000000D+00  0.000000D+00
[...]
   31    |  0.000000  0.000000  0.000000  0.000000
         |
   32    |  0.350029  0.350029  0.000000  0.000000
   32    |  0.000000  0.000000  0.000000  0.000000
         |

          Overlap/Interference Sums
          -------------------------

                                      Alpha        Beta
          Overlap                     5.8390      0.4203
          Interference                6.6177      1.3713
          Overlap*Interference        2.4732      0.2964
          Intra-orbital Ovlp*Inf      0.4031      0.0000

              Number of PNO for a Closed Shell
              --------------------------------

 AB - AA |      29        30        31        32
 BA - BB |      29        30        31        32
--------------------------------------------------
   29    |      20        20        20        20
   29    |       0        20         0         0
         |
   30    |      20        20        20        20
   30    |      20         0         0         0
         |
   31    |      20        20         0        20
   31    |       0         0         0         0
         |
   32    |      20        20         0         0
   32    |       0         0         0         0
         |

                   MP2(N) Pair Energies
                   --------------------

 AB - AA |     29        30        31        32
 BA - BB |     29        30        31        32
--------------------------------------------------
   29    | -0.019190 -0.001372 -0.003470 -0.003470
   29    |  0.000000 -0.001871  0.000000  0.000000
         |
   30    | -0.002788 -0.019190 -0.003470 -0.003470
   30    | -0.002788  0.000000  0.000000  0.000000
         |
   31    | -0.008798 -0.008798  0.000000 -0.006070
   31    |  0.000000  0.000000  0.000000  0.000000
         |
   32    | -0.008798 -0.008798  0.000000  0.000000
   32    |  0.000000  0.000000  0.000000  0.000000
         |

                     Delta Factors
                     -------------

 AB - AA |     29        30        31        32
 BA - BB |     29        30        31        32
--------------------------------------------------
   29    |  1.272528  2.570225  1.527693  1.527693
   29    |  0.000000  1.981567  0.000000  0.000000
         |
   30    |  1.682955  1.272528  1.527693  1.527693
   30    |  1.682955  0.000000  0.000000  0.000000
         |
   31    |  1.125815  1.125815  0.000000  0.819283
   31    |  0.000000  0.000000  0.000000  0.000000
         |
   32    |  1.125815  1.125815  0.000000  0.000000
   32    |  0.000000  0.000000  0.000000  0.000000
         |

                   MP2(CBS) Pair Energies
                   ----------------------

 AB - AA |     29        30        31        32
 BA - BB |     29        30        31        32
--------------------------------------------------
   29    | -0.021486 -0.001439 -0.003570 -0.003570
   29    |  0.000000 -0.001940  0.000000  0.000000
         |
   30    | -0.003182 -0.021486 -0.003570 -0.003570
   30    | -0.003182  0.000000  0.000000  0.000000
         |
   31    | -0.009783 -0.009783  0.000000 -0.006176
   31    |  0.000000  0.000000  0.000000  0.000000
         |
   32    | -0.009783 -0.009783  0.000000  0.000000
   32    |  0.000000  0.000000  0.000000  0.000000
         |

                     Sum of ab pair energies =    -0.085284 A.U.
                     Sum of ba pair energies =    -0.003182 A.U.
                     Sum of aa pair energies =    -0.021896 A.U.
                     Sum of bb pair energies =    -0.001940 A.U.

           Sum of intraorbital pair energies =    -0.042971 A.U.
           Sum of interorbital pair energies =    -0.069331 A.U.
                                                  ----------
                         Total pair energies =    -0.112303 A.U.

                         Single Excitations  =    -0.001693 A.U.

                          Total second order =    -0.113995 A.U.



            MP2(CBS) (With Interference Correction) 
            ---------------------------------------

 AB - AA |     29        30        31        32
 BA - BB |     29        30        31        32
--------------------------------------------------
   29    | -0.020938 -0.001430 -0.003552 -0.003552
   29    |  0.000000 -0.001929  0.000000  0.000000
         |
   30    | -0.003138 -0.020938 -0.003552 -0.003552
   30    | -0.003138  0.000000  0.000000  0.000000
         |
   31    | -0.009603 -0.009603  0.000000 -0.006160
   31    |  0.000000  0.000000  0.000000  0.000000
         |
   32    | -0.009603 -0.009603  0.000000  0.000000
   32    |  0.000000  0.000000  0.000000  0.000000
         |

                     Sum of ab pair energies =    -0.083425 A.U.
                     Sum of ba pair energies =    -0.003138 A.U.
                     Sum of aa pair energies =    -0.021797 A.U.
                     Sum of bb pair energies =    -0.001929 A.U.

           Sum of intraorbital pair energies =    -0.041876 A.U.
           Sum of interorbital pair energies =    -0.068414 A.U.
                                                  ----------
                         Total pair energies =    -0.110290 A.U.

                         Single Excitations  =    -0.001693 A.U.

                          Total second order =    -0.111983 A.U.

                         E2(CBS) - E2(Dir) =      -0.003081 A.U.

 E2(CBS)=      -0.113995 CBS-Int=       0.002012 OIii=       0.403105

 **********************************************************************

            Population analysis using the SCF density.

 **********************************************************************

 Orbital symmetries:
       Occupied  (SGG) (SGU) (SGG) (SGU) (SGU) (SGG) (PIG) (PIG)
                 (PIU) (PIU) (SGG) (SGU) (SGG) (SGU) (PIU) (PIU)
                 (PIG) (PIG) (SGG) (PIU) (PIU) (PIG) (PIG) (DLTG)
                 (DLTG) (DLTU) (DLTU) (SGU) (SGG) (SGU) (PIU) (PIU)
       Virtual   (SGG) (SGU) (PIU) (PIU) (PIG) (PIG) (SGG) (SGG)
                 (PIG) (PIG) (SGU) (SGU) (PIU) (PIU) (SGG) (DLTG)
                 (DLTG) (PIG) (PIG) (PIU) (PIU) (DLTU) (DLTU) (SGU)
                 (SGG) (SGG) (SGU) (PIG) (PIG) (DLTG) (DLTG) (PIU)
                 (PIU) (SGG) (PIG) (PIG) (PHIU) (PHIU) (SGU) (PIU)
                 (PIU) (DLTU) (DLTU) (DLTG) (DLTG) (PHIG) (PHIG)
                 (SGG) (PIG) (PIG) (SGU) (SGU) (DLTU) (DLTU) (PIU)
                 (PIU) (SGG) (PIG) (PIG) (SGU) (?A) (?A) (PIU)
                 (PIU) (DLTG) (DLTG) (PHIU) (PHIU) (SGG) (DLTU)
                 (DLTU) (?B) (?B) (PIG) (PIG) (SGG) (PHIU) (PHIU)
                 (DLTG) (DLTG) (PIU) (PIU) (PHIG) (PHIG) (DLTG)
                 (DLTG) (SGG) (SGU) (SGU) (PIU) (PIU) (DLTU) (DLTU)
                 (PIG) (PIG) (PHIG) (PHIG) (SGU) (PIG) (PIG) (SGG)
                 (PIU) (PIU) (?C) (?C) (DLTU) (DLTU) (SGU) (?A)
                 (?A) (?D) (?D) (PIU) (PIU) (PIG) (PIG) (SGG) (PHIU)
                 (PHIU) (?B) (?B) (DLTG) (DLTG) (DLTU) (DLTU) (SGG)
                 (?A) (?A) (PHIU) (PHIU) (DLTG) (DLTG) (PIG) (PIG)
                 (PHIG) (PHIG) (SGU) (SGU) (?B) (?B) (DLTG) (DLTG)
                 (SGG) (DLTU) (DLTU) (PIU) (PIU) (PHIU) (PHIU)
                 (SGG) (PIU) (PIU) (PHIG) (PHIG) (PIG) (PIG) (SGU)
                 (PHIG) (PHIG) (DLTG) (DLTG) (PIU) (PIU) (PIG)
                 (PIG) (DLTU) (DLTU) (SGG) (PIG) (PIG) (SGU) (SGU)
                 (SGG) (DLTU) (DLTU) (PIU) (PIU) (SGU) (?A) (?A)
                 (PHIU) (PHIU) (PIG) (PIG) (?C) (?C) (?D) (?D)
                 (DLTG) (DLTG) (SGG) (PIU) (PIU) (?B) (?B) (DLTU)
                 (DLTU) (PHIG) (PHIG) (SGG) (?A) (?A) (PIG) (PIG)
                 (PHIU) (PHIU) (?B) (?B) (SGU) (DLTG) (DLTG) (PIU)
                 (PIU) (PHIU) (PHIU) (DLTU) (DLTU) (PHIG) (PHIG)
                 (SGG) (DLTG) (DLTG) (DLTG) (DLTG) (PHIG) (PHIG)
                 (PIG) (PIG) (PIU) (PIU) (SGU) (DLTU) (DLTU) (SGU)
                 (PIU) (PIU) (PIG) (PIG) (SGU) (SGG) (DLTU) (DLTU)
                 (SGG) (?A) (?A) (?C) (?C) (PHIU) (PHIU) (PIU)
                 (PIU) (?E) (?E) (?F) (?F) (PIG) (PIG) (?D) (?D)
                 (PIG) (PIG) (SGU) (SGG) (DLTG) (DLTG) (?B) (?B)
                 (PIU) (PIU) (PHIG) (PHIG) (SGU) (SGG) (DLTU) (DLTU)
                 (?A) (?A) (?C) (?C) (?D) (?D) (PHIU) (PHIU) (SGU)
                 (?B) (?B) (PIG) (PIG) (SGG) (DLTU) (DLTU) (DLTG)
                 (DLTG) (PIU) (PIU) (PHIG) (PHIG) (SGG) (PHIU)
                 (PHIU) (SGU) (?A) (?A) (PHIU) (PHIU) (PIG) (PIG)
                 (?B) (?B) (PHIG) (PHIG) (DLTG) (DLTG) (PHIG) (PHIG)
                 (DLTG) (DLTG) (PIU) (PIU) (DLTU) (DLTU) (PIG)
                 (PIG) (SGU) (SGG) (PIU) (PIU) (DLTU) (DLTU) (DLTG)
                 (DLTG) (PIG) (PIG) (DLTU) (DLTU) (SGU) (PIU) (PIU)
                 (SGG) (SGU) (PIG) (PIG) (SGG) (SGU) (PIU) (PIU)
                 (PIG) (PIG) (SGG) (SGG) (SGU) (SGU) (SGG) (SGU)
 The electronic state is 3-SGG.
 Alpha  occ. eigenvalues -- -378.82687-378.82687 -48.17708 -48.17708 -42.50322
 Alpha  occ. eigenvalues --  -42.50322 -42.50322 -42.50322 -42.50275 -42.50275
 Alpha  occ. eigenvalues --   -6.40468  -6.40461  -4.49368  -4.49305  -4.49289
 Alpha  occ. eigenvalues --   -4.49289  -4.49281  -4.49281  -1.21201  -1.20763
 Alpha  occ. eigenvalues --   -1.20763  -1.20294  -1.20294  -1.20203  -1.20203
 Alpha  occ. eigenvalues --   -1.20181  -1.20181  -1.19908  -0.56715  -0.37695
 Alpha  occ. eigenvalues --   -0.23004  -0.23004
 Alpha virt. eigenvalues --   -0.02550   0.01425   0.01882   0.01882   0.01991
 Alpha virt. eigenvalues --    0.01991   0.02405   0.03546   0.03546   0.03802
 Alpha virt. eigenvalues --    0.05776   0.07365   0.08230   0.08230   0.08432
 Alpha virt. eigenvalues --    0.09194   0.09194   0.09753   0.09753   0.12918
 Alpha virt. eigenvalues --    0.12918   0.13188   0.13188   0.15210   0.16498
 Alpha virt. eigenvalues --    0.17329   0.17840   0.18075   0.18075   0.24301
 Alpha virt. eigenvalues --    0.24301   0.25351   0.25351   0.26500   0.27345
 Alpha virt. eigenvalues --    0.27345   0.27382   0.27382   0.28002   0.29965
 Alpha virt. eigenvalues --    0.29965   0.31190   0.31190   0.32196   0.32196
 Alpha virt. eigenvalues --    0.33852   0.33852   0.36740   0.37918   0.37918
 Alpha virt. eigenvalues --    0.38135   0.39268   0.39695   0.39695   0.39735
 Alpha virt. eigenvalues --    0.39735   0.44656   0.46049   0.46049   0.49972
 Alpha virt. eigenvalues --    0.55578   0.55578   0.56152   0.56152   0.58228
 Alpha virt. eigenvalues --    0.58228   0.59649   0.59649   0.61679   0.63523
 Alpha virt. eigenvalues --    0.63523   0.64011   0.64011   0.66563   0.66563
 Alpha virt. eigenvalues --    0.67958   0.69912   0.69912   0.70410   0.70410
 Alpha virt. eigenvalues --    0.70526   0.70526   0.73431   0.73431   0.74889
 Alpha virt. eigenvalues --    0.74889   0.74953   0.75081   0.76005   0.76384
 Alpha virt. eigenvalues --    0.76384   0.76548   0.76548   0.77077   0.77077
 Alpha virt. eigenvalues --    0.78412   0.78412   0.85589   0.88095   0.88095
 Alpha virt. eigenvalues --    0.93280   0.93383   0.93383   0.97758   0.97758
 Alpha virt. eigenvalues --    0.99642   0.99642   1.00369   1.00635   1.00635
 Alpha virt. eigenvalues --    1.07164   1.07164   1.12954   1.12954   1.13200
 Alpha virt. eigenvalues --    1.13200   1.14040   1.15545   1.15545   1.21096
 Alpha virt. eigenvalues --    1.21096   1.23688   1.23688   1.25058   1.25058
 Alpha virt. eigenvalues --    1.28921   1.34133   1.34133   1.34501   1.34501
 Alpha virt. eigenvalues --    1.34624   1.34624   1.34969   1.34969   1.35681
 Alpha virt. eigenvalues --    1.35681   1.36763   1.37967   1.41325   1.41325
 Alpha virt. eigenvalues --    1.43800   1.43800   1.43983   1.44233   1.44233
 Alpha virt. eigenvalues --    1.44455   1.44455   1.46147   1.46147   1.50995
 Alpha virt. eigenvalues --    1.51729   1.51729   1.51733   1.51733   1.52500
 Alpha virt. eigenvalues --    1.52500   1.57042   1.57913   1.57913   1.58079
 Alpha virt. eigenvalues --    1.58079   1.70292   1.70292   1.70539   1.70539
 Alpha virt. eigenvalues --    1.70826   1.70826   1.77772   1.79768   1.79768
 Alpha virt. eigenvalues --    1.83832   1.86942   1.94824   1.96399   1.96399
 Alpha virt. eigenvalues --    1.98554   1.98554   2.28863   2.31563   2.31563
 Alpha virt. eigenvalues --    2.31946   2.31946   2.33271   2.33271   2.36479
 Alpha virt. eigenvalues --    2.36479   2.42010   2.42010   2.42038   2.42038
 Alpha virt. eigenvalues --    2.46586   2.52722   2.52722   2.53317   2.53317
 Alpha virt. eigenvalues --    2.72882   2.72882   2.73609   2.73609   2.73940
 Alpha virt. eigenvalues --    2.74832   2.74832   2.75954   2.75954   2.76924
 Alpha virt. eigenvalues --    2.76924   2.79589   2.79589   2.80855   2.81079
 Alpha virt. eigenvalues --    2.81079   2.85837   2.85837   2.86778   2.86778
 Alpha virt. eigenvalues --    2.86970   2.86970   2.87349   2.87349   2.87631
 Alpha virt. eigenvalues --    2.87898   2.87898   2.93240   2.93240   2.95736
 Alpha virt. eigenvalues --    2.95736   2.95974   2.95974   2.99952   2.99952
 Alpha virt. eigenvalues --    3.00438   3.03143   3.03143   3.12653   3.22210
 Alpha virt. eigenvalues --    3.22210   3.22387   3.22387   3.33322   3.34822
 Alpha virt. eigenvalues --    3.39139   3.39139   3.53024   3.64742   3.64742
 Alpha virt. eigenvalues --    3.74473   3.74473   3.75075   3.75075   3.80171
 Alpha virt. eigenvalues --    3.80171   3.80938   3.80938   3.82541   3.82541
 Alpha virt. eigenvalues --    3.84737   3.84737   3.88934   3.88934   4.03510
 Alpha virt. eigenvalues --    4.03510   4.06466   4.07163   4.08463   4.08463
 Alpha virt. eigenvalues --    4.11725   4.11725   4.37918   4.37918   4.55664
 Alpha virt. eigenvalues --    4.55664   4.56722   4.57800   5.02806   5.02806
 Alpha virt. eigenvalues --    5.04036   5.04036   5.04520   5.04520   5.08050
 Alpha virt. eigenvalues --    5.08050   5.10621   5.10621   5.12612   5.14489
 Alpha virt. eigenvalues --    5.14489   5.15053   5.15053   5.15243   5.19891
 Alpha virt. eigenvalues --    5.19891   5.20205   5.20205   5.22515   5.22515
 Alpha virt. eigenvalues --    5.23143   5.23143   5.23759   5.26100   5.26100
 Alpha virt. eigenvalues --    5.27098   5.28970   5.28970   5.29958   5.29958
 Alpha virt. eigenvalues --    5.31203   5.31203   5.32924   5.32924   5.36249
 Alpha virt. eigenvalues --    5.36249   5.36695   5.36695   5.40716   5.40716
 Alpha virt. eigenvalues --    5.41014   5.41014   5.48059   5.48059   5.49878
 Alpha virt. eigenvalues --    5.49878   5.55716   5.55716   5.59809   5.63149
 Alpha virt. eigenvalues --    5.76242   5.76242   5.78080   5.78080   6.12324
 Alpha virt. eigenvalues --    6.12324   6.13565   6.13565   6.36722   6.36722
 Alpha virt. eigenvalues --    6.43887   6.52868   6.52868   6.59553   7.18582
 Alpha virt. eigenvalues --    7.35417   7.35417   7.88513   7.97760   9.24769
 Alpha virt. eigenvalues --    9.24769   9.42088   9.42088   9.58082  10.31628
 Alpha virt. eigenvalues --   10.44074  15.70331 225.60693 296.60547
          Condensed to atoms (all electrons):
              1          2
     1  Ga  30.613088   0.386912
     2  Ga   0.386912  30.613088
 Mulliken atomic charges:
              1
     1  Ga   0.000000
     2  Ga   0.000000
 Sum of Mulliken atomic charges =   0.00000
 Mulliken charges with hydrogens summed into heavy atoms:
              1
     1  Ga   0.000000
     2  Ga   0.000000
 Sum of Mulliken charges with hydrogens summed into heavy atoms =   0.00000
          Atomic-Atomic Spin Densities.
              1          2
     1  Ga   0.681958   0.318042
     2  Ga   0.318042   0.681958
 Mulliken atomic spin densities:
              1
     1  Ga   1.000000
     2  Ga   1.000000
 Sum of Mulliken atomic spin densities =   2.00000
 Electronic spatial extent (au):  <R**2>=            421.4834
 Charge=              0.0000 electrons
 Dipole moment (field-independent basis, Debye):
    X=              0.0000    Y=              0.0000    Z=              0.0000  Tot=              0.0000
 Quadrupole moment (field-independent basis, Debye-Ang):
   XX=            -37.8110   YY=            -37.8110   ZZ=            -27.4016
   XY=              0.0000   XZ=              0.0000   YZ=              0.0000
 Traceless Quadrupole moment (field-independent basis, Debye-Ang):
   XX=             -3.4698   YY=             -3.4698   ZZ=              6.9396
   XY=              0.0000   XZ=              0.0000   YZ=              0.0000
 Octapole moment (field-independent basis, Debye-Ang**2):
  XXX=              0.0000  YYY=              0.0000  ZZZ=              0.0000  XYY=              0.0000
  XXY=              0.0000  XXZ=              0.0000  XZZ=              0.0000  YZZ=              0.0000
  YYZ=              0.0000  XYZ=              0.0000
 Hexadecapole moment (field-independent basis, Debye-Ang**3):
 XXXX=            -88.5252 YYYY=            -88.5252 ZZZZ=           -322.7370 XXXY=              0.0000
 XXXZ=              0.0000 YYYX=              0.0000 YYYZ=              0.0000 ZZZX=              0.0000
 ZZZY=              0.0000 XXYY=            -29.5084 XXZZ=            -73.6289 YYZZ=            -73.6289
 XXYZ=              0.0000 YYXZ=              0.0000 ZZXY=              0.0000
 N-N= 2.037277794156D+02 E-N=-1.441697750852D+04  KE= 5.769099124887D+03
                          Isotropic Fermi Contact Couplings
        Atom                 a.u.       MegaHertz       Gauss      10(-4) cm-1
     1  Ga(69)             0.00000       0.00000       0.00000       0.00000
     2  Ga(69)             0.00000       0.00000       0.00000       0.00000
 --------------------------------------------------------
       Center         ----  Spin Dipole Couplings  ----
                      3XX-RR        3YY-RR        3ZZ-RR
 --------------------------------------------------------
     1   Atom        0.530325      0.530325     -1.060650
     2   Atom        0.530325      0.530325     -1.060650
 --------------------------------------------------------
                        XY            XZ            YZ
 --------------------------------------------------------
     1   Atom        0.000000      0.000000      0.000000
     2   Atom        0.000000      0.000000      0.000000
 --------------------------------------------------------


 ---------------------------------------------------------------------------------
              Anisotropic Spin Dipole Couplings in Principal Axis System
 ---------------------------------------------------------------------------------

       Atom             a.u.   MegaHertz   Gauss  10(-4) cm-1        Axes

              Baa    -1.0607  -136.207   -48.602   -45.434  0.0000  0.0000  1.0000
     1 Ga(69) Bbb     0.5303    68.103    24.301    22.717  1.0000  0.0000  0.0000
              Bcc     0.5303    68.103    24.301    22.717  0.0000  1.0000  0.0000
 
              Baa    -1.0607  -136.207   -48.602   -45.434  0.0000  0.0000  1.0000
     2 Ga(69) Bbb     0.5303    68.103    24.301    22.717  1.0000  0.0000  0.0000
              Bcc     0.5303    68.103    24.301    22.717  0.0000  1.0000  0.0000
 

 ---------------------------------------------------------------------------------


 Test job not archived.
 1\1\GINC-C24\SP\ROMP2-RW\Gen\Ga2(3)\GPETERSSON\04-May-2013\0\\# ROMP2(
 RW) Gen GFinput Int=NoBasisTransform Int(Grid=Ultrafine) IOp(3/32=2,5/
 6=10,8/11=1,9/33=1) Maxdisk=128GB CBSextrapolate(Nmin=20,MinPop)\\Ga2\
 \0,3\Ga\Ga,1,2.49617062\\Version=EM64L-G09RevA.02\State=3-SGG\HF=-3846
 .5375797\MP2=-3846.6484937\E2(CBS)=-0.1139954\CBS-Int=-0.111983\OIii=0
 .4031054\RMSD=9.847e-11\PG=D*H [C*(Ga1.Ga1)]\\@


 I do not feel obliged to believe that the same God who
 has endowed us with sense, reason, and intellect has
 intended us to forgo their use.
                   --Galileo Galilei
 Job cpu time:  0 days 18 hours  6 minutes 20.0 seconds.
 File lengths (MBytes):  RWF=   2416 Int=      0 D2E=      0 Chk=     12 Scr=      1
 Normal termination of Gaussian 09 at Sat May  4 13:27:53 2013.
