 Entering Gaussian System, Link 0=g09
 AtFile(1): 6ZaPa-NR.gbs
 Initial command:
 /share/apps/gaussian/g09root/g09/l1.exe /localscratch/824908/Gau-16579.inp -scrdir=/localscratch/824908/
 Entering Link 1 = /share/apps/gaussian/g09root/g09/l1.exe PID=     16580.
  
 Copyright (c) 1988,1990,1992,1993,1995,1998,2003,2009, Gaussian, Inc.
                  All Rights Reserved.
  
 This is part of the Gaussian(R) 09 program.  It is based on
 the Gaussian(R) 03 system (copyright 2003, Gaussian, Inc.),
 the Gaussian(R) 98 system (copyright 1998, Gaussian, Inc.),
 the Gaussian(R) 94 system (copyright 1995, Gaussian, Inc.),
 the Gaussian 92(TM) system (copyright 1992, Gaussian, Inc.),
 the Gaussian 90(TM) system (copyright 1990, Gaussian, Inc.),
 the Gaussian 88(TM) system (copyright 1988, Gaussian, Inc.),
 the Gaussian 86(TM) system (copyright 1986, Carnegie Mellon
 University), and the Gaussian 82(TM) system (copyright 1983,
 Carnegie Mellon University). Gaussian is a federally registered
 trademark of Gaussian, Inc.
  
 This software contains proprietary and confidential information,
 including trade secrets, belonging to Gaussian, Inc.
  
 This software is provided under written license and may be
 used, copied, transmitted, or stored only in accord with that
 written license.
  
 The following legend is applicable only to US Government
 contracts under FAR:
  
                    RESTRICTED RIGHTS LEGEND
  
 Use, reproduction and disclosure by the US Government is
 subject to restrictions as set forth in subparagraphs (a)
 and (c) of the Commercial Computer Software - Restricted
 Rights clause in FAR 52.227-19.
  
 Gaussian, Inc.
 340 Quinnipiac St., Bldg. 40, Wallingford CT 06492
  
  
 ---------------------------------------------------------------
 Warning -- This program may not be used in any manner that
 competes with the business of Gaussian, Inc. or will provide
 assistance to any competitor of Gaussian, Inc.  The licensee
 of this program is prohibited from giving any competitor of
 Gaussian, Inc. access to this program.  By using this program,
 the user acknowledges that Gaussian, Inc. is engaged in the
 business of creating and licensing software in the field of
 computational chemistry and represents and warrants to the
 licensee that it is not a competitor of Gaussian, Inc. and that
 it will not use this program in any manner prohibited above.
 ---------------------------------------------------------------
  

 Cite this work as:
 Gaussian 09, Revision A.02,
 M. J. Frisch, G. W. Trucks, H. B. Schlegel, G. E. Scuseria, 
 M. A. Robb, J. R. Cheeseman, G. Scalmani, V. Barone, B. Mennucci, 
 G. A. Petersson, H. Nakatsuji, M. Caricato, X. Li, H. P. Hratchian, 
 A. F. Izmaylov, J. Bloino, G. Zheng, J. L. Sonnenberg, M. Hada, 
 M. Ehara, K. Toyota, R. Fukuda, J. Hasegawa, M. Ishida, T. Nakajima, 
 Y. Honda, O. Kitao, H. Nakai, T. Vreven, J. A. Montgomery, Jr., 
 J. E. Peralta, F. Ogliaro, M. Bearpark, J. J. Heyd, E. Brothers, 
 K. N. Kudin, V. N. Staroverov, R. Kobayashi, J. Normand, 
 K. Raghavachari, A. Rendell, J. C. Burant, S. S. Iyengar, J. Tomasi, 
 M. Cossi, N. Rega, J. M. Millam, M. Klene, J. E. Knox, J. B. Cross, 
 V. Bakken, C. Adamo, J. Jaramillo, R. Gomperts, R. E. Stratmann, 
 O. Yazyev, A. J. Austin, R. Cammi, C. Pomelli, J. W. Ochterski, 
 R. L. Martin, K. Morokuma, V. G. Zakrzewski, G. A. Voth, 
 P. Salvador, J. J. Dannenberg, S. Dapprich, A. D. Daniels, 
 O. Farkas, J. B. Foresman, J. V. Ortiz, J. Cioslowski, 
 and D. J. Fox, Gaussian, Inc., Wallingford CT, 2009.
 
 ******************************************
 Gaussian 09:  EM64L-G09RevA.02 11-Jun-2009
                24-Feb-2013 
 ******************************************
 % Mem=12GB
 % Nproc=8
 Will use up to    8 processors via shared memory.
 ----------------------------------------------------------------------
 # ROMP2(RW) Gen GFinput Int=NoBasisTransform Int(Grid=Ultrafine) IOp(3
 /32=2,5/6=10,8/11=1,9/33=1) Maxdisk=128GB CBSextrapolate(Nmin=20,MinPo
 p)
 ----------------------------------------------------------------------
 1/38=1/1;
 2/12=2,17=6,18=5,40=1/2;
 3/5=7,11=2,16=1,24=10,25=1,30=1,32=2,60=-1,75=-5,116=101/1,2,3;
 4//1;
 5/5=2,6=10,38=5/2;
 8/5=-1,10=91,11=1/1;
 9/16=-3,33=1,75=2,81=20,83=4/6,4;
 6/7=2,8=2,9=2,10=2/1;
 99/5=1,9=1/99;
 ---
 Ge2
 ---
 Symbolic Z-matrix:
 Charge =  0 Multiplicity = 3
 Ge
 Ge                   1     2.5244 
 
                          Input orientation:                          
 ---------------------------------------------------------------------
 Center     Atomic      Atomic             Coordinates (Angstroms)
 Number     Number       Type             X           Y           Z
 ---------------------------------------------------------------------
      1         32           0        0.000000    0.000000    0.000000
      2         32           0        0.000000    0.000000    2.524400
 ---------------------------------------------------------------------
 Stoichiometry    Ge2(3)
 Framework group  D*H[C*(Ge.Ge)]
 Deg. of freedom     1
 Full point group                 D*H     NOp   8
 Largest Abelian subgroup         D2H     NOp   8
 Largest concise Abelian subgroup C2      NOp   2
                         Standard orientation:                         
 ---------------------------------------------------------------------
 Center     Atomic      Atomic             Coordinates (Angstroms)
 Number     Number       Type             X           Y           Z
 ---------------------------------------------------------------------
      1         32           0        0.000000    0.000000    1.262200
      2         32           0        0.000000    0.000000   -1.262200
 ---------------------------------------------------------------------
 Rotational constants (GHZ):      0.0000000      2.1456652      2.1456652
 General basis read from cards:  (5D, 7F)
 AO basis set in the form of general basis input (Overlap normalization):
      1 0
 S  17 1.00       0.000000000000
      0.4122268980D+08  0.7619756521D-06
      0.7983313080D+07  0.4552129250D-05
      0.1851734950D+07  0.2579634585D-04
      0.5015949500D+06  0.1177488900D-03
      0.1551136690D+06  0.4602311083D-03
      0.5365983180D+05  0.1569185995D-02
      0.2039333180D+05  0.4776087633D-02
      0.8378829330D+04  0.1316591352D-01
      0.3669040500D+04  0.3312711738D-01
      0.1690971220D+04  0.7559901259D-01
      0.8111844160D+03  0.1525645339D+00
      0.4011013350D+03  0.2563840676D+00
      0.2026652420D+03  0.3169496769D+00
      0.1038351640D+03  0.2267270383D+00
      0.5357110400D+02  0.6330876023D-01
      0.2765489200D+02  0.3967379286D-02
      0.1419965900D+02  0.8167901390D-03
 S  14 1.00       0.000000000000
      0.2039333180D+05 -0.7749397977D-05
      0.8378829330D+04 -0.4610141918D-04
      0.3669040500D+04 -0.3100309063D-03
      0.1690971220D+04 -0.1507914846D-02
      0.8111844160D+03 -0.6697310930D-02
      0.4011013350D+03 -0.2357187335D-01
      0.2026652420D+03 -0.6393740340D-01
      0.1038351640D+03 -0.9011602194D-01
      0.5357110400D+02  0.4095639915D-01
      0.2765489200D+02  0.4037319950D+00
      0.1419965900D+02  0.5051005263D+00
      0.7210321000D+01  0.1668663852D+00
      0.3600202000D+01  0.1139208356D-01
      0.1757356000D+01  0.1324887454D-02
 P  15 1.00       0.000000000000
      0.5878475230D+05  0.1006770135D-04
      0.1546268820D+05  0.8140951624D-04
      0.4914418670D+04  0.5222832948D-03
      0.1817946780D+04  0.2522060957D-02
      0.7576001320D+03  0.9720853573D-02
      0.3457718700D+03  0.3064819679D-01
      0.1687033210D+03  0.8056813532D-01
      0.8620415300D+02  0.1720032475D+00
      0.4534423200D+02  0.2849829350D+00
      0.2420451000D+02  0.3319826586D+00
      0.1295848500D+02  0.2131544666D+00
      0.6892095000D+01  0.5640803863D-01
      0.3613555000D+01  0.5184769002D-02
      0.1856025000D+01  0.5206101202D-03
      0.9290730000D+00  0.7906999012D-04
 S  11 1.00       0.000000000000
      0.4011013350D+03  0.1047011300D-03
      0.2026652420D+03  0.9847131968D-03
      0.1038351640D+03  0.2930755417D-02
      0.5357110400D+02  0.4496547850D-03
      0.2765489200D+02 -0.6289553483D-01
      0.1419965900D+02 -0.2098247288D+00
      0.7210321000D+01 -0.2917578469D-01
      0.3600202000D+01  0.4908547261D+00
      0.1757356000D+01  0.5615823628D+00
      0.8334510000D+00  0.1355687727D+00
      0.3815050000D+00  0.5204371907D-03
 P  13 1.00       0.000000000000
      0.7576001320D+03 -0.2824773122D-04
      0.3457718700D+03 -0.2413332076D-03
      0.1687033210D+03 -0.1366796304D-02
      0.8620415300D+02 -0.5483384495D-02
      0.4534423200D+02 -0.1431010805D-01
      0.2420451000D+02 -0.2339127344D-01
      0.1295848500D+02  0.3333937534D-01
      0.6892095000D+01  0.2176226158D+00
      0.3613555000D+01  0.3898925110D+00
      0.1856025000D+01  0.3504488772D+00
      0.9290730000D+00  0.1279297811D+00
      0.4512270000D+00  0.1122065758D-01
      0.2117550000D+00  0.1205370065D-02
 D  14 1.00       0.000000000000
      0.2338872590D+04  0.1782214933D-04
      0.7138462740D+03  0.1839392548D-03
      0.2759750270D+03  0.1159955918D-02
      0.1238804750D+03  0.5190615105D-02
      0.6080347600D+02  0.1778811299D-01
      0.3140289600D+02  0.4826648981D-01
      0.1669260800D+02  0.1089068037D+00
      0.9031064000D+01  0.1911681811D+00
      0.4945221000D+01  0.2520581842D+00
      0.2726070000D+01  0.2658016280D+00
      0.1497064000D+01  0.2282664746D+00
      0.8020380000D+00  0.1471027401D+00
      0.4040410000D+00  0.5505737392D-01
      0.1806180000D+00  0.7091662360D-02
 S  10 1.00       0.000000000000
      0.5357110400D+02  0.1197605162D-03
      0.2765489200D+02 -0.5890639856D-03
      0.1419965900D+02  0.1759378288D-02
      0.7210321000D+01 -0.2815520502D-02
      0.3600202000D+01 -0.1475266842D-01
      0.1757356000D+01 -0.1253647537D+00
      0.8334510000D+00 -0.1312115750D+00
      0.3815050000D+00  0.3100569723D+00
      0.1673150000D+00  0.6237194810D+00
      0.6973100000D-01  0.2623474767D+00
 S   1 1.00       0.000000000000
      0.3005604675D-01  0.1000000000D+01
 P   9 1.00       0.000000000000
      0.1295848500D+02 -0.5760889576D-03
      0.6892095000D+01 -0.3590625169D-02
      0.3613555000D+01 -0.7427448563D-02
      0.1856025000D+01 -0.2065624580D-01
      0.9290730000D+00  0.3879164347D-02
      0.4512270000D+00  0.1711763425D+00
      0.2117550000D+00  0.3963212944D+00
      0.9562500000D-01  0.4212356068D+00
      0.4136600000D-01  0.1437806489D+00
 P   1 1.00       0.000000000000
      0.2153507449D-01  0.1000000000D+01
 S   1 1.00       0.000000000000
      0.2561749000D+01  0.1000000000D+01
 S   1 1.00       0.000000000000
      0.1308885000D+01  0.1000000000D+01
 S   1 1.00       0.000000000000
      0.6687540000D+00  0.1000000000D+01
 S   1 1.00       0.000000000000
      0.3416900000D+00  0.1000000000D+01
 S   1 1.00       0.000000000000
      0.1745810000D+00  0.1000000000D+01
 P   1 1.00       0.000000000000
      0.1385238000D+01  0.1000000000D+01
 P   1 1.00       0.000000000000
      0.7869510000D+00  0.1000000000D+01
 P   1 1.00       0.000000000000
      0.4470660000D+00  0.1000000000D+01
 P   1 1.00       0.000000000000
      0.2539770000D+00  0.1000000000D+01
 P   1 1.00       0.000000000000
      0.1442840000D+00  0.1000000000D+01
 D   1 1.00       0.000000000000
      0.1559087000D+01  0.1000000000D+01
 D   1 1.00       0.000000000000
      0.7885540000D+00  0.1000000000D+01
 D   1 1.00       0.000000000000
      0.3988350000D+00  0.1000000000D+01
 D   1 1.00       0.000000000000
      0.2017220000D+00  0.1000000000D+01
 D   1 1.00       0.000000000000
      0.1020270000D+00  0.1000000000D+01
 F   1 1.00       0.000000000000
      0.8916250000D+00  0.1000000000D+01
 F   1 1.00       0.000000000000
      0.5070970000D+00  0.1000000000D+01
 F   1 1.00       0.000000000000
      0.2884030000D+00  0.1000000000D+01
 F   1 1.00       0.000000000000
      0.1640240000D+00  0.1000000000D+01
 G   1 1.00       0.000000000000
      0.9272770000D+00  0.1000000000D+01
 G   1 1.00       0.000000000000
      0.5014050000D+00  0.1000000000D+01
 G   1 1.00       0.000000000000
      0.2711240000D+00  0.1000000000D+01
 H   1 1.00       0.000000000000
      0.7790020000D+00  0.1000000000D+01
 H   1 1.00       0.000000000000
      0.4026120000D+00  0.1000000000D+01
 I   1 1.00       0.000000000000
      0.6578630345D+00  0.1000000000D+01
 ****
      2 0
 S  17 1.00       0.000000000000
      0.4122268980D+08  0.7619756521D-06
      0.7983313080D+07  0.4552129250D-05
      0.1851734950D+07  0.2579634585D-04
      0.5015949500D+06  0.1177488900D-03
      0.1551136690D+06  0.4602311083D-03
      0.5365983180D+05  0.1569185995D-02
      0.2039333180D+05  0.4776087633D-02
      0.8378829330D+04  0.1316591352D-01
      0.3669040500D+04  0.3312711738D-01
      0.1690971220D+04  0.7559901259D-01
      0.8111844160D+03  0.1525645339D+00
      0.4011013350D+03  0.2563840676D+00
      0.2026652420D+03  0.3169496769D+00
      0.1038351640D+03  0.2267270383D+00
      0.5357110400D+02  0.6330876023D-01
      0.2765489200D+02  0.3967379286D-02
      0.1419965900D+02  0.8167901390D-03
 S  14 1.00       0.000000000000
      0.2039333180D+05 -0.7749397977D-05
      0.8378829330D+04 -0.4610141918D-04
      0.3669040500D+04 -0.3100309063D-03
      0.1690971220D+04 -0.1507914846D-02
      0.8111844160D+03 -0.6697310930D-02
      0.4011013350D+03 -0.2357187335D-01
      0.2026652420D+03 -0.6393740340D-01
      0.1038351640D+03 -0.9011602194D-01
      0.5357110400D+02  0.4095639915D-01
      0.2765489200D+02  0.4037319950D+00
      0.1419965900D+02  0.5051005263D+00
      0.7210321000D+01  0.1668663852D+00
      0.3600202000D+01  0.1139208356D-01
      0.1757356000D+01  0.1324887454D-02
 P  15 1.00       0.000000000000
      0.5878475230D+05  0.1006770135D-04
      0.1546268820D+05  0.8140951624D-04
      0.4914418670D+04  0.5222832948D-03
      0.1817946780D+04  0.2522060957D-02
      0.7576001320D+03  0.9720853573D-02
      0.3457718700D+03  0.3064819679D-01
      0.1687033210D+03  0.8056813532D-01
      0.8620415300D+02  0.1720032475D+00
      0.4534423200D+02  0.2849829350D+00
      0.2420451000D+02  0.3319826586D+00
      0.1295848500D+02  0.2131544666D+00
      0.6892095000D+01  0.5640803863D-01
      0.3613555000D+01  0.5184769002D-02
      0.1856025000D+01  0.5206101202D-03
      0.9290730000D+00  0.7906999012D-04
 S  11 1.00       0.000000000000
      0.4011013350D+03  0.1047011300D-03
      0.2026652420D+03  0.9847131968D-03
      0.1038351640D+03  0.2930755417D-02
      0.5357110400D+02  0.4496547850D-03
      0.2765489200D+02 -0.6289553483D-01
      0.1419965900D+02 -0.2098247288D+00
      0.7210321000D+01 -0.2917578469D-01
      0.3600202000D+01  0.4908547261D+00
      0.1757356000D+01  0.5615823628D+00
      0.8334510000D+00  0.1355687727D+00
      0.3815050000D+00  0.5204371907D-03
 P  13 1.00       0.000000000000
      0.7576001320D+03 -0.2824773122D-04
      0.3457718700D+03 -0.2413332076D-03
      0.1687033210D+03 -0.1366796304D-02
      0.8620415300D+02 -0.5483384495D-02
      0.4534423200D+02 -0.1431010805D-01
      0.2420451000D+02 -0.2339127344D-01
      0.1295848500D+02  0.3333937534D-01
      0.6892095000D+01  0.2176226158D+00
      0.3613555000D+01  0.3898925110D+00
      0.1856025000D+01  0.3504488772D+00
      0.9290730000D+00  0.1279297811D+00
      0.4512270000D+00  0.1122065758D-01
      0.2117550000D+00  0.1205370065D-02
 D  14 1.00       0.000000000000
      0.2338872590D+04  0.1782214933D-04
      0.7138462740D+03  0.1839392548D-03
      0.2759750270D+03  0.1159955918D-02
      0.1238804750D+03  0.5190615105D-02
      0.6080347600D+02  0.1778811299D-01
      0.3140289600D+02  0.4826648981D-01
      0.1669260800D+02  0.1089068037D+00
      0.9031064000D+01  0.1911681811D+00
      0.4945221000D+01  0.2520581842D+00
      0.2726070000D+01  0.2658016280D+00
      0.1497064000D+01  0.2282664746D+00
      0.8020380000D+00  0.1471027401D+00
      0.4040410000D+00  0.5505737392D-01
      0.1806180000D+00  0.7091662360D-02
 S  10 1.00       0.000000000000
      0.5357110400D+02  0.1197605162D-03
      0.2765489200D+02 -0.5890639856D-03
      0.1419965900D+02  0.1759378288D-02
      0.7210321000D+01 -0.2815520502D-02
      0.3600202000D+01 -0.1475266842D-01
      0.1757356000D+01 -0.1253647537D+00
      0.8334510000D+00 -0.1312115750D+00
      0.3815050000D+00  0.3100569723D+00
      0.1673150000D+00  0.6237194810D+00
      0.6973100000D-01  0.2623474767D+00
 S   1 1.00       0.000000000000
      0.3005604675D-01  0.1000000000D+01
 P   9 1.00       0.000000000000
      0.1295848500D+02 -0.5760889576D-03
      0.6892095000D+01 -0.3590625169D-02
      0.3613555000D+01 -0.7427448563D-02
      0.1856025000D+01 -0.2065624580D-01
      0.9290730000D+00  0.3879164347D-02
      0.4512270000D+00  0.1711763425D+00
      0.2117550000D+00  0.3963212944D+00
      0.9562500000D-01  0.4212356068D+00
      0.4136600000D-01  0.1437806489D+00
 P   1 1.00       0.000000000000
      0.2153507449D-01  0.1000000000D+01
 S   1 1.00       0.000000000000
      0.2561749000D+01  0.1000000000D+01
 S   1 1.00       0.000000000000
      0.1308885000D+01  0.1000000000D+01
 S   1 1.00       0.000000000000
      0.6687540000D+00  0.1000000000D+01
 S   1 1.00       0.000000000000
      0.3416900000D+00  0.1000000000D+01
 S   1 1.00       0.000000000000
      0.1745810000D+00  0.1000000000D+01
 P   1 1.00       0.000000000000
      0.1385238000D+01  0.1000000000D+01
 P   1 1.00       0.000000000000
      0.7869510000D+00  0.1000000000D+01
 P   1 1.00       0.000000000000
      0.4470660000D+00  0.1000000000D+01
 P   1 1.00       0.000000000000
      0.2539770000D+00  0.1000000000D+01
 P   1 1.00       0.000000000000
      0.1442840000D+00  0.1000000000D+01
 D   1 1.00       0.000000000000
      0.1559087000D+01  0.1000000000D+01
 D   1 1.00       0.000000000000
      0.7885540000D+00  0.1000000000D+01
 D   1 1.00       0.000000000000
      0.3988350000D+00  0.1000000000D+01
 D   1 1.00       0.000000000000
      0.2017220000D+00  0.1000000000D+01
 D   1 1.00       0.000000000000
      0.1020270000D+00  0.1000000000D+01
 F   1 1.00       0.000000000000
      0.8916250000D+00  0.1000000000D+01
 F   1 1.00       0.000000000000
      0.5070970000D+00  0.1000000000D+01
 F   1 1.00       0.000000000000
      0.2884030000D+00  0.1000000000D+01
 F   1 1.00       0.000000000000
      0.1640240000D+00  0.1000000000D+01
 G   1 1.00       0.000000000000
      0.9272770000D+00  0.1000000000D+01
 G   1 1.00       0.000000000000
      0.5014050000D+00  0.1000000000D+01
 G   1 1.00       0.000000000000
      0.2711240000D+00  0.1000000000D+01
 H   1 1.00       0.000000000000
      0.7790020000D+00  0.1000000000D+01
 H   1 1.00       0.000000000000
      0.4026120000D+00  0.1000000000D+01
 I   1 1.00       0.000000000000
      0.6578630345D+00  0.1000000000D+01
 ****

 There are    58 symmetry adapted basis functions of AG  symmetry.
 There are    23 symmetry adapted basis functions of B1G symmetry.
 There are    38 symmetry adapted basis functions of B2G symmetry.
 There are    38 symmetry adapted basis functions of B3G symmetry.
 There are    23 symmetry adapted basis functions of AU  symmetry.
 There are    58 symmetry adapted basis functions of B1U symmetry.
 There are    38 symmetry adapted basis functions of B2U symmetry.
 There are    38 symmetry adapted basis functions of B3U symmetry.
 Integral buffers will be    131072 words long.
 Raffenetti 2 integral format.
 Two-electron integral symmetry is turned on.
   314 basis functions,   912 primitive gaussians,   456 cartesian basis functions
    33 alpha electrons       31 beta electrons
       nuclear repulsion energy       214.6559426383 Hartrees.
 NAtoms=    2 NActive=    2 NUniq=    1 SFac= 3.00D+00 NAtFMM=   80 NAOKFM=F Big=F
 One-electron integrals computed using PRISM.
 NBasis=   314 RedAO= F  NBF=    58    23    38    38    23    58    38    38
 NBsUse=   314 1.00D-04 NBFU=    58    23    38    38    23    58    38    38
 Harris functional with IExCor=  205 diagonalized for initial guess.
 ExpMin= 2.15D-02 ExpMax= 4.12D+07 ExpMxC= 8.38D+03 IAcc=3 IRadAn=         5 AccDes= 0.00D+00
 HarFok:  IExCor=  205 AccDes= 0.00D+00 IRadAn=         5 IDoV= 1
 ScaDFX=  1.000000  1.000000  1.000000  1.000000
 FoFCou: FMM=F IPFlag=           0 FMFlag=      100000 FMFlg1=           0
         NFxFlg=           0 DoJE=T BraDBF=F KetDBF=T FulRan=T
         Omega=  0.000000  0.000000  1.000000  0.000000  0.000000 ICntrl=     500 IOpCl=  0
         NMat0=    1 NMatS0=    1 NMatT0=    0 NMatD0=    1 NMtDS0=    0 NMtDT0=    0
         I1Cent=           4 NGrid=           0.
 Petite list used in FoFCou.
 Initial guess orbital symmetries:
       Occupied  (SGU) (SGG) (SGU) (SGG) (SGU) (SGG) (PIG) (PIG)
                 (PIU) (PIU) (SGG) (SGU) (SGG) (SGU) (PIU) (PIU)
                 (PIG) (PIG) (SGG) (PIU) (PIU) (DLTG) (DLTG) (DLTU)
                 (DLTU) (PIG) (PIG) (SGU) (SGG) (SGU) (SGG) (PIU)
                 (PIU)
       Virtual   (PIG) (PIG) (SGU) (SGG) (PIU) (PIU) (SGG) (SGU)
                 (PIG) (PIG) (SGU) (DLTG) (DLTG) (PIU) (PIU) (SGG)
                 (DLTU) (DLTU) (PIU) (PIU) (SGU) (PIG) (PIG) (SGG)
                 (SGU) (PIG) (PIG) (SGG) (PHIU) (PHIU) (DLTG) (DLTG)
                 (PIU) (PIU) (PHIG) (PHIG) (SGU) (SGG) (DLTG) (DLTG)
                 (DLTU) (DLTU) (DLTU) (DLTU) (PIU) (PIU) (PIG)
                 (PIG) (SGG) (SGU) (PIU) (PIU) (PIG) (PIG) (SGU)
                 (PIG) (PIG) (SGG) (SGG) (SGU) (PHIU) (PHIU) (DLTG)
                 (DLTG) (?A) (?A) (PIU) (PIU) (PHIU) (PHIU) (?B)
                 (?B) (SGG) (PHIG) (PHIG) (DLTG) (DLTG) (DLTU)
                 (DLTU) (SGU) (PHIG) (PHIG) (PIU) (PIU) (PIG) (PIG)
                 (SGG) (DLTG) (DLTG) (SGU) (DLTU) (DLTU) (PIG)
                 (PIG) (PIU) (PIU) (SGU) (DLTU) (DLTU) (SGU) (SGG)
                 (PIU) (PIU) (PIG) (PIG) (SGG) (PIG) (PIG) (?A)
                 (?A) (PHIU) (PHIU) (?C) (?C) (?D) (?D) (DLTG)
                 (DLTG) (PIU) (PIU) (SGG) (?B) (?B) (SGU) (PHIU)
                 (PHIU) (DLTG) (DLTG) (PHIG) (PHIG) (DLTU) (DLTU)
                 (PHIG) (PHIG) (SGU) (PIG) (PIG) (SGG) (PHIU) (PHIU)
                 (?A) (?A) (PIU) (PIU) (?B) (?B) (DLTG) (DLTG)
                 (PHIG) (PHIG) (SGG) (SGU) (DLTU) (DLTU) (PIG)
                 (PIG) (PIU) (PIU) (SGU) (DLTU) (DLTU) (SGG) (DLTG)
                 (DLTG) (DLTU) (DLTU) (SGU) (PIG) (PIG) (PIU) (PIU)
                 (PIG) (PIG) (SGG) (PIU) (PIU) (SGU) (PIG) (PIG)
                 (SGG) (PHIU) (PHIU) (DLTG) (DLTG) (?A) (?A) (PIU)
                 (PIU) (?C) (?C) (?E) (?E) (?F) (?F) (?D) (?D)
                 (PHIU) (PHIU) (SGG) (PHIG) (PHIG) (?B) (?B) (DLTG)
                 (DLTG) (DLTU) (DLTU) (PIU) (PIU) (SGU) (PIG) (PIG)
                 (PHIG) (PHIG) (SGU) (SGG) (DLTU) (DLTU) (?A) (?A)
                 (?C) (?C) (?D) (?D) (PHIU) (PHIU) (?B) (?B) (PIG)
                 (PIG) (DLTG) (DLTG) (PHIG) (PHIG) (SGU) (PHIU)
                 (PHIU) (?A) (?A) (?B) (?B) (DLTG) (DLTG) (PHIG)
                 (PHIG) (SGG) (PIU) (PIU) (SGU) (DLTU) (DLTU) (PIG)
                 (PIG) (DLTU) (DLTU) (PIU) (PIU) (SGU) (SGG) (PIG)
                 (PIG) (DLTG) (DLTG) (DLTU) (DLTU) (PIU) (PIU)
                 (SGG) (PIG) (PIG) (SGU) (SGG) (PIU) (PIU) (SGU)
                 (PIG) (PIG) (SGU) (SGG) (SGG) (SGU)
 The electronic state of the initial guess is 3-SGG.
 Requested convergence on RMS density matrix=1.00D-10 within 128 cycles.
 Requested convergence on MAX density matrix=1.00D-08.
 Requested convergence on             energy=1.00D-08.
 No special actions if energy rises.
 Initial convergence to 1.0D-05 achieved.  Increase integral accuracy.
 SCF Done:  E(ROHF) =  -4150.76796732     A.U. after   19 cycles
             Convg  =    0.1080D-10             -V/T =  2.0000
 <Sx>= 0.0000 <Sy>= 0.0000 <Sz>= 1.0000 <S**2>= 2.0000 S= 1.0000
 <L.S>= 0.000000000000E+00
 Annihilation of the first spin contaminant:
 S**2 before annihilation     2.0000,   after     2.0000
 GenMOA:  NOpAll=  8 NOp2=8 NOpUse=  8 JSym2X=1
 <Sx>= 0.0000 <Sy>= 0.0000 <Sz>= 1.0000 <S**2>= 2.0000 S= 1.0000
 Range of M.O.s used for correlation:    29   314
 NBasis=   314 NAE=    33 NBE=    31 NFC=    28 NFV=     0
 NROrb=    286 NOA=     5 NOB=     3 NVA=   281 NVB=   283

 **** Warning!!: The largest alpha MO coefficient is  0.20396257D+03


 **** Warning!!: The largest beta MO coefficient is  0.20413692D+03

 Singles contribution to E2=   -0.1711529408D-02
 Disk-based method using OVN memory for  5 occupieds at a time.
 Permanent disk used for amplitudes and <ij||ab> integrals=     3411908 words.
 Estimated scratch disk usage=   196150025 words.
 IUseRI=2 ITolRI= 6 IR12RI=0
 Actual    scratch disk usage=   194043315 words.
 GetIJB would need an additional  1376715164 words of memory to use all   8 processors.
 JobTyp=2 Pass  1:  I=   1 to   5 NPSUse=  1 ParTrn=F ParDer=F DoDerP=F.
 (rs|ai) integrals will be sorted in core.
 T,EIJ(AA): I=   1 J=   2      0.3408712E-03     -0.7174858E-03
 T,EIJ(AA): I=   1 J=   3      0.4246946E-03     -0.9089575E-03
 T,EIJ(AA): I=   1 J=   4      0.9071053E-03     -0.1675132E-02
 T,EIJ(AA): I=   1 J=   5      0.9071053E-03     -0.1675132E-02
 T,EIJ(AA): I=   2 J=   3      0.1432645E-02     -0.2219439E-02
 T,EIJ(AA): I=   2 J=   4      0.2243167E-02     -0.2972335E-02
 T,EIJ(AA): I=   2 J=   5      0.2243167E-02     -0.2972335E-02
 T,EIJ(AA): I=   3 J=   4      0.5834461E-02     -0.6029953E-02
 T,EIJ(AA): I=   3 J=   5      0.5834461E-02     -0.6029953E-02
 T,EIJ(AA): I=   4 J=   5      0.9372665E-02     -0.7554958E-02
 T,EIJ(AB): I=   1 J=   1      0.3781995E-02     -0.9201644E-02
 T,EIJ(AB): I=   1 J=   2      0.2873515E-02     -0.5981500E-02
 T,EIJ(AB): I=   1 J=   3      0.2733916E-02     -0.6293672E-02
 T,EIJ(AB): I=   2 J=   1      0.4482956E-02     -0.7928727E-02
 T,EIJ(AB): I=   2 J=   2      0.7195695E-02     -0.1231088E-01
 T,EIJ(AB): I=   2 J=   3      0.5163954E-02     -0.8974924E-02
 T,EIJ(AB): I=   3 J=   1      0.4137750E-02     -0.7977882E-02
 T,EIJ(AB): I=   3 J=   2      0.6014659E-02     -0.9879576E-02
 T,EIJ(AB): I=   3 J=   3      0.1142097E-01     -0.1580843E-01
 T,EIJ(AB): I=   4 J=   1      0.4731106E-02     -0.8035800E-02
 T,EIJ(AB): I=   4 J=   2      0.4594617E-02     -0.7097853E-02
 T,EIJ(AB): I=   4 J=   3      0.7208431E-02     -0.8376767E-02
 T,EIJ(AB): I=   5 J=   1      0.4731106E-02     -0.8035800E-02
 T,EIJ(AB): I=   5 J=   2      0.4594617E-02     -0.7097853E-02
 T,EIJ(AB): I=   5 J=   3      0.7208431E-02     -0.8376767E-02
 Actual    scratch disk usage=   195389705 words.
 GetIJB would need an additional  1376708780 words of memory to use all   8 processors.
 JobTyp=3 Pass  1:  I=   1 to   3 NPSUse=  1 ParTrn=F ParDer=F DoDerP=F.
 (rs|ai) integrals will be sorted in core.
 T,EIJ(BB): I=   1 J=   2      0.5933736E-03     -0.1003900E-02
 T,EIJ(BB): I=   1 J=   3      0.9513349E-03     -0.1600776E-02
 T,EIJ(BB): I=   2 J=   3      0.1618272E-02     -0.2453246E-02
 Spin components of T(2) and E(2):
     alpha-alpha T2 =       0.2954034284D-01 E2=     -0.3275567933D-01
     alpha-beta  T2 =       0.8087372296D-01 E2=     -0.1313780755D+00
     beta-beta   T2 =       0.3162979985D-02 E2=     -0.5057922520D-02
 ANorm=    0.1056159492D+01
 E2 =    -0.1709032067D+00 EUMP2 =    -0.41509388705269D+04

 Complete Basis Set (CBS) Extrapolation:
 M. R. Nyden and G. A. Petersson, JCP 75, 1843 (1981)
 G. A. Petersson and M. A. Al-Laham, JCP 94, 6081 (1991)
 G. A. Petersson, T. Tensfeldt, and J. A. Montgomery, JCP 94, 6091 (1991)
 J. A. Montgomery, J. W. Ochterski, and G. A. Petersson, JCP 101, 5900 (1994)
 
 Minimum Number of PNO for Extrapolation =  20
 Absolute Overlaps: IRadAn =         5
 LocTrn: ILocal=3 LocCor=F DoCore=F.
 Entering OneElI...
 Overlap between basis sets.
 Requested accuracy = 0.1000D-12
 PrsmSu:  NPrtUS=   1 ThrOK=F IAlg=1
 PRISM was handed  1610178883 working-precision words and   136 shell-pairs
 IPart=  0 NShTot=         136 NBatch=          15 AvBLen=         9.1
 CnvPC2: ToCart=F DoDens=F IPureD=0 IPureF=0.
 Transformed matrix in CnvPC2: 
                 1             2             3             4             5 
      1   0.100000D+01  0.402055D+00  0.000000D+00  0.000000D+00  0.000000D+00
      2   0.402055D+00  0.100000D+01  0.000000D+00  0.000000D+00  0.000000D+00
      3   0.000000D+00  0.000000D+00  0.100000D+01  0.000000D+00  0.000000D+00
      4   0.000000D+00  0.000000D+00  0.000000D+00  0.100000D+01  0.000000D+00
      5   0.000000D+00  0.000000D+00  0.000000D+00  0.000000D+00  0.100000D+01
      6   0.277653D-01  0.326539D+00  0.000000D+00  0.000000D+00  0.000000D+00
      7   0.000000D+00  0.000000D+00  0.339478D+00  0.000000D+00  0.000000D+00
      8   0.000000D+00  0.000000D+00  0.000000D+00  0.339478D+00  0.000000D+00
      9   0.000000D+00  0.000000D+00  0.000000D+00  0.000000D+00  0.339478D+00
     10   0.000000D+00  0.000000D+00  0.000000D+00  0.000000D+00  0.000000D+00
     11   0.000000D+00  0.000000D+00  0.000000D+00  0.000000D+00  0.000000D+00
     12   0.000000D+00  0.000000D+00  0.000000D+00  0.000000D+00  0.000000D+00
     13   0.000000D+00  0.000000D+00  0.000000D+00  0.000000D+00  0.000000D+00
     14   0.000000D+00  0.000000D+00  0.000000D+00  0.000000D+00  0.000000D+00
     15  -0.375498D-03  0.437680D-02  0.000000D+00  0.000000D+00  0.000000D+00
     16   0.000000D+00  0.000000D+00  0.122886D-01  0.000000D+00  0.000000D+00
     17   0.000000D+00  0.000000D+00  0.000000D+00  0.122886D-01  0.000000D+00
     18   0.000000D+00  0.000000D+00  0.000000D+00  0.000000D+00  0.122886D-01
     19   0.000000D+00  0.000000D+00  0.000000D+00  0.000000D+00  0.000000D+00
     20   0.000000D+00  0.000000D+00  0.000000D+00  0.000000D+00  0.000000D+00
     21   0.000000D+00  0.000000D+00  0.000000D+00  0.000000D+00  0.000000D+00
     22   0.000000D+00  0.000000D+00  0.000000D+00  0.000000D+00  0.000000D+00
     23   0.000000D+00  0.000000D+00  0.000000D+00  0.000000D+00  0.000000D+00
     24   0.000000D+00  0.000000D+00  0.000000D+00  0.000000D+00  0.000000D+00
     25   0.000000D+00  0.000000D+00  0.000000D+00  0.000000D+00  0.000000D+00
     26   0.000000D+00  0.000000D+00  0.000000D+00  0.000000D+00  0.000000D+00
     27   0.000000D+00  0.000000D+00  0.000000D+00  0.000000D+00  0.000000D+00
     28   0.000000D+00  0.000000D+00  0.000000D+00  0.000000D+00  0.000000D+00
     29   0.000000D+00  0.000000D+00  0.000000D+00  0.000000D+00  0.000000D+00
     30   0.000000D+00  0.000000D+00  0.000000D+00  0.000000D+00  0.000000D+00
     31   0.000000D+00  0.000000D+00  0.000000D+00  0.000000D+00  0.000000D+00
     32   0.000000D+00  0.000000D+00  0.000000D+00  0.000000D+00  0.000000D+00
     33   0.000000D+00  0.000000D+00  0.000000D+00  0.000000D+00  0.000000D+00
     34   0.000000D+00  0.000000D+00  0.000000D+00  0.000000D+00  0.000000D+00
     35   0.000000D+00  0.000000D+00  0.000000D+00  0.000000D+00  0.000000D+00
     36   0.000000D+00  0.000000D+00  0.000000D+00  0.000000D+00  0.000000D+00
     37   0.000000D+00  0.000000D+00  0.000000D+00  0.000000D+00  0.000000D+00
     38   0.414408D-03  0.259218D-02  0.000000D+00  0.000000D+00 -0.679358D-03
     39   0.000000D+00  0.000000D+00  0.178062D-03  0.000000D+00  0.000000D+00
     40   0.000000D+00  0.000000D+00  0.000000D+00  0.178062D-03  0.000000D+00
     41   0.791530D-03  0.492106D-02  0.000000D+00  0.000000D+00 -0.116083D-02
     42   0.275559D-02  0.169573D-01  0.000000D+00  0.000000D+00 -0.347652D-02
     43   0.000000D+00  0.000000D+00  0.106378D-02  0.000000D+00  0.000000D+00
     44   0.000000D+00  0.000000D+00  0.000000D+00  0.106378D-02  0.000000D+00
     45   0.000000D+00  0.000000D+00  0.000000D+00  0.000000D+00  0.000000D+00
     46   0.000000D+00  0.000000D+00  0.000000D+00  0.000000D+00  0.000000D+00
                 6             7             8             9            10 
      1   0.277653D-01  0.000000D+00  0.000000D+00  0.000000D+00  0.000000D+00
      2   0.326539D+00  0.000000D+00  0.000000D+00  0.000000D+00  0.000000D+00
      3   0.000000D+00  0.339478D+00  0.000000D+00  0.000000D+00  0.000000D+00
      4   0.000000D+00  0.000000D+00  0.339478D+00  0.000000D+00  0.000000D+00
      5   0.000000D+00  0.000000D+00  0.000000D+00  0.339478D+00  0.000000D+00
      6   0.100000D+01  0.000000D+00  0.000000D+00  0.000000D+00  0.000000D+00
      7   0.000000D+00  0.100000D+01  0.000000D+00  0.000000D+00  0.000000D+00
      8   0.000000D+00  0.000000D+00  0.100000D+01  0.000000D+00  0.000000D+00
      9   0.000000D+00  0.000000D+00  0.000000D+00  0.100000D+01  0.000000D+00
     10   0.000000D+00  0.000000D+00  0.000000D+00  0.000000D+00  0.100000D+01
     11   0.000000D+00  0.000000D+00  0.000000D+00  0.000000D+00  0.000000D+00
     12   0.000000D+00  0.000000D+00  0.000000D+00  0.000000D+00  0.000000D+00
     13   0.000000D+00  0.000000D+00  0.000000D+00  0.000000D+00  0.000000D+00
     14   0.000000D+00  0.000000D+00  0.000000D+00  0.000000D+00  0.000000D+00
     15   0.194461D+00  0.000000D+00  0.000000D+00  0.000000D+00  0.000000D+00
     16   0.000000D+00  0.211028D+00  0.000000D+00  0.000000D+00  0.000000D+00
     17   0.000000D+00  0.000000D+00  0.211028D+00  0.000000D+00  0.000000D+00
     18   0.000000D+00  0.000000D+00  0.000000D+00  0.211028D+00  0.000000D+00
     19   0.000000D+00  0.000000D+00  0.000000D+00  0.000000D+00  0.658109D-01
     20   0.000000D+00  0.000000D+00  0.000000D+00  0.000000D+00  0.000000D+00
     21   0.000000D+00  0.000000D+00  0.000000D+00  0.000000D+00  0.000000D+00
     22   0.000000D+00  0.000000D+00  0.000000D+00  0.000000D+00  0.000000D+00
     23   0.000000D+00  0.000000D+00  0.000000D+00  0.000000D+00  0.000000D+00
     24   0.000000D+00  0.000000D+00  0.000000D+00  0.000000D+00  0.000000D+00
     25   0.000000D+00  0.000000D+00  0.000000D+00  0.000000D+00  0.000000D+00
     26   0.000000D+00  0.000000D+00  0.000000D+00  0.000000D+00  0.000000D+00
     27   0.000000D+00  0.000000D+00  0.000000D+00  0.000000D+00  0.000000D+00
     28   0.000000D+00  0.000000D+00  0.000000D+00  0.000000D+00  0.000000D+00
     29   0.000000D+00  0.000000D+00  0.000000D+00  0.000000D+00  0.000000D+00
     30   0.000000D+00  0.000000D+00  0.000000D+00  0.000000D+00  0.000000D+00
     31   0.000000D+00  0.000000D+00  0.000000D+00  0.000000D+00  0.000000D+00
     32   0.000000D+00  0.000000D+00  0.000000D+00  0.000000D+00  0.000000D+00
     33   0.000000D+00  0.000000D+00  0.000000D+00  0.000000D+00  0.000000D+00
     34   0.000000D+00  0.000000D+00  0.000000D+00  0.000000D+00  0.000000D+00
     35   0.000000D+00  0.000000D+00  0.000000D+00  0.000000D+00  0.000000D+00
     36   0.000000D+00  0.000000D+00  0.000000D+00  0.000000D+00  0.000000D+00
     37   0.000000D+00  0.000000D+00  0.000000D+00  0.000000D+00  0.000000D+00
     38   0.166892D-01  0.000000D+00  0.000000D+00 -0.121004D-01  0.483186D-02
     39   0.000000D+00  0.326399D-02  0.000000D+00  0.000000D+00  0.000000D+00
     40   0.000000D+00  0.000000D+00  0.326399D-02  0.000000D+00  0.000000D+00
     41   0.302845D-01  0.000000D+00  0.000000D+00 -0.201964D-01  0.771491D-02
     42   0.946274D-01  0.000000D+00  0.000000D+00 -0.531731D-01  0.156207D-01
     43   0.000000D+00  0.179359D-01  0.000000D+00  0.000000D+00  0.000000D+00
     44   0.000000D+00  0.000000D+00  0.179359D-01  0.000000D+00  0.000000D+00
     45   0.000000D+00  0.000000D+00  0.000000D+00  0.000000D+00  0.000000D+00
     46   0.000000D+00  0.000000D+00  0.000000D+00  0.000000D+00  0.000000D+00
                11            12            13            14            15 
      1   0.000000D+00  0.000000D+00  0.000000D+00  0.000000D+00 -0.375498D-03
      2   0.000000D+00  0.000000D+00  0.000000D+00  0.000000D+00  0.437680D-02
      3   0.000000D+00  0.000000D+00  0.000000D+00  0.000000D+00  0.000000D+00
      4   0.000000D+00  0.000000D+00  0.000000D+00  0.000000D+00  0.000000D+00
      5   0.000000D+00  0.000000D+00  0.000000D+00  0.000000D+00  0.000000D+00
      6   0.000000D+00  0.000000D+00  0.000000D+00  0.000000D+00  0.194461D+00
      7   0.000000D+00  0.000000D+00  0.000000D+00  0.000000D+00  0.000000D+00
      8   0.000000D+00  0.000000D+00  0.000000D+00  0.000000D+00  0.000000D+00
      9   0.000000D+00  0.000000D+00  0.000000D+00  0.000000D+00  0.000000D+00
     10   0.000000D+00  0.000000D+00  0.000000D+00  0.000000D+00  0.000000D+00
     11   0.100000D+01  0.000000D+00  0.000000D+00  0.000000D+00  0.000000D+00
     12   0.000000D+00  0.100000D+01  0.000000D+00  0.000000D+00  0.000000D+00
     13   0.000000D+00  0.000000D+00  0.100000D+01  0.000000D+00  0.000000D+00
     14   0.000000D+00  0.000000D+00  0.000000D+00  0.100000D+01  0.000000D+00
     15   0.000000D+00  0.000000D+00  0.000000D+00  0.000000D+00  0.100000D+01
     16   0.000000D+00  0.000000D+00  0.000000D+00  0.000000D+00  0.000000D+00
     17   0.000000D+00  0.000000D+00  0.000000D+00  0.000000D+00  0.000000D+00
     18   0.000000D+00  0.000000D+00  0.000000D+00  0.000000D+00  0.000000D+00
     19   0.000000D+00  0.000000D+00  0.000000D+00  0.000000D+00  0.000000D+00
     20   0.658109D-01  0.000000D+00  0.000000D+00  0.000000D+00  0.000000D+00
     21   0.000000D+00  0.658109D-01  0.000000D+00  0.000000D+00  0.000000D+00
     22   0.000000D+00  0.000000D+00  0.658109D-01  0.000000D+00  0.000000D+00
     23   0.000000D+00  0.000000D+00  0.000000D+00  0.658109D-01  0.000000D+00
     24   0.000000D+00  0.000000D+00  0.000000D+00  0.000000D+00  0.414408D-03
     25   0.000000D+00  0.000000D+00  0.000000D+00  0.000000D+00  0.259218D-02
     26   0.000000D+00  0.000000D+00  0.000000D+00  0.000000D+00  0.000000D+00
     27   0.000000D+00  0.000000D+00  0.000000D+00  0.000000D+00  0.000000D+00
     28   0.000000D+00  0.000000D+00  0.000000D+00  0.000000D+00  0.679358D-03
     29   0.000000D+00  0.000000D+00  0.000000D+00  0.000000D+00  0.166892D-01
     30   0.000000D+00  0.000000D+00  0.000000D+00  0.000000D+00  0.000000D+00
     31   0.000000D+00  0.000000D+00  0.000000D+00  0.000000D+00  0.000000D+00
     32   0.000000D+00  0.000000D+00  0.000000D+00  0.000000D+00  0.121004D-01
     33   0.000000D+00  0.000000D+00  0.000000D+00  0.000000D+00  0.483186D-02
     34   0.000000D+00  0.000000D+00  0.000000D+00  0.000000D+00  0.000000D+00
     35   0.000000D+00  0.000000D+00  0.000000D+00  0.000000D+00  0.000000D+00
     36   0.000000D+00  0.000000D+00  0.000000D+00  0.000000D+00  0.000000D+00
     37   0.000000D+00  0.000000D+00  0.000000D+00  0.000000D+00  0.000000D+00
     38   0.000000D+00  0.000000D+00  0.000000D+00  0.000000D+00  0.191243D+00
     39  -0.238846D-02  0.000000D+00  0.000000D+00  0.000000D+00  0.000000D+00
     40   0.000000D+00 -0.238846D-02  0.000000D+00  0.000000D+00  0.000000D+00
     41   0.000000D+00  0.000000D+00  0.000000D+00  0.000000D+00  0.253530D+00
     42   0.000000D+00  0.000000D+00  0.000000D+00  0.000000D+00  0.324991D+00
     43  -0.112588D-01  0.000000D+00  0.000000D+00  0.000000D+00  0.000000D+00
     44   0.000000D+00 -0.112588D-01  0.000000D+00  0.000000D+00  0.000000D+00
     45   0.000000D+00  0.000000D+00  0.182900D-02  0.000000D+00  0.000000D+00
     46   0.000000D+00  0.000000D+00  0.000000D+00  0.182900D-02  0.000000D+00
                16            17            18            19            20 
      1   0.000000D+00  0.000000D+00  0.000000D+00  0.000000D+00  0.000000D+00
      2   0.000000D+00  0.000000D+00  0.000000D+00  0.000000D+00  0.000000D+00
      3   0.122886D-01  0.000000D+00  0.000000D+00  0.000000D+00  0.000000D+00
      4   0.000000D+00  0.122886D-01  0.000000D+00  0.000000D+00  0.000000D+00
      5   0.000000D+00  0.000000D+00  0.122886D-01  0.000000D+00  0.000000D+00
      6   0.000000D+00  0.000000D+00  0.000000D+00  0.000000D+00  0.000000D+00
      7   0.211028D+00  0.000000D+00  0.000000D+00  0.000000D+00  0.000000D+00
      8   0.000000D+00  0.211028D+00  0.000000D+00  0.000000D+00  0.000000D+00
      9   0.000000D+00  0.000000D+00  0.211028D+00  0.000000D+00  0.000000D+00
     10   0.000000D+00  0.000000D+00  0.000000D+00  0.658109D-01  0.000000D+00
     11   0.000000D+00  0.000000D+00  0.000000D+00  0.000000D+00  0.658109D-01
     12   0.000000D+00  0.000000D+00  0.000000D+00  0.000000D+00  0.000000D+00
     13   0.000000D+00  0.000000D+00  0.000000D+00  0.000000D+00  0.000000D+00
     14   0.000000D+00  0.000000D+00  0.000000D+00  0.000000D+00  0.000000D+00
     15   0.000000D+00  0.000000D+00  0.000000D+00  0.000000D+00  0.000000D+00
     16   0.100000D+01  0.000000D+00  0.000000D+00  0.000000D+00  0.000000D+00
     17   0.000000D+00  0.100000D+01  0.000000D+00  0.000000D+00  0.000000D+00
     18   0.000000D+00  0.000000D+00  0.100000D+01  0.000000D+00  0.000000D+00
     19   0.000000D+00  0.000000D+00  0.000000D+00  0.100000D+01  0.000000D+00
     20   0.000000D+00  0.000000D+00  0.000000D+00  0.000000D+00  0.100000D+01
     21   0.000000D+00  0.000000D+00  0.000000D+00  0.000000D+00  0.000000D+00
     22   0.000000D+00  0.000000D+00  0.000000D+00  0.000000D+00  0.000000D+00
     23   0.000000D+00  0.000000D+00  0.000000D+00  0.000000D+00  0.000000D+00
     24   0.000000D+00  0.000000D+00 -0.791530D-03  0.275559D-02  0.000000D+00
     25   0.000000D+00  0.000000D+00 -0.492106D-02  0.169573D-01  0.000000D+00
     26   0.178062D-03  0.000000D+00  0.000000D+00  0.000000D+00 -0.106378D-02
     27   0.000000D+00  0.178062D-03  0.000000D+00  0.000000D+00  0.000000D+00
     28   0.000000D+00  0.000000D+00 -0.116083D-02  0.347652D-02  0.000000D+00
     29   0.000000D+00  0.000000D+00 -0.302845D-01  0.946274D-01  0.000000D+00
     30   0.326399D-02  0.000000D+00  0.000000D+00  0.000000D+00 -0.179359D-01
     31   0.000000D+00  0.326399D-02  0.000000D+00  0.000000D+00  0.000000D+00
     32   0.000000D+00  0.000000D+00 -0.201964D-01  0.531731D-01  0.000000D+00
     33   0.000000D+00  0.000000D+00 -0.771491D-02  0.156207D-01  0.000000D+00
     34   0.238846D-02  0.000000D+00  0.000000D+00  0.000000D+00 -0.112588D-01
     35   0.000000D+00  0.238846D-02  0.000000D+00  0.000000D+00  0.000000D+00
     36   0.000000D+00  0.000000D+00  0.000000D+00  0.000000D+00  0.000000D+00
     37   0.000000D+00  0.000000D+00  0.000000D+00  0.000000D+00  0.000000D+00
     38   0.000000D+00  0.000000D+00 -0.253530D+00  0.324991D+00  0.000000D+00
     39   0.918417D-01  0.000000D+00  0.000000D+00  0.000000D+00 -0.245842D+00
     40   0.000000D+00  0.918417D-01  0.000000D+00  0.000000D+00  0.000000D+00
     41   0.000000D+00  0.000000D+00 -0.317384D+00  0.319682D+00  0.000000D+00
     42   0.000000D+00  0.000000D+00 -0.319682D+00  0.120046D+00  0.000000D+00
     43   0.245842D+00  0.000000D+00  0.000000D+00  0.000000D+00 -0.414580D+00
     44   0.000000D+00  0.245842D+00  0.000000D+00  0.000000D+00  0.000000D+00
     45   0.000000D+00  0.000000D+00  0.000000D+00  0.000000D+00  0.000000D+00
     46   0.000000D+00  0.000000D+00  0.000000D+00  0.000000D+00  0.000000D+00
                21            22            23            24            25 
      1   0.000000D+00  0.000000D+00  0.000000D+00  0.000000D+00  0.000000D+00
      2   0.000000D+00  0.000000D+00  0.000000D+00  0.000000D+00  0.000000D+00
      3   0.000000D+00  0.000000D+00  0.000000D+00  0.000000D+00  0.000000D+00
      4   0.000000D+00  0.000000D+00  0.000000D+00  0.000000D+00  0.000000D+00
      5   0.000000D+00  0.000000D+00  0.000000D+00  0.000000D+00  0.000000D+00
      6   0.000000D+00  0.000000D+00  0.000000D+00  0.000000D+00  0.000000D+00
      7   0.000000D+00  0.000000D+00  0.000000D+00  0.000000D+00  0.000000D+00
      8   0.000000D+00  0.000000D+00  0.000000D+00  0.000000D+00  0.000000D+00
      9   0.000000D+00  0.000000D+00  0.000000D+00  0.000000D+00  0.000000D+00
     10   0.000000D+00  0.000000D+00  0.000000D+00  0.000000D+00  0.000000D+00
     11   0.000000D+00  0.000000D+00  0.000000D+00  0.000000D+00  0.000000D+00
     12   0.658109D-01  0.000000D+00  0.000000D+00  0.000000D+00  0.000000D+00
     13   0.000000D+00  0.658109D-01  0.000000D+00  0.000000D+00  0.000000D+00
     14   0.000000D+00  0.000000D+00  0.658109D-01  0.000000D+00  0.000000D+00
     15   0.000000D+00  0.000000D+00  0.000000D+00  0.414408D-03  0.259218D-02
     16   0.000000D+00  0.000000D+00  0.000000D+00  0.000000D+00  0.000000D+00
     17   0.000000D+00  0.000000D+00  0.000000D+00  0.000000D+00  0.000000D+00
     18   0.000000D+00  0.000000D+00  0.000000D+00 -0.791530D-03 -0.492106D-02
     19   0.000000D+00  0.000000D+00  0.000000D+00  0.275559D-02  0.169573D-01
     20   0.000000D+00  0.000000D+00  0.000000D+00  0.000000D+00  0.000000D+00
     21   0.100000D+01  0.000000D+00  0.000000D+00  0.000000D+00  0.000000D+00
     22   0.000000D+00  0.100000D+01  0.000000D+00  0.000000D+00  0.000000D+00
     23   0.000000D+00  0.000000D+00  0.100000D+01  0.000000D+00  0.000000D+00
     24   0.000000D+00  0.000000D+00  0.000000D+00  0.100000D+01  0.402055D+00
     25   0.000000D+00  0.000000D+00  0.000000D+00  0.402055D+00  0.100000D+01
     26   0.000000D+00  0.000000D+00  0.000000D+00  0.000000D+00  0.000000D+00
     27  -0.106378D-02  0.000000D+00  0.000000D+00  0.000000D+00  0.000000D+00
     28   0.000000D+00  0.000000D+00  0.000000D+00  0.000000D+00  0.000000D+00
     29   0.000000D+00  0.000000D+00  0.000000D+00  0.277653D-01  0.326539D+00
     30   0.000000D+00  0.000000D+00  0.000000D+00  0.000000D+00  0.000000D+00
     31  -0.179359D-01  0.000000D+00  0.000000D+00  0.000000D+00  0.000000D+00
     32   0.000000D+00  0.000000D+00  0.000000D+00  0.000000D+00  0.000000D+00
     33   0.000000D+00  0.000000D+00  0.000000D+00  0.000000D+00  0.000000D+00
     34   0.000000D+00  0.000000D+00  0.000000D+00  0.000000D+00  0.000000D+00
     35  -0.112588D-01  0.000000D+00  0.000000D+00  0.000000D+00  0.000000D+00
     36   0.000000D+00  0.182900D-02  0.000000D+00  0.000000D+00  0.000000D+00
     37   0.000000D+00  0.000000D+00  0.182900D-02  0.000000D+00  0.000000D+00
     38   0.000000D+00  0.000000D+00  0.000000D+00 -0.375498D-03  0.437680D-02
     39   0.000000D+00  0.000000D+00  0.000000D+00  0.000000D+00  0.000000D+00
     40  -0.245842D+00  0.000000D+00  0.000000D+00  0.000000D+00  0.000000D+00
     41   0.000000D+00  0.000000D+00  0.000000D+00  0.000000D+00  0.000000D+00
     42   0.000000D+00  0.000000D+00  0.000000D+00  0.000000D+00  0.000000D+00
     43   0.000000D+00  0.000000D+00  0.000000D+00  0.000000D+00  0.000000D+00
     44  -0.414580D+00  0.000000D+00  0.000000D+00  0.000000D+00  0.000000D+00
     45   0.000000D+00  0.144519D+00  0.000000D+00  0.000000D+00  0.000000D+00
     46   0.000000D+00  0.000000D+00  0.144519D+00  0.000000D+00  0.000000D+00
                26            27            28            29            30 
      1   0.000000D+00  0.000000D+00  0.000000D+00  0.000000D+00  0.000000D+00
      2   0.000000D+00  0.000000D+00  0.000000D+00  0.000000D+00  0.000000D+00
      3   0.000000D+00  0.000000D+00  0.000000D+00  0.000000D+00  0.000000D+00
      4   0.000000D+00  0.000000D+00  0.000000D+00  0.000000D+00  0.000000D+00
      5   0.000000D+00  0.000000D+00  0.000000D+00  0.000000D+00  0.000000D+00
      6   0.000000D+00  0.000000D+00  0.000000D+00  0.000000D+00  0.000000D+00
      7   0.000000D+00  0.000000D+00  0.000000D+00  0.000000D+00  0.000000D+00
      8   0.000000D+00  0.000000D+00  0.000000D+00  0.000000D+00  0.000000D+00
      9   0.000000D+00  0.000000D+00  0.000000D+00  0.000000D+00  0.000000D+00
     10   0.000000D+00  0.000000D+00  0.000000D+00  0.000000D+00  0.000000D+00
     11   0.000000D+00  0.000000D+00  0.000000D+00  0.000000D+00  0.000000D+00
     12   0.000000D+00  0.000000D+00  0.000000D+00  0.000000D+00  0.000000D+00
     13   0.000000D+00  0.000000D+00  0.000000D+00  0.000000D+00  0.000000D+00
     14   0.000000D+00  0.000000D+00  0.000000D+00  0.000000D+00  0.000000D+00
     15   0.000000D+00  0.000000D+00  0.679358D-03  0.166892D-01  0.000000D+00
     16   0.178062D-03  0.000000D+00  0.000000D+00  0.000000D+00  0.326399D-02
     17   0.000000D+00  0.178062D-03  0.000000D+00  0.000000D+00  0.000000D+00
     18   0.000000D+00  0.000000D+00 -0.116083D-02 -0.302845D-01  0.000000D+00
     19   0.000000D+00  0.000000D+00  0.347652D-02  0.946274D-01  0.000000D+00
     20  -0.106378D-02  0.000000D+00  0.000000D+00  0.000000D+00 -0.179359D-01
     21   0.000000D+00 -0.106378D-02  0.000000D+00  0.000000D+00  0.000000D+00
     22   0.000000D+00  0.000000D+00  0.000000D+00  0.000000D+00  0.000000D+00
     23   0.000000D+00  0.000000D+00  0.000000D+00  0.000000D+00  0.000000D+00
     24   0.000000D+00  0.000000D+00  0.000000D+00  0.277653D-01  0.000000D+00
     25   0.000000D+00  0.000000D+00  0.000000D+00  0.326539D+00  0.000000D+00
     26   0.100000D+01  0.000000D+00  0.000000D+00  0.000000D+00  0.339478D+00
     27   0.000000D+00  0.100000D+01  0.000000D+00  0.000000D+00  0.000000D+00
     28   0.000000D+00  0.000000D+00  0.100000D+01  0.000000D+00  0.000000D+00
     29   0.000000D+00  0.000000D+00  0.000000D+00  0.100000D+01  0.000000D+00
     30   0.339478D+00  0.000000D+00  0.000000D+00  0.000000D+00  0.100000D+01
     31   0.000000D+00  0.339478D+00  0.000000D+00  0.000000D+00  0.000000D+00
     32   0.000000D+00  0.000000D+00  0.339478D+00  0.000000D+00  0.000000D+00
     33   0.000000D+00  0.000000D+00  0.000000D+00  0.000000D+00  0.000000D+00
     34   0.000000D+00  0.000000D+00  0.000000D+00  0.000000D+00  0.000000D+00
     35   0.000000D+00  0.000000D+00  0.000000D+00  0.000000D+00  0.000000D+00
     36   0.000000D+00  0.000000D+00  0.000000D+00  0.000000D+00  0.000000D+00
     37   0.000000D+00  0.000000D+00  0.000000D+00  0.000000D+00  0.000000D+00
     38   0.000000D+00  0.000000D+00  0.000000D+00  0.194461D+00  0.000000D+00
     39   0.122886D-01  0.000000D+00  0.000000D+00  0.000000D+00  0.211028D+00
     40   0.000000D+00  0.122886D-01  0.000000D+00  0.000000D+00  0.000000D+00
     41   0.000000D+00  0.000000D+00  0.122886D-01  0.000000D+00  0.000000D+00
     42   0.000000D+00  0.000000D+00  0.000000D+00  0.000000D+00  0.000000D+00
     43   0.000000D+00  0.000000D+00  0.000000D+00  0.000000D+00  0.000000D+00
     44   0.000000D+00  0.000000D+00  0.000000D+00  0.000000D+00  0.000000D+00
     45   0.000000D+00  0.000000D+00  0.000000D+00  0.000000D+00  0.000000D+00
     46   0.000000D+00  0.000000D+00  0.000000D+00  0.000000D+00  0.000000D+00
                31            32            33            34            35 
      1   0.000000D+00  0.000000D+00  0.000000D+00  0.000000D+00  0.000000D+00
      2   0.000000D+00  0.000000D+00  0.000000D+00  0.000000D+00  0.000000D+00
      3   0.000000D+00  0.000000D+00  0.000000D+00  0.000000D+00  0.000000D+00
      4   0.000000D+00  0.000000D+00  0.000000D+00  0.000000D+00  0.000000D+00
      5   0.000000D+00  0.000000D+00  0.000000D+00  0.000000D+00  0.000000D+00
      6   0.000000D+00  0.000000D+00  0.000000D+00  0.000000D+00  0.000000D+00
      7   0.000000D+00  0.000000D+00  0.000000D+00  0.000000D+00  0.000000D+00
      8   0.000000D+00  0.000000D+00  0.000000D+00  0.000000D+00  0.000000D+00
      9   0.000000D+00  0.000000D+00  0.000000D+00  0.000000D+00  0.000000D+00
     10   0.000000D+00  0.000000D+00  0.000000D+00  0.000000D+00  0.000000D+00
     11   0.000000D+00  0.000000D+00  0.000000D+00  0.000000D+00  0.000000D+00
     12   0.000000D+00  0.000000D+00  0.000000D+00  0.000000D+00  0.000000D+00
     13   0.000000D+00  0.000000D+00  0.000000D+00  0.000000D+00  0.000000D+00
     14   0.000000D+00  0.000000D+00  0.000000D+00  0.000000D+00  0.000000D+00
     15   0.000000D+00  0.121004D-01  0.483186D-02  0.000000D+00  0.000000D+00
     16   0.000000D+00  0.000000D+00  0.000000D+00  0.238846D-02  0.000000D+00
     17   0.326399D-02  0.000000D+00  0.000000D+00  0.000000D+00  0.238846D-02
     18   0.000000D+00 -0.201964D-01 -0.771491D-02  0.000000D+00  0.000000D+00
     19   0.000000D+00  0.531731D-01  0.156207D-01  0.000000D+00  0.000000D+00
     20   0.000000D+00  0.000000D+00  0.000000D+00 -0.112588D-01  0.000000D+00
     21  -0.179359D-01  0.000000D+00  0.000000D+00  0.000000D+00 -0.112588D-01
     22   0.000000D+00  0.000000D+00  0.000000D+00  0.000000D+00  0.000000D+00
     23   0.000000D+00  0.000000D+00  0.000000D+00  0.000000D+00  0.000000D+00
     24   0.000000D+00  0.000000D+00  0.000000D+00  0.000000D+00  0.000000D+00
     25   0.000000D+00  0.000000D+00  0.000000D+00  0.000000D+00  0.000000D+00
     26   0.000000D+00  0.000000D+00  0.000000D+00  0.000000D+00  0.000000D+00
     27   0.339478D+00  0.000000D+00  0.000000D+00  0.000000D+00  0.000000D+00
     28   0.000000D+00  0.339478D+00  0.000000D+00  0.000000D+00  0.000000D+00
     29   0.000000D+00  0.000000D+00  0.000000D+00  0.000000D+00  0.000000D+00
     30   0.000000D+00  0.000000D+00  0.000000D+00  0.000000D+00  0.000000D+00
     31   0.100000D+01  0.000000D+00  0.000000D+00  0.000000D+00  0.000000D+00
     32   0.000000D+00  0.100000D+01  0.000000D+00  0.000000D+00  0.000000D+00
     33   0.000000D+00  0.000000D+00  0.100000D+01  0.000000D+00  0.000000D+00
     34   0.000000D+00  0.000000D+00  0.000000D+00  0.100000D+01  0.000000D+00
     35   0.000000D+00  0.000000D+00  0.000000D+00  0.000000D+00  0.100000D+01
     36   0.000000D+00  0.000000D+00  0.000000D+00  0.000000D+00  0.000000D+00
     37   0.000000D+00  0.000000D+00  0.000000D+00  0.000000D+00  0.000000D+00
     38   0.000000D+00  0.000000D+00  0.000000D+00  0.000000D+00  0.000000D+00
     39   0.000000D+00  0.000000D+00  0.000000D+00  0.000000D+00  0.000000D+00
     40   0.211028D+00  0.000000D+00  0.000000D+00  0.000000D+00  0.000000D+00
     41   0.000000D+00  0.211028D+00  0.000000D+00  0.000000D+00  0.000000D+00
     42   0.000000D+00  0.000000D+00  0.658109D-01  0.000000D+00  0.000000D+00
     43   0.000000D+00  0.000000D+00  0.000000D+00  0.658109D-01  0.000000D+00
     44   0.000000D+00  0.000000D+00  0.000000D+00  0.000000D+00  0.658109D-01
     45   0.000000D+00  0.000000D+00  0.000000D+00  0.000000D+00  0.000000D+00
     46   0.000000D+00  0.000000D+00  0.000000D+00  0.000000D+00  0.000000D+00
                36            37            38            39            40 
      1   0.000000D+00  0.000000D+00  0.414408D-03  0.000000D+00  0.000000D+00
      2   0.000000D+00  0.000000D+00  0.259218D-02  0.000000D+00  0.000000D+00
      3   0.000000D+00  0.000000D+00  0.000000D+00  0.178062D-03  0.000000D+00
      4   0.000000D+00  0.000000D+00  0.000000D+00  0.000000D+00  0.178062D-03
      5   0.000000D+00  0.000000D+00 -0.679358D-03  0.000000D+00  0.000000D+00
      6   0.000000D+00  0.000000D+00  0.166892D-01  0.000000D+00  0.000000D+00
      7   0.000000D+00  0.000000D+00  0.000000D+00  0.326399D-02  0.000000D+00
      8   0.000000D+00  0.000000D+00  0.000000D+00  0.000000D+00  0.326399D-02
      9   0.000000D+00  0.000000D+00 -0.121004D-01  0.000000D+00  0.000000D+00
     10   0.000000D+00  0.000000D+00  0.483186D-02  0.000000D+00  0.000000D+00
     11   0.000000D+00  0.000000D+00  0.000000D+00 -0.238846D-02  0.000000D+00
     12   0.000000D+00  0.000000D+00  0.000000D+00  0.000000D+00 -0.238846D-02
     13   0.000000D+00  0.000000D+00  0.000000D+00  0.000000D+00  0.000000D+00
     14   0.000000D+00  0.000000D+00  0.000000D+00  0.000000D+00  0.000000D+00
     15   0.000000D+00  0.000000D+00  0.191243D+00  0.000000D+00  0.000000D+00
     16   0.000000D+00  0.000000D+00  0.000000D+00  0.918417D-01  0.000000D+00
     17   0.000000D+00  0.000000D+00  0.000000D+00  0.000000D+00  0.918417D-01
     18   0.000000D+00  0.000000D+00 -0.253530D+00  0.000000D+00  0.000000D+00
     19   0.000000D+00  0.000000D+00  0.324991D+00  0.000000D+00  0.000000D+00
     20   0.000000D+00  0.000000D+00  0.000000D+00 -0.245842D+00  0.000000D+00
     21   0.000000D+00  0.000000D+00  0.000000D+00  0.000000D+00 -0.245842D+00
     22   0.182900D-02  0.000000D+00  0.000000D+00  0.000000D+00  0.000000D+00
     23   0.000000D+00  0.182900D-02  0.000000D+00  0.000000D+00  0.000000D+00
     24   0.000000D+00  0.000000D+00 -0.375498D-03  0.000000D+00  0.000000D+00
     25   0.000000D+00  0.000000D+00  0.437680D-02  0.000000D+00  0.000000D+00
     26   0.000000D+00  0.000000D+00  0.000000D+00  0.122886D-01  0.000000D+00
     27   0.000000D+00  0.000000D+00  0.000000D+00  0.000000D+00  0.122886D-01
     28   0.000000D+00  0.000000D+00  0.000000D+00  0.000000D+00  0.000000D+00
     29   0.000000D+00  0.000000D+00  0.194461D+00  0.000000D+00  0.000000D+00
     30   0.000000D+00  0.000000D+00  0.000000D+00  0.211028D+00  0.000000D+00
     31   0.000000D+00  0.000000D+00  0.000000D+00  0.000000D+00  0.211028D+00
     32   0.000000D+00  0.000000D+00  0.000000D+00  0.000000D+00  0.000000D+00
     33   0.000000D+00  0.000000D+00  0.000000D+00  0.000000D+00  0.000000D+00
     34   0.000000D+00  0.000000D+00  0.000000D+00  0.000000D+00  0.000000D+00
     35   0.000000D+00  0.000000D+00  0.000000D+00  0.000000D+00  0.000000D+00
     36   0.100000D+01  0.000000D+00  0.000000D+00  0.000000D+00  0.000000D+00
     37   0.000000D+00  0.100000D+01  0.000000D+00  0.000000D+00  0.000000D+00
     38   0.000000D+00  0.000000D+00  0.100000D+01  0.000000D+00  0.000000D+00
     39   0.000000D+00  0.000000D+00  0.000000D+00  0.100000D+01  0.000000D+00
     40   0.000000D+00  0.000000D+00  0.000000D+00  0.000000D+00  0.100000D+01
     41   0.000000D+00  0.000000D+00  0.000000D+00  0.000000D+00  0.000000D+00
     42   0.000000D+00  0.000000D+00  0.000000D+00  0.000000D+00  0.000000D+00
     43   0.000000D+00  0.000000D+00  0.000000D+00  0.000000D+00  0.000000D+00
     44   0.000000D+00  0.000000D+00  0.000000D+00  0.000000D+00  0.000000D+00
     45   0.658109D-01  0.000000D+00  0.000000D+00  0.000000D+00  0.000000D+00
     46   0.000000D+00  0.658109D-01  0.000000D+00  0.000000D+00  0.000000D+00
                41            42            43            44            45 
      1   0.791530D-03  0.275559D-02  0.000000D+00  0.000000D+00  0.000000D+00
      2   0.492106D-02  0.169573D-01  0.000000D+00  0.000000D+00  0.000000D+00
      3   0.000000D+00  0.000000D+00  0.106378D-02  0.000000D+00  0.000000D+00
      4   0.000000D+00  0.000000D+00  0.000000D+00  0.106378D-02  0.000000D+00
      5  -0.116083D-02 -0.347652D-02  0.000000D+00  0.000000D+00  0.000000D+00
      6   0.302845D-01  0.946274D-01  0.000000D+00  0.000000D+00  0.000000D+00
      7   0.000000D+00  0.000000D+00  0.179359D-01  0.000000D+00  0.000000D+00
      8   0.000000D+00  0.000000D+00  0.000000D+00  0.179359D-01  0.000000D+00
      9  -0.201964D-01 -0.531731D-01  0.000000D+00  0.000000D+00  0.000000D+00
     10   0.771491D-02  0.156207D-01  0.000000D+00  0.000000D+00  0.000000D+00
     11   0.000000D+00  0.000000D+00 -0.112588D-01  0.000000D+00  0.000000D+00
     12   0.000000D+00  0.000000D+00  0.000000D+00 -0.112588D-01  0.000000D+00
     13   0.000000D+00  0.000000D+00  0.000000D+00  0.000000D+00  0.182900D-02
     14   0.000000D+00  0.000000D+00  0.000000D+00  0.000000D+00  0.000000D+00
     15   0.253530D+00  0.324991D+00  0.000000D+00  0.000000D+00  0.000000D+00
     16   0.000000D+00  0.000000D+00  0.245842D+00  0.000000D+00  0.000000D+00
     17   0.000000D+00  0.000000D+00  0.000000D+00  0.245842D+00  0.000000D+00
     18  -0.317384D+00 -0.319682D+00  0.000000D+00  0.000000D+00  0.000000D+00
     19   0.319682D+00  0.120046D+00  0.000000D+00  0.000000D+00  0.000000D+00
     20   0.000000D+00  0.000000D+00 -0.414580D+00  0.000000D+00  0.000000D+00
     21   0.000000D+00  0.000000D+00  0.000000D+00 -0.414580D+00  0.000000D+00
     22   0.000000D+00  0.000000D+00  0.000000D+00  0.000000D+00  0.144519D+00
     23   0.000000D+00  0.000000D+00  0.000000D+00  0.000000D+00  0.000000D+00
     24   0.000000D+00  0.000000D+00  0.000000D+00  0.000000D+00  0.000000D+00
     25   0.000000D+00  0.000000D+00  0.000000D+00  0.000000D+00  0.000000D+00
     26   0.000000D+00  0.000000D+00  0.000000D+00  0.000000D+00  0.000000D+00
     27   0.000000D+00  0.000000D+00  0.000000D+00  0.000000D+00  0.000000D+00
     28   0.122886D-01  0.000000D+00  0.000000D+00  0.000000D+00  0.000000D+00
     29   0.000000D+00  0.000000D+00  0.000000D+00  0.000000D+00  0.000000D+00
     30   0.000000D+00  0.000000D+00  0.000000D+00  0.000000D+00  0.000000D+00
     31   0.000000D+00  0.000000D+00  0.000000D+00  0.000000D+00  0.000000D+00
     32   0.211028D+00  0.000000D+00  0.000000D+00  0.000000D+00  0.000000D+00
     33   0.000000D+00  0.658109D-01  0.000000D+00  0.000000D+00  0.000000D+00
     34   0.000000D+00  0.000000D+00  0.658109D-01  0.000000D+00  0.000000D+00
     35   0.000000D+00  0.000000D+00  0.000000D+00  0.658109D-01  0.000000D+00
     36   0.000000D+00  0.000000D+00  0.000000D+00  0.000000D+00  0.658109D-01
     37   0.000000D+00  0.000000D+00  0.000000D+00  0.000000D+00  0.000000D+00
     38   0.000000D+00  0.000000D+00  0.000000D+00  0.000000D+00  0.000000D+00
     39   0.000000D+00  0.000000D+00  0.000000D+00  0.000000D+00  0.000000D+00
     40   0.000000D+00  0.000000D+00  0.000000D+00  0.000000D+00  0.000000D+00
     41   0.100000D+01  0.000000D+00  0.000000D+00  0.000000D+00  0.000000D+00
     42   0.000000D+00  0.100000D+01  0.000000D+00  0.000000D+00  0.000000D+00
     43   0.000000D+00  0.000000D+00  0.100000D+01  0.000000D+00  0.000000D+00
     44   0.000000D+00  0.000000D+00  0.000000D+00  0.100000D+01  0.000000D+00
     45   0.000000D+00  0.000000D+00  0.000000D+00  0.000000D+00  0.100000D+01
     46   0.000000D+00  0.000000D+00  0.000000D+00  0.000000D+00  0.000000D+00
                46 
      1   0.000000D+00
      2   0.000000D+00
      3   0.000000D+00
      4   0.000000D+00
      5   0.000000D+00
      6   0.000000D+00
      7   0.000000D+00
      8   0.000000D+00
      9   0.000000D+00
     10   0.000000D+00
     11   0.000000D+00
     12   0.000000D+00
     13   0.000000D+00
     14   0.182900D-02
     15   0.000000D+00
     16   0.000000D+00
     17   0.000000D+00
     18   0.000000D+00
     19   0.000000D+00
     20   0.000000D+00
     21   0.000000D+00
     22   0.000000D+00
     23   0.144519D+00
     24   0.000000D+00
     25   0.000000D+00
     26   0.000000D+00
     27   0.000000D+00
     28   0.000000D+00
     29   0.000000D+00
     30   0.000000D+00
     31   0.000000D+00
     32   0.000000D+00
     33   0.000000D+00
     34   0.000000D+00
     35   0.000000D+00
     36   0.000000D+00
     37   0.658109D-01
     38   0.000000D+00
     39   0.000000D+00
     40   0.000000D+00
     41   0.000000D+00
     42   0.000000D+00
     43   0.000000D+00
     44   0.000000D+00
     45   0.000000D+00
     46   0.100000D+01
 Entering OneElI...
 Overlap between basis sets.
 Requested accuracy = 0.1000D-12
 PrsmSu:  NPrtUS=   1 ThrOK=F IAlg=1
 PRISM was handed  1609769108 working-precision words and   830 shell-pairs
 IPart=  0 NShTot=         830 NBatch=          86 AvBLen=         9.7
 CnvPC2: ToCart=F DoDens=F IPureD=0 IPureF=0.
 Transformed matrix in CnvPC2: 
                 1             2             3             4             5 
      1   0.999791D+00  0.410618D+00  0.000000D+00  0.000000D+00  0.000000D+00
      2   0.288662D+00  0.988505D+00  0.000000D+00  0.000000D+00  0.000000D+00
      3   0.000000D+00  0.000000D+00  0.999236D+00  0.000000D+00  0.000000D+00
      4   0.000000D+00  0.000000D+00  0.000000D+00  0.999236D+00  0.000000D+00
      5   0.000000D+00  0.000000D+00  0.000000D+00  0.000000D+00  0.999236D+00
      6   0.123383D-01  0.319356D+00  0.000000D+00  0.000000D+00  0.000000D+00
      7   0.000000D+00  0.000000D+00  0.343453D+00  0.000000D+00  0.000000D+00
      8   0.000000D+00  0.000000D+00  0.000000D+00  0.343453D+00  0.000000D+00
      9   0.000000D+00  0.000000D+00  0.000000D+00  0.000000D+00  0.343453D+00
     10   0.000000D+00  0.000000D+00  0.000000D+00  0.000000D+00  0.000000D+00
     11   0.000000D+00  0.000000D+00  0.000000D+00  0.000000D+00  0.000000D+00
     12   0.000000D+00  0.000000D+00  0.000000D+00  0.000000D+00  0.000000D+00
     13   0.000000D+00  0.000000D+00  0.000000D+00  0.000000D+00  0.000000D+00
     14   0.000000D+00  0.000000D+00  0.000000D+00  0.000000D+00  0.000000D+00
     15   0.309531D-03  0.137849D-01  0.000000D+00  0.000000D+00  0.000000D+00
     16   0.402334D-02  0.246122D-01  0.000000D+00  0.000000D+00  0.000000D+00
     17   0.000000D+00  0.000000D+00  0.733716D-02  0.000000D+00  0.000000D+00
     18   0.000000D+00  0.000000D+00  0.000000D+00  0.733716D-02  0.000000D+00
     19   0.000000D+00  0.000000D+00  0.000000D+00  0.000000D+00  0.733716D-02
     20   0.000000D+00  0.000000D+00  0.972018D-03  0.000000D+00  0.000000D+00
     21   0.000000D+00  0.000000D+00  0.000000D+00  0.972018D-03  0.000000D+00
     22   0.000000D+00  0.000000D+00  0.000000D+00  0.000000D+00  0.972018D-03
     23   0.109949D+00  0.552190D+00  0.000000D+00  0.000000D+00  0.000000D+00
     24   0.673045D-01  0.370860D+00  0.000000D+00  0.000000D+00  0.000000D+00
     25   0.409446D-01  0.237407D+00  0.000000D+00  0.000000D+00  0.000000D+00
     26   0.248284D-01  0.147912D+00  0.000000D+00  0.000000D+00  0.000000D+00
     27   0.150307D-01  0.908173D-01  0.000000D+00  0.000000D+00  0.000000D+00
     28   0.000000D+00  0.000000D+00  0.146483D+00  0.000000D+00  0.000000D+00
     29   0.000000D+00  0.000000D+00  0.000000D+00  0.146483D+00  0.000000D+00
     30   0.000000D+00  0.000000D+00  0.000000D+00  0.000000D+00  0.146483D+00
     31   0.000000D+00  0.000000D+00  0.783027D-01  0.000000D+00  0.000000D+00
     32   0.000000D+00  0.000000D+00  0.000000D+00  0.783027D-01  0.000000D+00
     33   0.000000D+00  0.000000D+00  0.000000D+00  0.000000D+00  0.783027D-01
     34   0.000000D+00  0.000000D+00  0.405010D-01  0.000000D+00  0.000000D+00
     35   0.000000D+00  0.000000D+00  0.000000D+00  0.405010D-01  0.000000D+00
     36   0.000000D+00  0.000000D+00  0.000000D+00  0.000000D+00  0.405010D-01
     37   0.000000D+00  0.000000D+00  0.205354D-01  0.000000D+00  0.000000D+00
     38   0.000000D+00  0.000000D+00  0.000000D+00  0.205354D-01  0.000000D+00
     39   0.000000D+00  0.000000D+00  0.000000D+00  0.000000D+00  0.205354D-01
     40   0.000000D+00  0.000000D+00  0.102908D-01  0.000000D+00  0.000000D+00
     41   0.000000D+00  0.000000D+00  0.000000D+00  0.102908D-01  0.000000D+00
     42   0.000000D+00  0.000000D+00  0.000000D+00  0.000000D+00  0.102908D-01
     43   0.000000D+00  0.000000D+00  0.000000D+00  0.000000D+00  0.000000D+00
     44   0.000000D+00  0.000000D+00  0.000000D+00  0.000000D+00  0.000000D+00
     45   0.000000D+00  0.000000D+00  0.000000D+00  0.000000D+00  0.000000D+00
     46   0.000000D+00  0.000000D+00  0.000000D+00  0.000000D+00  0.000000D+00
     47   0.000000D+00  0.000000D+00  0.000000D+00  0.000000D+00  0.000000D+00
     48   0.000000D+00  0.000000D+00  0.000000D+00  0.000000D+00  0.000000D+00
     49   0.000000D+00  0.000000D+00  0.000000D+00  0.000000D+00  0.000000D+00
     50   0.000000D+00  0.000000D+00  0.000000D+00  0.000000D+00  0.000000D+00
     51   0.000000D+00  0.000000D+00  0.000000D+00  0.000000D+00  0.000000D+00
     52   0.000000D+00  0.000000D+00  0.000000D+00  0.000000D+00  0.000000D+00
     53   0.000000D+00  0.000000D+00  0.000000D+00  0.000000D+00  0.000000D+00
     54   0.000000D+00  0.000000D+00  0.000000D+00  0.000000D+00  0.000000D+00
     55   0.000000D+00  0.000000D+00  0.000000D+00  0.000000D+00  0.000000D+00
     56   0.000000D+00  0.000000D+00  0.000000D+00  0.000000D+00  0.000000D+00
     57   0.000000D+00  0.000000D+00  0.000000D+00  0.000000D+00  0.000000D+00
     58   0.000000D+00  0.000000D+00  0.000000D+00  0.000000D+00  0.000000D+00
     59   0.000000D+00  0.000000D+00  0.000000D+00  0.000000D+00  0.000000D+00
     60   0.000000D+00  0.000000D+00  0.000000D+00  0.000000D+00  0.000000D+00
     61   0.000000D+00  0.000000D+00  0.000000D+00  0.000000D+00  0.000000D+00
     62   0.000000D+00  0.000000D+00  0.000000D+00  0.000000D+00  0.000000D+00
     63   0.000000D+00  0.000000D+00  0.000000D+00  0.000000D+00  0.000000D+00
     64   0.000000D+00  0.000000D+00  0.000000D+00  0.000000D+00  0.000000D+00
     65   0.000000D+00  0.000000D+00  0.000000D+00  0.000000D+00  0.000000D+00
     66   0.000000D+00  0.000000D+00  0.000000D+00  0.000000D+00  0.000000D+00
     67   0.000000D+00  0.000000D+00  0.000000D+00  0.000000D+00  0.000000D+00
     68   0.000000D+00  0.000000D+00  0.000000D+00  0.000000D+00  0.000000D+00
     69   0.000000D+00  0.000000D+00  0.000000D+00  0.000000D+00  0.000000D+00
     70   0.000000D+00  0.000000D+00  0.000000D+00  0.000000D+00  0.000000D+00
     71   0.000000D+00  0.000000D+00  0.000000D+00  0.000000D+00  0.000000D+00
     72   0.000000D+00  0.000000D+00  0.000000D+00  0.000000D+00  0.000000D+00
     73   0.000000D+00  0.000000D+00  0.000000D+00  0.000000D+00  0.000000D+00
     74   0.000000D+00  0.000000D+00  0.000000D+00  0.000000D+00  0.000000D+00
     75   0.000000D+00  0.000000D+00  0.000000D+00  0.000000D+00  0.000000D+00
     76   0.000000D+00  0.000000D+00  0.000000D+00  0.000000D+00  0.000000D+00
     77   0.000000D+00  0.000000D+00  0.000000D+00  0.000000D+00  0.000000D+00
     78   0.000000D+00  0.000000D+00  0.000000D+00  0.000000D+00  0.000000D+00
     79   0.000000D+00  0.000000D+00  0.000000D+00  0.000000D+00  0.000000D+00
     80   0.000000D+00  0.000000D+00  0.000000D+00  0.000000D+00  0.000000D+00
     81   0.000000D+00  0.000000D+00  0.000000D+00  0.000000D+00  0.000000D+00
     82   0.000000D+00  0.000000D+00  0.000000D+00  0.000000D+00  0.000000D+00
     83   0.000000D+00  0.000000D+00  0.000000D+00  0.000000D+00  0.000000D+00
     84   0.000000D+00  0.000000D+00  0.000000D+00  0.000000D+00  0.000000D+00
     85   0.000000D+00  0.000000D+00  0.000000D+00  0.000000D+00  0.000000D+00
     86   0.000000D+00  0.000000D+00  0.000000D+00  0.000000D+00  0.000000D+00
     87   0.000000D+00  0.000000D+00  0.000000D+00  0.000000D+00  0.000000D+00
     88   0.000000D+00  0.000000D+00  0.000000D+00  0.000000D+00  0.000000D+00
     89   0.000000D+00  0.000000D+00  0.000000D+00  0.000000D+00  0.000000D+00
     90   0.000000D+00  0.000000D+00  0.000000D+00  0.000000D+00  0.000000D+00
     91   0.000000D+00  0.000000D+00  0.000000D+00  0.000000D+00  0.000000D+00
     92   0.000000D+00  0.000000D+00  0.000000D+00  0.000000D+00  0.000000D+00
     93   0.000000D+00  0.000000D+00  0.000000D+00  0.000000D+00  0.000000D+00
     94   0.000000D+00  0.000000D+00  0.000000D+00  0.000000D+00  0.000000D+00
     95   0.000000D+00  0.000000D+00  0.000000D+00  0.000000D+00  0.000000D+00
     96   0.000000D+00  0.000000D+00  0.000000D+00  0.000000D+00  0.000000D+00
     97   0.000000D+00  0.000000D+00  0.000000D+00  0.000000D+00  0.000000D+00
     98   0.000000D+00  0.000000D+00  0.000000D+00  0.000000D+00  0.000000D+00
     99   0.000000D+00  0.000000D+00  0.000000D+00  0.000000D+00  0.000000D+00
    100   0.000000D+00  0.000000D+00  0.000000D+00  0.000000D+00  0.000000D+00
    101   0.000000D+00  0.000000D+00  0.000000D+00  0.000000D+00  0.000000D+00
    102   0.000000D+00  0.000000D+00  0.000000D+00  0.000000D+00  0.000000D+00
    103   0.000000D+00  0.000000D+00  0.000000D+00  0.000000D+00  0.000000D+00
    104   0.000000D+00  0.000000D+00  0.000000D+00  0.000000D+00  0.000000D+00
    105   0.000000D+00  0.000000D+00  0.000000D+00  0.000000D+00  0.000000D+00
    106   0.000000D+00  0.000000D+00  0.000000D+00  0.000000D+00  0.000000D+00
    107   0.000000D+00  0.000000D+00  0.000000D+00  0.000000D+00  0.000000D+00
    108   0.000000D+00  0.000000D+00  0.000000D+00  0.000000D+00  0.000000D+00
    109   0.000000D+00  0.000000D+00  0.000000D+00  0.000000D+00  0.000000D+00
    110   0.000000D+00  0.000000D+00  0.000000D+00  0.000000D+00  0.000000D+00
    111   0.000000D+00  0.000000D+00  0.000000D+00  0.000000D+00  0.000000D+00
    112   0.000000D+00  0.000000D+00  0.000000D+00  0.000000D+00  0.000000D+00
    113   0.000000D+00  0.000000D+00  0.000000D+00  0.000000D+00  0.000000D+00
    114   0.000000D+00  0.000000D+00  0.000000D+00  0.000000D+00  0.000000D+00
    115   0.000000D+00  0.000000D+00  0.000000D+00  0.000000D+00  0.000000D+00
    116   0.000000D+00  0.000000D+00  0.000000D+00  0.000000D+00  0.000000D+00
    117   0.000000D+00  0.000000D+00  0.000000D+00  0.000000D+00  0.000000D+00
    118   0.000000D+00  0.000000D+00  0.000000D+00  0.000000D+00  0.000000D+00
    119   0.000000D+00  0.000000D+00  0.000000D+00  0.000000D+00  0.000000D+00
    120   0.000000D+00  0.000000D+00  0.000000D+00  0.000000D+00  0.000000D+00
    121   0.000000D+00  0.000000D+00  0.000000D+00  0.000000D+00  0.000000D+00
    122   0.000000D+00  0.000000D+00  0.000000D+00  0.000000D+00  0.000000D+00
    123   0.000000D+00  0.000000D+00  0.000000D+00  0.000000D+00  0.000000D+00
    124   0.000000D+00  0.000000D+00  0.000000D+00  0.000000D+00  0.000000D+00
    125   0.000000D+00  0.000000D+00  0.000000D+00  0.000000D+00  0.000000D+00
    126   0.000000D+00  0.000000D+00  0.000000D+00  0.000000D+00  0.000000D+00
    127   0.000000D+00  0.000000D+00  0.000000D+00  0.000000D+00  0.000000D+00
    128   0.000000D+00  0.000000D+00  0.000000D+00  0.000000D+00  0.000000D+00
    129   0.000000D+00  0.000000D+00  0.000000D+00  0.000000D+00  0.000000D+00
    130   0.000000D+00  0.000000D+00  0.000000D+00  0.000000D+00  0.000000D+00
    131   0.000000D+00  0.000000D+00  0.000000D+00  0.000000D+00  0.000000D+00
    132   0.000000D+00  0.000000D+00  0.000000D+00  0.000000D+00  0.000000D+00
    133   0.000000D+00  0.000000D+00  0.000000D+00  0.000000D+00  0.000000D+00
    134   0.000000D+00  0.000000D+00  0.000000D+00  0.000000D+00  0.000000D+00
    135   0.000000D+00  0.000000D+00  0.000000D+00  0.000000D+00  0.000000D+00
    136   0.000000D+00  0.000000D+00  0.000000D+00  0.000000D+00  0.000000D+00
    137   0.000000D+00  0.000000D+00  0.000000D+00  0.000000D+00  0.000000D+00
    138   0.000000D+00  0.000000D+00  0.000000D+00  0.000000D+00  0.000000D+00
    139   0.000000D+00  0.000000D+00  0.000000D+00  0.000000D+00  0.000000D+00
    140   0.000000D+00  0.000000D+00  0.000000D+00  0.000000D+00  0.000000D+00
    141   0.000000D+00  0.000000D+00  0.000000D+00  0.000000D+00  0.000000D+00
    142   0.000000D+00  0.000000D+00  0.000000D+00  0.000000D+00  0.000000D+00
    143   0.000000D+00  0.000000D+00  0.000000D+00  0.000000D+00  0.000000D+00
    144   0.000000D+00  0.000000D+00  0.000000D+00  0.000000D+00  0.000000D+00
    145   0.000000D+00  0.000000D+00  0.000000D+00  0.000000D+00  0.000000D+00
    146   0.000000D+00  0.000000D+00  0.000000D+00  0.000000D+00  0.000000D+00
    147   0.000000D+00  0.000000D+00  0.000000D+00  0.000000D+00  0.000000D+00
    148   0.000000D+00  0.000000D+00  0.000000D+00  0.000000D+00  0.000000D+00
    149   0.000000D+00  0.000000D+00  0.000000D+00  0.000000D+00  0.000000D+00
    150   0.000000D+00  0.000000D+00  0.000000D+00  0.000000D+00  0.000000D+00
    151   0.000000D+00  0.000000D+00  0.000000D+00  0.000000D+00  0.000000D+00
    152   0.000000D+00  0.000000D+00  0.000000D+00  0.000000D+00  0.000000D+00
    153   0.000000D+00  0.000000D+00  0.000000D+00  0.000000D+00  0.000000D+00
    154   0.000000D+00  0.000000D+00  0.000000D+00  0.000000D+00  0.000000D+00
    155   0.000000D+00  0.000000D+00  0.000000D+00  0.000000D+00  0.000000D+00
    156   0.000000D+00  0.000000D+00  0.000000D+00  0.000000D+00  0.000000D+00
    157   0.000000D+00  0.000000D+00  0.000000D+00  0.000000D+00  0.000000D+00
    158   0.000000D+00  0.000000D+00  0.000000D+00  0.000000D+00  0.000000D+00
    159   0.000000D+00  0.000000D+00  0.000000D+00  0.000000D+00  0.000000D+00
    160   0.000000D+00  0.000000D+00  0.000000D+00  0.000000D+00  0.000000D+00
    161   0.000000D+00  0.000000D+00  0.000000D+00  0.000000D+00  0.000000D+00
    162   0.000000D+00  0.000000D+00  0.000000D+00  0.000000D+00  0.000000D+00
    163   0.000000D+00  0.000000D+00  0.000000D+00  0.000000D+00  0.000000D+00
    164   0.000000D+00  0.000000D+00  0.000000D+00  0.000000D+00  0.000000D+00
    165   0.000000D+00  0.000000D+00  0.000000D+00  0.000000D+00  0.000000D+00
    166   0.000000D+00  0.529196D-05  0.000000D+00  0.000000D+00 -0.184549D-05
    167   0.204823D-04  0.129131D-03  0.000000D+00  0.000000D+00 -0.370220D-04
    168   0.000000D+00  0.000000D+00  0.808230D-05  0.000000D+00  0.000000D+00
    169   0.000000D+00  0.000000D+00  0.000000D+00  0.808230D-05  0.000000D+00
    170   0.000000D+00  0.000000D+00  0.000000D+00  0.000000D+00  0.000000D+00
    171   0.000000D+00  0.000000D+00  0.000000D+00  0.000000D+00  0.000000D+00
    172   0.610017D-03  0.377116D-02  0.000000D+00  0.000000D+00 -0.637690D-03
    173   0.203048D-02  0.124358D-01  0.000000D+00  0.000000D+00 -0.615332D-03
    174   0.000000D+00  0.000000D+00  0.479333D-03  0.000000D+00  0.000000D+00
    175   0.000000D+00  0.000000D+00  0.000000D+00  0.479333D-03  0.000000D+00
    176   0.215477D-02  0.132317D-01  0.000000D+00  0.000000D+00 -0.158851D-02
    177   0.000000D+00  0.000000D+00  0.595812D-03  0.000000D+00  0.000000D+00
    178   0.000000D+00  0.000000D+00  0.000000D+00  0.595812D-03  0.000000D+00
    179   0.268737D-02  0.164413D-01  0.000000D+00  0.000000D+00  0.125714D-04
    180   0.000000D+00  0.000000D+00  0.000000D+00  0.000000D+00  0.000000D+00
    181   0.000000D+00  0.000000D+00  0.000000D+00  0.000000D+00  0.000000D+00
    182   0.000000D+00  0.000000D+00  0.000000D+00  0.000000D+00  0.000000D+00
    183   0.106167D-04  0.734612D-04  0.000000D+00  0.000000D+00 -0.401180D-04
    184   0.284221D-03  0.178636D-02  0.000000D+00  0.000000D+00 -0.507826D-03
    185   0.000000D+00  0.000000D+00  0.000000D+00  0.000000D+00  0.000000D+00
    186   0.000000D+00  0.000000D+00  0.000000D+00  0.000000D+00  0.000000D+00
    187   0.000000D+00  0.000000D+00  0.000000D+00  0.000000D+00  0.000000D+00
    188   0.000000D+00  0.000000D+00  0.000000D+00  0.000000D+00  0.000000D+00
    189   0.000000D+00  0.000000D+00  0.000000D+00  0.000000D+00  0.000000D+00
    190   0.000000D+00  0.000000D+00  0.000000D+00  0.000000D+00  0.000000D+00
    191   0.000000D+00  0.000000D+00  0.201066D-05  0.000000D+00  0.000000D+00
    192   0.000000D+00  0.000000D+00  0.000000D+00  0.201066D-05  0.000000D+00
    193   0.759890D-05  0.564462D-04  0.000000D+00  0.000000D+00 -0.378242D-04
    194   0.000000D+00  0.000000D+00  0.690962D-04  0.000000D+00  0.000000D+00
    195   0.000000D+00  0.000000D+00  0.000000D+00  0.690962D-04  0.000000D+00
    196   0.298032D-03  0.191547D-02  0.000000D+00  0.000000D+00 -0.717755D-03
    197   0.000000D+00  0.000000D+00  0.396720D-03  0.000000D+00  0.000000D+00
    198   0.000000D+00  0.000000D+00  0.000000D+00  0.396720D-03  0.000000D+00
    199   0.177515D-02  0.109565D-01  0.000000D+00  0.000000D+00 -0.218649D-02
    200   0.000000D+00  0.000000D+00  0.000000D+00  0.000000D+00  0.000000D+00
    201   0.000000D+00  0.000000D+00  0.000000D+00  0.000000D+00  0.000000D+00
    202   0.000000D+00  0.000000D+00  0.000000D+00  0.000000D+00  0.000000D+00
    203   0.000000D+00  0.000000D+00  0.000000D+00  0.000000D+00  0.000000D+00
    204   0.000000D+00  0.000000D+00  0.000000D+00  0.000000D+00  0.000000D+00
    205   0.000000D+00  0.000000D+00  0.000000D+00  0.000000D+00  0.000000D+00
    206   0.000000D+00  0.000000D+00  0.000000D+00  0.000000D+00  0.000000D+00
    207   0.000000D+00  0.000000D+00  0.000000D+00  0.000000D+00  0.000000D+00
    208   0.000000D+00  0.000000D+00  0.000000D+00  0.000000D+00  0.000000D+00
    209   0.000000D+00  0.000000D+00  0.000000D+00  0.000000D+00  0.000000D+00
    210   0.681119D-04  0.472780D-03  0.000000D+00  0.000000D+00 -0.266410D-03
    211   0.000000D+00  0.000000D+00  0.293375D-04  0.000000D+00  0.000000D+00
    212   0.000000D+00  0.000000D+00  0.000000D+00  0.293375D-04  0.000000D+00
    213   0.000000D+00  0.000000D+00  0.000000D+00  0.000000D+00  0.000000D+00
[...]
   29    |  0.246889  0.818349  0.818349  0.640673  0.640673
   29    |  0.000000  0.794251  0.794251  0.000000  0.000000
         |
   30    |  0.545003  0.285913  0.959343  0.788563  0.788563
   30    |  0.533905  0.000000  0.937610  0.000000  0.000000
         |
   31    |  0.545003  0.904783  0.285913  0.788563  0.788563
   31    |  0.533905  0.904783  0.000000  0.000000  0.000000
         |
   32    |  0.384185  0.519256  0.519256  0.000000  0.583303
   32    |  0.000000  0.000000  0.000000  0.000000  0.000000
         |
   33    |  0.384185  0.519256  0.519256  0.000000  0.000000
   33    |  0.000000  0.000000  0.000000  0.000000  0.000000
         |

          Overlap/Interference Sums
          -------------------------

                                      Alpha        Beta
          Overlap                     8.5650      1.2638
          Interference               13.2738      4.4987
          Overlap*Interference        4.2586      0.8494
          Intra-orbital Ovlp*Inf      0.8187      0.0000

              Number of PNO for a Closed Shell
              --------------------------------

 AB - AA |      29        30        31        32        33
 BA - BB |      29        30        31        32        33
------------------------------------------------------------
   29    |      20        20        20        20        20
   29    |       0        20        20         0         0
         |
   30    |      21        20        20        20        20
   30    |      20         0        20         0         0
         |
   31    |      21        20        20        20        20
   31    |      20        20         0         0         0
         |
   32    |      20        20        20         0        20
   32    |       0         0         0         0         0
         |
   33    |      20        20        20         0         0
   33    |       0         0         0         0         0
         |

                   MP2(N) Pair Energies
                   --------------------

 AB - AA |     29        30        31        32        33
 BA - BB |     29        30        31        32        33
------------------------------------------------------------
   29    | -0.017544 -0.001881 -0.001881 -0.006027 -0.006027
   29    |  0.000000 -0.002414 -0.002414  0.000000  0.000000
         |
   30    | -0.004979 -0.019392 -0.000045 -0.002270 -0.002270
   30    | -0.005645  0.000000 -0.000189  0.000000  0.000000
         |
   31    | -0.004979 -0.000169 -0.019392 -0.002270 -0.002270
   31    | -0.005645 -0.000169  0.000000  0.000000  0.000000
         |
   32    | -0.009873 -0.006039 -0.006039  0.000000 -0.007492
   32    |  0.000000  0.000000  0.000000  0.000000  0.000000
         |
   33    | -0.009873 -0.006039 -0.006039  0.000000  0.000000
   33    |  0.000000  0.000000  0.000000  0.000000  0.000000
         |

                     Delta Factors
                     -------------

 AB - AA |     29        30        31        32        33
 BA - BB |     29        30        31        32        33
------------------------------------------------------------
   29    |  1.463670  2.486776  2.486776  0.827238  0.827238
   29    |  0.000000  2.017401  2.017401  0.000000  0.000000
         |
   30    |  1.609990  1.251125  3.220294  2.100570  2.100570
   30    |  1.317299  0.000000  0.820816  0.000000  0.000000
         |
   31    |  1.609990  0.450764  1.251125  2.100570  2.100570
   31    |  1.317299  0.450764  0.000000  0.000000  0.000000
         |
   32    |  0.896124  1.099922  1.099922  0.000000  0.606401
   32    |  0.000000  0.000000  0.000000  0.000000  0.000000
         |
   33    |  0.896124  1.099922  1.099922  0.000000  0.000000
   33    |  0.000000  0.000000  0.000000  0.000000  0.000000
         |

                   MP2(CBS) Pair Energies
                   ----------------------

 AB - AA |     29        30        31        32        33
 BA - BB |     29        30        31        32        33
------------------------------------------------------------
   29    | -0.019819 -0.001969 -0.001969 -0.006134 -0.006134
   29    |  0.000000 -0.002505 -0.002505  0.000000  0.000000
         |
   30    | -0.005629 -0.021690 -0.000048 -0.002359 -0.002359
   30    | -0.006333  0.000000 -0.000193  0.000000  0.000000
         |
   31    | -0.005629 -0.000182 -0.021690 -0.002359 -0.002359
   31    | -0.006333 -0.000182  0.000000  0.000000  0.000000
         |
   32    | -0.010858 -0.006707 -0.006707  0.000000 -0.007600
   32    |  0.000000  0.000000  0.000000  0.000000  0.000000
         |
   33    | -0.010858 -0.006707 -0.006707  0.000000  0.000000
   33    |  0.000000  0.000000  0.000000  0.000000  0.000000
         |

                     Sum of ab pair energies =    -0.123183 A.U.
                     Sum of ba pair energies =    -0.012848 A.U.
                     Sum of aa pair energies =    -0.033291 A.U.
                     Sum of bb pair energies =    -0.005204 A.U.

           Sum of intraorbital pair energies =    -0.063199 A.U.
           Sum of interorbital pair energies =    -0.111326 A.U.
                                                  ----------
                         Total pair energies =    -0.174525 A.U.

                         Single Excitations  =    -0.001712 A.U.

                          Total second order =    -0.176237 A.U.



            MP2(CBS) (With Interference Correction) 
            ---------------------------------------

 AB - AA |     29        30        31        32        33
 BA - BB |     29        30        31        32        33
------------------------------------------------------------
   29    | -0.019243 -0.001957 -0.001957 -0.006120 -0.006120
   29    |  0.000000 -0.002491 -0.002491  0.000000  0.000000
         |
   30    | -0.005532 -0.021160 -0.000047 -0.002345 -0.002345
   30    | -0.006228  0.000000 -0.000192  0.000000  0.000000
         |
   31    | -0.005532 -0.000182 -0.021160 -0.002345 -0.002345
   31    | -0.006228 -0.000182  0.000000  0.000000  0.000000
         |
   32    | -0.010664 -0.006599 -0.006599  0.000000 -0.007581
   32    |  0.000000  0.000000  0.000000  0.000000  0.000000
         |
   33    | -0.010664 -0.006599 -0.006599  0.000000  0.000000
   33    |  0.000000  0.000000  0.000000  0.000000  0.000000
         |

                     Sum of ab pair energies =    -0.120537 A.U.
                     Sum of ba pair energies =    -0.012638 A.U.
                     Sum of aa pair energies =    -0.033161 A.U.
                     Sum of bb pair energies =    -0.005174 A.U.

           Sum of intraorbital pair energies =    -0.061564 A.U.
           Sum of interorbital pair energies =    -0.109946 A.U.
                                                  ----------
                         Total pair energies =    -0.171510 A.U.

                         Single Excitations  =    -0.001712 A.U.

                          Total second order =    -0.173222 A.U.

                         E2(CBS) - E2(Dir) =      -0.005334 A.U.

 E2(CBS)=      -0.176237 CBS-Int=       0.003015 OIii=       0.818703

 **********************************************************************

            Population analysis using the SCF density.

 **********************************************************************

 Orbital symmetries:
       Occupied  (SGG) (SGU) (SGG) (SGU) (PIG) (PIG) (PIU) (PIU)
                 (SGU) (SGG) (SGG) (SGU) (PIU) (PIU) (PIG) (PIG)
                 (SGG) (SGU) (DLTG) (DLTG) (DLTU) (DLTU) (SGG)
                 (PIU) (PIU) (PIG) (PIG) (SGU) (SGG) (SGU) (SGG)
                 (PIU) (PIU)
       Virtual   (PIG) (PIG) (SGU) (SGG) (PIU) (PIU) (SGG) (PIG)
                 (PIG) (SGU) (SGU) (DLTG) (DLTG) (PIU) (PIU) (SGG)
                 (PIU) (PIU) (DLTU) (DLTU) (SGG) (PIG) (PIG) (SGU)
                 (SGU) (PIG) (PIG) (SGG) (PHIU) (PHIU) (DLTG) (DLTG)
                 (PIU) (PIU) (PHIG) (PHIG) (SGU) (SGG) (DLTG) (DLTG)
                 (DLTU) (DLTU) (DLTU) (DLTU) (PIU) (PIU) (SGG)
                 (SGU) (PIG) (PIG) (PIU) (PIU) (PIG) (PIG) (SGU)
                 (PIG) (PIG) (SGG) (SGU) (SGG) (PHIU) (PHIU) (?A)
                 (?A) (DLTG) (DLTG) (PIU) (PIU) (?B) (?B) (PHIU)
                 (PHIU) (PHIG) (PHIG) (SGG) (DLTG) (DLTG) (PHIG)
                 (PHIG) (DLTU) (DLTU) (SGU) (PIU) (PIU) (SGG) (PIG)
                 (PIG) (SGU) (DLTU) (DLTU) (DLTG) (DLTG) (PIG)
                 (PIG) (PIU) (PIU) (DLTU) (DLTU) (SGU) (SGU) (PIU)
                 (PIU) (SGG) (PIG) (PIG) (PIG) (PIG) (?A) (?A)
                 (SGG) (PHIU) (PHIU) (?C) (?C) (?D) (?D) (DLTG)
                 (DLTG) (?B) (?B) (PIU) (PIU) (SGG) (PHIU) (PHIU)
                 (PHIG) (PHIG) (SGU) (DLTG) (DLTG) (DLTU) (DLTU)
                 (PHIG) (PHIG) (SGU) (PIG) (PIG) (?A) (?A) (PHIU)
                 (PHIU) (SGG) (?B) (?B) (PIU) (PIU) (DLTG) (DLTG)
                 (PHIG) (PHIG) (SGU) (DLTU) (DLTU) (SGG) (PIG)
                 (PIG) (DLTU) (DLTU) (PIU) (PIU) (SGU) (SGG) (PIG)
                 (PIG) (DLTG) (DLTG) (SGU) (DLTU) (DLTU) (PIU)
                 (PIU) (PIG) (PIG) (SGG) (PIU) (PIU) (PHIU) (PHIU)
                 (PIG) (PIG) (SGU) (SGG) (DLTG) (DLTG) (?A) (?A)
                 (?C) (?C) (?E) (?E) (?F) (?F) (PIU) (PIU) (?D)
                 (?D) (?B) (?B) (PHIU) (PHIU) (SGG) (PHIG) (PHIG)
                 (DLTG) (DLTG) (DLTU) (DLTU) (PHIG) (PHIG) (PIU)
                 (PIU) (PIG) (PIG) (SGU) (SGG) (SGU) (DLTU) (DLTU)
                 (?A) (?A) (?C) (?C) (?D) (?D) (PHIU) (PHIU) (?B)
                 (?B) (PIG) (PIG) (DLTG) (DLTG) (PHIG) (PHIG) (SGU)
                 (?A) (?A) (PHIU) (PHIU) (?B) (?B) (DLTG) (DLTG)
                 (PHIG) (PHIG) (SGG) (SGU) (PIU) (PIU) (DLTU) (DLTU)
                 (PIG) (PIG) (DLTU) (DLTU) (PIU) (PIU) (SGU) (SGG)
                 (PIG) (PIG) (DLTG) (DLTG) (DLTU) (DLTU) (PIU)
                 (PIU) (SGG) (PIG) (PIG) (SGU) (SGG) (SGU) (PIU)
                 (PIU) (PIG) (PIG) (SGG) (SGU) (SGG) (SGU)
 The electronic state is 3-SGG.
 Alpha  occ. eigenvalues -- -405.24774-405.24774 -52.15295 -52.15295 -46.24032
 Alpha  occ. eigenvalues --  -46.24032 -46.24032 -46.24032 -46.23774 -46.23774
 Alpha  occ. eigenvalues --   -7.19491  -7.19485  -5.16930  -5.16930  -5.16926
 Alpha  occ. eigenvalues --   -5.16926  -5.16130  -5.16100  -1.64503  -1.64503
 Alpha  occ. eigenvalues --   -1.64446  -1.64446  -1.63814  -1.63814  -1.63742
 Alpha  occ. eigenvalues --   -1.63538  -1.63538  -1.63105  -0.69971  -0.52320
 Alpha  occ. eigenvalues --   -0.29315  -0.28225  -0.28225
 Alpha virt. eigenvalues --   -0.00326  -0.00326   0.03699   0.05049   0.05378
 Alpha virt. eigenvalues --    0.05378   0.06651   0.07843   0.07843   0.12084
 Alpha virt. eigenvalues --    0.14396   0.18457   0.18457   0.23343   0.23343
 Alpha virt. eigenvalues --    0.24011   0.27456   0.27456   0.28227   0.28227
 Alpha virt. eigenvalues --    0.30145   0.30145   0.30160   0.30903   0.37949
 Alpha virt. eigenvalues --    0.39161   0.39161   0.40883   0.49578   0.49578
 Alpha virt. eigenvalues --    0.52426   0.52426   0.58062   0.58062   0.59090
 Alpha virt. eigenvalues --    0.59090   0.60181   0.64721   0.64926   0.64926
 Alpha virt. eigenvalues --    0.70156   0.70156   0.73405   0.73405   0.74788
 Alpha virt. eigenvalues --    0.74788   0.77172   0.77771   0.77771   0.77861
 Alpha virt. eigenvalues --    0.80059   0.80059   0.80198   0.80198   0.89088
 Alpha virt. eigenvalues --    0.99102   0.99102   1.01179   1.03650   1.05194
 Alpha virt. eigenvalues --    1.13517   1.13517   1.16074   1.16074   1.17562
 Alpha virt. eigenvalues --    1.17562   1.23487   1.23487   1.24230   1.24230
 Alpha virt. eigenvalues --    1.27010   1.27010   1.31585   1.31585   1.35339
 Alpha virt. eigenvalues --    1.37464   1.37464   1.40960   1.40960   1.42916
 Alpha virt. eigenvalues --    1.42916   1.44716   1.58146   1.58146   1.58654
 Alpha virt. eigenvalues --    1.58779   1.58779   1.60399   1.61498   1.61498
 Alpha virt. eigenvalues --    1.63114   1.63114   1.65829   1.65829   1.74335
 Alpha virt. eigenvalues --    1.74335   1.74646   1.74646   1.75387   1.84039
 Alpha virt. eigenvalues --    1.93410   1.93410   1.96905   1.98624   1.98624
 Alpha virt. eigenvalues --    2.16792   2.16792   2.17521   2.17521   2.18445
 Alpha virt. eigenvalues --    2.19424   2.19424   2.24831   2.24831   2.29024
 Alpha virt. eigenvalues --    2.29024   2.36411   2.36411   2.41713   2.41713
 Alpha virt. eigenvalues --    2.44067   2.44067   2.49976   2.63582   2.63582
 Alpha virt. eigenvalues --    2.63807   2.63807   2.64761   2.67467   2.67467
 Alpha virt. eigenvalues --    2.70562   2.70562   2.73091   2.73091   2.81358
 Alpha virt. eigenvalues --    2.81755   2.81755   2.84015   2.84015   2.85408
 Alpha virt. eigenvalues --    2.85408   2.86754   2.88274   2.88274   2.93688
 Alpha virt. eigenvalues --    2.93688   3.00041   3.00041   3.00740   3.00740
 Alpha virt. eigenvalues --    3.09791   3.14260   3.14260   3.14964   3.26033
 Alpha virt. eigenvalues --    3.26033   3.26068   3.26068   3.28346   3.28346
 Alpha virt. eigenvalues --    3.33524   3.68283   3.75203   3.75203   3.78637
 Alpha virt. eigenvalues --    3.78637   3.80279   3.84088   3.84088   3.90722
 Alpha virt. eigenvalues --    3.90722   4.06254   4.06254   4.25391   4.27783
 Alpha virt. eigenvalues --    4.27783   4.43270   4.43270   4.44825   4.44825
 Alpha virt. eigenvalues --    4.46200   4.46917   4.48386   4.48386   4.49856
 Alpha virt. eigenvalues --    4.49856   4.58044   4.58044   4.59793   4.59793
 Alpha virt. eigenvalues --    4.60328   4.60328   4.61453   4.61453   4.64381
 Alpha virt. eigenvalues --    4.64381   4.77683   4.77683   4.83983   4.83983
 Alpha virt. eigenvalues --    4.86970   4.87582   4.87582   4.90958   4.90958
 Alpha virt. eigenvalues --    4.96751   4.96751   5.06482   5.06482   5.09408
 Alpha virt. eigenvalues --    5.09408   5.12214   5.12214   5.13307   5.31923
 Alpha virt. eigenvalues --    5.33067   5.37293   5.37293   5.38480   5.38480
 Alpha virt. eigenvalues --    5.39694   5.39694   5.41965   5.41965   5.45124
 Alpha virt. eigenvalues --    5.45124   5.50162   5.50162   5.62435   5.62435
 Alpha virt. eigenvalues --    5.67351   5.67351   5.71165   5.71165   5.80423
 Alpha virt. eigenvalues --    5.84306   5.84306   5.85138   5.85138   5.87632
 Alpha virt. eigenvalues --    5.87632   5.96410   5.96410   5.97809   5.97809
 Alpha virt. eigenvalues --    6.02341   6.03821   6.08091   6.08091   6.10052
 Alpha virt. eigenvalues --    6.10052   6.20514   6.20514   6.30562   6.30562
 Alpha virt. eigenvalues --    6.33871   6.33871   6.81107   6.85045   6.96995
 Alpha virt. eigenvalues --    6.96995   8.75037   8.75037   8.79525   8.79525
 Alpha virt. eigenvalues --    8.84884   8.84884   9.02538   9.17678   9.17678
 Alpha virt. eigenvalues --    9.54775   9.69524  10.46158  10.46568  10.46568
 Alpha virt. eigenvalues --   10.58410  10.58410  11.26635  11.27082 267.28768
 Alpha virt. eigenvalues --  270.54993
          Condensed to atoms (all electrons):
              1          2
     1  Ge  31.450218   0.549782
     2  Ge   0.549782  31.450218
 Mulliken atomic charges:
              1
     1  Ge   0.000000
     2  Ge   0.000000
 Sum of Mulliken atomic charges =   0.00000
 Mulliken charges with hydrogens summed into heavy atoms:
              1
     1  Ge   0.000000
     2  Ge   0.000000
 Sum of Mulliken charges with hydrogens summed into heavy atoms =   0.00000
          Atomic-Atomic Spin Densities.
              1          2
     1  Ge   0.728689   0.271311
     2  Ge   0.271311   0.728689
 Mulliken atomic spin densities:
              1
     1  Ge   1.000000
     2  Ge   1.000000
 Sum of Mulliken atomic spin densities =   2.00000
 Electronic spatial extent (au):  <R**2>=            447.2448
 Charge=              0.0000 electrons
 Dipole moment (field-independent basis, Debye):
    X=              0.0000    Y=              0.0000    Z=              0.0000  Tot=              0.0000
 Quadrupole moment (field-independent basis, Debye-Ang):
   XX=            -35.6285   YY=            -35.6285   ZZ=            -40.5604
   XY=              0.0000   XZ=              0.0000   YZ=              0.0000
 Traceless Quadrupole moment (field-independent basis, Debye-Ang):
   XX=              1.6440   YY=              1.6440   ZZ=             -3.2880
   XY=              0.0000   XZ=              0.0000   YZ=              0.0000
 Octapole moment (field-independent basis, Debye-Ang**2):
  XXX=              0.0000  YYY=              0.0000  ZZZ=              0.0000  XYY=              0.0000
  XXY=              0.0000  XXZ=              0.0000  XZZ=              0.0000  YZZ=              0.0000
  YYZ=              0.0000  XYZ=              0.0000
 Hexadecapole moment (field-independent basis, Debye-Ang**3):
 XXXX=            -64.6925 YYYY=            -64.6925 ZZZZ=           -469.6098 XXXY=              0.0000
 XXXZ=              0.0000 YYYX=              0.0000 YYYZ=              0.0000 ZZZX=              0.0000
 ZZZY=              0.0000 XXYY=            -21.5642 XXZZ=            -78.3997 YYZZ=            -78.3997
 XXYZ=              0.0000 YYXZ=              0.0000 ZZXY=              0.0000
 N-N= 2.146559426383D+02 E-N=-1.553498784797D+04  KE= 6.224913231768D+03
                          Isotropic Fermi Contact Couplings
        Atom                 a.u.       MegaHertz       Gauss      10(-4) cm-1
     1  Ge(73)             0.00000       0.00000       0.00000       0.00000
     2  Ge(73)             0.00000       0.00000       0.00000       0.00000
 --------------------------------------------------------
       Center         ----  Spin Dipole Couplings  ----
                      3XX-RR        3YY-RR        3ZZ-RR
 --------------------------------------------------------
     1   Atom        0.750374      0.750374     -1.500747
     2   Atom        0.750374      0.750374     -1.500747
 --------------------------------------------------------
                        XY            XZ            YZ
 --------------------------------------------------------
     1   Atom        0.000000      0.000000      0.000000
     2   Atom        0.000000      0.000000      0.000000
 --------------------------------------------------------


 ---------------------------------------------------------------------------------
              Anisotropic Spin Dipole Couplings in Principal Axis System
 ---------------------------------------------------------------------------------

       Atom             a.u.   MegaHertz   Gauss  10(-4) cm-1        Axes

              Baa    -1.5007    28.017     9.997     9.345  0.0000  0.0000  1.0000
     1 Ge(73) Bbb     0.7504   -14.008    -4.999    -4.673  0.0000  1.0000  0.0000
              Bcc     0.7504   -14.008    -4.999    -4.673  1.0000  0.0000  0.0000
 
              Baa    -1.5007    28.017     9.997     9.345  0.0000  0.0000  1.0000
     2 Ge(73) Bbb     0.7504   -14.008    -4.999    -4.673  0.0000  1.0000  0.0000
              Bcc     0.7504   -14.008    -4.999    -4.673  1.0000  0.0000  0.0000
 

 ---------------------------------------------------------------------------------


 Test job not archived.
 1\1\GINC-C35\SP\ROMP2-RW\Gen\Ge2(3)\GPETERSSON\24-Feb-2013\0\\# ROMP2(
 RW) Gen GFinput Int=NoBasisTransform Int(Grid=Ultrafine) IOp(3/32=2,5/
 6=10,8/11=1,9/33=1) Maxdisk=128GB CBSextrapolate(Nmin=20,MinPop)\\Ge2\
 \0,3\Ge\Ge,1,2.5244\\Version=EM64L-G09RevA.02\State=3-SGG\HF=-4150.767
 9673\MP2=-4150.9388705\E2(CBS)=-0.176237\CBS-Int=-0.173222\OIii=0.8187
 028\RMSD=1.080e-11\PG=D*H [C*(Ge1.Ge1)]\\@


 WE HAVE LEFT UNDONE THOSE THINGS WHICH WE OUGHT TO HAVE DONE,
 AND WE HAVE DONE THOSE THINGS WHICH WE OUGHT NOT TO HAVE DONE.
                   BOOK OF COMMON PRAYER                      
 Job cpu time:  0 days 11 hours  5 minutes 32.9 seconds.
 File lengths (MBytes):  RWF=   1569 Int=      0 D2E=      0 Chk=      8 Scr=      1
 Normal termination of Gaussian 09 at Sun Feb 24 14:34:02 2013.
