 Entering Gaussian System, Link 0=g09
 AtFile(1): 7ZaP-NR.gbs
 Initial command:
 /share/apps/gaussian/g09root/g09/l1.exe /localscratch/737878/Gau-15183.inp -scrdir=/localscratch/737878/
 Entering Link 1 = /share/apps/gaussian/g09root/g09/l1.exe PID=     15184.
  
 Copyright (c) 1988,1990,1992,1993,1995,1998,2003,2009, Gaussian, Inc.
                  All Rights Reserved.
  
 This is part of the Gaussian(R) 09 program.  It is based on
 the Gaussian(R) 03 system (copyright 2003, Gaussian, Inc.),
 the Gaussian(R) 98 system (copyright 1998, Gaussian, Inc.),
 the Gaussian(R) 94 system (copyright 1995, Gaussian, Inc.),
 the Gaussian 92(TM) system (copyright 1992, Gaussian, Inc.),
 the Gaussian 90(TM) system (copyright 1990, Gaussian, Inc.),
 the Gaussian 88(TM) system (copyright 1988, Gaussian, Inc.),
 the Gaussian 86(TM) system (copyright 1986, Carnegie Mellon
 University), and the Gaussian 82(TM) system (copyright 1983,
 Carnegie Mellon University). Gaussian is a federally registered
 trademark of Gaussian, Inc.
  
 This software contains proprietary and confidential information,
 including trade secrets, belonging to Gaussian, Inc.
  
 This software is provided under written license and may be
 used, copied, transmitted, or stored only in accord with that
 written license.
  
 The following legend is applicable only to US Government
 contracts under FAR:
  
                    RESTRICTED RIGHTS LEGEND
  
 Use, reproduction and disclosure by the US Government is
 subject to restrictions as set forth in subparagraphs (a)
 and (c) of the Commercial Computer Software - Restricted
 Rights clause in FAR 52.227-19.
  
 Gaussian, Inc.
 340 Quinnipiac St., Bldg. 40, Wallingford CT 06492
  
  
 ---------------------------------------------------------------
 Warning -- This program may not be used in any manner that
 competes with the business of Gaussian, Inc. or will provide
 assistance to any competitor of Gaussian, Inc.  The licensee
 of this program is prohibited from giving any competitor of
 Gaussian, Inc. access to this program.  By using this program,
 the user acknowledges that Gaussian, Inc. is engaged in the
 business of creating and licensing software in the field of
 computational chemistry and represents and warrants to the
 licensee that it is not a competitor of Gaussian, Inc. and that
 it will not use this program in any manner prohibited above.
 ---------------------------------------------------------------
  

 Cite this work as:
 Gaussian 09, Revision A.02,
 M. J. Frisch, G. W. Trucks, H. B. Schlegel, G. E. Scuseria, 
 M. A. Robb, J. R. Cheeseman, G. Scalmani, V. Barone, B. Mennucci, 
 G. A. Petersson, H. Nakatsuji, M. Caricato, X. Li, H. P. Hratchian, 
 A. F. Izmaylov, J. Bloino, G. Zheng, J. L. Sonnenberg, M. Hada, 
 M. Ehara, K. Toyota, R. Fukuda, J. Hasegawa, M. Ishida, T. Nakajima, 
 Y. Honda, O. Kitao, H. Nakai, T. Vreven, J. A. Montgomery, Jr., 
 J. E. Peralta, F. Ogliaro, M. Bearpark, J. J. Heyd, E. Brothers, 
 K. N. Kudin, V. N. Staroverov, R. Kobayashi, J. Normand, 
 K. Raghavachari, A. Rendell, J. C. Burant, S. S. Iyengar, J. Tomasi, 
 M. Cossi, N. Rega, J. M. Millam, M. Klene, J. E. Knox, J. B. Cross, 
 V. Bakken, C. Adamo, J. Jaramillo, R. Gomperts, R. E. Stratmann, 
 O. Yazyev, A. J. Austin, R. Cammi, C. Pomelli, J. W. Ochterski, 
 R. L. Martin, K. Morokuma, V. G. Zakrzewski, G. A. Voth, 
 P. Salvador, J. J. Dannenberg, S. Dapprich, A. D. Daniels, 
 O. Farkas, J. B. Foresman, J. V. Ortiz, J. Cioslowski, 
 and D. J. Fox, Gaussian, Inc., Wallingford CT, 2009.
 
 ******************************************
 Gaussian 09:  EM64L-G09RevA.02 11-Jun-2009
                22-Aug-2012 
 ******************************************
 % Mem=12GB
 % Nproc=8
 Will use up to    8 processors via shared memory.
 ----------------------------------------------------------------------
 # ROMP2(RW) Gen GFinput Int=NoBasisTransform Int(Grid=Ultrafine) IOp(3
 /32=2,5/6=10,8/11=1,9/33=1) Maxdisk=128GB CBSextrapolate(Nmin=25,MinPo
 p)
 ----------------------------------------------------------------------
 1/38=1/1;
 2/12=2,17=6,18=5,40=1/2;
 3/5=7,11=2,16=1,24=10,25=1,30=1,32=2,60=-1,75=-5,116=101/1,2,3;
 4//1;
 5/5=2,6=10,38=5/2;
 8/5=-1,10=91,11=1/1;
 9/16=-3,33=1,75=2,81=25,83=4/6,4;
 6/7=2,8=2,9=2,10=2/1;
 99/5=1,9=1/99;
 ---
 Ge2
 ---
 Symbolic Z-matrix:
 Charge =  0 Multiplicity = 1
 Ge
 Ge                   1     2.44494 
 
                          Input orientation:                          
 ---------------------------------------------------------------------
 Center     Atomic      Atomic             Coordinates (Angstroms)
 Number     Number       Type             X           Y           Z
 ---------------------------------------------------------------------
      1         32           0        0.000000    0.000000    0.000000
      2         32           0        0.000000    0.000000    2.444944
 ---------------------------------------------------------------------
 Stoichiometry    Ge2
 Framework group  D*H[C*(Ge.Ge)]
 Deg. of freedom     1
 Full point group                 D*H     NOp   8
 Largest Abelian subgroup         D2H     NOp   8
 Largest concise Abelian subgroup C2      NOp   2
                         Standard orientation:                         
 ---------------------------------------------------------------------
 Center     Atomic      Atomic             Coordinates (Angstroms)
 Number     Number       Type             X           Y           Z
 ---------------------------------------------------------------------
      1         32           0        0.000000    0.000000    1.222472
      2         32           0        0.000000    0.000000   -1.222472
 ---------------------------------------------------------------------
 Rotational constants (GHZ):      0.0000000      2.2873918      2.2873918
 General basis read from cards:  (5D, 7F)
 AO basis set in the form of general basis input (Overlap normalization):
      1 0
 S  19 1.00       0.000000000000
      0.8707191310D+08  0.3005073544D-06
      0.1669825550D+08  0.1818533280D-05
      0.3859525630D+07  0.1031028591D-04
      0.1045593670D+07  0.4698281939D-04
      0.3239183580D+06  0.1831549625D-03
      0.1122827040D+06  0.6240716948D-03
      0.4273091860D+05  0.1905561269D-02
      0.1756143400D+05  0.5309661789D-02
      0.7684117190D+04  0.1367281523D-01
      0.3536440080D+04  0.3269316489D-01
      0.1694321570D+04  0.7202760736D-01
      0.8377239370D+03  0.1425396431D+00
      0.4243282900D+03  0.2396440051D+00
      0.2188387180D+03  0.3063686411D+00
      0.1143141340D+03  0.2417026980D+00
      0.6021043300D+02  0.8411702340D-01
      0.3184891800D+02  0.7645424842D-02
      0.1685539800D+02  0.9104348067D-03
      0.8891866000D+01  0.1016434407D-04
 S  16 1.00       0.000000000000
      0.4273091860D+05 -0.1234497702D-05
      0.1756143400D+05 -0.9672319890D-05
      0.7684117190D+04 -0.5721849199D-04
      0.3536440080D+04 -0.3191324047D-03
      0.1694321570D+04 -0.1454621765D-02
      0.8377239370D+03 -0.6059369774D-02
      0.4243282900D+03 -0.2080360669D-01
      0.2188387180D+03 -0.5661095074D-01
      0.1143141340D+03 -0.8913728599D-01
      0.6021043300D+02 -0.1414558729D-02
      0.3184891800D+02  0.3098914220D+00
      0.1685539800D+02  0.5146477470D+00
      0.8891866000D+01  0.2594108454D+00
      0.4657631000D+01  0.3298678549D-01
      0.2412055000D+01  0.1428561979D-02
      0.1228901000D+01 -0.7601803025D-03
 P  17 1.00       0.000000000000
      0.1174430380D+06  0.2929071931D-05
      0.3211270170D+05  0.2220745741D-04
      0.1035622780D+05  0.1421432019D-03
      0.3829502370D+04  0.7050720845D-03
      0.1583398750D+04  0.2866935361D-02
      0.7159708880D+03  0.9757952798D-02
      0.3471957940D+03  0.2832181501D-01
      0.1775087620D+03  0.7059822516D-01
      0.9427731900D+02  0.1477216584D+00
      0.5135757400D+02  0.2483888844D+00
      0.2838439400D+02  0.3145594241D+00
      0.1576918100D+02  0.2500337918D+00
      0.8737484000D+01  0.9835996145D-01
      0.4796560000D+01  0.1532905896D-01
      0.2594129000D+01  0.1274961251D-02
      0.1375515000D+01  0.1810616098D-03
      0.7120240000D+00  0.1661202951D-04
 S  12 1.00       0.000000000000
      0.4243282900D+03  0.1389016522D-03
      0.2188387180D+03  0.7331101976D-03
      0.1143141340D+03  0.2981475222D-02
      0.6021043300D+02  0.1618845131D-02
      0.3184891800D+02 -0.3615745898D-01
      0.1685539800D+02 -0.1749707854D+00
      0.8891866000D+01 -0.1335354204D+00
      0.4657631000D+01  0.2842452682D+00
      0.2412055000D+01  0.5827476232D+00
      0.1228901000D+01  0.3278288075D+00
      0.6124070000D+00  0.3366884550D-01
      0.2964650000D+00  0.1474906874D-02
 P  15 1.00       0.000000000000
      0.1583398750D+04 -0.4468798821D-05
      0.7159708880D+03 -0.3649351329D-04
      0.3471957940D+03 -0.2426978284D-03
      0.1775087620D+03 -0.1198011430D-02
      0.9427731900D+02 -0.4469180820D-02
      0.5135757400D+02 -0.1165375033D-01
      0.2838439400D+02 -0.2173662396D-01
      0.1576918100D+02  0.1089098614D-02
      0.8737484000D+01  0.1303270680D+00
      0.4796560000D+01  0.3100348416D+00
      0.2594129000D+01  0.3789054945D+00
      0.1375515000D+01  0.2418316939D+00
      0.7120240000D+00  0.5869325143D-01
      0.3584120000D+00  0.4075599652D-02
      0.1747820000D+00  0.5644374887D-03
 D  16 1.00       0.000000000000
      0.3716671100D+04  0.6098143612D-05
      0.1173615130D+04  0.6126497374D-04
      0.4533829740D+03  0.4079668873D-03
      0.2020128610D+03  0.1937407484D-02
      0.9921297400D+02  0.7211822196D-02
      0.5192319600D+02  0.2130058403D-01
      0.2826466300D+02  0.5196325926D-01
      0.1573951100D+02  0.1083962960D+00
      0.8867485000D+01  0.1818506138D+00
      0.5016733000D+01  0.2392712193D+00
      0.2833262000D+01  0.2570432510D+00
      0.1587258000D+01  0.2269919798D+00
      0.8743800000D+00  0.1516835634D+00
      0.4674350000D+00  0.6547945659D-01
      0.2377920000D+00  0.1347483821D-01
      0.1119320000D+00  0.1024501099D-02
 S  11 1.00       0.000000000000
      0.6021043300D+02 -0.3974529326D-04
      0.3184891800D+02  0.3878706927D-03
      0.1685539800D+02  0.3170552426D-02
      0.8891866000D+01  0.2826985418D-02
      0.4657631000D+01 -0.1262358019D-01
      0.2412055000D+01 -0.6431246080D-01
      0.1228901000D+01 -0.1725622668D+00
      0.6124070000D+00  0.6664773304D-02
      0.2964650000D+00  0.4219025727D+00
      0.1382830000D+00  0.5484238637D+00
      0.6154800000D-01  0.1787391193D+00
 S   1 1.00       0.000000000000
      0.3012465152D-01  0.1000000000D+01
 P  10 1.00       0.000000000000
      0.1576918100D+02 -0.1846393577D-03
      0.8737484000D+01 -0.2104947974D-02
      0.4796560000D+01 -0.5120162132D-02
      0.2594129000D+01 -0.1186971009D-01
      0.1375515000D+01 -0.2083042828D-01
      0.7120240000D+00  0.4547833522D-01
      0.3584120000D+00  0.2291199505D+00
      0.1747820000D+00  0.4050340853D+00
      0.8225900000D-01  0.3623290207D+00
      0.3721000000D-01  0.1025823700D+00
 P   1 1.00       0.000000000000
      0.2107680843D-01  0.1000000000D+01
 S   1 1.00       0.000000000000
      0.3155223000D+01  0.1000000000D+01
 S   1 1.00       0.000000000000
      0.1758949000D+01  0.1000000000D+01
 S   1 1.00       0.000000000000
      0.9805650000D+00  0.1000000000D+01
 S   1 1.00       0.000000000000
      0.5466370000D+00  0.1000000000D+01
 S   1 1.00       0.000000000000
      0.3047350000D+00  0.1000000000D+01
 S   1 1.00       0.000000000000
      0.1698810000D+00  0.1000000000D+01
 P   1 1.00       0.000000000000
      0.1625443000D+01  0.1000000000D+01
 P   1 1.00       0.000000000000
      0.9900980000D+00  0.1000000000D+01
 P   1 1.00       0.000000000000
      0.6030930000D+00  0.1000000000D+01
 P   1 1.00       0.000000000000
      0.3673590000D+00  0.1000000000D+01
 P   1 1.00       0.000000000000
      0.2237670000D+00  0.1000000000D+01
 P   1 1.00       0.000000000000
      0.1363020000D+00  0.1000000000D+01
 D   1 1.00       0.000000000000
      0.1728789000D+01  0.1000000000D+01
 D   1 1.00       0.000000000000
      0.9563500000D+00  0.1000000000D+01
 D   1 1.00       0.000000000000
      0.5290440000D+00  0.1000000000D+01
 D   1 1.00       0.000000000000
      0.2926630000D+00  0.1000000000D+01
 D   1 1.00       0.000000000000
      0.1618980000D+00  0.1000000000D+01
 D   1 1.00       0.000000000000
      0.8956100000D-01  0.1000000000D+01
 F   1 1.00       0.000000000000
      0.1912526000D+01  0.1000000000D+01
 F   1 1.00       0.000000000000
      0.1021803000D+01  0.1000000000D+01
 F   1 1.00       0.000000000000
      0.5459180000D+00  0.1000000000D+01
 F   1 1.00       0.000000000000
      0.2916670000D+00  0.1000000000D+01
 F   1 1.00       0.000000000000
      0.1558280000D+00  0.1000000000D+01
 G   1 1.00       0.000000000000
      0.1494392000D+01  0.1000000000D+01
 G   1 1.00       0.000000000000
      0.8215300000D+00  0.1000000000D+01
 G   1 1.00       0.000000000000
      0.4516290000D+00  0.1000000000D+01
 G   1 1.00       0.000000000000
      0.2482790000D+00  0.1000000000D+01
 H   1 1.00       0.000000000000
      0.9176190000D+00  0.1000000000D+01
 H   1 1.00       0.000000000000
      0.5455350000D+00  0.1000000000D+01
 H   1 1.00       0.000000000000
      0.3243270000D+00  0.1000000000D+01
 I   1 1.00       0.000000000000
      0.9041630000D+00  0.1000000000D+01
 I   1 1.00       0.000000000000
      0.4871810000D+00  0.1000000000D+01
 J   1 1.00       0.000000000000
      0.7559568828D+00  0.1000000000D+01
 ****
      2 0
 S  19 1.00       0.000000000000
      0.8707191310D+08  0.3005073544D-06
      0.1669825550D+08  0.1818533280D-05
      0.3859525630D+07  0.1031028591D-04
      0.1045593670D+07  0.4698281939D-04
      0.3239183580D+06  0.1831549625D-03
      0.1122827040D+06  0.6240716948D-03
      0.4273091860D+05  0.1905561269D-02
      0.1756143400D+05  0.5309661789D-02
      0.7684117190D+04  0.1367281523D-01
      0.3536440080D+04  0.3269316489D-01
      0.1694321570D+04  0.7202760736D-01
      0.8377239370D+03  0.1425396431D+00
      0.4243282900D+03  0.2396440051D+00
      0.2188387180D+03  0.3063686411D+00
      0.1143141340D+03  0.2417026980D+00
      0.6021043300D+02  0.8411702340D-01
      0.3184891800D+02  0.7645424842D-02
      0.1685539800D+02  0.9104348067D-03
      0.8891866000D+01  0.1016434407D-04
 S  16 1.00       0.000000000000
      0.4273091860D+05 -0.1234497702D-05
      0.1756143400D+05 -0.9672319890D-05
      0.7684117190D+04 -0.5721849199D-04
      0.3536440080D+04 -0.3191324047D-03
      0.1694321570D+04 -0.1454621765D-02
      0.8377239370D+03 -0.6059369774D-02
      0.4243282900D+03 -0.2080360669D-01
      0.2188387180D+03 -0.5661095074D-01
      0.1143141340D+03 -0.8913728599D-01
      0.6021043300D+02 -0.1414558729D-02
      0.3184891800D+02  0.3098914220D+00
      0.1685539800D+02  0.5146477470D+00
      0.8891866000D+01  0.2594108454D+00
      0.4657631000D+01  0.3298678549D-01
      0.2412055000D+01  0.1428561979D-02
      0.1228901000D+01 -0.7601803025D-03
 P  17 1.00       0.000000000000
      0.1174430380D+06  0.2929071931D-05
      0.3211270170D+05  0.2220745741D-04
      0.1035622780D+05  0.1421432019D-03
      0.3829502370D+04  0.7050720845D-03
      0.1583398750D+04  0.2866935361D-02
      0.7159708880D+03  0.9757952798D-02
      0.3471957940D+03  0.2832181501D-01
      0.1775087620D+03  0.7059822516D-01
      0.9427731900D+02  0.1477216584D+00
      0.5135757400D+02  0.2483888844D+00
      0.2838439400D+02  0.3145594241D+00
      0.1576918100D+02  0.2500337918D+00
      0.8737484000D+01  0.9835996145D-01
      0.4796560000D+01  0.1532905896D-01
      0.2594129000D+01  0.1274961251D-02
      0.1375515000D+01  0.1810616098D-03
      0.7120240000D+00  0.1661202951D-04
 S  12 1.00       0.000000000000
      0.4243282900D+03  0.1389016522D-03
      0.2188387180D+03  0.7331101976D-03
      0.1143141340D+03  0.2981475222D-02
      0.6021043300D+02  0.1618845131D-02
      0.3184891800D+02 -0.3615745898D-01
      0.1685539800D+02 -0.1749707854D+00
      0.8891866000D+01 -0.1335354204D+00
      0.4657631000D+01  0.2842452682D+00
      0.2412055000D+01  0.5827476232D+00
      0.1228901000D+01  0.3278288075D+00
      0.6124070000D+00  0.3366884550D-01
      0.2964650000D+00  0.1474906874D-02
 P  15 1.00       0.000000000000
      0.1583398750D+04 -0.4468798821D-05
      0.7159708880D+03 -0.3649351329D-04
      0.3471957940D+03 -0.2426978284D-03
      0.1775087620D+03 -0.1198011430D-02
      0.9427731900D+02 -0.4469180820D-02
      0.5135757400D+02 -0.1165375033D-01
      0.2838439400D+02 -0.2173662396D-01
      0.1576918100D+02  0.1089098614D-02
      0.8737484000D+01  0.1303270680D+00
      0.4796560000D+01  0.3100348416D+00
      0.2594129000D+01  0.3789054945D+00
      0.1375515000D+01  0.2418316939D+00
      0.7120240000D+00  0.5869325143D-01
      0.3584120000D+00  0.4075599652D-02
      0.1747820000D+00  0.5644374887D-03
 D  16 1.00       0.000000000000
      0.3716671100D+04  0.6098143612D-05
      0.1173615130D+04  0.6126497374D-04
      0.4533829740D+03  0.4079668873D-03
      0.2020128610D+03  0.1937407484D-02
      0.9921297400D+02  0.7211822196D-02
      0.5192319600D+02  0.2130058403D-01
      0.2826466300D+02  0.5196325926D-01
      0.1573951100D+02  0.1083962960D+00
      0.8867485000D+01  0.1818506138D+00
      0.5016733000D+01  0.2392712193D+00
      0.2833262000D+01  0.2570432510D+00
      0.1587258000D+01  0.2269919798D+00
      0.8743800000D+00  0.1516835634D+00
      0.4674350000D+00  0.6547945659D-01
      0.2377920000D+00  0.1347483821D-01
      0.1119320000D+00  0.1024501099D-02
 S  11 1.00       0.000000000000
      0.6021043300D+02 -0.3974529326D-04
      0.3184891800D+02  0.3878706927D-03
      0.1685539800D+02  0.3170552426D-02
      0.8891866000D+01  0.2826985418D-02
      0.4657631000D+01 -0.1262358019D-01
      0.2412055000D+01 -0.6431246080D-01
      0.1228901000D+01 -0.1725622668D+00
      0.6124070000D+00  0.6664773304D-02
      0.2964650000D+00  0.4219025727D+00
      0.1382830000D+00  0.5484238637D+00
      0.6154800000D-01  0.1787391193D+00
 S   1 1.00       0.000000000000
      0.3012465152D-01  0.1000000000D+01
 P  10 1.00       0.000000000000
      0.1576918100D+02 -0.1846393577D-03
      0.8737484000D+01 -0.2104947974D-02
      0.4796560000D+01 -0.5120162132D-02
      0.2594129000D+01 -0.1186971009D-01
      0.1375515000D+01 -0.2083042828D-01
      0.7120240000D+00  0.4547833522D-01
      0.3584120000D+00  0.2291199505D+00
      0.1747820000D+00  0.4050340853D+00
      0.8225900000D-01  0.3623290207D+00
      0.3721000000D-01  0.1025823700D+00
 P   1 1.00       0.000000000000
      0.2107680843D-01  0.1000000000D+01
 S   1 1.00       0.000000000000
      0.3155223000D+01  0.1000000000D+01
 S   1 1.00       0.000000000000
      0.1758949000D+01  0.1000000000D+01
 S   1 1.00       0.000000000000
      0.9805650000D+00  0.1000000000D+01
 S   1 1.00       0.000000000000
      0.5466370000D+00  0.1000000000D+01
 S   1 1.00       0.000000000000
      0.3047350000D+00  0.1000000000D+01
 S   1 1.00       0.000000000000
      0.1698810000D+00  0.1000000000D+01
 P   1 1.00       0.000000000000
      0.1625443000D+01  0.1000000000D+01
 P   1 1.00       0.000000000000
      0.9900980000D+00  0.1000000000D+01
 P   1 1.00       0.000000000000
      0.6030930000D+00  0.1000000000D+01
 P   1 1.00       0.000000000000
      0.3673590000D+00  0.1000000000D+01
 P   1 1.00       0.000000000000
      0.2237670000D+00  0.1000000000D+01
 P   1 1.00       0.000000000000
      0.1363020000D+00  0.1000000000D+01
 D   1 1.00       0.000000000000
      0.1728789000D+01  0.1000000000D+01
 D   1 1.00       0.000000000000
      0.9563500000D+00  0.1000000000D+01
 D   1 1.00       0.000000000000
      0.5290440000D+00  0.1000000000D+01
 D   1 1.00       0.000000000000
      0.2926630000D+00  0.1000000000D+01
 D   1 1.00       0.000000000000
      0.1618980000D+00  0.1000000000D+01
 D   1 1.00       0.000000000000
      0.8956100000D-01  0.1000000000D+01
 F   1 1.00       0.000000000000
      0.1912526000D+01  0.1000000000D+01
 F   1 1.00       0.000000000000
      0.1021803000D+01  0.1000000000D+01
 F   1 1.00       0.000000000000
      0.5459180000D+00  0.1000000000D+01
 F   1 1.00       0.000000000000
      0.2916670000D+00  0.1000000000D+01
 F   1 1.00       0.000000000000
      0.1558280000D+00  0.1000000000D+01
 G   1 1.00       0.000000000000
      0.1494392000D+01  0.1000000000D+01
 G   1 1.00       0.000000000000
      0.8215300000D+00  0.1000000000D+01
 G   1 1.00       0.000000000000
      0.4516290000D+00  0.1000000000D+01
 G   1 1.00       0.000000000000
      0.2482790000D+00  0.1000000000D+01
 H   1 1.00       0.000000000000
      0.9176190000D+00  0.1000000000D+01
 H   1 1.00       0.000000000000
      0.5455350000D+00  0.1000000000D+01
 H   1 1.00       0.000000000000
      0.3243270000D+00  0.1000000000D+01
 I   1 1.00       0.000000000000
      0.9041630000D+00  0.1000000000D+01
 I   1 1.00       0.000000000000
      0.4871810000D+00  0.1000000000D+01
 J   1 1.00       0.000000000000
      0.7559568828D+00  0.1000000000D+01
 ****

 There are    78 symmetry adapted basis functions of AG  symmetry.
 There are    35 symmetry adapted basis functions of B1G symmetry.
 There are    54 symmetry adapted basis functions of B2G symmetry.
 There are    54 symmetry adapted basis functions of B3G symmetry.
 There are    35 symmetry adapted basis functions of AU  symmetry.
 There are    78 symmetry adapted basis functions of B1U symmetry.
 There are    54 symmetry adapted basis functions of B2U symmetry.
 There are    54 symmetry adapted basis functions of B3U symmetry.
 Integral buffers will be    131072 words long.
 Raffenetti 2 integral format.
 Two-electron integral symmetry is turned on.
   442 basis functions,  1218 primitive gaussians,   696 cartesian basis functions
    32 alpha electrons       32 beta electrons
       nuclear repulsion energy       221.6318725517 Hartrees.
 NAtoms=    2 NActive=    2 NUniq=    1 SFac= 3.00D+00 NAtFMM=   80 NAOKFM=F Big=F
 One-electron integrals computed using PRISM.
 NBasis=   442 RedAO= F  NBF=    78    35    54    54    35    78    54    54
 NBsUse=   442 1.00D-04 NBFU=    78    35    54    54    35    78    54    54
 Harris functional with IExCor=  205 diagonalized for initial guess.
 ExpMin= 2.11D-02 ExpMax= 8.71D+07 ExpMxC= 7.68D+03 IAcc=3 IRadAn=         5 AccDes= 0.00D+00
 HarFok:  IExCor=  205 AccDes= 0.00D+00 IRadAn=         5 IDoV= 1
 ScaDFX=  1.000000  1.000000  1.000000  1.000000
 FoFCou: FMM=F IPFlag=           0 FMFlag=      100000 FMFlg1=           0
         NFxFlg=           0 DoJE=T BraDBF=F KetDBF=T FulRan=T
         Omega=  0.000000  0.000000  1.000000  0.000000  0.000000 ICntrl=     500 IOpCl=  0
         NMat0=    1 NMatS0=    1 NMatT0=    0 NMatD0=    1 NMtDS0=    0 NMtDT0=    0
         I1Cent=           4 NGrid=           0.
 Petite list used in FoFCou.
 Initial guess orbital symmetries:
       Occupied  (SGU) (SGG) (SGU) (SGG) (SGU) (SGG) (PIG) (PIG)
                 (PIU) (PIU) (SGG) (SGU) (SGG) (SGU) (PIU) (PIU)
                 (PIG) (PIG) (SGG) (PIU) (PIU) (DLTG) (DLTG) (DLTU)
                 (DLTU) (PIG) (PIG) (SGU) (SGG) (SGU) (SGG) (PIU)
       Virtual   (PIU) (PIG) (PIG) (SGU) (SGG) (PIU) (PIU) (SGG)
                 (SGU) (PIG) (PIG) (DLTG) (DLTG) (SGU) (PIU) (PIU)
                 (SGG) (DLTU) (DLTU) (PIU) (PIU) (SGU) (PIG) (PIG)
                 (SGG) (SGU) (PIG) (PIG) (SGG) (DLTG) (DLTG) (PHIU)
                 (PHIU) (PIU) (PIU) (SGU) (DLTG) (DLTG) (SGG) (DLTU)
                 (DLTU) (PHIG) (PHIG) (PIG) (PIG) (SGU) (PIU) (PIU)
                 (PIU) (PIU) (SGG) (DLTU) (DLTU) (PIG) (PIG) (SGU)
                 (SGG) (PIG) (PIG) (SGG) (SGU) (PHIU) (PHIU) (?A)
                 (?A) (PIU) (PIU) (SGG) (DLTG) (DLTG) (?B) (?B)
                 (DLTG) (DLTG) (DLTU) (DLTU) (PHIU) (PHIU) (SGU)
                 (PIG) (PIG) (PHIG) (PHIG) (DLTG) (DLTG) (PIU)
                 (PIU) (PHIG) (PHIG) (SGU) (DLTU) (DLTU) (SGG)
                 (PIG) (PIG) (SGU) (PIU) (PIU) (DLTU) (DLTU) (PIU)
                 (PIU) (SGG) (PIG) (PIG) (?A) (?A) (?C) (?C) (SGG)
                 (SGU) (PHIU) (PHIU) (?D) (?D) (PIG) (PIG) (?B)
                 (?B) (DLTG) (DLTG) (SGG) (PIU) (PIU) (SGU) (PIG)
                 (PIG) (PHIG) (PHIG) (DLTU) (DLTU) (SGU) (SGG)
                 (PHIU) (PHIU) (DLTG) (DLTG) (?A) (?A) (PIU) (PIU)
                 (DLTG) (DLTG) (PHIU) (PHIU) (?B) (?B) (DLTU) (DLTU)
                 (PHIG) (PHIG) (DLTG) (DLTG) (SGG) (PHIG) (PHIG)
                 (PIG) (PIG) (PIU) (PIU) (SGU) (DLTU) (DLTU) (SGG)
                 (SGU) (PIU) (PIU) (DLTU) (DLTU) (SGU) (PIG) (PIG)
                 (SGG) (?A) (?A) (?C) (?C) (PIU) (PIU) (PIG) (PIG)
                 (?E) (?E) (PHIU) (PHIU) (?F) (?F) (?D) (?D) (SGU)
                 (DLTG) (DLTG) (SGG) (PIG) (PIG) (?B) (?B) (PIU)
                 (PIU) (?A) (?A) (?C) (?C) (?D) (?D) (PHIU) (PHIU)
                 (?B) (?B) (PHIG) (PHIG) (SGG) (SGU) (PIG) (PIG)
                 (SGG) (DLTU) (DLTU) (PIU) (PIU) (DLTG) (DLTG)
                 (PHIG) (PHIG) (DLTU) (DLTU) (SGU) (SGU) (PIG)
                 (PIG) (PHIU) (PHIU) (?A) (?A) (PHIU) (PHIU) (DLTG)
                 (DLTG) (?B) (?B) (PHIG) (PHIG) (DLTG) (DLTG) (DLTG)
                 (DLTG) (PHIG) (PHIG) (PIU) (PIU) (DLTU) (DLTU)
                 (SGG) (PIG) (PIG) (SGG) (DLTU) (DLTU) (PIU) (PIU)
                 (SGU) (PIU) (PIU) (DLTU) (DLTU) (PIG) (PIG) (SGU)
                 (?A) (?A) (PHIU) (PHIU) (?C) (?C) (SGU) (SGG)
                 (?E) (?E) (?G) (?G) (?H) (?H) (?F) (?F) (DLTG)
                 (DLTG) (SGG) (?D) (?D) (PIU) (PIU) (PIG) (PIG)
                 (PIU) (PIU) (?B) (?B) (SGU) (SGG) (PIG) (PIG)
                 (PHIG) (PHIG) (SGG) (DLTU) (DLTU) (?A) (?A) (?C)
                 (?C) (PIG) (PIG) (PHIU) (PHIU) (?D) (?D) (?C)
                 (?C) (SGU) (?A) (?A) (?B) (?B) (?E) (?E) (?F)
                 (?F) (DLTG) (DLTG) (?D) (?D) (PHIU) (PHIU) (PIU)
                 (PIU) (PHIG) (PHIG) (?B) (?B) (SGG) (PIG) (PIG)
                 (SGU) (DLTU) (DLTU) (PHIG) (PHIG) (DLTG) (DLTG)
                 (PIU) (PIU) (SGU) (SGU) (DLTU) (DLTU) (SGG) (PIG)
                 (PIG) (PHIU) (PHIU) (PHIG) (PHIG) (DLTG) (DLTG)
                 (?A) (?A) (PHIU) (PHIU) (?B) (?B) (DLTU) (DLTU)
                 (DLTG) (DLTG) (PHIG) (PHIG) (PIU) (PIU) (SGG)
                 (PIG) (PIG) (SGU) (PIU) (PIU) (DLTU) (DLTU) (SGG)
                 (DLTG) (DLTG) (DLTU) (DLTU) (SGU) (PIG) (PIG)
                 (PIU) (PIU) (PIG) (PIG) (SGU) (SGG) (PIU) (PIU)
                 (PIG) (PIG) (SGG) (SGU) (SGG) (SGU) (SGG) (SGU)
 Requested convergence on RMS density matrix=1.00D-10 within 128 cycles.
 Requested convergence on MAX density matrix=1.00D-08.
 Requested convergence on             energy=1.00D-08.
 No special actions if energy rises.
 Initial convergence to 1.0D-05 achieved.  Increase integral accuracy.
 SCF Done:  E(ROHF) =  -4150.73659653     A.U. after   15 cycles
             Convg  =    0.4747D-10             -V/T =  2.0000
 <Sx>= 0.0000 <Sy>= 0.0000 <Sz>= 0.0000 <S**2>= 0.0000 S= 0.0000
 <L.S>= 0.000000000000E+00
 Annihilation of the first spin contaminant:
 S**2 before annihilation     0.0000,   after     0.0000
 GenMOA:  NOpAll=  8 NOp2=8 NOpUse=  8 JSym2X=1
 <Sx>= 0.0000 <Sy>= 0.0000 <Sz>= 0.0000 <S**2>= 0.0000 S= 0.0000
 Range of M.O.s used for correlation:    29   442
 NBasis=   442 NAE=    32 NBE=    32 NFC=    28 NFV=     0
 NROrb=    414 NOA=     4 NOB=     4 NVA=   410 NVB=   410

 **** Warning!!: The largest alpha MO coefficient is  0.26621506D+03


 **** Warning!!: The largest beta MO coefficient is  0.26621506D+03

 Singles contribution to E2=   -0.3411124376D-12
 Disk-based method using OVN memory for  4 occupieds at a time.
 Permanent disk used for amplitudes and <ij||ab> integrals=     7391480 words.
 Estimated scratch disk usage=   522309704 words.
 IUseRI=2 ITolRI= 6 IR12RI=0
 Actual    scratch disk usage=   522011720 words.
 GetIJB would need an additional  1668833351 words of memory to use all   8 processors.
 JobTyp=2 Pass  1:  I=   1 to   4 NPSUse=  1 ParTrn=F ParDer=F DoDerP=F.
 (rs|ai) integrals will be sorted in core.
 T,EIJ(AA): I=   1 J=   2      0.5121215E-03     -0.9548064E-03
 T,EIJ(AA): I=   1 J=   3      0.6706647E-03     -0.1243041E-02
 T,EIJ(AA): I=   1 J=   4      0.1231534E-02     -0.2080006E-02
 T,EIJ(AA): I=   2 J=   3      0.1448986E-02     -0.2242674E-02
 T,EIJ(AA): I=   2 J=   4      0.2337199E-02     -0.3082754E-02
 T,EIJ(AA): I=   3 J=   4      0.5430079E-02     -0.5825239E-02
 T,EIJ(AB): I=   1 J=   1      0.5102520E-02     -0.1137233E-01
 T,EIJ(AB): I=   1 J=   2      0.3455753E-02     -0.6720805E-02
 T,EIJ(AB): I=   1 J=   3      0.3349620E-02     -0.7171013E-02
 T,EIJ(AB): I=   1 J=   4      0.3677320E-02     -0.6941502E-02
 T,EIJ(AB): I=   2 J=   1      0.3455753E-02     -0.6720805E-02
 T,EIJ(AB): I=   2 J=   2      0.7980093E-02     -0.1315868E-01
 T,EIJ(AB): I=   2 J=   3      0.5675838E-02     -0.9711841E-02
 T,EIJ(AB): I=   2 J=   4      0.4321245E-02     -0.6800124E-02
 T,EIJ(AB): I=   3 J=   1      0.3349620E-02     -0.7171013E-02
 T,EIJ(AB): I=   3 J=   2      0.5675838E-02     -0.9711841E-02
 T,EIJ(AB): I=   3 J=   3      0.1139132E-01     -0.1585524E-01
 T,EIJ(AB): I=   3 J=   4      0.6573843E-02     -0.7928814E-02
 T,EIJ(AB): I=   4 J=   1      0.3677320E-02     -0.6941502E-02
 T,EIJ(AB): I=   4 J=   2      0.4321245E-02     -0.6800124E-02
 T,EIJ(AB): I=   4 J=   3      0.6573843E-02     -0.7928814E-02
 T,EIJ(AB): I=   4 J=   4      0.2327039E-01     -0.2077367E-01
 Actual    scratch disk usage=   522011720 words.
 GetIJB would need an additional  1668833351 words of memory to use all   8 processors.
 JobTyp=3 Pass  1:  I=   1 to   4 NPSUse=  1 ParTrn=F ParDer=F DoDerP=F.
 (rs|ai) integrals will be sorted in core.
 T,EIJ(BB): I=   1 J=   2      0.5121215E-03     -0.9548064E-03
 T,EIJ(BB): I=   1 J=   3      0.6706647E-03     -0.1243041E-02
 T,EIJ(BB): I=   1 J=   4      0.1231534E-02     -0.2080006E-02
 T,EIJ(BB): I=   2 J=   3      0.1448986E-02     -0.2242674E-02
 T,EIJ(BB): I=   2 J=   4      0.2337199E-02     -0.3082754E-02
 T,EIJ(BB): I=   3 J=   4      0.5430079E-02     -0.5825239E-02
 Spin components of T(2) and E(2):
     alpha-alpha T2 =       0.1163058468D-01 E2=     -0.1542852063D-01
     alpha-beta  T2 =       0.1018515643D+00 E2=     -0.1517081198D+00
     beta-beta   T2 =       0.1163058468D-01 E2=     -0.1542852063D-01
 ANorm=    0.1060713314D+01
 E2 =    -0.1825651610D+00 EUMP2 =    -0.41509191616916D+04

 Complete Basis Set (CBS) Extrapolation:
 M. R. Nyden and G. A. Petersson, JCP 75, 1843 (1981)
 G. A. Petersson and M. A. Al-Laham, JCP 94, 6081 (1991)
 G. A. Petersson, T. Tensfeldt, and J. A. Montgomery, JCP 94, 6091 (1991)
 J. A. Montgomery, J. W. Ochterski, and G. A. Petersson, JCP 101, 5900 (1994)
 
 Minimum Number of PNO for Extrapolation =  25
 Absolute Overlaps: IRadAn =         5
 LocTrn: ILocal=3 LocCor=F DoCore=F.
 Entering OneElI...
 Overlap between basis sets.
 Requested accuracy = 0.1000D-12
 PrsmSu:  NPrtUS=   1 ThrOK=F IAlg=1
 PRISM was handed  1609708848 working-precision words and   136 shell-pairs
 IPart=  0 NShTot=         136 NBatch=          15 AvBLen=         9.1
 CnvPC2: ToCart=F DoDens=F IPureD=0 IPureF=0.
 Transformed matrix in CnvPC2: 
                 1             2             3             4             5 
      1   0.100000D+01  0.402055D+00  0.000000D+00  0.000000D+00  0.000000D+00
      2   0.402055D+00  0.100000D+01  0.000000D+00  0.000000D+00  0.000000D+00
      3   0.000000D+00  0.000000D+00  0.100000D+01  0.000000D+00  0.000000D+00
      4   0.000000D+00  0.000000D+00  0.000000D+00  0.100000D+01  0.000000D+00
      5   0.000000D+00  0.000000D+00  0.000000D+00  0.000000D+00  0.100000D+01
      6   0.277653D-01  0.326539D+00  0.000000D+00  0.000000D+00  0.000000D+00
      7   0.000000D+00  0.000000D+00  0.339478D+00  0.000000D+00  0.000000D+00
      8   0.000000D+00  0.000000D+00  0.000000D+00  0.339478D+00  0.000000D+00
      9   0.000000D+00  0.000000D+00  0.000000D+00  0.000000D+00  0.339478D+00
     10   0.000000D+00  0.000000D+00  0.000000D+00  0.000000D+00  0.000000D+00
     11   0.000000D+00  0.000000D+00  0.000000D+00  0.000000D+00  0.000000D+00
     12   0.000000D+00  0.000000D+00  0.000000D+00  0.000000D+00  0.000000D+00
     13   0.000000D+00  0.000000D+00  0.000000D+00  0.000000D+00  0.000000D+00
     14   0.000000D+00  0.000000D+00  0.000000D+00  0.000000D+00  0.000000D+00
     15  -0.375498D-03  0.437680D-02  0.000000D+00  0.000000D+00  0.000000D+00
     16   0.000000D+00  0.000000D+00  0.122886D-01  0.000000D+00  0.000000D+00
     17   0.000000D+00  0.000000D+00  0.000000D+00  0.122886D-01  0.000000D+00
     18   0.000000D+00  0.000000D+00  0.000000D+00  0.000000D+00  0.122886D-01
     19   0.000000D+00  0.000000D+00  0.000000D+00  0.000000D+00  0.000000D+00
     20   0.000000D+00  0.000000D+00  0.000000D+00  0.000000D+00  0.000000D+00
     21   0.000000D+00  0.000000D+00  0.000000D+00  0.000000D+00  0.000000D+00
     22   0.000000D+00  0.000000D+00  0.000000D+00  0.000000D+00  0.000000D+00
     23   0.000000D+00  0.000000D+00  0.000000D+00  0.000000D+00  0.000000D+00
     24   0.000000D+00  0.000000D+00  0.000000D+00  0.000000D+00  0.000000D+00
     25   0.000000D+00  0.000000D+00  0.000000D+00  0.000000D+00  0.000000D+00
     26   0.000000D+00  0.000000D+00  0.000000D+00  0.000000D+00  0.000000D+00
     27   0.000000D+00  0.000000D+00  0.000000D+00  0.000000D+00  0.000000D+00
     28   0.000000D+00  0.000000D+00  0.000000D+00  0.000000D+00  0.000000D+00
     29   0.000000D+00  0.000000D+00  0.000000D+00  0.000000D+00  0.000000D+00
     30   0.000000D+00  0.000000D+00  0.000000D+00  0.000000D+00  0.000000D+00
     31   0.000000D+00  0.000000D+00  0.000000D+00  0.000000D+00  0.000000D+00
     32   0.000000D+00  0.000000D+00  0.000000D+00  0.000000D+00  0.000000D+00
     33   0.000000D+00  0.000000D+00  0.000000D+00  0.000000D+00  0.000000D+00
     34   0.000000D+00  0.000000D+00  0.000000D+00  0.000000D+00  0.000000D+00
     35   0.000000D+00  0.000000D+00  0.000000D+00  0.000000D+00  0.000000D+00
     36   0.000000D+00  0.000000D+00  0.000000D+00  0.000000D+00  0.000000D+00
     37   0.000000D+00  0.000000D+00  0.000000D+00  0.000000D+00  0.000000D+00
     38   0.519701D-03  0.324410D-02  0.000000D+00  0.000000D+00 -0.823729D-03
     39   0.000000D+00  0.000000D+00  0.225053D-03  0.000000D+00  0.000000D+00
     40   0.000000D+00  0.000000D+00  0.000000D+00  0.225053D-03  0.000000D+00
     41   0.970167D-03  0.602315D-02  0.000000D+00  0.000000D+00 -0.138017D-02
     42   0.328409D-02  0.201627D-01  0.000000D+00  0.000000D+00 -0.391102D-02
     43   0.000000D+00  0.000000D+00  0.130626D-02  0.000000D+00  0.000000D+00
     44   0.000000D+00  0.000000D+00  0.000000D+00  0.130626D-02  0.000000D+00
     45   0.000000D+00  0.000000D+00  0.000000D+00  0.000000D+00  0.000000D+00
     46   0.000000D+00  0.000000D+00  0.000000D+00  0.000000D+00  0.000000D+00
                 6             7             8             9            10 
      1   0.277653D-01  0.000000D+00  0.000000D+00  0.000000D+00  0.000000D+00
      2   0.326539D+00  0.000000D+00  0.000000D+00  0.000000D+00  0.000000D+00
      3   0.000000D+00  0.339478D+00  0.000000D+00  0.000000D+00  0.000000D+00
      4   0.000000D+00  0.000000D+00  0.339478D+00  0.000000D+00  0.000000D+00
      5   0.000000D+00  0.000000D+00  0.000000D+00  0.339478D+00  0.000000D+00
      6   0.100000D+01  0.000000D+00  0.000000D+00  0.000000D+00  0.000000D+00
      7   0.000000D+00  0.100000D+01  0.000000D+00  0.000000D+00  0.000000D+00
      8   0.000000D+00  0.000000D+00  0.100000D+01  0.000000D+00  0.000000D+00
      9   0.000000D+00  0.000000D+00  0.000000D+00  0.100000D+01  0.000000D+00
     10   0.000000D+00  0.000000D+00  0.000000D+00  0.000000D+00  0.100000D+01
     11   0.000000D+00  0.000000D+00  0.000000D+00  0.000000D+00  0.000000D+00
     12   0.000000D+00  0.000000D+00  0.000000D+00  0.000000D+00  0.000000D+00
     13   0.000000D+00  0.000000D+00  0.000000D+00  0.000000D+00  0.000000D+00
     14   0.000000D+00  0.000000D+00  0.000000D+00  0.000000D+00  0.000000D+00
     15   0.194461D+00  0.000000D+00  0.000000D+00  0.000000D+00  0.000000D+00
     16   0.000000D+00  0.211028D+00  0.000000D+00  0.000000D+00  0.000000D+00
     17   0.000000D+00  0.000000D+00  0.211028D+00  0.000000D+00  0.000000D+00
     18   0.000000D+00  0.000000D+00  0.000000D+00  0.211028D+00  0.000000D+00
     19   0.000000D+00  0.000000D+00  0.000000D+00  0.000000D+00  0.658109D-01
     20   0.000000D+00  0.000000D+00  0.000000D+00  0.000000D+00  0.000000D+00
     21   0.000000D+00  0.000000D+00  0.000000D+00  0.000000D+00  0.000000D+00
     22   0.000000D+00  0.000000D+00  0.000000D+00  0.000000D+00  0.000000D+00
     23   0.000000D+00  0.000000D+00  0.000000D+00  0.000000D+00  0.000000D+00
     24   0.000000D+00  0.000000D+00  0.000000D+00  0.000000D+00  0.000000D+00
     25   0.000000D+00  0.000000D+00  0.000000D+00  0.000000D+00  0.000000D+00
     26   0.000000D+00  0.000000D+00  0.000000D+00  0.000000D+00  0.000000D+00
     27   0.000000D+00  0.000000D+00  0.000000D+00  0.000000D+00  0.000000D+00
     28   0.000000D+00  0.000000D+00  0.000000D+00  0.000000D+00  0.000000D+00
     29   0.000000D+00  0.000000D+00  0.000000D+00  0.000000D+00  0.000000D+00
     30   0.000000D+00  0.000000D+00  0.000000D+00  0.000000D+00  0.000000D+00
     31   0.000000D+00  0.000000D+00  0.000000D+00  0.000000D+00  0.000000D+00
     32   0.000000D+00  0.000000D+00  0.000000D+00  0.000000D+00  0.000000D+00
     33   0.000000D+00  0.000000D+00  0.000000D+00  0.000000D+00  0.000000D+00
     34   0.000000D+00  0.000000D+00  0.000000D+00  0.000000D+00  0.000000D+00
     35   0.000000D+00  0.000000D+00  0.000000D+00  0.000000D+00  0.000000D+00
     36   0.000000D+00  0.000000D+00  0.000000D+00  0.000000D+00  0.000000D+00
     37   0.000000D+00  0.000000D+00  0.000000D+00  0.000000D+00  0.000000D+00
     38   0.205342D-01  0.000000D+00  0.000000D+00 -0.144591D-01  0.559756D-02
     39   0.000000D+00  0.408403D-02  0.000000D+00  0.000000D+00  0.000000D+00
     40   0.000000D+00  0.000000D+00  0.408403D-02  0.000000D+00  0.000000D+00
     41   0.366376D-01  0.000000D+00  0.000000D+00 -0.238252D-01  0.896115D-02
     42   0.110396D+00  0.000000D+00  0.000000D+00 -0.587220D-01  0.161732D-01
     43   0.000000D+00  0.216689D-01  0.000000D+00  0.000000D+00  0.000000D+00
     44   0.000000D+00  0.000000D+00  0.216689D-01  0.000000D+00  0.000000D+00
     45   0.000000D+00  0.000000D+00  0.000000D+00  0.000000D+00  0.000000D+00
     46   0.000000D+00  0.000000D+00  0.000000D+00  0.000000D+00  0.000000D+00
                11            12            13            14            15 
      1   0.000000D+00  0.000000D+00  0.000000D+00  0.000000D+00 -0.375498D-03
      2   0.000000D+00  0.000000D+00  0.000000D+00  0.000000D+00  0.437680D-02
      3   0.000000D+00  0.000000D+00  0.000000D+00  0.000000D+00  0.000000D+00
      4   0.000000D+00  0.000000D+00  0.000000D+00  0.000000D+00  0.000000D+00
      5   0.000000D+00  0.000000D+00  0.000000D+00  0.000000D+00  0.000000D+00
      6   0.000000D+00  0.000000D+00  0.000000D+00  0.000000D+00  0.194461D+00
      7   0.000000D+00  0.000000D+00  0.000000D+00  0.000000D+00  0.000000D+00
      8   0.000000D+00  0.000000D+00  0.000000D+00  0.000000D+00  0.000000D+00
      9   0.000000D+00  0.000000D+00  0.000000D+00  0.000000D+00  0.000000D+00
     10   0.000000D+00  0.000000D+00  0.000000D+00  0.000000D+00  0.000000D+00
     11   0.100000D+01  0.000000D+00  0.000000D+00  0.000000D+00  0.000000D+00
     12   0.000000D+00  0.100000D+01  0.000000D+00  0.000000D+00  0.000000D+00
     13   0.000000D+00  0.000000D+00  0.100000D+01  0.000000D+00  0.000000D+00
     14   0.000000D+00  0.000000D+00  0.000000D+00  0.100000D+01  0.000000D+00
     15   0.000000D+00  0.000000D+00  0.000000D+00  0.000000D+00  0.100000D+01
     16   0.000000D+00  0.000000D+00  0.000000D+00  0.000000D+00  0.000000D+00
     17   0.000000D+00  0.000000D+00  0.000000D+00  0.000000D+00  0.000000D+00
     18   0.000000D+00  0.000000D+00  0.000000D+00  0.000000D+00  0.000000D+00
     19   0.000000D+00  0.000000D+00  0.000000D+00  0.000000D+00  0.000000D+00
     20   0.658109D-01  0.000000D+00  0.000000D+00  0.000000D+00  0.000000D+00
     21   0.000000D+00  0.658109D-01  0.000000D+00  0.000000D+00  0.000000D+00
     22   0.000000D+00  0.000000D+00  0.658109D-01  0.000000D+00  0.000000D+00
     23   0.000000D+00  0.000000D+00  0.000000D+00  0.658109D-01  0.000000D+00
     24   0.000000D+00  0.000000D+00  0.000000D+00  0.000000D+00  0.519701D-03
     25   0.000000D+00  0.000000D+00  0.000000D+00  0.000000D+00  0.324410D-02
     26   0.000000D+00  0.000000D+00  0.000000D+00  0.000000D+00  0.000000D+00
     27   0.000000D+00  0.000000D+00  0.000000D+00  0.000000D+00  0.000000D+00
     28   0.000000D+00  0.000000D+00  0.000000D+00  0.000000D+00  0.823729D-03
     29   0.000000D+00  0.000000D+00  0.000000D+00  0.000000D+00  0.205342D-01
     30   0.000000D+00  0.000000D+00  0.000000D+00  0.000000D+00  0.000000D+00
     31   0.000000D+00  0.000000D+00  0.000000D+00  0.000000D+00  0.000000D+00
     32   0.000000D+00  0.000000D+00  0.000000D+00  0.000000D+00  0.144591D-01
     33   0.000000D+00  0.000000D+00  0.000000D+00  0.000000D+00  0.559756D-02
     34   0.000000D+00  0.000000D+00  0.000000D+00  0.000000D+00  0.000000D+00
     35   0.000000D+00  0.000000D+00  0.000000D+00  0.000000D+00  0.000000D+00
     36   0.000000D+00  0.000000D+00  0.000000D+00  0.000000D+00  0.000000D+00
     37   0.000000D+00  0.000000D+00  0.000000D+00  0.000000D+00  0.000000D+00
     38   0.000000D+00  0.000000D+00  0.000000D+00  0.000000D+00  0.212674D+00
     39  -0.293467D-02  0.000000D+00  0.000000D+00  0.000000D+00  0.000000D+00
     40   0.000000D+00 -0.293467D-02  0.000000D+00  0.000000D+00  0.000000D+00
     41   0.000000D+00  0.000000D+00  0.000000D+00  0.000000D+00  0.276890D+00
     42   0.000000D+00  0.000000D+00  0.000000D+00  0.000000D+00  0.338497D+00
     43  -0.130438D-01  0.000000D+00  0.000000D+00  0.000000D+00  0.000000D+00
     44   0.000000D+00 -0.130438D-01  0.000000D+00  0.000000D+00  0.000000D+00
     45   0.000000D+00  0.000000D+00  0.228296D-02  0.000000D+00  0.000000D+00
     46   0.000000D+00  0.000000D+00  0.000000D+00  0.228296D-02  0.000000D+00
                16            17            18            19            20 
      1   0.000000D+00  0.000000D+00  0.000000D+00  0.000000D+00  0.000000D+00
      2   0.000000D+00  0.000000D+00  0.000000D+00  0.000000D+00  0.000000D+00
      3   0.122886D-01  0.000000D+00  0.000000D+00  0.000000D+00  0.000000D+00
      4   0.000000D+00  0.122886D-01  0.000000D+00  0.000000D+00  0.000000D+00
      5   0.000000D+00  0.000000D+00  0.122886D-01  0.000000D+00  0.000000D+00
      6   0.000000D+00  0.000000D+00  0.000000D+00  0.000000D+00  0.000000D+00
      7   0.211028D+00  0.000000D+00  0.000000D+00  0.000000D+00  0.000000D+00
      8   0.000000D+00  0.211028D+00  0.000000D+00  0.000000D+00  0.000000D+00
      9   0.000000D+00  0.000000D+00  0.211028D+00  0.000000D+00  0.000000D+00
     10   0.000000D+00  0.000000D+00  0.000000D+00  0.658109D-01  0.000000D+00
     11   0.000000D+00  0.000000D+00  0.000000D+00  0.000000D+00  0.658109D-01
     12   0.000000D+00  0.000000D+00  0.000000D+00  0.000000D+00  0.000000D+00
     13   0.000000D+00  0.000000D+00  0.000000D+00  0.000000D+00  0.000000D+00
     14   0.000000D+00  0.000000D+00  0.000000D+00  0.000000D+00  0.000000D+00
     15   0.000000D+00  0.000000D+00  0.000000D+00  0.000000D+00  0.000000D+00
     16   0.100000D+01  0.000000D+00  0.000000D+00  0.000000D+00  0.000000D+00
     17   0.000000D+00  0.100000D+01  0.000000D+00  0.000000D+00  0.000000D+00
     18   0.000000D+00  0.000000D+00  0.100000D+01  0.000000D+00  0.000000D+00
     19   0.000000D+00  0.000000D+00  0.000000D+00  0.100000D+01  0.000000D+00
     20   0.000000D+00  0.000000D+00  0.000000D+00  0.000000D+00  0.100000D+01
     21   0.000000D+00  0.000000D+00  0.000000D+00  0.000000D+00  0.000000D+00
     22   0.000000D+00  0.000000D+00  0.000000D+00  0.000000D+00  0.000000D+00
     23   0.000000D+00  0.000000D+00  0.000000D+00  0.000000D+00  0.000000D+00
     24   0.000000D+00  0.000000D+00 -0.970167D-03  0.328409D-02  0.000000D+00
     25   0.000000D+00  0.000000D+00 -0.602315D-02  0.201627D-01  0.000000D+00
     26   0.225053D-03  0.000000D+00  0.000000D+00  0.000000D+00 -0.130626D-02
     27   0.000000D+00  0.225053D-03  0.000000D+00  0.000000D+00  0.000000D+00
     28   0.000000D+00  0.000000D+00 -0.138017D-02  0.391102D-02  0.000000D+00
     29   0.000000D+00  0.000000D+00 -0.366376D-01  0.110396D+00  0.000000D+00
     30   0.408403D-02  0.000000D+00  0.000000D+00  0.000000D+00 -0.216689D-01
     31   0.000000D+00  0.408403D-02  0.000000D+00  0.000000D+00  0.000000D+00
     32   0.000000D+00  0.000000D+00 -0.238252D-01  0.587220D-01  0.000000D+00
     33   0.000000D+00  0.000000D+00 -0.896115D-02  0.161732D-01  0.000000D+00
     34   0.293467D-02  0.000000D+00  0.000000D+00  0.000000D+00 -0.130438D-01
     35   0.000000D+00  0.293467D-02  0.000000D+00  0.000000D+00  0.000000D+00
     36   0.000000D+00  0.000000D+00  0.000000D+00  0.000000D+00  0.000000D+00
     37   0.000000D+00  0.000000D+00  0.000000D+00  0.000000D+00  0.000000D+00
     38   0.000000D+00  0.000000D+00 -0.276890D+00  0.338497D+00  0.000000D+00
     39   0.105492D+00  0.000000D+00  0.000000D+00  0.000000D+00 -0.271684D+00
     40   0.000000D+00  0.105492D+00  0.000000D+00  0.000000D+00  0.000000D+00
     41   0.000000D+00  0.000000D+00 -0.338873D+00  0.313806D+00  0.000000D+00
     42   0.000000D+00  0.000000D+00 -0.313806D+00  0.898005D-01  0.000000D+00
     43   0.271684D+00  0.000000D+00  0.000000D+00  0.000000D+00 -0.428316D+00
     44   0.000000D+00  0.271684D+00  0.000000D+00  0.000000D+00  0.000000D+00
     45   0.000000D+00  0.000000D+00  0.000000D+00  0.000000D+00  0.000000D+00
     46   0.000000D+00  0.000000D+00  0.000000D+00  0.000000D+00  0.000000D+00
                21            22            23            24            25 
      1   0.000000D+00  0.000000D+00  0.000000D+00  0.000000D+00  0.000000D+00
      2   0.000000D+00  0.000000D+00  0.000000D+00  0.000000D+00  0.000000D+00
      3   0.000000D+00  0.000000D+00  0.000000D+00  0.000000D+00  0.000000D+00
      4   0.000000D+00  0.000000D+00  0.000000D+00  0.000000D+00  0.000000D+00
      5   0.000000D+00  0.000000D+00  0.000000D+00  0.000000D+00  0.000000D+00
      6   0.000000D+00  0.000000D+00  0.000000D+00  0.000000D+00  0.000000D+00
      7   0.000000D+00  0.000000D+00  0.000000D+00  0.000000D+00  0.000000D+00
      8   0.000000D+00  0.000000D+00  0.000000D+00  0.000000D+00  0.000000D+00
      9   0.000000D+00  0.000000D+00  0.000000D+00  0.000000D+00  0.000000D+00
     10   0.000000D+00  0.000000D+00  0.000000D+00  0.000000D+00  0.000000D+00
     11   0.000000D+00  0.000000D+00  0.000000D+00  0.000000D+00  0.000000D+00
     12   0.658109D-01  0.000000D+00  0.000000D+00  0.000000D+00  0.000000D+00
     13   0.000000D+00  0.658109D-01  0.000000D+00  0.000000D+00  0.000000D+00
     14   0.000000D+00  0.000000D+00  0.658109D-01  0.000000D+00  0.000000D+00
     15   0.000000D+00  0.000000D+00  0.000000D+00  0.519701D-03  0.324410D-02
     16   0.000000D+00  0.000000D+00  0.000000D+00  0.000000D+00  0.000000D+00
     17   0.000000D+00  0.000000D+00  0.000000D+00  0.000000D+00  0.000000D+00
     18   0.000000D+00  0.000000D+00  0.000000D+00 -0.970167D-03 -0.602315D-02
     19   0.000000D+00  0.000000D+00  0.000000D+00  0.328409D-02  0.201627D-01
     20   0.000000D+00  0.000000D+00  0.000000D+00  0.000000D+00  0.000000D+00
     21   0.100000D+01  0.000000D+00  0.000000D+00  0.000000D+00  0.000000D+00
     22   0.000000D+00  0.100000D+01  0.000000D+00  0.000000D+00  0.000000D+00
     23   0.000000D+00  0.000000D+00  0.100000D+01  0.000000D+00  0.000000D+00
     24   0.000000D+00  0.000000D+00  0.000000D+00  0.100000D+01  0.402055D+00
     25   0.000000D+00  0.000000D+00  0.000000D+00  0.402055D+00  0.100000D+01
     26   0.000000D+00  0.000000D+00  0.000000D+00  0.000000D+00  0.000000D+00
     27  -0.130626D-02  0.000000D+00  0.000000D+00  0.000000D+00  0.000000D+00
     28   0.000000D+00  0.000000D+00  0.000000D+00  0.000000D+00  0.000000D+00
     29   0.000000D+00  0.000000D+00  0.000000D+00  0.277653D-01  0.326539D+00
     30   0.000000D+00  0.000000D+00  0.000000D+00  0.000000D+00  0.000000D+00
     31  -0.216689D-01  0.000000D+00  0.000000D+00  0.000000D+00  0.000000D+00
     32   0.000000D+00  0.000000D+00  0.000000D+00  0.000000D+00  0.000000D+00
     33   0.000000D+00  0.000000D+00  0.000000D+00  0.000000D+00  0.000000D+00
     34   0.000000D+00  0.000000D+00  0.000000D+00  0.000000D+00  0.000000D+00
     35  -0.130438D-01  0.000000D+00  0.000000D+00  0.000000D+00  0.000000D+00
     36   0.000000D+00  0.228296D-02  0.000000D+00  0.000000D+00  0.000000D+00
     37   0.000000D+00  0.000000D+00  0.228296D-02  0.000000D+00  0.000000D+00
     38   0.000000D+00  0.000000D+00  0.000000D+00 -0.375498D-03  0.437680D-02
     39   0.000000D+00  0.000000D+00  0.000000D+00  0.000000D+00  0.000000D+00
     40  -0.271684D+00  0.000000D+00  0.000000D+00  0.000000D+00  0.000000D+00
     41   0.000000D+00  0.000000D+00  0.000000D+00  0.000000D+00  0.000000D+00
     42   0.000000D+00  0.000000D+00  0.000000D+00  0.000000D+00  0.000000D+00
     43   0.000000D+00  0.000000D+00  0.000000D+00  0.000000D+00  0.000000D+00
     44  -0.428316D+00  0.000000D+00  0.000000D+00  0.000000D+00  0.000000D+00
     45   0.000000D+00  0.162921D+00  0.000000D+00  0.000000D+00  0.000000D+00
     46   0.000000D+00  0.000000D+00  0.162921D+00  0.000000D+00  0.000000D+00
                26            27            28            29            30 
      1   0.000000D+00  0.000000D+00  0.000000D+00  0.000000D+00  0.000000D+00
      2   0.000000D+00  0.000000D+00  0.000000D+00  0.000000D+00  0.000000D+00
      3   0.000000D+00  0.000000D+00  0.000000D+00  0.000000D+00  0.000000D+00
      4   0.000000D+00  0.000000D+00  0.000000D+00  0.000000D+00  0.000000D+00
      5   0.000000D+00  0.000000D+00  0.000000D+00  0.000000D+00  0.000000D+00
      6   0.000000D+00  0.000000D+00  0.000000D+00  0.000000D+00  0.000000D+00
      7   0.000000D+00  0.000000D+00  0.000000D+00  0.000000D+00  0.000000D+00
      8   0.000000D+00  0.000000D+00  0.000000D+00  0.000000D+00  0.000000D+00
      9   0.000000D+00  0.000000D+00  0.000000D+00  0.000000D+00  0.000000D+00
     10   0.000000D+00  0.000000D+00  0.000000D+00  0.000000D+00  0.000000D+00
     11   0.000000D+00  0.000000D+00  0.000000D+00  0.000000D+00  0.000000D+00
     12   0.000000D+00  0.000000D+00  0.000000D+00  0.000000D+00  0.000000D+00
     13   0.000000D+00  0.000000D+00  0.000000D+00  0.000000D+00  0.000000D+00
     14   0.000000D+00  0.000000D+00  0.000000D+00  0.000000D+00  0.000000D+00
     15   0.000000D+00  0.000000D+00  0.823729D-03  0.205342D-01  0.000000D+00
     16   0.225053D-03  0.000000D+00  0.000000D+00  0.000000D+00  0.408403D-02
     17   0.000000D+00  0.225053D-03  0.000000D+00  0.000000D+00  0.000000D+00
     18   0.000000D+00  0.000000D+00 -0.138017D-02 -0.366376D-01  0.000000D+00
     19   0.000000D+00  0.000000D+00  0.391102D-02  0.110396D+00  0.000000D+00
     20  -0.130626D-02  0.000000D+00  0.000000D+00  0.000000D+00 -0.216689D-01
     21   0.000000D+00 -0.130626D-02  0.000000D+00  0.000000D+00  0.000000D+00
     22   0.000000D+00  0.000000D+00  0.000000D+00  0.000000D+00  0.000000D+00
     23   0.000000D+00  0.000000D+00  0.000000D+00  0.000000D+00  0.000000D+00
     24   0.000000D+00  0.000000D+00  0.000000D+00  0.277653D-01  0.000000D+00
     25   0.000000D+00  0.000000D+00  0.000000D+00  0.326539D+00  0.000000D+00
     26   0.100000D+01  0.000000D+00  0.000000D+00  0.000000D+00  0.339478D+00
     27   0.000000D+00  0.100000D+01  0.000000D+00  0.000000D+00  0.000000D+00
     28   0.000000D+00  0.000000D+00  0.100000D+01  0.000000D+00  0.000000D+00
     29   0.000000D+00  0.000000D+00  0.000000D+00  0.100000D+01  0.000000D+00
     30   0.339478D+00  0.000000D+00  0.000000D+00  0.000000D+00  0.100000D+01
     31   0.000000D+00  0.339478D+00  0.000000D+00  0.000000D+00  0.000000D+00
     32   0.000000D+00  0.000000D+00  0.339478D+00  0.000000D+00  0.000000D+00
     33   0.000000D+00  0.000000D+00  0.000000D+00  0.000000D+00  0.000000D+00
     34   0.000000D+00  0.000000D+00  0.000000D+00  0.000000D+00  0.000000D+00
     35   0.000000D+00  0.000000D+00  0.000000D+00  0.000000D+00  0.000000D+00
     36   0.000000D+00  0.000000D+00  0.000000D+00  0.000000D+00  0.000000D+00
     37   0.000000D+00  0.000000D+00  0.000000D+00  0.000000D+00  0.000000D+00
     38   0.000000D+00  0.000000D+00  0.000000D+00  0.194461D+00  0.000000D+00
     39   0.122886D-01  0.000000D+00  0.000000D+00  0.000000D+00  0.211028D+00
     40   0.000000D+00  0.122886D-01  0.000000D+00  0.000000D+00  0.000000D+00
     41   0.000000D+00  0.000000D+00  0.122886D-01  0.000000D+00  0.000000D+00
     42   0.000000D+00  0.000000D+00  0.000000D+00  0.000000D+00  0.000000D+00
     43   0.000000D+00  0.000000D+00  0.000000D+00  0.000000D+00  0.000000D+00
     44   0.000000D+00  0.000000D+00  0.000000D+00  0.000000D+00  0.000000D+00
     45   0.000000D+00  0.000000D+00  0.000000D+00  0.000000D+00  0.000000D+00
     46   0.000000D+00  0.000000D+00  0.000000D+00  0.000000D+00  0.000000D+00
                31            32            33            34            35 
      1   0.000000D+00  0.000000D+00  0.000000D+00  0.000000D+00  0.000000D+00
      2   0.000000D+00  0.000000D+00  0.000000D+00  0.000000D+00  0.000000D+00
      3   0.000000D+00  0.000000D+00  0.000000D+00  0.000000D+00  0.000000D+00
      4   0.000000D+00  0.000000D+00  0.000000D+00  0.000000D+00  0.000000D+00
      5   0.000000D+00  0.000000D+00  0.000000D+00  0.000000D+00  0.000000D+00
      6   0.000000D+00  0.000000D+00  0.000000D+00  0.000000D+00  0.000000D+00
      7   0.000000D+00  0.000000D+00  0.000000D+00  0.000000D+00  0.000000D+00
      8   0.000000D+00  0.000000D+00  0.000000D+00  0.000000D+00  0.000000D+00
      9   0.000000D+00  0.000000D+00  0.000000D+00  0.000000D+00  0.000000D+00
     10   0.000000D+00  0.000000D+00  0.000000D+00  0.000000D+00  0.000000D+00
     11   0.000000D+00  0.000000D+00  0.000000D+00  0.000000D+00  0.000000D+00
     12   0.000000D+00  0.000000D+00  0.000000D+00  0.000000D+00  0.000000D+00
     13   0.000000D+00  0.000000D+00  0.000000D+00  0.000000D+00  0.000000D+00
     14   0.000000D+00  0.000000D+00  0.000000D+00  0.000000D+00  0.000000D+00
     15   0.000000D+00  0.144591D-01  0.559756D-02  0.000000D+00  0.000000D+00
     16   0.000000D+00  0.000000D+00  0.000000D+00  0.293467D-02  0.000000D+00
     17   0.408403D-02  0.000000D+00  0.000000D+00  0.000000D+00  0.293467D-02
     18   0.000000D+00 -0.238252D-01 -0.896115D-02  0.000000D+00  0.000000D+00
     19   0.000000D+00  0.587220D-01  0.161732D-01  0.000000D+00  0.000000D+00
     20   0.000000D+00  0.000000D+00  0.000000D+00 -0.130438D-01  0.000000D+00
     21  -0.216689D-01  0.000000D+00  0.000000D+00  0.000000D+00 -0.130438D-01
     22   0.000000D+00  0.000000D+00  0.000000D+00  0.000000D+00  0.000000D+00
     23   0.000000D+00  0.000000D+00  0.000000D+00  0.000000D+00  0.000000D+00
     24   0.000000D+00  0.000000D+00  0.000000D+00  0.000000D+00  0.000000D+00
     25   0.000000D+00  0.000000D+00  0.000000D+00  0.000000D+00  0.000000D+00
     26   0.000000D+00  0.000000D+00  0.000000D+00  0.000000D+00  0.000000D+00
     27   0.339478D+00  0.000000D+00  0.000000D+00  0.000000D+00  0.000000D+00
     28   0.000000D+00  0.339478D+00  0.000000D+00  0.000000D+00  0.000000D+00
     29   0.000000D+00  0.000000D+00  0.000000D+00  0.000000D+00  0.000000D+00
     30   0.000000D+00  0.000000D+00  0.000000D+00  0.000000D+00  0.000000D+00
     31   0.100000D+01  0.000000D+00  0.000000D+00  0.000000D+00  0.000000D+00
     32   0.000000D+00  0.100000D+01  0.000000D+00  0.000000D+00  0.000000D+00
     33   0.000000D+00  0.000000D+00  0.100000D+01  0.000000D+00  0.000000D+00
     34   0.000000D+00  0.000000D+00  0.000000D+00  0.100000D+01  0.000000D+00
     35   0.000000D+00  0.000000D+00  0.000000D+00  0.000000D+00  0.100000D+01
     36   0.000000D+00  0.000000D+00  0.000000D+00  0.000000D+00  0.000000D+00
     37   0.000000D+00  0.000000D+00  0.000000D+00  0.000000D+00  0.000000D+00
     38   0.000000D+00  0.000000D+00  0.000000D+00  0.000000D+00  0.000000D+00
     39   0.000000D+00  0.000000D+00  0.000000D+00  0.000000D+00  0.000000D+00
     40   0.211028D+00  0.000000D+00  0.000000D+00  0.000000D+00  0.000000D+00
     41   0.000000D+00  0.211028D+00  0.000000D+00  0.000000D+00  0.000000D+00
     42   0.000000D+00  0.000000D+00  0.658109D-01  0.000000D+00  0.000000D+00
     43   0.000000D+00  0.000000D+00  0.000000D+00  0.658109D-01  0.000000D+00
     44   0.000000D+00  0.000000D+00  0.000000D+00  0.000000D+00  0.658109D-01
     45   0.000000D+00  0.000000D+00  0.000000D+00  0.000000D+00  0.000000D+00
     46   0.000000D+00  0.000000D+00  0.000000D+00  0.000000D+00  0.000000D+00
                36            37            38            39            40 
      1   0.000000D+00  0.000000D+00  0.519701D-03  0.000000D+00  0.000000D+00
      2   0.000000D+00  0.000000D+00  0.324410D-02  0.000000D+00  0.000000D+00
      3   0.000000D+00  0.000000D+00  0.000000D+00  0.225053D-03  0.000000D+00
      4   0.000000D+00  0.000000D+00  0.000000D+00  0.000000D+00  0.225053D-03
      5   0.000000D+00  0.000000D+00 -0.823729D-03  0.000000D+00  0.000000D+00
      6   0.000000D+00  0.000000D+00  0.205342D-01  0.000000D+00  0.000000D+00
      7   0.000000D+00  0.000000D+00  0.000000D+00  0.408403D-02  0.000000D+00
      8   0.000000D+00  0.000000D+00  0.000000D+00  0.000000D+00  0.408403D-02
      9   0.000000D+00  0.000000D+00 -0.144591D-01  0.000000D+00  0.000000D+00
     10   0.000000D+00  0.000000D+00  0.559756D-02  0.000000D+00  0.000000D+00
     11   0.000000D+00  0.000000D+00  0.000000D+00 -0.293467D-02  0.000000D+00
     12   0.000000D+00  0.000000D+00  0.000000D+00  0.000000D+00 -0.293467D-02
     13   0.000000D+00  0.000000D+00  0.000000D+00  0.000000D+00  0.000000D+00
     14   0.000000D+00  0.000000D+00  0.000000D+00  0.000000D+00  0.000000D+00
     15   0.000000D+00  0.000000D+00  0.212674D+00  0.000000D+00  0.000000D+00
     16   0.000000D+00  0.000000D+00  0.000000D+00  0.105492D+00  0.000000D+00
     17   0.000000D+00  0.000000D+00  0.000000D+00  0.000000D+00  0.105492D+00
     18   0.000000D+00  0.000000D+00 -0.276890D+00  0.000000D+00  0.000000D+00
     19   0.000000D+00  0.000000D+00  0.338497D+00  0.000000D+00  0.000000D+00
     20   0.000000D+00  0.000000D+00  0.000000D+00 -0.271684D+00  0.000000D+00
     21   0.000000D+00  0.000000D+00  0.000000D+00  0.000000D+00 -0.271684D+00
     22   0.228296D-02  0.000000D+00  0.000000D+00  0.000000D+00  0.000000D+00
     23   0.000000D+00  0.228296D-02  0.000000D+00  0.000000D+00  0.000000D+00
     24   0.000000D+00  0.000000D+00 -0.375498D-03  0.000000D+00  0.000000D+00
     25   0.000000D+00  0.000000D+00  0.437680D-02  0.000000D+00  0.000000D+00
     26   0.000000D+00  0.000000D+00  0.000000D+00  0.122886D-01  0.000000D+00
     27   0.000000D+00  0.000000D+00  0.000000D+00  0.000000D+00  0.122886D-01
     28   0.000000D+00  0.000000D+00  0.000000D+00  0.000000D+00  0.000000D+00
     29   0.000000D+00  0.000000D+00  0.194461D+00  0.000000D+00  0.000000D+00
     30   0.000000D+00  0.000000D+00  0.000000D+00  0.211028D+00  0.000000D+00
     31   0.000000D+00  0.000000D+00  0.000000D+00  0.000000D+00  0.211028D+00
     32   0.000000D+00  0.000000D+00  0.000000D+00  0.000000D+00  0.000000D+00
     33   0.000000D+00  0.000000D+00  0.000000D+00  0.000000D+00  0.000000D+00
     34   0.000000D+00  0.000000D+00  0.000000D+00  0.000000D+00  0.000000D+00
     35   0.000000D+00  0.000000D+00  0.000000D+00  0.000000D+00  0.000000D+00
     36   0.100000D+01  0.000000D+00  0.000000D+00  0.000000D+00  0.000000D+00
     37   0.000000D+00  0.100000D+01  0.000000D+00  0.000000D+00  0.000000D+00
     38   0.000000D+00  0.000000D+00  0.100000D+01  0.000000D+00  0.000000D+00
     39   0.000000D+00  0.000000D+00  0.000000D+00  0.100000D+01  0.000000D+00
     40   0.000000D+00  0.000000D+00  0.000000D+00  0.000000D+00  0.100000D+01
     41   0.000000D+00  0.000000D+00  0.000000D+00  0.000000D+00  0.000000D+00
     42   0.000000D+00  0.000000D+00  0.000000D+00  0.000000D+00  0.000000D+00
     43   0.000000D+00  0.000000D+00  0.000000D+00  0.000000D+00  0.000000D+00
     44   0.000000D+00  0.000000D+00  0.000000D+00  0.000000D+00  0.000000D+00
     45   0.658109D-01  0.000000D+00  0.000000D+00  0.000000D+00  0.000000D+00
     46   0.000000D+00  0.658109D-01  0.000000D+00  0.000000D+00  0.000000D+00
                41            42            43            44            45 
      1   0.970167D-03  0.328409D-02  0.000000D+00  0.000000D+00  0.000000D+00
      2   0.602315D-02  0.201627D-01  0.000000D+00  0.000000D+00  0.000000D+00
      3   0.000000D+00  0.000000D+00  0.130626D-02  0.000000D+00  0.000000D+00
      4   0.000000D+00  0.000000D+00  0.000000D+00  0.130626D-02  0.000000D+00
      5  -0.138017D-02 -0.391102D-02  0.000000D+00  0.000000D+00  0.000000D+00
      6   0.366376D-01  0.110396D+00  0.000000D+00  0.000000D+00  0.000000D+00
      7   0.000000D+00  0.000000D+00  0.216689D-01  0.000000D+00  0.000000D+00
      8   0.000000D+00  0.000000D+00  0.000000D+00  0.216689D-01  0.000000D+00
      9  -0.238252D-01 -0.587220D-01  0.000000D+00  0.000000D+00  0.000000D+00
     10   0.896115D-02  0.161732D-01  0.000000D+00  0.000000D+00  0.000000D+00
     11   0.000000D+00  0.000000D+00 -0.130438D-01  0.000000D+00  0.000000D+00
     12   0.000000D+00  0.000000D+00  0.000000D+00 -0.130438D-01  0.000000D+00
     13   0.000000D+00  0.000000D+00  0.000000D+00  0.000000D+00  0.228296D-02
     14   0.000000D+00  0.000000D+00  0.000000D+00  0.000000D+00  0.000000D+00
     15   0.276890D+00  0.338497D+00  0.000000D+00  0.000000D+00  0.000000D+00
     16   0.000000D+00  0.000000D+00  0.271684D+00  0.000000D+00  0.000000D+00
     17   0.000000D+00  0.000000D+00  0.000000D+00  0.271684D+00  0.000000D+00
     18  -0.338873D+00 -0.313806D+00  0.000000D+00  0.000000D+00  0.000000D+00
     19   0.313806D+00  0.898005D-01  0.000000D+00  0.000000D+00  0.000000D+00
     20   0.000000D+00  0.000000D+00 -0.428316D+00  0.000000D+00  0.000000D+00
     21   0.000000D+00  0.000000D+00  0.000000D+00 -0.428316D+00  0.000000D+00
     22   0.000000D+00  0.000000D+00  0.000000D+00  0.000000D+00  0.162921D+00
     23   0.000000D+00  0.000000D+00  0.000000D+00  0.000000D+00  0.000000D+00
     24   0.000000D+00  0.000000D+00  0.000000D+00  0.000000D+00  0.000000D+00
     25   0.000000D+00  0.000000D+00  0.000000D+00  0.000000D+00  0.000000D+00
     26   0.000000D+00  0.000000D+00  0.000000D+00  0.000000D+00  0.000000D+00
     27   0.000000D+00  0.000000D+00  0.000000D+00  0.000000D+00  0.000000D+00
     28   0.122886D-01  0.000000D+00  0.000000D+00  0.000000D+00  0.000000D+00
     29   0.000000D+00  0.000000D+00  0.000000D+00  0.000000D+00  0.000000D+00
     30   0.000000D+00  0.000000D+00  0.000000D+00  0.000000D+00  0.000000D+00
     31   0.000000D+00  0.000000D+00  0.000000D+00  0.000000D+00  0.000000D+00
     32   0.211028D+00  0.000000D+00  0.000000D+00  0.000000D+00  0.000000D+00
     33   0.000000D+00  0.658109D-01  0.000000D+00  0.000000D+00  0.000000D+00
     34   0.000000D+00  0.000000D+00  0.658109D-01  0.000000D+00  0.000000D+00
     35   0.000000D+00  0.000000D+00  0.000000D+00  0.658109D-01  0.000000D+00
     36   0.000000D+00  0.000000D+00  0.000000D+00  0.000000D+00  0.658109D-01
     37   0.000000D+00  0.000000D+00  0.000000D+00  0.000000D+00  0.000000D+00
     38   0.000000D+00  0.000000D+00  0.000000D+00  0.000000D+00  0.000000D+00
     39   0.000000D+00  0.000000D+00  0.000000D+00  0.000000D+00  0.000000D+00
     40   0.000000D+00  0.000000D+00  0.000000D+00  0.000000D+00  0.000000D+00
     41   0.100000D+01  0.000000D+00  0.000000D+00  0.000000D+00  0.000000D+00
     42   0.000000D+00  0.100000D+01  0.000000D+00  0.000000D+00  0.000000D+00
     43   0.000000D+00  0.000000D+00  0.100000D+01  0.000000D+00  0.000000D+00
     44   0.000000D+00  0.000000D+00  0.000000D+00  0.100000D+01  0.000000D+00
     45   0.000000D+00  0.000000D+00  0.000000D+00  0.000000D+00  0.100000D+01
     46   0.000000D+00  0.000000D+00  0.000000D+00  0.000000D+00  0.000000D+00
                46 
      1   0.000000D+00
      2   0.000000D+00
      3   0.000000D+00
      4   0.000000D+00
      5   0.000000D+00
      6   0.000000D+00
      7   0.000000D+00
      8   0.000000D+00
      9   0.000000D+00
     10   0.000000D+00
     11   0.000000D+00
     12   0.000000D+00
     13   0.000000D+00
     14   0.228296D-02
     15   0.000000D+00
     16   0.000000D+00
     17   0.000000D+00
     18   0.000000D+00
     19   0.000000D+00
     20   0.000000D+00
     21   0.000000D+00
     22   0.000000D+00
     23   0.162921D+00
     24   0.000000D+00
     25   0.000000D+00
     26   0.000000D+00
     27   0.000000D+00
     28   0.000000D+00
     29   0.000000D+00
     30   0.000000D+00
     31   0.000000D+00
     32   0.000000D+00
     33   0.000000D+00
     34   0.000000D+00
     35   0.000000D+00
     36   0.000000D+00
     37   0.658109D-01
     38   0.000000D+00
     39   0.000000D+00
     40   0.000000D+00
     41   0.000000D+00
     42   0.000000D+00
     43   0.000000D+00
     44   0.000000D+00
     45   0.000000D+00
     46   0.100000D+01
 Entering OneElI...
 Overlap between basis sets.
 Requested accuracy = 0.1000D-12
 PrsmSu:  NPrtUS=   1 ThrOK=F IAlg=1
 PRISM was handed  1608941604 working-precision words and  1024 shell-pairs
 IPart=  0 NShTot=        1024 NBatch=          89 AvBLen=        11.5
 CnvPC2: ToCart=F DoDens=F IPureD=0 IPureF=0.
 Transformed matrix in CnvPC2: 
                 1             2             3             4             5 
      1   0.999793D+00  0.410396D+00  0.000000D+00  0.000000D+00  0.000000D+00
      2   0.288767D+00  0.988641D+00  0.000000D+00  0.000000D+00  0.000000D+00
      3   0.000000D+00  0.000000D+00  0.999238D+00  0.000000D+00  0.000000D+00
      4   0.000000D+00  0.000000D+00  0.000000D+00  0.999238D+00  0.000000D+00
      5   0.000000D+00  0.000000D+00  0.000000D+00  0.000000D+00  0.999238D+00
      6   0.119645D-01  0.318206D+00  0.000000D+00  0.000000D+00  0.000000D+00
      7   0.000000D+00  0.000000D+00  0.342796D+00  0.000000D+00  0.000000D+00
      8   0.000000D+00  0.000000D+00  0.000000D+00  0.342796D+00  0.000000D+00
      9   0.000000D+00  0.000000D+00  0.000000D+00  0.000000D+00  0.342796D+00
     10   0.000000D+00  0.000000D+00  0.000000D+00  0.000000D+00  0.000000D+00
     11   0.000000D+00  0.000000D+00  0.000000D+00  0.000000D+00  0.000000D+00
     12   0.000000D+00  0.000000D+00  0.000000D+00  0.000000D+00  0.000000D+00
     13   0.000000D+00  0.000000D+00  0.000000D+00  0.000000D+00  0.000000D+00
     14   0.000000D+00  0.000000D+00  0.000000D+00  0.000000D+00  0.000000D+00
     15   0.289427D-04  0.823684D-02  0.000000D+00  0.000000D+00  0.000000D+00
     16   0.403023D-02  0.246542D-01  0.000000D+00  0.000000D+00  0.000000D+00
     17   0.000000D+00  0.000000D+00  0.733925D-02  0.000000D+00  0.000000D+00
     18   0.000000D+00  0.000000D+00  0.000000D+00  0.733925D-02  0.000000D+00
     19   0.000000D+00  0.000000D+00  0.000000D+00  0.000000D+00  0.733925D-02
     20   0.000000D+00  0.000000D+00  0.946296D-03  0.000000D+00  0.000000D+00
     21   0.000000D+00  0.000000D+00  0.000000D+00  0.946296D-03  0.000000D+00
     22   0.000000D+00  0.000000D+00  0.000000D+00  0.000000D+00  0.946296D-03
     23   0.127775D+00  0.615912D+00  0.000000D+00  0.000000D+00  0.000000D+00
     24   0.836172D-01  0.445201D+00  0.000000D+00  0.000000D+00  0.000000D+00
     25   0.543812D-01  0.307485D+00  0.000000D+00  0.000000D+00  0.000000D+00
     26   0.352429D-01  0.206406D+00  0.000000D+00  0.000000D+00  0.000000D+00
     27   0.227947D-01  0.136219D+00  0.000000D+00  0.000000D+00  0.000000D+00
     28   0.147269D-01  0.890174D-01  0.000000D+00  0.000000D+00  0.000000D+00
     29   0.000000D+00  0.000000D+00  0.173394D+00  0.000000D+00  0.000000D+00
     30   0.000000D+00  0.000000D+00  0.000000D+00  0.173394D+00  0.000000D+00
     31   0.000000D+00  0.000000D+00  0.000000D+00  0.000000D+00  0.173394D+00
     32   0.000000D+00  0.000000D+00  0.101478D+00  0.000000D+00  0.000000D+00
     33   0.000000D+00  0.000000D+00  0.000000D+00  0.101478D+00  0.000000D+00
     34   0.000000D+00  0.000000D+00  0.000000D+00  0.000000D+00  0.101478D+00
     35   0.000000D+00  0.000000D+00  0.576001D-01  0.000000D+00  0.000000D+00
     36   0.000000D+00  0.000000D+00  0.000000D+00  0.576001D-01  0.000000D+00
     37   0.000000D+00  0.000000D+00  0.000000D+00  0.000000D+00  0.576001D-01
     38   0.000000D+00  0.000000D+00  0.320477D-01  0.000000D+00  0.000000D+00
     39   0.000000D+00  0.000000D+00  0.000000D+00  0.320477D-01  0.000000D+00
     40   0.000000D+00  0.000000D+00  0.000000D+00  0.000000D+00  0.320477D-01
     41   0.000000D+00  0.000000D+00  0.176057D-01  0.000000D+00  0.000000D+00
     42   0.000000D+00  0.000000D+00  0.000000D+00  0.176057D-01  0.000000D+00
     43   0.000000D+00  0.000000D+00  0.000000D+00  0.000000D+00  0.176057D-01
     44   0.000000D+00  0.000000D+00  0.959529D-02  0.000000D+00  0.000000D+00
     45   0.000000D+00  0.000000D+00  0.000000D+00  0.959529D-02  0.000000D+00
     46   0.000000D+00  0.000000D+00  0.000000D+00  0.000000D+00  0.959529D-02
     47   0.000000D+00  0.000000D+00  0.000000D+00  0.000000D+00  0.000000D+00
     48   0.000000D+00  0.000000D+00  0.000000D+00  0.000000D+00  0.000000D+00
     49   0.000000D+00  0.000000D+00  0.000000D+00  0.000000D+00  0.000000D+00
     50   0.000000D+00  0.000000D+00  0.000000D+00  0.000000D+00  0.000000D+00
     51   0.000000D+00  0.000000D+00  0.000000D+00  0.000000D+00  0.000000D+00
     52   0.000000D+00  0.000000D+00  0.000000D+00  0.000000D+00  0.000000D+00
     53   0.000000D+00  0.000000D+00  0.000000D+00  0.000000D+00  0.000000D+00
     54   0.000000D+00  0.000000D+00  0.000000D+00  0.000000D+00  0.000000D+00
     55   0.000000D+00  0.000000D+00  0.000000D+00  0.000000D+00  0.000000D+00
     56   0.000000D+00  0.000000D+00  0.000000D+00  0.000000D+00  0.000000D+00
     57   0.000000D+00  0.000000D+00  0.000000D+00  0.000000D+00  0.000000D+00
     58   0.000000D+00  0.000000D+00  0.000000D+00  0.000000D+00  0.000000D+00
     59   0.000000D+00  0.000000D+00  0.000000D+00  0.000000D+00  0.000000D+00
     60   0.000000D+00  0.000000D+00  0.000000D+00  0.000000D+00  0.000000D+00
     61   0.000000D+00  0.000000D+00  0.000000D+00  0.000000D+00  0.000000D+00
     62   0.000000D+00  0.000000D+00  0.000000D+00  0.000000D+00  0.000000D+00
     63   0.000000D+00  0.000000D+00  0.000000D+00  0.000000D+00  0.000000D+00
     64   0.000000D+00  0.000000D+00  0.000000D+00  0.000000D+00  0.000000D+00
     65   0.000000D+00  0.000000D+00  0.000000D+00  0.000000D+00  0.000000D+00
     66   0.000000D+00  0.000000D+00  0.000000D+00  0.000000D+00  0.000000D+00
     67   0.000000D+00  0.000000D+00  0.000000D+00  0.000000D+00  0.000000D+00
     68   0.000000D+00  0.000000D+00  0.000000D+00  0.000000D+00  0.000000D+00
     69   0.000000D+00  0.000000D+00  0.000000D+00  0.000000D+00  0.000000D+00
     70   0.000000D+00  0.000000D+00  0.000000D+00  0.000000D+00  0.000000D+00
     71   0.000000D+00  0.000000D+00  0.000000D+00  0.000000D+00  0.000000D+00
     72   0.000000D+00  0.000000D+00  0.000000D+00  0.000000D+00  0.000000D+00
     73   0.000000D+00  0.000000D+00  0.000000D+00  0.000000D+00  0.000000D+00
     74   0.000000D+00  0.000000D+00  0.000000D+00  0.000000D+00  0.000000D+00
     75   0.000000D+00  0.000000D+00  0.000000D+00  0.000000D+00  0.000000D+00
     76   0.000000D+00  0.000000D+00  0.000000D+00  0.000000D+00  0.000000D+00
     77   0.000000D+00  0.000000D+00  0.000000D+00  0.000000D+00  0.000000D+00
     78   0.000000D+00  0.000000D+00  0.000000D+00  0.000000D+00  0.000000D+00
     79   0.000000D+00  0.000000D+00  0.000000D+00  0.000000D+00  0.000000D+00
     80   0.000000D+00  0.000000D+00  0.000000D+00  0.000000D+00  0.000000D+00
     81   0.000000D+00  0.000000D+00  0.000000D+00  0.000000D+00  0.000000D+00
     82   0.000000D+00  0.000000D+00  0.000000D+00  0.000000D+00  0.000000D+00
     83   0.000000D+00  0.000000D+00  0.000000D+00  0.000000D+00  0.000000D+00
     84   0.000000D+00  0.000000D+00  0.000000D+00  0.000000D+00  0.000000D+00
     85   0.000000D+00  0.000000D+00  0.000000D+00  0.000000D+00  0.000000D+00
     86   0.000000D+00  0.000000D+00  0.000000D+00  0.000000D+00  0.000000D+00
     87   0.000000D+00  0.000000D+00  0.000000D+00  0.000000D+00  0.000000D+00
     88   0.000000D+00  0.000000D+00  0.000000D+00  0.000000D+00  0.000000D+00
     89   0.000000D+00  0.000000D+00  0.000000D+00  0.000000D+00  0.000000D+00
     90   0.000000D+00  0.000000D+00  0.000000D+00  0.000000D+00  0.000000D+00
     91   0.000000D+00  0.000000D+00  0.000000D+00  0.000000D+00  0.000000D+00
     92   0.000000D+00  0.000000D+00  0.000000D+00  0.000000D+00  0.000000D+00
     93   0.000000D+00  0.000000D+00  0.000000D+00  0.000000D+00  0.000000D+00
     94   0.000000D+00  0.000000D+00  0.000000D+00  0.000000D+00  0.000000D+00
     95   0.000000D+00  0.000000D+00  0.000000D+00  0.000000D+00  0.000000D+00
     96   0.000000D+00  0.000000D+00  0.000000D+00  0.000000D+00  0.000000D+00
     97   0.000000D+00  0.000000D+00  0.000000D+00  0.000000D+00  0.000000D+00
     98   0.000000D+00  0.000000D+00  0.000000D+00  0.000000D+00  0.000000D+00
     99   0.000000D+00  0.000000D+00  0.000000D+00  0.000000D+00  0.000000D+00
    100   0.000000D+00  0.000000D+00  0.000000D+00  0.000000D+00  0.000000D+00
    101   0.000000D+00  0.000000D+00  0.000000D+00  0.000000D+00  0.000000D+00
    102   0.000000D+00  0.000000D+00  0.000000D+00  0.000000D+00  0.000000D+00
    103   0.000000D+00  0.000000D+00  0.000000D+00  0.000000D+00  0.000000D+00
    104   0.000000D+00  0.000000D+00  0.000000D+00  0.000000D+00  0.000000D+00
    105   0.000000D+00  0.000000D+00  0.000000D+00  0.000000D+00  0.000000D+00
    106   0.000000D+00  0.000000D+00  0.000000D+00  0.000000D+00  0.000000D+00
    107   0.000000D+00  0.000000D+00  0.000000D+00  0.000000D+00  0.000000D+00
    108   0.000000D+00  0.000000D+00  0.000000D+00  0.000000D+00  0.000000D+00
    109   0.000000D+00  0.000000D+00  0.000000D+00  0.000000D+00  0.000000D+00
    110   0.000000D+00  0.000000D+00  0.000000D+00  0.000000D+00  0.000000D+00
    111   0.000000D+00  0.000000D+00  0.000000D+00  0.000000D+00  0.000000D+00
    112   0.000000D+00  0.000000D+00  0.000000D+00  0.000000D+00  0.000000D+00
    113   0.000000D+00  0.000000D+00  0.000000D+00  0.000000D+00  0.000000D+00
    114   0.000000D+00  0.000000D+00  0.000000D+00  0.000000D+00  0.000000D+00
    115   0.000000D+00  0.000000D+00  0.000000D+00  0.000000D+00  0.000000D+00
    116   0.000000D+00  0.000000D+00  0.000000D+00  0.000000D+00  0.000000D+00
    117   0.000000D+00  0.000000D+00  0.000000D+00  0.000000D+00  0.000000D+00
    118   0.000000D+00  0.000000D+00  0.000000D+00  0.000000D+00  0.000000D+00
    119   0.000000D+00  0.000000D+00  0.000000D+00  0.000000D+00  0.000000D+00
    120   0.000000D+00  0.000000D+00  0.000000D+00  0.000000D+00  0.000000D+00
    121   0.000000D+00  0.000000D+00  0.000000D+00  0.000000D+00  0.000000D+00
    122   0.000000D+00  0.000000D+00  0.000000D+00  0.000000D+00  0.000000D+00
    123   0.000000D+00  0.000000D+00  0.000000D+00  0.000000D+00  0.000000D+00
    124   0.000000D+00  0.000000D+00  0.000000D+00  0.000000D+00  0.000000D+00
    125   0.000000D+00  0.000000D+00  0.000000D+00  0.000000D+00  0.000000D+00
    126   0.000000D+00  0.000000D+00  0.000000D+00  0.000000D+00  0.000000D+00
    127   0.000000D+00  0.000000D+00  0.000000D+00  0.000000D+00  0.000000D+00
    128   0.000000D+00  0.000000D+00  0.000000D+00  0.000000D+00  0.000000D+00
    129   0.000000D+00  0.000000D+00  0.000000D+00  0.000000D+00  0.000000D+00
    130   0.000000D+00  0.000000D+00  0.000000D+00  0.000000D+00  0.000000D+00
    131   0.000000D+00  0.000000D+00  0.000000D+00  0.000000D+00  0.000000D+00
    132   0.000000D+00  0.000000D+00  0.000000D+00  0.000000D+00  0.000000D+00
    133   0.000000D+00  0.000000D+00  0.000000D+00  0.000000D+00  0.000000D+00
    134   0.000000D+00  0.000000D+00  0.000000D+00  0.000000D+00  0.000000D+00
    135   0.000000D+00  0.000000D+00  0.000000D+00  0.000000D+00  0.000000D+00
    136   0.000000D+00  0.000000D+00  0.000000D+00  0.000000D+00  0.000000D+00
    137   0.000000D+00  0.000000D+00  0.000000D+00  0.000000D+00  0.000000D+00
    138   0.000000D+00  0.000000D+00  0.000000D+00  0.000000D+00  0.000000D+00
    139   0.000000D+00  0.000000D+00  0.000000D+00  0.000000D+00  0.000000D+00
    140   0.000000D+00  0.000000D+00  0.000000D+00  0.000000D+00  0.000000D+00
    141   0.000000D+00  0.000000D+00  0.000000D+00  0.000000D+00  0.000000D+00
    142   0.000000D+00  0.000000D+00  0.000000D+00  0.000000D+00  0.000000D+00
    143   0.000000D+00  0.000000D+00  0.000000D+00  0.000000D+00  0.000000D+00
    144   0.000000D+00  0.000000D+00  0.000000D+00  0.000000D+00  0.000000D+00
    145   0.000000D+00  0.000000D+00  0.000000D+00  0.000000D+00  0.000000D+00
    146   0.000000D+00  0.000000D+00  0.000000D+00  0.000000D+00  0.000000D+00
    147   0.000000D+00  0.000000D+00  0.000000D+00  0.000000D+00  0.000000D+00
    148   0.000000D+00  0.000000D+00  0.000000D+00  0.000000D+00  0.000000D+00
    149   0.000000D+00  0.000000D+00  0.000000D+00  0.000000D+00  0.000000D+00
    150   0.000000D+00  0.000000D+00  0.000000D+00  0.000000D+00  0.000000D+00
    151   0.000000D+00  0.000000D+00  0.000000D+00  0.000000D+00  0.000000D+00
    152   0.000000D+00  0.000000D+00  0.000000D+00  0.000000D+00  0.000000D+00
    153   0.000000D+00  0.000000D+00  0.000000D+00  0.000000D+00  0.000000D+00
    154   0.000000D+00  0.000000D+00  0.000000D+00  0.000000D+00  0.000000D+00
    155   0.000000D+00  0.000000D+00  0.000000D+00  0.000000D+00  0.000000D+00
    156   0.000000D+00  0.000000D+00  0.000000D+00  0.000000D+00  0.000000D+00
    157   0.000000D+00  0.000000D+00  0.000000D+00  0.000000D+00  0.000000D+00
    158   0.000000D+00  0.000000D+00  0.000000D+00  0.000000D+00  0.000000D+00
    159   0.000000D+00  0.000000D+00  0.000000D+00  0.000000D+00  0.000000D+00
    160   0.000000D+00  0.000000D+00  0.000000D+00  0.000000D+00  0.000000D+00
    161   0.000000D+00  0.000000D+00  0.000000D+00  0.000000D+00  0.000000D+00
    162   0.000000D+00  0.000000D+00  0.000000D+00  0.000000D+00  0.000000D+00
    163   0.000000D+00  0.000000D+00  0.000000D+00  0.000000D+00  0.000000D+00
    164   0.000000D+00  0.000000D+00  0.000000D+00  0.000000D+00  0.000000D+00
    165   0.000000D+00  0.000000D+00  0.000000D+00  0.000000D+00  0.000000D+00
    166   0.000000D+00  0.000000D+00  0.000000D+00  0.000000D+00  0.000000D+00
    167   0.000000D+00  0.000000D+00  0.000000D+00  0.000000D+00  0.000000D+00
    168   0.000000D+00  0.000000D+00  0.000000D+00  0.000000D+00  0.000000D+00
    169   0.000000D+00  0.000000D+00  0.000000D+00  0.000000D+00  0.000000D+00
    170   0.000000D+00  0.000000D+00  0.000000D+00  0.000000D+00  0.000000D+00
    171   0.000000D+00  0.000000D+00  0.000000D+00  0.000000D+00  0.000000D+00
    172   0.000000D+00  0.000000D+00  0.000000D+00  0.000000D+00  0.000000D+00
    173   0.000000D+00  0.000000D+00  0.000000D+00  0.000000D+00  0.000000D+00
[...]
         |
   30    |      26        25        25        25
   30    |      26         0        25        25
         |
   31    |      25        25        32        25
   31    |      25        25         0        25
         |
   32    |      26        25        25        25
   32    |      26        25        25         0
         |

                   MP2(N) Pair Energies
                   --------------------

 AB - AA |     29        30        31        32
 BA - BB |     29        30        31        32
--------------------------------------------------
   29    | -0.019426 -0.002456 -0.005993 -0.002456
   29    |  0.000000 -0.002456 -0.005993 -0.002456
         |
   30    | -0.005555 -0.020619 -0.002142 -0.000123
   30    | -0.005555  0.000000 -0.002142 -0.000123
         |
   31    | -0.009216 -0.005413 -0.019137 -0.002142
   31    | -0.009216 -0.005413  0.000000 -0.002142
         |
   32    | -0.005555 -0.000186 -0.005413 -0.020619
   32    | -0.005555 -0.000186 -0.005413  0.000000
         |

                     Delta Factors
                     -------------

 AB - AA |     29        30        31        32
 BA - BB |     29        30        31        32
--------------------------------------------------
   29    |  1.294245  1.994595  0.839413  1.994595
   29    |  0.000000  1.994595  0.839413  1.994595
         |
   30    |  1.368090  1.171594  2.249585  1.470093
   30    |  1.368090  0.000000  2.249585  1.470093
         |
   31    |  1.046330  1.435325  1.370261  2.249585
   31    |  1.046330  1.435325  0.000000  2.249585
         |
   32    |  1.368090  0.452790  1.435325  1.171594
   32    |  1.368090  0.452790  1.435325  0.000000
         |

                   MP2(CBS) Pair Energies
                   ----------------------

 AB - AA |     29        30        31        32
 BA - BB |     29        30        31        32
--------------------------------------------------
   29    | -0.021283 -0.002521 -0.006067 -0.002521
   29    |  0.000000 -0.002521 -0.006067 -0.002521
         |
   30    | -0.006081 -0.022485 -0.002206 -0.000125
   30    | -0.006081  0.000000 -0.002206 -0.000125
         |
   31    | -0.010002 -0.005962 -0.020600 -0.002206
   31    | -0.010002 -0.005962  0.000000 -0.002206
         |
   32    | -0.006081 -0.000197 -0.005962 -0.022485
   32    | -0.006081 -0.000197 -0.005962  0.000000
         |

                     Sum of ab pair energies =    -0.121137 A.U.
                     Sum of ba pair energies =    -0.034284 A.U.
                     Sum of aa pair energies =    -0.015645 A.U.
                     Sum of bb pair energies =    -0.015645 A.U.

           Sum of intraorbital pair energies =    -0.086853 A.U.
           Sum of interorbital pair energies =    -0.099859 A.U.
                                                  ----------
                         Total pair energies =    -0.186712 A.U.

                         Single Excitations  =     0.000000 A.U.

                          Total second order =    -0.186712 A.U.



            MP2(CBS) (With Interference Correction) 
            ---------------------------------------

 AB - AA |     29        30        31        32
 BA - BB |     29        30        31        32
--------------------------------------------------
   29    | -0.020832 -0.002510 -0.006058 -0.002510
   29    |  0.000000 -0.002510 -0.006058 -0.002510
         |
   30    | -0.006006 -0.022096 -0.002197 -0.000125
   30    | -0.006006  0.000000 -0.002197 -0.000125
         |
   31    | -0.009883 -0.005890 -0.020169 -0.002197
   31    | -0.009883 -0.005890  0.000000 -0.002197
         |
   32    | -0.006006 -0.000197 -0.005890 -0.022096
   32    | -0.006006 -0.000197 -0.005890  0.000000
         |

                     Sum of ab pair energies =    -0.119064 A.U.
                     Sum of ba pair energies =    -0.033872 A.U.
                     Sum of aa pair energies =    -0.015596 A.U.
                     Sum of bb pair energies =    -0.015596 A.U.

           Sum of intraorbital pair energies =    -0.085192 A.U.
           Sum of interorbital pair energies =    -0.098936 A.U.
                                                  ----------
                         Total pair energies =    -0.184129 A.U.

                         Single Excitations  =     0.000000 A.U.

                          Total second order =    -0.184129 A.U.

                         E2(CBS) - E2(Dir) =      -0.004147 A.U.

 E2(CBS)=      -0.186712 CBS-Int=       0.002584 OIii=       0.858809

 **********************************************************************

            Population analysis using the SCF density.

 **********************************************************************

 Orbital symmetries:
       Occupied  (SGG) (SGU) (SGG) (SGU) (PIG) (PIU) (PIG) (PIU)
                 (SGU) (SGG) (SGG) (SGU) (PIU) (PIG) (PIU) (PIG)
                 (SGG) (SGU) (?A) (?B) (?A) (?B) (PIU) (PIG) (?A)
                 (PIU) (PIG) (?B) (SGG) (SGU) (SGG) (?C)
       Virtual   (?C) (?D) (?D) (SGU) (?E) (?C) (?C) (?E) (?D)
                 (?D) (?F) (?F) (?E) (?E) (?C) (?C) (?E) (?C) (?F)
                 (?F) (?C) (PIG) (SGG) (?F) (PIG) (?F) (PIG) (PIG)
                 (?G) (?H) (?H) (?G) (?G) (?H) (?H) (?H) (?G) (?G)
                 (?G) (?H) (?H) (?H) (?H) (?H) (?H) (PIG) (PIG)
                 (?H) (PIU) (?G) (?H) (?H) (?H) (PIU) (?H) (?H)
                 (SGG) (PIG) (PIG) (SGU) (?H) (?H) (?H) (?H) (?H)
                 (?H) (?H) (?H) (?H) (?H) (?H) (?H) (?H) (?H) (?H)
                 (?H) (?H) (?H) (?H) (?H) (?H) (?H) (?H) (?H) (?H)
                 (?H) (?H) (?H) (?H) (?H) (?H) (?H) (?H) (?H) (?H)
                 (?H) (?H) (?H) (?H) (?H) (PIU) (PIU) (?H) (PIG)
                 (?H) (?H) (PIG) (?H) (?H) (?H) (?H) (?H) (?H)
                 (?H) (?H) (?H) (?H) (?H) (?H) (?H) (?H) (?H) (PIU)
                 (PIU) (?H) (?H) (?H) (?H) (?H) (?H) (?H) (?H)
                 (?H) (?H) (?H) (?H) (?H) (?H) (?H) (?H) (?H) (?H)
                 (?H) (?H) (?H) (?H) (?H) (PHIG) (PHIG) (?H) (?H)
                 (?H) (?H) (?H) (?H) (?H) (PIU) (?H) (?H) (PIU)
                 (?H) (?H) (?H) (?H) (PIU) (SGG) (PIU) (?H) (?H)
                 (PIG) (SGU) (PIG) (?H) (?H) (?H) (?H) (SGG) (?H)
                 (?H) (?H) (?H) (?H) (?H) (?H) (?H) (PIG) (PIG)
                 (?H) (?H) (SGU) (?H) (?H) (?H) (?H) (?H) (?H)
                 (?H) (?H) (?H) (?H) (?H) (?H) (?H) (?H) (?H) (?H)
                 (?H) (?H) (?H) (?H) (?H) (?H) (?H) (?H) (?H) (?H)
                 (?H) (PIU) (?H) (?H) (?H) (?H) (?H) (PIU) (?H)
                 (?H) (?H) (?H) (PIG) (PIG) (?H) (?H) (PHIU) (PHIU)
                 (PHIU) (PHIU) (?H) (?H) (?H) (?H) (PHIG) (PHIG)
                 (?H) (?H) (?H) (?H) (?H) (?H) (PIU) (?H) (?H)
                 (PIU) (?H) (?H) (?H) (?H) (?H) (?H) (PIU) (PIU)
                 (?H) (?H) (?H) (?H) (?H) (PIG) (PIG) (?H) (?H)
                 (?H) (?H) (?H) (?H) (?H) (?H) (?H) (?H) (?H) (?H)
                 (?H) (?H) (?H) (?H) (?H) (?H) (SGU) (?H) (?H)
                 (SGG) (PIU) (PIG) (PIU) (PIG) (?H) (?H) (PIU)
                 (PIU) (SGG) (SGU) (?H) (?H) (?H) (?H) (?H) (?H)
                 (?H) (?H) (?H) (?H) (?H) (PIG) (?H) (?H) (?H)
                 (?H) (?H) (?H) (PIG) (?H) (?H) (?H) (?H) (?H)
                 (?H) (?H) (?H) (?H) (?H) (?H) (?H) (?H) (?H) (?H)
                 (?H) (?H) (PHIG) (PHIG) (?H) (?H) (?H) (?H) (?H)
                 (?H) (?H) (?H) (?H) (?H) (?H) (?H) (PIU) (PIU)
                 (?H) (?H) (?H) (?H) (SGG) (PIG) (PIG) (PHIU) (PHIU)
                 (PHIG) (PHIG) (DLTG) (DLTG) (?H) (?H) (PHIU) (PHIU)
                 (DLTU) (DLTU) (?H) (?H) (PIU) (?H) (?H) (PHIG)
                 (PHIG) (PIU) (?H) (PIG) (PIG) (?H) (?H) (?H) (PIU)
                 (PIU) (SGG) (?H) (DLTG) (DLTG) (PIG) (?H) (?H)
                 (PIG) (PIU) (PIU) (PIG) (PIG) (SGU) (SGG) (PIU)
                 (PIU) (PIG) (PIG) (SGG) (SGU) (SGG) (SGU) (SGG)
                 (SGU)
 Unable to determine electronic state:  an orbital has unidentified symmetry.
 Alpha  occ. eigenvalues -- -405.24745-405.24745 -52.15320 -52.15320 -46.24040
 Alpha  occ. eigenvalues --  -46.24040 -46.23910 -46.23910 -46.23827 -46.23827
 Alpha  occ. eigenvalues --   -7.19400  -7.19392  -5.16961  -5.16955  -5.16416
 Alpha  occ. eigenvalues --   -5.16410  -5.16188  -5.16147  -1.64578  -1.64424
 Alpha  occ. eigenvalues --   -1.64340  -1.64292  -1.64094  -1.63774  -1.63613
 Alpha  occ. eigenvalues --   -1.63422  -1.63077  -1.62895  -0.66680  -0.49531
 Alpha  occ. eigenvalues --   -0.28576  -0.25498
 Alpha virt. eigenvalues --   -0.04484   0.02036   0.03340   0.03663   0.05275
 Alpha virt. eigenvalues --    0.05367   0.05531   0.06602   0.08166   0.08469
 Alpha virt. eigenvalues --    0.11964   0.14820   0.17426   0.17499   0.21934
 Alpha virt. eigenvalues --    0.22297   0.22452   0.24855   0.25365   0.25404
 Alpha virt. eigenvalues --    0.26256   0.28157   0.28222   0.28634   0.28801
 Alpha virt. eigenvalues --    0.33327   0.34213   0.35472   0.37631   0.48936
 Alpha virt. eigenvalues --    0.48945   0.49259   0.49273   0.50074   0.51234
 Alpha virt. eigenvalues --    0.52812   0.56110   0.56143   0.56772   0.58540
 Alpha virt. eigenvalues --    0.58545   0.59067   0.59113   0.67395   0.67927
 Alpha virt. eigenvalues --    0.68422   0.69808   0.69840   0.70304   0.70934
 Alpha virt. eigenvalues --    0.71268   0.71501   0.71645   0.72163   0.73027
 Alpha virt. eigenvalues --    0.76014   0.84936   0.85148   0.87277   0.94716
 Alpha virt. eigenvalues --    0.98328   1.04254   1.04276   1.04350   1.04351
 Alpha virt. eigenvalues --    1.09395   1.11739   1.11886   1.12803   1.13761
 Alpha virt. eigenvalues --    1.13761   1.13848   1.23484   1.23546   1.26245
 Alpha virt. eigenvalues --    1.26473   1.26867   1.26874   1.28803   1.28818
 Alpha virt. eigenvalues --    1.29659   1.29720   1.31798   1.32885   1.32990
 Alpha virt. eigenvalues --    1.33838   1.33846   1.35688   1.37770   1.38571
 Alpha virt. eigenvalues --    1.41124   1.41542   1.46667   1.48249   1.48659
 Alpha virt. eigenvalues --    1.50908   1.53054   1.55489   1.56258   1.56505
 Alpha virt. eigenvalues --    1.58128   1.60897   1.63475   1.64270   1.64657
 Alpha virt. eigenvalues --    1.64658   1.66987   1.68495   1.68495   1.76357
 Alpha virt. eigenvalues --    1.76357   1.77713   1.77719   1.78709   1.80001
 Alpha virt. eigenvalues --    1.91496   1.92550   1.92550   1.94071   2.00695
 Alpha virt. eigenvalues --    2.01555   2.04876   2.04964   2.08063   2.11713
 Alpha virt. eigenvalues --    2.18968   2.19451   2.21010   2.23408   2.29470
 Alpha virt. eigenvalues --    2.29688   2.39802   2.50100   2.50105   2.50858
 Alpha virt. eigenvalues --    2.50861   2.51638   2.56120   2.56120   2.57220
 Alpha virt. eigenvalues --    2.57360   2.59613   2.59634   2.60147   2.60261
 Alpha virt. eigenvalues --    2.60574   2.63069   2.64302   2.64303   2.65384
 Alpha virt. eigenvalues --    2.65386   2.66352   2.66510   2.69740   2.69763
 Alpha virt. eigenvalues --    2.75844   2.76295   2.76321   2.78417   2.78808
 Alpha virt. eigenvalues --    2.83625   2.87321   2.87342   2.92550   2.93271
 Alpha virt. eigenvalues --    2.94801   2.96090   2.98900   2.99187   3.06656
 Alpha virt. eigenvalues --    3.07580   3.09247   3.10679   3.10679   3.14249
 Alpha virt. eigenvalues --    3.14249   3.19791   3.21905   3.21905   3.24431
 Alpha virt. eigenvalues --    3.25066   3.25066   3.26983   3.27219   3.27891
 Alpha virt. eigenvalues --    3.28582   3.31743   3.36318   3.36318   3.51285
 Alpha virt. eigenvalues --    3.53259   3.53664   3.61899   3.63692   3.63692
 Alpha virt. eigenvalues --    3.64199   3.67862   3.76521   3.76522   3.76958
 Alpha virt. eigenvalues --    3.76964   3.77058   3.80092   3.81150   3.81150
 Alpha virt. eigenvalues --    3.88112   3.88136   3.92770   3.92770   4.01102
 Alpha virt. eigenvalues --    4.01109   4.08857   4.09632   4.11333   4.11392
 Alpha virt. eigenvalues --    4.16390   4.16804   4.17526   4.18112   4.19485
 Alpha virt. eigenvalues --    4.19495   4.19532   4.20016   4.20202   4.50551
 Alpha virt. eigenvalues --    4.50911   4.56413   4.66493   4.73994   4.77079
 Alpha virt. eigenvalues --    5.08196   5.08196   5.09541   5.09543   5.12219
 Alpha virt. eigenvalues --    5.12220   5.12616   5.12616   5.14926   5.14987
 Alpha virt. eigenvalues --    5.16505   5.16506   5.23047   5.23160   5.25827
 Alpha virt. eigenvalues --    5.25832   5.31474   5.31570   5.33512   5.34632
 Alpha virt. eigenvalues --    5.34691   5.35587   5.37639   5.37644   5.39527
 Alpha virt. eigenvalues --    5.41647   5.44277   5.44293   5.44566   5.46826
 Alpha virt. eigenvalues --    5.47532   5.62728   5.65691   5.70119   5.70152
 Alpha virt. eigenvalues --    5.85579   5.88173   5.88790   5.91106   5.91107
 Alpha virt. eigenvalues --    5.96463   5.96466   6.01098   6.01098   6.08759
 Alpha virt. eigenvalues --    6.08759   6.09973   6.09973   6.10318   6.10318
 Alpha virt. eigenvalues --    6.13031   6.13568   6.13568   6.20283   6.20925
 Alpha virt. eigenvalues --    6.24248   6.25118   6.25118   6.35384   6.49137
 Alpha virt. eigenvalues --    6.50812   6.52206   6.53591   6.54044   6.54044
 Alpha virt. eigenvalues --    6.54402   6.57439   6.72837   6.74859   6.76497
 Alpha virt. eigenvalues --    6.79843   6.95195   6.95201   7.16567   7.20717
 Alpha virt. eigenvalues --    7.20846   7.32480   7.32480   7.32506   7.32507
 Alpha virt. eigenvalues --    7.33638   7.34053   7.34053   7.35400   7.35400
 Alpha virt. eigenvalues --    7.35405   7.35405   7.36045   7.36093   7.36094
 Alpha virt. eigenvalues --    7.37032   7.37032   7.37214   7.37214   7.42502
 Alpha virt. eigenvalues --    7.42510   7.42689   7.44957   7.44957   7.51333
 Alpha virt. eigenvalues --    7.51386   7.59334   7.59347   7.64489   7.64489
 Alpha virt. eigenvalues --    7.67702   7.67703   7.69208   7.71545   7.88800
 Alpha virt. eigenvalues --    7.90595   7.91125   7.96365   7.98789   7.98821
 Alpha virt. eigenvalues --    7.99526   7.99762   8.04164   8.04363   8.29234
 Alpha virt. eigenvalues --    8.31668   8.32815   8.46624   8.48220   8.48462
 Alpha virt. eigenvalues --    8.63452   8.77771   8.80368   9.43511   9.43511
 Alpha virt. eigenvalues --    9.47491   9.47491   9.49482   9.49506   9.71183
 Alpha virt. eigenvalues --    9.71183   9.72691   9.72693   9.73476   9.73478
 Alpha virt. eigenvalues --    9.74514   9.74514   9.85457   9.85460   9.85477
 Alpha virt. eigenvalues --    9.86149   9.86149   9.87121   9.88807  10.08707
 Alpha virt. eigenvalues --   10.10214  10.23168  10.31564  10.31717  10.34943
 Alpha virt. eigenvalues --   10.36746  10.51036  11.05920  11.06718  11.06730
 Alpha virt. eigenvalues --   11.14687  11.15484  11.15541  11.16633  11.42900
 Alpha virt. eigenvalues --   11.44808  11.96132  11.98064  12.60592  12.86767
 Alpha virt. eigenvalues --   14.39448  14.41141  14.52641  14.54401  14.78386
 Alpha virt. eigenvalues --   14.94982  15.51522  16.50162 491.63895 492.07747
          Condensed to atoms (all electrons):
              1          2
     1  Ge  31.535279   0.464721
     2  Ge   0.464721  31.535279
 Mulliken atomic charges:
              1
     1  Ge   0.000000
     2  Ge   0.000000
 Sum of Mulliken atomic charges =   0.00000
 Mulliken charges with hydrogens summed into heavy atoms:
              1
     1  Ge   0.000000
     2  Ge   0.000000
 Sum of Mulliken charges with hydrogens summed into heavy atoms =   0.00000
          Atomic-Atomic Spin Densities.
              1          2
     1  Ge   0.000000   0.000000
     2  Ge   0.000000   0.000000
 Mulliken atomic spin densities:
              1
     1  Ge   0.000000
     2  Ge   0.000000
 Sum of Mulliken atomic spin densities =   0.00000
 Electronic spatial extent (au):  <R**2>=            425.5486
 Charge=              0.0000 electrons
 Dipole moment (field-independent basis, Debye):
    X=              0.0000    Y=              0.0000    Z=              0.0000  Tot=              0.0000
 Quadrupole moment (field-independent basis, Debye-Ang):
   XX=            -41.2218   YY=            -30.3327   ZZ=            -41.4253
   XY=              0.0000   XZ=              0.0000   YZ=              0.0000
 Traceless Quadrupole moment (field-independent basis, Debye-Ang):
   XX=             -3.5619   YY=              7.3273   ZZ=             -3.7654
   XY=              0.0000   XZ=              0.0000   YZ=              0.0000
 Octapole moment (field-independent basis, Debye-Ang**2):
  XXX=              0.0000  YYY=              0.0000  ZZZ=              0.0000  XYY=              0.0000
  XXY=              0.0000  XXZ=              0.0000  XZZ=              0.0000  YZZ=              0.0000
  YYZ=              0.0000  XYZ=              0.0000
 Hexadecapole moment (field-independent basis, Debye-Ang**3):
 XXXX=            -93.1260 YYYY=            -41.1261 ZZZZ=           -450.3210 XXXY=              0.0000
 XXXZ=              0.0000 YYYX=              0.0000 YYYZ=              0.0000 ZZZX=              0.0000
 ZZZY=              0.0000 XXYY=            -22.6546 XXZZ=            -84.8298 YYZZ=            -68.2640
 XXYZ=              0.0000 YYXZ=              0.0000 ZZXY=              0.0000
 N-N= 2.216318725517D+02 E-N=-1.557599960669D+04  KE= 6.226004589802D+03
                          Isotropic Fermi Contact Couplings
        Atom                 a.u.       MegaHertz       Gauss      10(-4) cm-1
     1  Ge(73)             0.00000       0.00000       0.00000       0.00000
     2  Ge(73)             0.00000       0.00000       0.00000       0.00000
 --------------------------------------------------------
       Center         ----  Spin Dipole Couplings  ----
                      3XX-RR        3YY-RR        3ZZ-RR
 --------------------------------------------------------
     1   Atom        0.000000      0.000000      0.000000
     2   Atom        0.000000      0.000000      0.000000
 --------------------------------------------------------
                        XY            XZ            YZ
 --------------------------------------------------------
     1   Atom        0.000000      0.000000      0.000000
     2   Atom        0.000000      0.000000      0.000000
 --------------------------------------------------------


 ---------------------------------------------------------------------------------
              Anisotropic Spin Dipole Couplings in Principal Axis System
 ---------------------------------------------------------------------------------

       Atom             a.u.   MegaHertz   Gauss  10(-4) cm-1        Axes

              Baa     0.0000     0.000     0.000     0.000  1.0000  0.0000  0.0000
     1 Ge(73) Bbb     0.0000     0.000     0.000     0.000  0.0000  1.0000  0.0000
              Bcc     0.0000     0.000     0.000     0.000  0.0000  0.0000  1.0000
 
              Baa     0.0000     0.000     0.000     0.000  1.0000  0.0000  0.0000
     2 Ge(73) Bbb     0.0000     0.000     0.000     0.000  0.0000  1.0000  0.0000
              Bcc     0.0000     0.000     0.000     0.000  0.0000  0.0000  1.0000
 

 ---------------------------------------------------------------------------------


 Test job not archived.
 1\1\GINC-C32\SP\ROMP2-RW\Gen\Ge2\GPETERSSON\23-Aug-2012\0\\# ROMP2(RW)
  Gen GFinput Int=NoBasisTransform Int(Grid=Ultrafine) IOp(3/32=2,5/6=1
 0,8/11=1,9/33=1) Maxdisk=128GB CBSextrapolate(Nmin=25,MinPop)\\Ge2\\0,
 1\Ge\Ge,1,2.44494375\\Version=EM64L-G09RevA.02\HF=-4150.7365965\MP2=-4
 150.9191617\E2(CBS)=-0.1867123\CBS-Int=-0.1841286\OIii=0.8588092\RMSD=
 4.747e-11\PG=D*H [C*(Ge1.Ge1)]\\@


 YOU WILL NEVER "FIND" TIME FOR ANYTHING.
 IF YOU WANT TIME, YOU MUST MAKE IT.

                        -- CHARLES BIXTON
 Job cpu time:  2 days  0 hours  9 minutes 28.4 seconds.
 File lengths (MBytes):  RWF=   4132 Int=      0 D2E=      0 Chk=     16 Scr=      1
 Normal termination of Gaussian 09 at Thu Aug 23 04:44:51 2012.
