 Entering Gaussian System, Link 0=g09
 AtFile(1): 4ZaP-NR.gbs
 Initial command:
 /share/apps/gaussian/g09root/g09/l1.exe /localscratch/737873/Gau-13402.inp -scrdir=/localscratch/737873/
 Entering Link 1 = /share/apps/gaussian/g09root/g09/l1.exe PID=     13403.
  
 Copyright (c) 1988,1990,1992,1993,1995,1998,2003,2009, Gaussian, Inc.
                  All Rights Reserved.
  
 This is part of the Gaussian(R) 09 program.  It is based on
 the Gaussian(R) 03 system (copyright 2003, Gaussian, Inc.),
 the Gaussian(R) 98 system (copyright 1998, Gaussian, Inc.),
 the Gaussian(R) 94 system (copyright 1995, Gaussian, Inc.),
 the Gaussian 92(TM) system (copyright 1992, Gaussian, Inc.),
 the Gaussian 90(TM) system (copyright 1990, Gaussian, Inc.),
 the Gaussian 88(TM) system (copyright 1988, Gaussian, Inc.),
 the Gaussian 86(TM) system (copyright 1986, Carnegie Mellon
 University), and the Gaussian 82(TM) system (copyright 1983,
 Carnegie Mellon University). Gaussian is a federally registered
 trademark of Gaussian, Inc.
  
 This software contains proprietary and confidential information,
 including trade secrets, belonging to Gaussian, Inc.
  
 This software is provided under written license and may be
 used, copied, transmitted, or stored only in accord with that
 written license.
  
 The following legend is applicable only to US Government
 contracts under FAR:
  
                    RESTRICTED RIGHTS LEGEND
  
 Use, reproduction and disclosure by the US Government is
 subject to restrictions as set forth in subparagraphs (a)
 and (c) of the Commercial Computer Software - Restricted
 Rights clause in FAR 52.227-19.
  
 Gaussian, Inc.
 340 Quinnipiac St., Bldg. 40, Wallingford CT 06492
  
  
 ---------------------------------------------------------------
 Warning -- This program may not be used in any manner that
 competes with the business of Gaussian, Inc. or will provide
 assistance to any competitor of Gaussian, Inc.  The licensee
 of this program is prohibited from giving any competitor of
 Gaussian, Inc. access to this program.  By using this program,
 the user acknowledges that Gaussian, Inc. is engaged in the
 business of creating and licensing software in the field of
 computational chemistry and represents and warrants to the
 licensee that it is not a competitor of Gaussian, Inc. and that
 it will not use this program in any manner prohibited above.
 ---------------------------------------------------------------
  

 Cite this work as:
 Gaussian 09, Revision A.02,
 M. J. Frisch, G. W. Trucks, H. B. Schlegel, G. E. Scuseria, 
 M. A. Robb, J. R. Cheeseman, G. Scalmani, V. Barone, B. Mennucci, 
 G. A. Petersson, H. Nakatsuji, M. Caricato, X. Li, H. P. Hratchian, 
 A. F. Izmaylov, J. Bloino, G. Zheng, J. L. Sonnenberg, M. Hada, 
 M. Ehara, K. Toyota, R. Fukuda, J. Hasegawa, M. Ishida, T. Nakajima, 
 Y. Honda, O. Kitao, H. Nakai, T. Vreven, J. A. Montgomery, Jr., 
 J. E. Peralta, F. Ogliaro, M. Bearpark, J. J. Heyd, E. Brothers, 
 K. N. Kudin, V. N. Staroverov, R. Kobayashi, J. Normand, 
 K. Raghavachari, A. Rendell, J. C. Burant, S. S. Iyengar, J. Tomasi, 
 M. Cossi, N. Rega, J. M. Millam, M. Klene, J. E. Knox, J. B. Cross, 
 V. Bakken, C. Adamo, J. Jaramillo, R. Gomperts, R. E. Stratmann, 
 O. Yazyev, A. J. Austin, R. Cammi, C. Pomelli, J. W. Ochterski, 
 R. L. Martin, K. Morokuma, V. G. Zakrzewski, G. A. Voth, 
 P. Salvador, J. J. Dannenberg, S. Dapprich, A. D. Daniels, 
 O. Farkas, J. B. Foresman, J. V. Ortiz, J. Cioslowski, 
 and D. J. Fox, Gaussian, Inc., Wallingford CT, 2009.
 
 ******************************************
 Gaussian 09:  EM64L-G09RevA.02 11-Jun-2009
                22-Aug-2012 
 ******************************************
 % Mem=12GB
 % Nproc=8
 Will use up to    8 processors via shared memory.
 ----------------------------------------------------------------------
 # ROCCSD(T,RW) Gen GFinput Int=NoBasisTransform Int(Grid=Ultrafine) IO
 p(3/32=2,5/6=10,8/11=1,9/33=1) Maxdisk=128GB Opt=(Tight,Z-Matrix)
 ----------------------------------------------------------------------

 Warning:  this job cannot use analytic gradients
           and so will do many energy evaluations.

 1/7=10,18=40,29=20000,38=1/1,14;
 2/12=2,17=6,18=5,29=3,40=1/2;
 3/5=7,11=2,16=1,24=10,25=1,30=1,32=2,60=-1,75=-5,116=101/1,2,3;
 4//1;
 5/5=2,6=10,38=5/2;
 8/5=-1,6=4,9=120000,10=91,11=1/1,4;
 9/5=7,14=2,33=1/13;
 6/7=2,8=2,9=2,10=2/1;
 1/7=10,18=40/14(2);
 2/29=3/2;
 99//99;
 2/29=3/2;
 3/5=7,6=1,11=2,16=1,25=1,30=1,32=2,60=-1,75=-5,82=7,116=101/1,2,3;
 4/5=5,16=3/1;
 5/5=2,6=10,23=1,38=5/2;
 8/5=-1,6=4,9=120000,10=93,11=1/1,4;
 9/5=7,14=2,33=1/13;
 1/7=10,18=40/14(-6);
 2/29=3/2;
 6/7=2,8=2,9=2,10=2/1;
 99//99;
 ---
 Ge2
 ---
 Symbolic Z-matrix:
 Charge =  0 Multiplicity = 1
 Ge
 Ge                   1    R
       Variables:
  R                     2.2                      
 

 NEF-NEF-NEF-NEF-NEF-NEF-NEF-NEF-NEF-NEF-NEF-NEF-NEF-NEF-NEF-NEF-NEF-NEF-
 NUMERICAL EIGENVECTOR FOLLOWING MINIMUM SEARCH
 INITIALIZATION PASS
                       ----------------------------
                       !    Initial Parameters    !
                       ! (Angstroms and Degrees)  !
 ----------------------                            ----------------------
 !      Name          Value   Derivative information (Atomic Units)     !
 ------------------------------------------------------------------------
 !        R          2.2      estimate D2E/DX2                          !
 ------------------------------------------------------------------------


 ***************************************************
 ** O P T I M I Z A T I O N   P A R A M E T E R S **
 **  MAXIMUM NO. OF ITERATIONS      :          21 **
 **  MAXIMUM ALLOWED STEP LENGTH    :    0.300000 **
 ***************************************************



 NEF-NEF-NEF-NEF-NEF-NEF-NEF-NEF-NEF-NEF-NEF-NEF-NEF-NEF-NEF-NEF-NEF-NEF-
 ---------------------------------------------------------------------------------------------------
                            Z-MATRIX (ANGSTROMS AND DEGREES)
   CD    Cent   Atom    N1       Length/X        N2       Alpha/Y        N3        Beta/Z          J
 ---------------------------------------------------------------------------------------------------
      1      1  Ge
      2      2  Ge       1   2.200000(     1)
 ---------------------------------------------------------------------------------------------------
                         Z-Matrix orientation:                         
 ---------------------------------------------------------------------
 Center     Atomic      Atomic             Coordinates (Angstroms)
 Number     Number       Type             X           Y           Z
 ---------------------------------------------------------------------
      1         32           0        0.000000    0.000000    0.000000
      2         32           0        0.000000    0.000000    2.200000
 ---------------------------------------------------------------------
 Stoichiometry    Ge2
 Framework group  D*H[C*(Ge.Ge)]
 Deg. of freedom     1
 Full point group                 D*H     NOp   8
 Largest Abelian subgroup         D2H     NOp   8
 Largest concise Abelian subgroup C2      NOp   2
                         Standard orientation:                         
 ---------------------------------------------------------------------
 Center     Atomic      Atomic             Coordinates (Angstroms)
 Number     Number       Type             X           Y           Z
 ---------------------------------------------------------------------
      1         32           0        0.000000    0.000000    1.100000
      2         32           0        0.000000    0.000000   -1.100000
 ---------------------------------------------------------------------
 Rotational constants (GHZ):      0.0000000      2.8250943      2.8250943
 General basis read from cards:  (5D, 7F)
 AO basis set in the form of general basis input (Overlap normalization):
      1 0
 S  14 1.00       0.000000000000
      0.7277676850D+07  0.6926503645D-05
      0.1281558340D+07  0.4689739541D-04
      0.2859757190D+06  0.2692052544D-03
      0.7727674870D+05  0.1206656689D-02
      0.2432996900D+05  0.4519361457D-02
      0.8639863450D+04  0.1459610332D-01
      0.3368176670D+04  0.4142080934D-01
      0.1409616860D+04  0.1028871253D+00
      0.6218156930D+03  0.2141305179D+00
      0.2848055070D+03  0.3365591701D+00
      0.1337714940D+03  0.3134182730D+00
      0.6375809300D+02  0.1120682991D+00
      0.3055008300D+02  0.7126704702D-02
      0.1458677800D+02  0.1858828018D-02
 S  11 1.00       0.000000000000
      0.8639863450D+04 -0.5466652870D-04
      0.3368176670D+04 -0.3705190309D-03
      0.1409616860D+04 -0.2537819243D-02
      0.6218156930D+03 -0.1205864019D-01
      0.2848055070D+03 -0.4610902944D-01
      0.1337714940D+03 -0.9847605600D-01
      0.6375809300D+02 -0.2276420153D-01
      0.3055008300D+02  0.3881456258D+00
      0.1458677800D+02  0.5676206725D+00
      0.6877832000D+01  0.1639017782D+00
      0.3170810000D+01  0.5399164615D-02
 P  11 1.00       0.000000000000
      0.1432091360D+05  0.1230952445D-03
      0.3585048500D+04  0.1054926445D-02
      0.1131552710D+04  0.6418366950D-02
      0.4237770580D+03  0.2731725010D-01
      0.1790184010D+03  0.8778012371D-01
      0.8182589900D+02  0.2092368089D+00
      0.3912966100D+02  0.3533687431D+00
      0.1905988400D+02  0.3505031727D+00
      0.9260422000D+01  0.1381554948D+00
      0.4415595000D+01  0.1333860485D-01
      0.2040492000D+01  0.1249092027D-02
 S   9 1.00       0.000000000000
      0.2848055070D+03  0.4694640275D-03
      0.1337714940D+03  0.2230266748D-02
      0.6375809300D+02  0.3719070024D-02
      0.3055008300D+02 -0.5128722018D-01
      0.1458677800D+02 -0.2260657998D+00
      0.6877832000D+01 -0.2166685936D-02
      0.3170810000D+01  0.6285635114D+00
      0.1412854000D+01  0.4936207932D+00
      0.6000820000D+00  0.4222125608D-01
 P  10 1.00       0.000000000000
      0.4237770580D+03 -0.1479959036D-03
      0.1790184010D+03 -0.1335200121D-02
      0.8182589900D+02 -0.6686378878D-02
      0.3912966100D+02 -0.1968278268D-01
      0.1905988400D+02 -0.1741685137D-01
      0.9260422000D+01  0.1381100795D+00
      0.4415595000D+01  0.4101365766D+00
      0.2040492000D+01  0.4345834551D+00
      0.9047480000D+00  0.1439929549D+00
      0.3816650000D+00  0.5156196884D-02
 D  10 1.00       0.000000000000
      0.6076799870D+03  0.3503345510D-03
      0.1834961110D+03  0.3292921599D-02
      0.7072201300D+02  0.1747298741D-01
      0.3110579200D+02  0.5939999562D-01
      0.1459154900D+02  0.1506645752D+00
      0.7031819000D+01  0.2659494768D+00
      0.3407828000D+01  0.3256960431D+00
      0.1629148000D+01  0.2956202900D+00
      0.7446000000D+00  0.1700218360D+00
      0.3072120000D+00  0.3918785493D-01
 S   8 1.00       0.000000000000
      0.3055008300D+02  0.6744410682D-03
      0.1458677800D+02  0.7578424758D-02
      0.6877832000D+01 -0.3185745836D-02
      0.3170810000D+01 -0.4531982405D-01
      0.1412854000D+01 -0.1972381375D+00
      0.6000820000D+00  0.1265709098D-01
      0.2388800000D+00  0.6654067282D+00
      0.8730900000D-01  0.4629876531D+00
 S   1 1.00       0.000000000000
      0.2915529897D-01  0.1000000000D+01
 P   7 1.00       0.000000000000
      0.9260422000D+01 -0.2464876628D-02
      0.4415595000D+01 -0.6634634345D-02
      0.2040492000D+01 -0.2248732837D-01
      0.9047480000D+00  0.9304793847D-02
      0.3816650000D+00  0.2672760649D+00
      0.1519500000D+00  0.5392507825D+00
      0.5659900000D-01  0.3167301474D+00
 P   1 1.00       0.000000000000
      0.2331095259D-01  0.1000000000D+01
 S   1 1.00       0.000000000000
      0.1029954000D+01  0.1000000000D+01
 S   1 1.00       0.000000000000
      0.4653560000D+00  0.1000000000D+01
 S   1 1.00       0.000000000000
      0.2102580000D+00  0.1000000000D+01
 P   1 1.00       0.000000000000
      0.1071955000D+01  0.1000000000D+01
 P   1 1.00       0.000000000000
      0.4718660000D+00  0.1000000000D+01
 P   1 1.00       0.000000000000
      0.2077110000D+00  0.1000000000D+01
 D   1 1.00       0.000000000000
      0.5096400000D+00  0.1000000000D+01
 D   1 1.00       0.000000000000
      0.2409860000D+00  0.1000000000D+01
 D   1 1.00       0.000000000000
      0.1139510000D+00  0.1000000000D+01
 F   1 1.00       0.000000000000
      0.5442880000D+00  0.1000000000D+01
 F   1 1.00       0.000000000000
      0.2353100000D+00  0.1000000000D+01
 G   1 1.00       0.000000000000
      0.4718505880D+00  0.1000000000D+01
 ****
      2 0
 S  14 1.00       0.000000000000
      0.7277676850D+07  0.6926503645D-05
      0.1281558340D+07  0.4689739541D-04
      0.2859757190D+06  0.2692052544D-03
      0.7727674870D+05  0.1206656689D-02
      0.2432996900D+05  0.4519361457D-02
      0.8639863450D+04  0.1459610332D-01
      0.3368176670D+04  0.4142080934D-01
      0.1409616860D+04  0.1028871253D+00
      0.6218156930D+03  0.2141305179D+00
      0.2848055070D+03  0.3365591701D+00
      0.1337714940D+03  0.3134182730D+00
      0.6375809300D+02  0.1120682991D+00
      0.3055008300D+02  0.7126704702D-02
      0.1458677800D+02  0.1858828018D-02
 S  11 1.00       0.000000000000
      0.8639863450D+04 -0.5466652870D-04
      0.3368176670D+04 -0.3705190309D-03
      0.1409616860D+04 -0.2537819243D-02
      0.6218156930D+03 -0.1205864019D-01
      0.2848055070D+03 -0.4610902944D-01
      0.1337714940D+03 -0.9847605600D-01
      0.6375809300D+02 -0.2276420153D-01
      0.3055008300D+02  0.3881456258D+00
      0.1458677800D+02  0.5676206725D+00
      0.6877832000D+01  0.1639017782D+00
      0.3170810000D+01  0.5399164615D-02
 P  11 1.00       0.000000000000
      0.1432091360D+05  0.1230952445D-03
      0.3585048500D+04  0.1054926445D-02
      0.1131552710D+04  0.6418366950D-02
      0.4237770580D+03  0.2731725010D-01
      0.1790184010D+03  0.8778012371D-01
      0.8182589900D+02  0.2092368089D+00
      0.3912966100D+02  0.3533687431D+00
      0.1905988400D+02  0.3505031727D+00
      0.9260422000D+01  0.1381554948D+00
      0.4415595000D+01  0.1333860485D-01
      0.2040492000D+01  0.1249092027D-02
 S   9 1.00       0.000000000000
      0.2848055070D+03  0.4694640275D-03
      0.1337714940D+03  0.2230266748D-02
      0.6375809300D+02  0.3719070024D-02
      0.3055008300D+02 -0.5128722018D-01
      0.1458677800D+02 -0.2260657998D+00
      0.6877832000D+01 -0.2166685936D-02
      0.3170810000D+01  0.6285635114D+00
      0.1412854000D+01  0.4936207932D+00
      0.6000820000D+00  0.4222125608D-01
 P  10 1.00       0.000000000000
      0.4237770580D+03 -0.1479959036D-03
      0.1790184010D+03 -0.1335200121D-02
      0.8182589900D+02 -0.6686378878D-02
      0.3912966100D+02 -0.1968278268D-01
      0.1905988400D+02 -0.1741685137D-01
      0.9260422000D+01  0.1381100795D+00
      0.4415595000D+01  0.4101365766D+00
      0.2040492000D+01  0.4345834551D+00
      0.9047480000D+00  0.1439929549D+00
      0.3816650000D+00  0.5156196884D-02
 D  10 1.00       0.000000000000
      0.6076799870D+03  0.3503345510D-03
      0.1834961110D+03  0.3292921599D-02
      0.7072201300D+02  0.1747298741D-01
      0.3110579200D+02  0.5939999562D-01
      0.1459154900D+02  0.1506645752D+00
      0.7031819000D+01  0.2659494768D+00
      0.3407828000D+01  0.3256960431D+00
      0.1629148000D+01  0.2956202900D+00
      0.7446000000D+00  0.1700218360D+00
      0.3072120000D+00  0.3918785493D-01
 S   8 1.00       0.000000000000
      0.3055008300D+02  0.6744410682D-03
      0.1458677800D+02  0.7578424758D-02
      0.6877832000D+01 -0.3185745836D-02
      0.3170810000D+01 -0.4531982405D-01
      0.1412854000D+01 -0.1972381375D+00
      0.6000820000D+00  0.1265709098D-01
      0.2388800000D+00  0.6654067282D+00
      0.8730900000D-01  0.4629876531D+00
 S   1 1.00       0.000000000000
      0.2915529897D-01  0.1000000000D+01
 P   7 1.00       0.000000000000
      0.9260422000D+01 -0.2464876628D-02
      0.4415595000D+01 -0.6634634345D-02
      0.2040492000D+01 -0.2248732837D-01
      0.9047480000D+00  0.9304793847D-02
      0.3816650000D+00  0.2672760649D+00
      0.1519500000D+00  0.5392507825D+00
      0.5659900000D-01  0.3167301474D+00
 P   1 1.00       0.000000000000
      0.2331095259D-01  0.1000000000D+01
 S   1 1.00       0.000000000000
      0.1029954000D+01  0.1000000000D+01
 S   1 1.00       0.000000000000
      0.4653560000D+00  0.1000000000D+01
 S   1 1.00       0.000000000000
      0.2102580000D+00  0.1000000000D+01
 P   1 1.00       0.000000000000
      0.1071955000D+01  0.1000000000D+01
 P   1 1.00       0.000000000000
      0.4718660000D+00  0.1000000000D+01
 P   1 1.00       0.000000000000
      0.2077110000D+00  0.1000000000D+01
 D   1 1.00       0.000000000000
      0.5096400000D+00  0.1000000000D+01
 D   1 1.00       0.000000000000
      0.2409860000D+00  0.1000000000D+01
 D   1 1.00       0.000000000000
      0.1139510000D+00  0.1000000000D+01
 F   1 1.00       0.000000000000
      0.5442880000D+00  0.1000000000D+01
 F   1 1.00       0.000000000000
      0.2353100000D+00  0.1000000000D+01
 G   1 1.00       0.000000000000
      0.4718505880D+00  0.1000000000D+01
 ****

 There are    30 symmetry adapted basis functions of AG  symmetry.
 There are     8 symmetry adapted basis functions of B1G symmetry.
 There are    17 symmetry adapted basis functions of B2G symmetry.
 There are    17 symmetry adapted basis functions of B3G symmetry.
 There are     8 symmetry adapted basis functions of AU  symmetry.
 There are    30 symmetry adapted basis functions of B1U symmetry.
 There are    17 symmetry adapted basis functions of B2U symmetry.
 There are    17 symmetry adapted basis functions of B3U symmetry.
 Integral buffers will be    131072 words long.
 Raffenetti 2 integral format.
 Two-electron integral symmetry is turned on.
   144 basis functions,   510 primitive gaussians,   176 cartesian basis functions
    32 alpha electrons       32 beta electrons
       nuclear repulsion energy       246.3079370892 Hartrees.
 NAtoms=    2 NActive=    2 NUniq=    1 SFac= 3.00D+00 NAtFMM=   80 NAOKFM=F Big=F
 One-electron integrals computed using PRISM.
 NBasis=   144 RedAO= F  NBF=    30     8    17    17     8    30    17    17
 NBsUse=   144 1.00D-04 NBFU=    30     8    17    17     8    30    17    17
 Harris functional with IExCor=  205 diagonalized for initial guess.
 ExpMin= 2.33D-02 ExpMax= 7.28D+06 ExpMxC= 8.64D+03 IAcc=3 IRadAn=         5 AccDes= 0.00D+00
 HarFok:  IExCor=  205 AccDes= 0.00D+00 IRadAn=         5 IDoV= 1
 ScaDFX=  1.000000  1.000000  1.000000  1.000000
 FoFCou: FMM=F IPFlag=           0 FMFlag=      100000 FMFlg1=           0
         NFxFlg=           0 DoJE=T BraDBF=F KetDBF=T FulRan=T
         Omega=  0.000000  0.000000  1.000000  0.000000  0.000000 ICntrl=     500 IOpCl=  0
         NMat0=    1 NMatS0=    1 NMatT0=    0 NMatD0=    1 NMtDS0=    0 NMtDT0=    0
         I1Cent=           4 NGrid=           0.
 Petite list used in FoFCou.
 Initial guess orbital symmetries:
       Occupied  (SGU) (SGG) (SGU) (SGG) (SGU) (SGG) (PIG) (PIG)
                 (PIU) (PIU) (SGG) (SGU) (SGG) (SGU) (PIU) (PIU)
                 (PIG) (PIG) (SGG) (PIU) (PIU) (DLTG) (DLTG) (DLTU)
                 (DLTU) (PIG) (PIG) (SGU) (SGG) (SGU) (SGG) (PIU)
       Virtual   (PIU) (PIG) (PIG) (SGG) (SGU) (PIU) (PIU) (SGG)
                 (PIG) (PIG) (SGU) (SGU) (DLTG) (DLTG) (PIU) (PIU)
                 (SGG) (DLTU) (DLTU) (PIU) (PIU) (SGG) (PIG) (PIG)
                 (SGU) (PIG) (PIG) (SGU) (SGG) (PIU) (PIU) (DLTG)
                 (DLTG) (PHIU) (PHIU) (SGG) (DLTG) (DLTG) (DLTU)
                 (DLTU) (PHIG) (PHIG) (SGU) (PIG) (PIG) (PIU) (PIU)
                 (DLTU) (DLTU) (SGG) (SGU) (PIG) (PIG) (PIU) (PIU)
                 (SGU) (SGG) (PIG) (PIG) (SGG) (PIU) (PIU) (SGG)
                 (DLTG) (DLTG) (DLTG) (DLTG) (SGU) (PHIU) (PHIU)
                 (DLTU) (DLTU) (PHIU) (PHIU) (PIU) (PIU) (PHIG)
                 (PHIG) (?A) (?A) (PIG) (PIG) (SGU) (?B) (?B) (DLTG)
                 (DLTG) (DLTU) (DLTU) (SGG) (PIG) (PIG) (PHIG)
                 (PHIG) (SGU) (PIU) (PIU) (DLTU) (DLTU) (SGU) (SGG)
                 (PIG) (PIG) (SGU) (PIU) (PIU) (PIG) (PIG) (SGG)
                 (SGU) (SGG) (SGU)
 Requested convergence on RMS density matrix=1.00D-10 within 128 cycles.
 Requested convergence on MAX density matrix=1.00D-08.
 Requested convergence on             energy=1.00D-08.
 No special actions if energy rises.
 Keep R1 and R2 ints in memory in canonical form, NReq=247250382.
 SCF Done:  E(ROHF) =  -4150.72531883     A.U. after   14 cycles
             Convg  =    0.1510D-10             -V/T =  1.9999
 <Sx>= 0.0000 <Sy>= 0.0000 <Sz>= 0.0000 <S**2>= 0.0000 S= 0.0000
 <L.S>= 0.000000000000E+00
 Annihilation of the first spin contaminant:
 S**2 before annihilation     0.0000,   after     0.0000
 GenMOA:  NOpAll=  8 NOp2=8 NOpUse=  8 JSym2X=1
 <Sx>= 0.0000 <Sy>= 0.0000 <Sz>= 0.0000 <S**2>= 0.0000 S= 0.0000
 Range of M.O.s used for correlation:    29   144
 NBasis=   144 NAE=    32 NBE=    32 NFC=    28 NFV=     0
 NROrb=    116 NOA=     4 NOB=     4 NVA=   112 NVB=   112

 **** Warning!!: The largest alpha MO coefficient is  0.62412184D+02


 **** Warning!!: The largest beta MO coefficient is  0.62412184D+02

 Singles contribution to E2=   -0.3189848945D-17
 Semi-Direct transformation.
 ModeAB=           4 MOrb=             4 LenV=    1609773988
 LASXX=       388264 LTotXX=      388264 LenRXX=      790110
 LTotAB=      401846 MaxLAS=     3887392 LenRXY=           0
 NonZer=     1178374 LenScr=     2357760 LnRSAI=     3887392
 LnScr1=     6557184 LExtra=     1215485 Total=     14807931
 MaxDsk= 17179869184 SrtSym=           T ITran=            4
 JobTyp=1 Pass  1:  I=   1 to   4.
 (rs|ai) integrals will be sorted in core.
 ModeAB=           4 MOrb=             4 LenV=    1609773988
 LASXX=       388264 LTotXX=      388264 LenRXX=      761508
 LTotAB=      373244 MaxLAS=     3887392 LenRXY=           0
 NonZer=     1149772 LenScr=     2357760 LnRSAI=     3887392
 LnScr1=     6557184 LExtra=     2005595 Total=     15569439
 MaxDsk= 17179869184 SrtSym=           T ITran=            4
 JobTyp=2 Pass  1:  I=   1 to   4.
 (rs|ai) integrals will be sorted in core.
 Spin components of T(2) and E(2):
     alpha-alpha T2 =       0.9937389690D-02 E2=     -0.1445396789D-01
     alpha-beta  T2 =       0.8935392472D-01 E2=     -0.1393972227D+00
     beta-beta   T2 =       0.9937389690D-02 E2=     -0.1445396789D-01
 ANorm=    0.1053199271D+01
 E2 =    -0.1683051585D+00 EUMP2 =    -0.41508936239847D+04
 (S**2,0)=  0.00000D+00           (S**2,1)=  0.00000D+00
 E(PUHF)=      -0.41507253188D+04        E(PMP2)=      -0.41508936240D+04
 R2 and R3 integrals will be kept in memory, NReq=   247136179.
 Symmetry not used in FoFDir.
 MinBra= 0 MaxBra= 4 Meth= 1.
 IRaf=       0 NMat=   1 IRICut=       1 DoRegI=T DoRafI=F ISym2E= 0 JSym2E=0.
 PrsmSu:  NPrtUS=   8 ThrOK=T IAlg=1
 PRISM was handed   170859853 working-precision words and   984 shell-pairs
 PRISM was handed   170859853 working-precision words and   984 shell-pairs
 PRISM was handed   170859853 working-precision words and   984 shell-pairs
 PRISM was handed   170859853 working-precision words and   984 shell-pairs
 PRISM was handed   170859853 working-precision words and   984 shell-pairs
 PRISM was handed   170859853 working-precision words and   984 shell-pairs
 PRISM was handed   170859853 working-precision words and   984 shell-pairs
 PRISM was handed   170859853 working-precision words and   984 shell-pairs
 IPart=  6 NShTot=       58887 NBatch=        5066 AvBLen=        11.6
 IPart=  7 NShTot=       58795 NBatch=        5063 AvBLen=        11.6
 IPart=  5 NShTot=       58966 NBatch=        5131 AvBLen=        11.5
 IPart=  4 NShTot=       59159 NBatch=        5122 AvBLen=        11.5
 IPart=  2 NShTot=       61153 NBatch=        6952 AvBLen=         8.8
 IPart=  0 NShTot=       61827 NBatch=        7276 AvBLen=         8.5
 IPart=  3 NShTot=       61027 NBatch=        6929 AvBLen=         8.8
 IPart=  1 NShTot=       61544 NBatch=        7207 AvBLen=         8.5
 Iterations=  50 Convergence= 0.100D-06
 A(0)= 0.10000E+01      ANORM= 0.10532E+01      W(0)=-0.16830516E+00
 Singles contributions to ROMP2 energy
Alpha= -0.1594924324961E-17
Beta=  -0.1594924324961E-17
 Iteration Nr.   1
 **********************
 DD1Dir will call FoFMem   1 times, MxPair=        44
 NAB=    16 NAA=     6 NBB=     6.
 DD1Dir:  Pass   1 NRAB=    16 NRAA=     6 NRBB=     6 NR=    44.
 DD1Dir will call FoFMem   1 times, MxPair=        44
 NAB=    16 NAA=     6 NBB=     6.
 DD1Dir:  Pass   1 NRAB=    16 NRAA=     6 NRBB=     6 NR=    44.
 TestDE:  II= 99 I=2 DE=    0.532665297489D-01
 TestDE:  II= 99 I=1 DE=    0.369866714746D-02
 TestDE:  II= 99 I=3 DE=    0.369866714746D-02
 TestDE:  II= 19 I=1 DE=   -0.242155895103D-13
 TestDE:  II= 19 I=2 DE=   -0.915538275634D-13
 TestDE:  II= 19 I=3 DE=   -0.242155895103D-13
 Contribution from DD1=   -0.13998501D-12
 ExpSMa:  Full in-core algorithm.
 ExpSMa:  Full in-core algorithm.
 ExpSMa:  Full in-core algorithm.
 ExpSMa:  Full in-core algorithm.
 ExpSMa:  Full in-core algorithm.
 ExpSMa:  Full in-core algorithm.
 ExpSMa:  Full in-core algorithm.
 ExpSMa:  Full in-core algorithm.
 TestDE:  II= 70 I=2 DE=    0.510460309449D-12
 TestDE:  II= 50 I=1 DE=    0.282659995807D-13
 TestDE:  II= 90 I=3 DE=    0.282659995807D-13
 Contribution from DD2=    0.70697732D-12
 TestDE:  II=  5 I=1 DE=   -0.693064009808D-02
 TestDE:  II=  5 I=1 DE=   -0.264600062063D-12
 TestDE:  II=  7 I=2 DE=    0.510460309449D-12
 TestDE:  II=  7 I=2 DE=   -0.497629976095D-12
 TestDE:  II=  8 I=2 DE=   -0.676535265278D-01
 TestDE:  II=  8 I=2 DE=   -0.382136611853D-12
 TestDE:  II=  9 I=3 DE=   -0.693064009808D-02
 TestDE:  II=  9 I=3 DE=   -0.264600062063D-12
 Contribution from DD3=   -0.19194270D-11
 Singles added:  Sum=   -0.13524347D-11
 Entering DoROCS
 GetDE: DE=      0.00000000D+00
 MP3 Singles =        0.42666904129D-11 Doubles=       -0.23626717317D-01
 Linear MP4 energy terms:
 Singles =       -0.12140048146D-02
 Doubles =       -0.83154534296D-02
 Mixed  =       -0.30509299654D-12
 Total MP4L =       -0.95294582444D-02
 TestDE:  II= 99 I=2 DE=   -0.182486717258D-02
 TestDE:  II= 99 I=1 DE=   -0.378787569312D-04
 TestDE:  II= 99 I=3 DE=   -0.378787569312D-04
 TestDE:  II= 99 I=1 DE=    0.220766638061D-03
 TestDE:  II= 11 I=2 DE=   -0.182486717258D-02
 TestDE:  II= 99 I=2 DE=   -0.697370552469D-03
 TestDE:  II= 98 I=2 DE=    0.430126067646D-03
 TestDE:  II= 98 I=3 DE=    0.220766638061D-03
 TestDE:  II= 89 I=1 DE=    0.111286595200D-02
 TestDE:  II= 89 I=2 DE=    0.430298196181D-02
 TestDE:  II= 88 I=3 DE=    0.111286595200D-02
 TestDE:  II= 88 I=2 DE=    0.817583785597D-02
 TestDE:  II= 85 I=1 DE=    0.709995617906D-03
 TestDE:  II= 85 I=2 DE=    0.575832819586D-02
 TestDE:  II= 85 I=3 DE=    0.709995617906D-03
 UMP4Q scratch file information:
   i      file        len
 ---     ------    ------
   1      19997     27112
   2      19998     27112
   3      19996     27112
   4      19995     27112
   5      19994     27112
   6      19993     12544
 total scratch length=      148104
 UMP4(Q)=  0.308050367D-01
 MP4(R+Q)=  0.30805037D-01
 TestDE:  II= 71 I=2 DE=   -0.292037037866D-20
 TestDE:  II= 70 I=2 DE=   -0.633063000575D-21
 TestDE:  II= 72 I=2 DE=   -0.291433073641D-20
 TestDE:  II= 75 I=2 DE=    0.575832819586D-02
 TestDE:  II= 75 I=1 DE=    0.709995617906D-03
 TestDE:  II= 75 I=3 DE=    0.709995617906D-03
 MP4 NL singles =        0.62068208205D-19
 MP4 NL doubles =        0.71783194317D-02
 MP4 L =       -0.95294582444D-02
 MP4 NL =        0.71783194317D-02
 MP4 Mixed =        0.46762635378D-12
 RO-SDQ-MP4 Energy =       -0.23511388123D-02
 GetDE: DE=      0.00000000D+00
 TestDE:  II= 65 I=1 DE=    0.936021580346D-02
 TestDE:  II= 65 I=2 DE=    0.845243905453D-01
 TestDE:  II= 65 I=3 DE=    0.936021580346D-02
 Singles A-vector converged to   3.6958084D-11
 Singles A-vector converged to   7.3916169D-11
 The Euclidean norm of the A-vectors is   1.2909183D-02
 The Euclidean norm of the A-vectors is   2.5818366D-02
 The Euclidean norm of the A-vectors is   8.7917024D-02
 A(0)= 0.10000E+01      ANORM= 0.10479E+01      W(0)=-0.16142048E+00
 E3=       -0.23626717D-01        EROMP3=      -0.41509172507D+04
 E4(SDQ)=  -0.23511388D-02        ROMP4(SDQ)=  -0.41509196018D+04
 DE(Corr)= -0.16112684     E(Corr)=     -4150.8864457    
 NORM(A)=   0.10479225D+01
 Iteration Nr.   2
 **********************
 DD1Dir will call FoFMem   1 times, MxPair=        44
 NAB=    16 NAA=     6 NBB=     6.
 DD1Dir:  Pass   1 NRAB=    16 NRAA=     6 NRBB=     6 NR=    44.
 TestDE:  II= 99 I=2 DE=    0.489602159932D-01
 TestDE:  II= 99 I=1 DE=    0.334372780462D-02
 TestDE:  II= 99 I=3 DE=    0.334372780462D-02
 TestDE:  II= 19 I=1 DE=    0.334372780526D-02
 TestDE:  II= 19 I=2 DE=    0.489602159962D-01
 TestDE:  II= 19 I=3 DE=    0.334372780526D-02
 Contribution from DD1=    0.55647672D-01
 ExpSMa:  Full in-core algorithm.
 ExpSMa:  Full in-core algorithm.
 ExpSMa:  Full in-core algorithm.
 ExpSMa:  Full in-core algorithm.
 ExpSMa:  Full in-core algorithm.
 ExpSMa:  Full in-core algorithm.
 ExpSMa:  Full in-core algorithm.
 ExpSMa:  Full in-core algorithm.
 TestDE:  II=419 I=1 DE=    0.557993026708D-02
 TestDE:  II=419 I=2 DE=    0.771824209542D-01
 TestDE:  II=419 I=3 DE=    0.557993026708D-02
 Contribution from DD2=    0.32694610D-01
 Contribution from DD3=    0.00000000D+00
 Singles added:  Sum=    0.88342281D-01
 Entering DoROCS
 TestDE:  II= 99 I=2 DE=    0.771824209542D-01
 TestDE:  II= 99 I=1 DE=    0.557993026708D-02
 TestDE:  II= 99 I=3 DE=    0.557993026708D-02
 TestDE:  II= 99 I=1 DE=    0.579596088347D-02
 TestDE:  II= 11 I=2 DE=    0.771824209542D-01
 TestDE:  II= 99 I=2 DE=    0.781249461498D-01
 TestDE:  II= 98 I=2 DE=    0.790674713454D-01
 TestDE:  II= 98 I=3 DE=    0.579596088347D-02
 TestDE:  II= 89 I=1 DE=    0.655540191974D-02
 TestDE:  II= 89 I=2 DE=    0.823910613954D-01
 TestDE:  II= 88 I=3 DE=    0.655540191974D-02
 TestDE:  II= 88 I=2 DE=    0.857146514454D-01
 TestDE:  II=  5 I=1 DE=   -0.655499685336D-02
 TestDE:  II=  7 I=2 DE=    0.468876419593D-01
 TestDE:  II=  8 I=2 DE=   -0.619555828614D-01
 TestDE:  II=  9 I=3 DE=   -0.655499685336D-02
 TestDE:  II= 50 I=1 DE=    0.405066386443D-06
 TestDE:  II= 70 I=2 DE=   -0.150679409021D-01
 TestDE:  II= 90 I=3 DE=    0.405066386448D-06
 UMP4Q scratch file information:
   i      file        len
 ---     ------    ------
   1      19997     27112
   2      19998     27112
   3      19996     27112
   4      19995     27112
   5      19994     27112
   6      19993     12544
 total scratch length=      148104
 TestDE:  II= 71 I=2 DE=   -0.271938048013D-20
 TestDE:  II= 70 I=2 DE=   -0.568794694296D-21
 TestDE:  II= 72 I=2 DE=   -0.271793769703D-20
 TestDE:  II= 75 I=2 DE=   -0.150679409021D-01
 TestDE:  II= 75 I=1 DE=    0.405066386443D-06
 TestDE:  II= 75 I=3 DE=    0.405066386448D-06
 GetDE: DE=      0.00000000D+00
 TestDE:  II= 65 I=1 DE=    0.942803864432D-02
 TestDE:  II= 65 I=2 DE=    0.969114072904D-01
 TestDE:  II= 65 I=3 DE=    0.942803864432D-02
 Singles A-vector converged to   2.7559289D-02
 Singles A-vector converged to   5.5118578D-02
 The Euclidean norm of the A-vectors is   7.9663823D-02
 The Euclidean norm of the A-vectors is   1.0420907D-01
 The Euclidean norm of the A-vectors is   3.8655813D-01
 A(0)= 0.10000E+01      ANORM= 0.10528E+01      W(0)=-0.16770103E+00
 DE(Corr)= -0.18415754     E(CORR)=     -4150.9094764     Delta=-2.30D-02
 NORM(A)=   0.10528289D+01
 Iteration Nr.   3
 **********************
 DD1Dir will call FoFMem   1 times, MxPair=        44
 NAB=    16 NAA=     6 NBB=     6.
 DD1Dir:  Pass   1 NRAB=    16 NRAA=     6 NRBB=     6 NR=    44.
 TestDE:  II= 99 I=2 DE=    0.531504530848D-01
 TestDE:  II= 99 I=1 DE=    0.337064957532D-02
 TestDE:  II= 99 I=3 DE=    0.337064957532D-02
 TestDE:  II= 19 I=1 DE=    0.338186785139D-02
 TestDE:  II= 19 I=2 DE=    0.531780613632D-01
 TestDE:  II= 19 I=3 DE=    0.338186785139D-02
 Contribution from DD1=    0.59941797D-01
 ExpSMa:  Full in-core algorithm.
 ExpSMa:  Full in-core algorithm.
 ExpSMa:  Full in-core algorithm.
 ExpSMa:  Full in-core algorithm.
 ExpSMa:  Full in-core algorithm.
 ExpSMa:  Full in-core algorithm.
 ExpSMa:  Full in-core algorithm.
 ExpSMa:  Full in-core algorithm.
 TestDE:  II=419 I=1 DE=    0.569127988899D-02
 TestDE:  II=419 I=2 DE=    0.847723901133D-01
 TestDE:  II=419 I=3 DE=    0.569127988899D-02
 Contribution from DD2=    0.36213153D-01
 Contribution from DD3=    0.00000000D+00
 Singles added:  Sum=    0.95807261D-01
 Entering DoROCS
 TestDE:  II= 99 I=2 DE=    0.847723901133D-01
 TestDE:  II= 99 I=1 DE=    0.569127988899D-02
 TestDE:  II= 99 I=3 DE=    0.569127988899D-02
 TestDE:  II= 99 I=1 DE=    0.593873432002D-02
 TestDE:  II= 11 I=2 DE=    0.847723901133D-01
 TestDE:  II= 99 I=2 DE=    0.859655892530D-01
 TestDE:  II= 98 I=2 DE=    0.871587883928D-01
 TestDE:  II= 98 I=3 DE=    0.593873432002D-02
 TestDE:  II= 89 I=1 DE=    0.673840162025D-02
 TestDE:  II= 89 I=2 DE=    0.909549611137D-01
 TestDE:  II= 88 I=3 DE=    0.673840162025D-02
 TestDE:  II= 88 I=2 DE=    0.947511338346D-01
 TestDE:  II=  5 I=1 DE=   -0.673427629769D-02
 TestDE:  II=  7 I=2 DE=    0.507706842263D-01
 TestDE:  II=  8 I=2 DE=   -0.696233499575D-01
 TestDE:  II=  9 I=3 DE=   -0.673427629769D-02
 TestDE:  II= 50 I=1 DE=    0.412532256852D-05
 TestDE:  II= 70 I=2 DE=   -0.188526657312D-01
 TestDE:  II= 90 I=3 DE=    0.412532256852D-05
 UMP4Q scratch file information:
   i      file        len
 ---     ------    ------
   1      19997     27112
   2      19998     27112
   3      19996     27112
   4      19995     27112
   5      19994     27112
   6      19993     12544
 total scratch length=      148104
 TestDE:  II= 71 I=2 DE=   -0.466597337470D-06
 TestDE:  II= 70 I=2 DE=   -0.105684777461D-06
 TestDE:  II= 72 I=2 DE=   -0.466597337470D-06
 TestDE:  II= 75 I=2 DE=   -0.188515211670D-01
 TestDE:  II= 75 I=1 DE=    0.415593190480D-05
 TestDE:  II= 75 I=3 DE=    0.415593190481D-05
 GetDE: DE=      0.00000000D+00
 TestDE:  II= 65 I=1 DE=    0.957456839819D-02
 TestDE:  II= 65 I=2 DE=    0.105067485725D+00
 TestDE:  II= 65 I=3 DE=    0.957456839819D-02
 Singles A-vector converged to   2.1980366D-02
 Singles A-vector converged to   4.3960733D-02
 The Euclidean norm of the A-vectors is   6.2903918D-02
 The Euclidean norm of the A-vectors is   8.1847103D-02
 The Euclidean norm of the A-vectors is   3.1837661D-01
 A(0)= 0.10000E+01      ANORM= 0.10658E+01      W(0)=-0.18043212E+00
 DE(Corr)= -0.18606320     E(CORR)=     -4150.9113820     Delta=-1.91D-03
 NORM(A)=   0.10657973D+01
 Iteration Nr.   4
 **********************
 DD1Dir will call FoFMem   1 times, MxPair=        44
 NAB=    16 NAA=     6 NBB=     6.
 DD1Dir:  Pass   1 NRAB=    16 NRAA=     6 NRBB=     6 NR=    44.
 TestDE:  II= 99 I=2 DE=    0.641830622398D-01
 TestDE:  II= 99 I=1 DE=    0.334247790965D-02
 TestDE:  II= 99 I=3 DE=    0.334247790965D-02
 TestDE:  II= 19 I=1 DE=    0.336947364237D-02
 TestDE:  II= 19 I=2 DE=    0.642064399017D-01
 TestDE:  II= 19 I=3 DE=    0.336947364237D-02
 Contribution from DD1=    0.70945387D-01
 ExpSMa:  Full in-core algorithm.
 ExpSMa:  Full in-core algorithm.
 ExpSMa:  Full in-core algorithm.
 ExpSMa:  Full in-core algorithm.
 ExpSMa:  Full in-core algorithm.
 ExpSMa:  Full in-core algorithm.
 ExpSMa:  Full in-core algorithm.
 ExpSMa:  Full in-core algorithm.
 TestDE:  II=419 I=1 DE=    0.573994899492D-02
 TestDE:  II=419 I=2 DE=    0.104827876034D+00
 TestDE:  II=419 I=3 DE=    0.573994899492D-02
 Contribution from DD2=    0.45362387D-01
 Contribution from DD3=    0.00000000D+00
 Singles added:  Sum=    0.11502019D+00
 Entering DoROCS
 TestDE:  II= 99 I=2 DE=    0.104827876034D+00
 TestDE:  II= 99 I=1 DE=    0.573994899492D-02
 TestDE:  II= 99 I=3 DE=    0.573994899492D-02
 TestDE:  II= 99 I=1 DE=    0.604160987630D-02
 TestDE:  II= 11 I=2 DE=    0.104827876034D+00
 TestDE:  II= 99 I=2 DE=    0.106742898950D+00
 TestDE:  II= 98 I=2 DE=    0.108657921865D+00
 TestDE:  II= 98 I=3 DE=    0.604160987630D-02
 TestDE:  II= 89 I=1 DE=    0.690241613662D-02
 TestDE:  II= 89 I=2 DE=    0.113798626097D+00
 TestDE:  II= 88 I=3 DE=    0.690241613662D-02
 TestDE:  II= 88 I=2 DE=    0.118939330328D+00
 TestDE:  II=  5 I=1 DE=   -0.681299227371D-02
 TestDE:  II=  7 I=2 DE=    0.608335082680D-01
 TestDE:  II=  8 I=2 DE=   -0.899914754810D-01
 TestDE:  II=  9 I=3 DE=   -0.681299227371D-02
 TestDE:  II= 50 I=1 DE=    0.894238629047D-04
 TestDE:  II= 70 I=2 DE=   -0.291579672130D-01
 TestDE:  II= 90 I=3 DE=    0.894238629046D-04
 UMP4Q scratch file information:
   i      file        len
 ---     ------    ------
   1      19997     27112
   2      19998     27112
   3      19996     27112
   4      19995     27112
   5      19994     27112
   6      19993     12544
 total scratch length=      148104
 TestDE:  II= 71 I=2 DE=   -0.356510250118D-05
 TestDE:  II= 70 I=2 DE=   -0.855980118486D-06
 TestDE:  II= 72 I=2 DE=   -0.356510250118D-05
 TestDE:  II= 75 I=2 DE=   -0.291491250478D-01
 TestDE:  II= 75 I=1 DE=    0.893417342201D-04
 TestDE:  II= 75 I=3 DE=    0.893417342200D-04
 GetDE: DE=      0.00000000D+00
 TestDE:  II= 65 I=1 DE=    0.961248616427D-02
 TestDE:  II= 65 I=2 DE=    0.126386516506D+00
 TestDE:  II= 65 I=3 DE=    0.961248616427D-02
 Singles A-vector converged to   1.3565857D-02
 Singles A-vector converged to   2.7131714D-02
 The Euclidean norm of the A-vectors is   3.6823827D-02
 The Euclidean norm of the A-vectors is   4.6515939D-02
 The Euclidean norm of the A-vectors is   1.8467501D-01
 A(0)= 0.10000E+01      ANORM= 0.10880E+01      W(0)=-0.19541420E+00
 DE(Corr)= -0.19008890     E(CORR)=     -4150.9154077     Delta=-4.03D-03
 NORM(A)=   0.10880495D+01
 Iteration Nr.   5
 **********************
 DD1Dir will call FoFMem   1 times, MxPair=        44
 NAB=    16 NAA=     6 NBB=     6.
 DD1Dir:  Pass   1 NRAB=    16 NRAA=     6 NRBB=     6 NR=    44.
 TestDE:  II= 99 I=2 DE=    0.812280192847D-01
 TestDE:  II= 99 I=1 DE=    0.320439417413D-02
 TestDE:  II= 99 I=3 DE=    0.320439417413D-02
 TestDE:  II= 19 I=1 DE=    0.325190323269D-02
 TestDE:  II= 19 I=2 DE=    0.812038817529D-01
 TestDE:  II= 19 I=3 DE=    0.325190323269D-02
 Contribution from DD1=    0.87707688D-01
 ExpSMa:  Full in-core algorithm.
 ExpSMa:  Full in-core algorithm.
 ExpSMa:  Full in-core algorithm.
 ExpSMa:  Full in-core algorithm.
 ExpSMa:  Full in-core algorithm.
 ExpSMa:  Full in-core algorithm.
 ExpSMa:  Full in-core algorithm.
 ExpSMa:  Full in-core algorithm.
 TestDE:  II=419 I=1 DE=    0.564031910804D-02
 TestDE:  II=419 I=2 DE=    0.137011140028D+00
 TestDE:  II=419 I=3 DE=    0.564031910804D-02
 Contribution from DD2=    0.60584090D-01
 Contribution from DD3=    0.00000000D+00
 Singles added:  Sum=    0.14504500D+00
 Entering DoROCS
 TestDE:  II= 99 I=2 DE=    0.137011140028D+00
 TestDE:  II= 99 I=1 DE=    0.564031910804D-02
 TestDE:  II= 99 I=3 DE=    0.564031910804D-02
 TestDE:  II= 99 I=1 DE=    0.600593673939D-02
 TestDE:  II= 11 I=2 DE=    0.137011140028D+00
 TestDE:  II= 99 I=2 DE=    0.140396570219D+00
 TestDE:  II= 98 I=2 DE=    0.143782000411D+00
 TestDE:  II= 98 I=3 DE=    0.600593673939D-02
 TestDE:  II= 89 I=1 DE=    0.691167084703D-02
 TestDE:  II= 89 I=2 DE=    0.151263545059D+00
 TestDE:  II= 88 I=3 DE=    0.691167084703D-02
 TestDE:  II= 88 I=2 DE=    0.158745089707D+00
 TestDE:  II=  5 I=1 DE=   -0.675393029930D-02
 TestDE:  II=  7 I=2 DE=    0.758621421861D-01
 TestDE:  II=  8 I=2 DE=   -0.124141413667D+00
 TestDE:  II=  9 I=3 DE=   -0.675393029930D-02
 TestDE:  II= 50 I=1 DE=    0.157740547729D-03
 TestDE:  II= 70 I=2 DE=   -0.482792714811D-01
 TestDE:  II= 90 I=3 DE=    0.157740547729D-03
 UMP4Q scratch file information:
   i      file        len
 ---     ------    ------
   1      19997     27112
   2      19998     27112
   3      19996     27112
   4      19995     27112
   5      19994     27112
   6      19993     12544
 total scratch length=      148104
 TestDE:  II= 71 I=2 DE=   -0.119030233338D-04
 TestDE:  II= 70 I=2 DE=   -0.318053375882D-05
 TestDE:  II= 72 I=2 DE=   -0.119030233338D-04
 TestDE:  II= 75 I=2 DE=   -0.482491043669D-01
 TestDE:  II= 75 I=1 DE=    0.156761112376D-03
 TestDE:  II= 75 I=3 DE=    0.156761112376D-03
 GetDE: DE=      0.00000000D+00
 TestDE:  II= 65 I=1 DE=    0.951277154482D-02
 TestDE:  II= 65 I=2 DE=    0.161634669111D+00
 TestDE:  II= 65 I=3 DE=    0.951277154482D-02
 Singles A-vector converged to   9.6049809D-04
 Singles A-vector converged to   1.9209962D-03
 The Euclidean norm of the A-vectors is   3.4663946D-03
 The Euclidean norm of the A-vectors is   5.0117931D-03
 The Euclidean norm of the A-vectors is   2.8003834D-02
 A(0)= 0.10000E+01      ANORM= 0.10864E+01      W(0)=-0.19304501E+00
 DE(Corr)= -0.19551795     E(CORR)=     -4150.9208368     Delta=-5.43D-03
 NORM(A)=   0.10863561D+01
 Iteration Nr.   6
 **********************
 DD1Dir will call FoFMem   1 times, MxPair=        44
 NAB=    16 NAA=     6 NBB=     6.
 DD1Dir:  Pass   1 NRAB=    16 NRAA=     6 NRBB=     6 NR=    44.
 TestDE:  II= 99 I=2 DE=    0.798180908747D-01
 TestDE:  II= 99 I=1 DE=    0.321660580089D-02
 TestDE:  II= 99 I=3 DE=    0.321660580089D-02
 TestDE:  II= 19 I=1 DE=    0.326412705477D-02
 TestDE:  II= 19 I=2 DE=    0.798012990434D-01
 TestDE:  II= 19 I=3 DE=    0.326412705477D-02
 Contribution from DD1=    0.86329553D-01
 ExpSMa:  Full in-core algorithm.
 ExpSMa:  Full in-core algorithm.
 ExpSMa:  Full in-core algorithm.
 ExpSMa:  Full in-core algorithm.
 ExpSMa:  Full in-core algorithm.
 ExpSMa:  Full in-core algorithm.
 ExpSMa:  Full in-core algorithm.
 ExpSMa:  Full in-core algorithm.
 TestDE:  II=419 I=1 DE=    0.563472663228D-02
 TestDE:  II=419 I=2 DE=    0.134497865059D+00
 TestDE:  II=419 I=3 DE=    0.563472663228D-02
 Contribution from DD2=    0.59437765D-01
 Contribution from DD3=    0.00000000D+00
 Singles added:  Sum=    0.14285780D+00
 Entering DoROCS
 TestDE:  II= 99 I=2 DE=    0.134497865059D+00
 TestDE:  II= 99 I=1 DE=    0.563472663228D-02
 TestDE:  II= 99 I=3 DE=    0.563472663228D-02
 TestDE:  II= 99 I=1 DE=    0.598670469705D-02
 TestDE:  II= 11 I=2 DE=    0.134497865059D+00
 TestDE:  II= 99 I=2 DE=    0.137741586970D+00
 TestDE:  II= 98 I=2 DE=    0.140985308881D+00
 TestDE:  II= 98 I=3 DE=    0.598670469705D-02
 TestDE:  II= 89 I=1 DE=    0.687962078950D-02
 TestDE:  II= 89 I=2 DE=    0.148296167703D+00
 TestDE:  II= 88 I=3 DE=    0.687962078950D-02
 TestDE:  II= 88 I=2 DE=    0.155607026525D+00
 TestDE:  II=  5 I=1 DE=   -0.672683781040D-02
 TestDE:  II=  7 I=2 DE=    0.743974576824D-01
 TestDE:  II=  8 I=2 DE=   -0.121246778493D+00
 TestDE:  II=  9 I=3 DE=   -0.672683781040D-02
 TestDE:  II= 50 I=1 DE=    0.152782979106D-03
 TestDE:  II= 70 I=2 DE=   -0.468493208102D-01
 TestDE:  II= 90 I=3 DE=    0.152782979106D-03
 UMP4Q scratch file information:
   i      file        len
 ---     ------    ------
   1      19997     27112
   2      19998     27112
   3      19996     27112
   4      19995     27112
   5      19994     27112
   6      19993     12544
 total scratch length=      148104
 TestDE:  II= 71 I=2 DE=   -0.104107045562D-04
 TestDE:  II= 70 I=2 DE=   -0.253251970336D-05
 TestDE:  II= 72 I=2 DE=   -0.104107045562D-04
 TestDE:  II= 75 I=2 DE=   -0.468234343617D-01
 TestDE:  II= 75 I=1 DE=    0.152310810253D-03
 TestDE:  II= 75 I=3 DE=    0.152310810253D-03
 GetDE: DE=      0.00000000D+00
 TestDE:  II= 65 I=1 DE=    0.948782612259D-02
 TestDE:  II= 65 I=2 DE=    0.160369948277D+00
 TestDE:  II= 65 I=3 DE=    0.948782612259D-02
 Singles A-vector converged to   2.0658521D-03
 Singles A-vector converged to   4.1317043D-03
 The Euclidean norm of the A-vectors is   6.8592583D-03
 The Euclidean norm of the A-vectors is   9.5868123D-03
 The Euclidean norm of the A-vectors is   3.8876052D-02
 A(0)= 0.10000E+01      ANORM= 0.10943E+01      W(0)=-0.19617010E+00
 DE(Corr)= -0.19483623     E(CORR)=     -4150.9201551     Delta= 6.82D-04
 NORM(A)=   0.10943443D+01
 Iteration Nr.   7
 **********************
 DD1Dir will call FoFMem   1 times, MxPair=        44
 NAB=    16 NAA=     6 NBB=     6.
 DD1Dir:  Pass   1 NRAB=    16 NRAA=     6 NRBB=     6 NR=    44.
 TestDE:  II= 99 I=2 DE=    0.855215041392D-01
 TestDE:  II= 99 I=1 DE=    0.322852089881D-02
 TestDE:  II= 99 I=3 DE=    0.322852089881D-02
 TestDE:  II= 19 I=1 DE=    0.328156787975D-02
 TestDE:  II= 19 I=2 DE=    0.855044025274D-01
 TestDE:  II= 19 I=3 DE=    0.328156787975D-02
 Contribution from DD1=    0.92067538D-01
 ExpSMa:  Full in-core algorithm.
 ExpSMa:  Full in-core algorithm.
 ExpSMa:  Full in-core algorithm.
 ExpSMa:  Full in-core algorithm.
 ExpSMa:  Full in-core algorithm.
 ExpSMa:  Full in-core algorithm.
 ExpSMa:  Full in-core algorithm.
 ExpSMa:  Full in-core algorithm.
 TestDE:  II=419 I=1 DE=    0.568265984043D-02
 TestDE:  II=419 I=2 DE=    0.145483343392D+00
 TestDE:  II=419 I=3 DE=    0.568265984043D-02
 Contribution from DD2=    0.64781125D-01
 Contribution from DD3=    0.00000000D+00
 Singles added:  Sum=    0.15358461D+00
 Entering DoROCS
 TestDE:  II= 99 I=2 DE=    0.145483343392D+00
 TestDE:  II= 99 I=1 DE=    0.568265984043D-02
 TestDE:  II= 99 I=3 DE=    0.568265984043D-02
 TestDE:  II= 99 I=1 DE=    0.605023692679D-02
 TestDE:  II= 11 I=2 DE=    0.145483343392D+00
 TestDE:  II= 99 I=2 DE=    0.149250457380D+00
 TestDE:  II= 98 I=2 DE=    0.153017571367D+00
 TestDE:  II= 98 I=3 DE=    0.605023692679D-02
 TestDE:  II= 89 I=1 DE=    0.696378708944D-02
 TestDE:  II= 89 I=2 DE=    0.161216424685D+00
 TestDE:  II= 88 I=3 DE=    0.696378708944D-02
 TestDE:  II= 88 I=2 DE=    0.169415278004D+00
 TestDE:  II=  5 I=1 DE=   -0.683919067441D-02
 TestDE:  II=  7 I=2 DE=    0.790385373102D-01
 TestDE:  II=  8 I=2 DE=   -0.132771234196D+00
 TestDE:  II=  9 I=3 DE=   -0.683919067441D-02
 TestDE:  II= 50 I=1 DE=    0.124596415024D-03
 TestDE:  II= 70 I=2 DE=   -0.537326968853D-01
 TestDE:  II= 90 I=3 DE=    0.124596415024D-03
 UMP4Q scratch file information:
   i      file        len
 ---     ------    ------
   1      19997     27112
   2      19998     27112
   3      19996     27112
   4      19995     27112
   5      19994     27112
   6      19993     12544
 total scratch length=      148104
 TestDE:  II= 71 I=2 DE=   -0.123301152260D-04
 TestDE:  II= 70 I=2 DE=   -0.293464801415D-05
 TestDE:  II= 72 I=2 DE=   -0.123301152260D-04
 TestDE:  II= 75 I=2 DE=   -0.537021673589D-01
 TestDE:  II= 75 I=1 DE=    0.124182996610D-03
 TestDE:  II= 75 I=3 DE=    0.124182996610D-03
 GetDE: DE=      0.00000000D+00
 TestDE:  II= 65 I=1 DE=    0.954945143847D-02
 TestDE:  II= 65 I=2 DE=    0.174154693290D+00
 TestDE:  II= 65 I=3 DE=    0.954945143847D-02
 Singles A-vector converged to   4.6262463D-04
 Singles A-vector converged to   9.2524927D-04
 The Euclidean norm of the A-vectors is   2.0830978D-03
 The Euclidean norm of the A-vectors is   3.2409464D-03
 The Euclidean norm of the A-vectors is   1.1250148D-02
 A(0)= 0.10000E+01      ANORM= 0.10948E+01      W(0)=-0.19604286E+00
 DE(Corr)= -0.19600978     E(CORR)=     -4150.9213286     Delta=-1.17D-03
 NORM(A)=   0.10947688D+01
 Iteration Nr.   8
 **********************
 DD1Dir will call FoFMem   1 times, MxPair=        44
 NAB=    16 NAA=     6 NBB=     6.
 DD1Dir:  Pass   1 NRAB=    16 NRAA=     6 NRBB=     6 NR=    44.
 TestDE:  II= 99 I=2 DE=    0.857238408162D-01
 TestDE:  II= 99 I=1 DE=    0.324528130760D-02
 TestDE:  II= 99 I=3 DE=    0.324528130760D-02
 TestDE:  II= 19 I=1 DE=    0.329871823614D-02
 TestDE:  II= 19 I=2 DE=    0.857201522998D-01
 TestDE:  II= 19 I=3 DE=    0.329871823614D-02
 Contribution from DD1=    0.92317589D-01
 ExpSMa:  Full in-core algorithm.
 ExpSMa:  Full in-core algorithm.
 ExpSMa:  Full in-core algorithm.
 ExpSMa:  Full in-core algorithm.
 ExpSMa:  Full in-core algorithm.
 ExpSMa:  Full in-core algorithm.
 ExpSMa:  Full in-core algorithm.
 ExpSMa:  Full in-core algorithm.
 TestDE:  II=419 I=1 DE=    0.571494293475D-02
 TestDE:  II=419 I=2 DE=    0.145931980171D+00
 TestDE:  II=419 I=3 DE=    0.571494293475D-02
 Contribution from DD2=    0.65044277D-01
 Contribution from DD3=    0.00000000D+00
 Singles added:  Sum=    0.15416908D+00
 Entering DoROCS
 TestDE:  II= 99 I=2 DE=    0.145931980171D+00
 TestDE:  II= 99 I=1 DE=    0.571494293475D-02
 TestDE:  II= 99 I=3 DE=    0.571494293475D-02
 TestDE:  II= 99 I=1 DE=    0.608494902356D-02
 TestDE:  II= 11 I=2 DE=    0.145931980171D+00
 TestDE:  II= 99 I=2 DE=    0.149715128002D+00
 TestDE:  II= 98 I=2 DE=    0.153498275834D+00
 TestDE:  II= 98 I=3 DE=    0.608494902356D-02
 TestDE:  II= 89 I=1 DE=    0.700376150455D-02
 TestDE:  II= 89 I=2 DE=    0.161741886300D+00
 TestDE:  II= 88 I=3 DE=    0.700376150455D-02
 TestDE:  II= 88 I=2 DE=    0.169985496765D+00
 TestDE:  II=  5 I=1 DE=   -0.690152693752D-02
 TestDE:  II=  7 I=2 DE=    0.790942251052D-01
 TestDE:  II=  8 I=2 DE=   -0.133223676975D+00
 TestDE:  II=  9 I=3 DE=   -0.690152693752D-02
 TestDE:  II= 50 I=1 DE=    0.102234567028D-03
 TestDE:  II= 70 I=2 DE=   -0.541294518701D-01
 TestDE:  II= 90 I=3 DE=    0.102234567028D-03
 UMP4Q scratch file information:
   i      file        len
 ---     ------    ------
   1      19997     27112
   2      19998     27112
   3      19996     27112
   4      19995     27112
   5      19994     27112
   6      19993     12544
 total scratch length=      148104
 TestDE:  II= 71 I=2 DE=   -0.124155651148D-04
 TestDE:  II= 70 I=2 DE=   -0.290464651525D-05
 TestDE:  II= 72 I=2 DE=   -0.124155651148D-04
 TestDE:  II= 75 I=2 DE=   -0.540988114468D-01
 TestDE:  II= 75 I=1 DE=    0.101959696545D-03
 TestDE:  II= 75 I=3 DE=    0.101959696545D-03
 GetDE: DE=      0.00000000D+00
 TestDE:  II= 65 I=1 DE=    0.960067878583D-02
 TestDE:  II= 65 I=2 DE=    0.175171241602D+00
 TestDE:  II= 65 I=3 DE=    0.960067878583D-02
 Singles A-vector converged to   2.3301076D-04
 Singles A-vector converged to   4.6602151D-04
 The Euclidean norm of the A-vectors is   9.7846830D-04
 The Euclidean norm of the A-vectors is   1.4909151D-03
 The Euclidean norm of the A-vectors is   4.4735035D-03
 A(0)= 0.10000E+01      ANORM= 0.10948E+01      W(0)=-0.19605795E+00
 DE(Corr)= -0.19599230     E(CORR)=     -4150.9213111     Delta= 1.75D-05
 NORM(A)=   0.10948448D+01
 Iteration Nr.   9
 **********************
 DD1Dir will call FoFMem   1 times, MxPair=        44
 NAB=    16 NAA=     6 NBB=     6.
 DD1Dir:  Pass   1 NRAB=    16 NRAA=     6 NRBB=     6 NR=    44.
 TestDE:  II= 99 I=2 DE=    0.857785404988D-01
 TestDE:  II= 99 I=1 DE=    0.325447256298D-02
 TestDE:  II= 99 I=3 DE=    0.325447256298D-02
 TestDE:  II= 19 I=1 DE=    0.330740903361D-02
 TestDE:  II= 19 I=2 DE=    0.857761627457D-01
 TestDE:  II= 19 I=3 DE=    0.330740903361D-02
 Contribution from DD1=    0.92390981D-01
 ExpSMa:  Full in-core algorithm.
 ExpSMa:  Full in-core algorithm.
 ExpSMa:  Full in-core algorithm.
 ExpSMa:  Full in-core algorithm.
 ExpSMa:  Full in-core algorithm.
 ExpSMa:  Full in-core algorithm.
 ExpSMa:  Full in-core algorithm.
 ExpSMa:  Full in-core algorithm.
 TestDE:  II=419 I=1 DE=    0.573059568660D-02
 TestDE:  II=419 I=2 DE=    0.146018460957D+00
 TestDE:  II=419 I=3 DE=    0.573059568660D-02
 Contribution from DD2=    0.65088672D-01
 Contribution from DD3=    0.00000000D+00
 Singles added:  Sum=    0.15431305D+00
 Entering DoROCS
 TestDE:  II= 99 I=2 DE=    0.146018460957D+00
 TestDE:  II= 99 I=1 DE=    0.573059568660D-02
 TestDE:  II= 99 I=3 DE=    0.573059568660D-02
 TestDE:  II= 99 I=1 DE=    0.610160650991D-02
 TestDE:  II= 11 I=2 DE=    0.146018460957D+00
 TestDE:  II= 99 I=2 DE=    0.149800822208D+00
 TestDE:  II= 98 I=2 DE=    0.153583183459D+00
 TestDE:  II= 98 I=3 DE=    0.610160650991D-02
 TestDE:  II= 89 I=1 DE=    0.702362158787D-02
 TestDE:  II= 89 I=2 DE=    0.161839735249D+00
 TestDE:  II= 88 I=3 DE=    0.702362158787D-02
 TestDE:  II= 88 I=2 DE=    0.170096287039D+00
 TestDE:  II=  5 I=1 DE=   -0.692746275304D-02
 TestDE:  II=  7 I=2 DE=    0.791241493143D-01
 TestDE:  II=  8 I=2 DE=   -0.133293853284D+00
 TestDE:  II=  9 I=3 DE=   -0.692746275304D-02
 TestDE:  II= 50 I=1 DE=    0.961588348346D-04
 TestDE:  II= 70 I=2 DE=   -0.541697039696D-01
 TestDE:  II= 90 I=3 DE=    0.961588348346D-04
 UMP4Q scratch file information:
   i      file        len
 ---     ------    ------
   1      19997     27112
   2      19998     27112
   3      19996     27112
   4      19995     27112
   5      19994     27112
   6      19993     12544
 total scratch length=      148104
 TestDE:  II= 71 I=2 DE=   -0.123628843675D-04
 TestDE:  II= 70 I=2 DE=   -0.290295517031D-05
 TestDE:  II= 72 I=2 DE=   -0.123628843675D-04
 TestDE:  II= 75 I=2 DE=   -0.541391722905D-01
 TestDE:  II= 75 I=1 DE=    0.958781348094D-04
 TestDE:  II= 75 I=3 DE=    0.958781348094D-04
 GetDE: DE=      0.00000000D+00
 TestDE:  II= 65 I=1 DE=    0.962136305338D-02
 TestDE:  II= 65 I=2 DE=    0.175342286645D+00
 TestDE:  II= 65 I=3 DE=    0.962136305338D-02
 Singles A-vector converged to   1.0979331D-04
 Singles A-vector converged to   2.1958661D-04
 The Euclidean norm of the A-vectors is   4.5362900D-04
 The Euclidean norm of the A-vectors is   6.8767138D-04
 The Euclidean norm of the A-vectors is   1.9320513D-03
 A(0)= 0.10000E+01      ANORM= 0.10949E+01      W(0)=-0.19605310E+00
 DE(Corr)= -0.19597047     E(CORR)=     -4150.9212893     Delta= 2.18D-05
 NORM(A)=   0.10949181D+01
 Iteration Nr.  10
 **********************
 DD1Dir will call FoFMem   1 times, MxPair=        44
 NAB=    16 NAA=     6 NBB=     6.
 DD1Dir:  Pass   1 NRAB=    16 NRAA=     6 NRBB=     6 NR=    44.
 TestDE:  II= 99 I=2 DE=    0.858135429587D-01
 TestDE:  II= 99 I=1 DE=    0.325454289263D-02
 TestDE:  II= 99 I=3 DE=    0.325454289263D-02
 TestDE:  II= 19 I=1 DE=    0.330739015515D-02
 TestDE:  II= 19 I=2 DE=    0.858110494663D-01
 TestDE:  II= 19 I=3 DE=    0.330739015515D-02
 Contribution from DD1=    0.92425830D-01
 ExpSMa:  Full in-core algorithm.
 ExpSMa:  Full in-core algorithm.
 ExpSMa:  Full in-core algorithm.
 ExpSMa:  Full in-core algorithm.
 ExpSMa:  Full in-core algorithm.
 ExpSMa:  Full in-core algorithm.
 ExpSMa:  Full in-core algorithm.
 ExpSMa:  Full in-core algorithm.
 TestDE:  II=419 I=1 DE=    0.573121477842D-02
 TestDE:  II=419 I=2 DE=    0.146095422808D+00
 TestDE:  II=419 I=3 DE=    0.573121477842D-02
 Contribution from DD2=    0.65132023D-01
 Contribution from DD3=    0.00000000D+00
 Singles added:  Sum=    0.15438957D+00
 Entering DoROCS
 TestDE:  II= 99 I=2 DE=    0.146095422808D+00
 TestDE:  II= 99 I=1 DE=    0.573121477842D-02
 TestDE:  II= 99 I=3 DE=    0.573121477842D-02
 TestDE:  II= 99 I=1 DE=    0.610243095491D-02
 TestDE:  II= 11 I=2 DE=    0.146095422808D+00
 TestDE:  II= 99 I=2 DE=    0.149882079304D+00
 TestDE:  II= 98 I=2 DE=    0.153668735800D+00
 TestDE:  II= 98 I=3 DE=    0.610243095491D-02
 TestDE:  II= 89 I=1 DE=    0.702460271592D-02
 TestDE:  II= 89 I=2 DE=    0.161931986647D+00
 TestDE:  II= 88 I=3 DE=    0.702460271592D-02
 TestDE:  II= 88 I=2 DE=    0.170195237494D+00
 TestDE:  II=  5 I=1 DE=   -0.693066874536D-02
 TestDE:  II=  7 I=2 DE=    0.791411833720D-01
 TestDE:  II=  8 I=2 DE=   -0.133383928744D+00
 TestDE:  II=  9 I=3 DE=   -0.693066874536D-02
 TestDE:  II= 50 I=1 DE=    0.939339705542D-04
 TestDE:  II= 70 I=2 DE=   -0.542427453721D-01
 TestDE:  II= 90 I=3 DE=    0.939339705542D-04
 UMP4Q scratch file information:
   i      file        len
 ---     ------    ------
   1      19997     27112
   2      19998     27112
   3      19996     27112
   4      19995     27112
   5      19994     27112
   6      19993     12544
 total scratch length=      148104
 TestDE:  II= 71 I=2 DE=   -0.123752894403D-04
 TestDE:  II= 70 I=2 DE=   -0.291532918010D-05
 TestDE:  II= 72 I=2 DE=   -0.123752894403D-04
 TestDE:  II= 75 I=2 DE=   -0.542121641349D-01
 TestDE:  II= 75 I=1 DE=    0.936423413118D-04
 TestDE:  II= 75 I=3 DE=    0.936423413118D-04
 GetDE: DE=      0.00000000D+00
 TestDE:  II= 65 I=1 DE=    0.962449166579D-02
 TestDE:  II= 65 I=2 DE=    0.175491860182D+00
 TestDE:  II= 65 I=3 DE=    0.962449166579D-02
 Singles A-vector converged to   4.9761652D-05
 Singles A-vector converged to   9.9523305D-05
 The Euclidean norm of the A-vectors is   2.1313294D-04
 The Euclidean norm of the A-vectors is   3.2674257D-04
 The Euclidean norm of the A-vectors is   1.0016591D-03
 A(0)= 0.10000E+01      ANORM= 0.10949E+01      W(0)=-0.19606341E+00
 DE(Corr)= -0.19597696     E(CORR)=     -4150.9212958     Delta=-6.50D-06
 NORM(A)=   0.10949485D+01
 Iteration Nr.  11
 **********************
 DD1Dir will call FoFMem   1 times, MxPair=        44
 NAB=    16 NAA=     6 NBB=     6.
 DD1Dir:  Pass   1 NRAB=    16 NRAA=     6 NRBB=     6 NR=    44.
 TestDE:  II= 99 I=2 DE=    0.858283764242D-01
 TestDE:  II= 99 I=1 DE=    0.325375183240D-02
 TestDE:  II= 99 I=3 DE=    0.325375183240D-02
 TestDE:  II= 19 I=1 DE=    0.330652292610D-02
 TestDE:  II= 19 I=2 DE=    0.858246172862D-01
 TestDE:  II= 19 I=3 DE=    0.330652292610D-02
 Contribution from DD1=    0.92437663D-01
 ExpSMa:  Full in-core algorithm.
 ExpSMa:  Full in-core algorithm.
 ExpSMa:  Full in-core algorithm.
 ExpSMa:  Full in-core algorithm.
 ExpSMa:  Full in-core algorithm.
 ExpSMa:  Full in-core algorithm.
 ExpSMa:  Full in-core algorithm.
 ExpSMa:  Full in-core algorithm.
 TestDE:  II=419 I=1 DE=    0.572995809251D-02
 TestDE:  II=419 I=2 DE=    0.146126442460D+00
 TestDE:  II=419 I=3 DE=    0.572995809251D-02
 Contribution from DD2=    0.65148696D-01
 Contribution from DD3=    0.00000000D+00
 Singles added:  Sum=    0.15441133D+00
 Entering DoROCS
 TestDE:  II= 99 I=2 DE=    0.146126442460D+00
 TestDE:  II= 99 I=1 DE=    0.572995809251D-02
 TestDE:  II= 99 I=3 DE=    0.572995809251D-02
 TestDE:  II= 99 I=1 DE=    0.610121222592D-02
 TestDE:  II= 11 I=2 DE=    0.146126442460D+00
 TestDE:  II= 99 I=2 DE=    0.149915657316D+00
 TestDE:  II= 98 I=2 DE=    0.153704872172D+00
 TestDE:  II= 98 I=3 DE=    0.610121222592D-02
 TestDE:  II= 89 I=1 DE=    0.702325898983D-02
 TestDE:  II= 89 I=2 DE=    0.161970777663D+00
 TestDE:  II= 88 I=3 DE=    0.702325898983D-02
 TestDE:  II= 88 I=2 DE=    0.170236683154D+00
 TestDE:  II=  5 I=1 DE=   -0.692937749081D-02
 TestDE:  II=  7 I=2 DE=    0.791551091894D-01
 TestDE:  II=  8 I=2 DE=   -0.133426066873D+00
 TestDE:  II=  9 I=3 DE=   -0.692937749081D-02
 TestDE:  II= 50 I=1 DE=    0.938814990191D-04
 TestDE:  II= 70 I=2 DE=   -0.542709576837D-01
 TestDE:  II= 90 I=3 DE=    0.938814990191D-04
 UMP4Q scratch file information:
   i      file        len
 ---     ------    ------
   1      19997     27112
   2      19998     27112
   3      19996     27112
   4      19995     27112
   5      19994     27112
   6      19993     12544
 total scratch length=      148104
 TestDE:  II= 71 I=2 DE=   -0.123831533602D-04
 TestDE:  II= 70 I=2 DE=   -0.292580831304D-05
 TestDE:  II= 72 I=2 DE=   -0.123831533602D-04
 TestDE:  II= 75 I=2 DE=   -0.542403397603D-01
 TestDE:  II= 75 I=1 DE=    0.935744476107D-04
 TestDE:  II= 75 I=3 DE=    0.935744476107D-04
 GetDE: DE=      0.00000000D+00
 TestDE:  II= 65 I=1 DE=    0.962351138867D-02
 TestDE:  II= 65 I=2 DE=    0.175539588130D+00
 TestDE:  II= 65 I=3 DE=    0.962351138867D-02
 Singles A-vector converged to   1.3215863D-05
 Singles A-vector converged to   2.6431726D-05
 The Euclidean norm of the A-vectors is   5.5207119D-05
 The Euclidean norm of the A-vectors is   8.3982512D-05
 The Euclidean norm of the A-vectors is   3.2772504D-04
 A(0)= 0.10000E+01      ANORM= 0.10950E+01      W(0)=-0.19606314E+00
 DE(Corr)= -0.19598240     E(CORR)=     -4150.9213012     Delta=-5.44D-06
 NORM(A)=   0.10949537D+01
 Iteration Nr.  12
 **********************
 DD1Dir will call FoFMem   1 times, MxPair=        44
 NAB=    16 NAA=     6 NBB=     6.
 DD1Dir:  Pass   1 NRAB=    16 NRAA=     6 NRBB=     6 NR=    44.
 TestDE:  II= 99 I=2 DE=    0.858297939196D-01
 TestDE:  II= 99 I=1 DE=    0.325352570480D-02
 TestDE:  II= 99 I=3 DE=    0.325352570480D-02
 TestDE:  II= 19 I=1 DE=    0.330627922751D-02
 TestDE:  II= 19 I=2 DE=    0.858258314230D-01
 TestDE:  II= 19 I=3 DE=    0.330627922751D-02
 Contribution from DD1=    0.92438390D-01
 ExpSMa:  Full in-core algorithm.
 ExpSMa:  Full in-core algorithm.
 ExpSMa:  Full in-core algorithm.
 ExpSMa:  Full in-core algorithm.
 ExpSMa:  Full in-core algorithm.
 ExpSMa:  Full in-core algorithm.
 ExpSMa:  Full in-core algorithm.
 ExpSMa:  Full in-core algorithm.
 TestDE:  II=419 I=1 DE=    0.572956176808D-02
 TestDE:  II=419 I=2 DE=    0.146130195163D+00
 TestDE:  II=419 I=3 DE=    0.572956176808D-02
 Contribution from DD2=    0.65150929D-01
 Contribution from DD3=    0.00000000D+00
 Singles added:  Sum=    0.15441277D+00
 Entering DoROCS
 TestDE:  II= 99 I=2 DE=    0.146130195163D+00
 TestDE:  II= 99 I=1 DE=    0.572956176808D-02
 TestDE:  II= 99 I=3 DE=    0.572956176808D-02
 TestDE:  II= 99 I=1 DE=    0.610079005718D-02
 TestDE:  II= 11 I=2 DE=    0.146130195163D+00
 TestDE:  II= 99 I=2 DE=    0.149919804945D+00
 TestDE:  II= 98 I=2 DE=    0.153709414727D+00
 TestDE:  II= 98 I=3 DE=    0.610079005718D-02
 TestDE:  II= 89 I=1 DE=    0.702276678562D-02
 TestDE:  II= 89 I=2 DE=    0.161975594603D+00
 TestDE:  II= 88 I=3 DE=    0.702276678562D-02
 TestDE:  II= 88 I=2 DE=    0.170241774478D+00
 TestDE:  II=  5 I=1 DE=   -0.692904420626D-02
 TestDE:  II=  7 I=2 DE=    0.791559051013D-01
 TestDE:  II=  8 I=2 DE=   -0.133432514256D+00
 TestDE:  II=  9 I=3 DE=   -0.692904420626D-02
 TestDE:  II= 50 I=1 DE=    0.937225793665D-04
 TestDE:  II= 70 I=2 DE=   -0.542766091548D-01
 TestDE:  II= 90 I=3 DE=    0.937225793665D-04
 UMP4Q scratch file information:
   i      file        len
 ---     ------    ------
   1      19997     27112
   2      19998     27112
   3      19996     27112
   4      19995     27112
   5      19994     27112
   6      19993     12544
 total scratch length=      148104
 TestDE:  II= 71 I=2 DE=   -0.123815766948D-04
 TestDE:  II= 70 I=2 DE=   -0.292735021990D-05
 TestDE:  II= 72 I=2 DE=   -0.123815766948D-04
 TestDE:  II= 75 I=2 DE=   -0.542459913010D-01
 TestDE:  II= 75 I=1 DE=    0.934108766778D-04
 TestDE:  II= 75 I=3 DE=    0.934108766778D-04
 GetDE: DE=      0.00000000D+00
 TestDE:  II= 65 I=1 DE=    0.962316732819D-02
 TestDE:  II= 65 I=2 DE=    0.175548964352D+00
 TestDE:  II= 65 I=3 DE=    0.962316732819D-02
 Singles A-vector converged to   9.7151524D-06
 Singles A-vector converged to   1.9430305D-05
 The Euclidean norm of the A-vectors is   3.1594081D-05
 The Euclidean norm of the A-vectors is   4.3757857D-05
 The Euclidean norm of the A-vectors is   1.9840301D-04
 A(0)= 0.10000E+01      ANORM= 0.10950E+01      W(0)=-0.19606325E+00
 DE(Corr)= -0.19598350     E(CORR)=     -4150.9213023     Delta=-1.10D-06
 NORM(A)=   0.10949539D+01
 Iteration Nr.  13
 **********************
 DD1Dir will call FoFMem   1 times, MxPair=        44
 NAB=    16 NAA=     6 NBB=     6.
 DD1Dir:  Pass   1 NRAB=    16 NRAA=     6 NRBB=     6 NR=    44.
 TestDE:  II= 99 I=2 DE=    0.858295512641D-01
 TestDE:  II= 99 I=1 DE=    0.325362847673D-02
 TestDE:  II= 99 I=3 DE=    0.325362847673D-02
 TestDE:  II= 19 I=1 DE=    0.330640299266D-02
 TestDE:  II= 19 I=2 DE=    0.858256586856D-01
 TestDE:  II= 19 I=3 DE=    0.330640299266D-02
 Contribution from DD1=    0.92438465D-01
 ExpSMa:  Full in-core algorithm.
 ExpSMa:  Full in-core algorithm.
 ExpSMa:  Full in-core algorithm.
 ExpSMa:  Full in-core algorithm.
 ExpSMa:  Full in-core algorithm.
 ExpSMa:  Full in-core algorithm.
 ExpSMa:  Full in-core algorithm.
 ExpSMa:  Full in-core algorithm.
 TestDE:  II=419 I=1 DE=    0.572974071139D-02
 TestDE:  II=419 I=2 DE=    0.146130080656D+00
 TestDE:  II=419 I=3 DE=    0.572974071139D-02
 Contribution from DD2=    0.65151097D-01
 Contribution from DD3=    0.00000000D+00
 Singles added:  Sum=    0.15441312D+00
 Entering DoROCS
 TestDE:  II= 99 I=2 DE=    0.146130080656D+00
 TestDE:  II= 99 I=1 DE=    0.572974071139D-02
 TestDE:  II= 99 I=3 DE=    0.572974071139D-02
 TestDE:  II= 99 I=1 DE=    0.610097769030D-02
 TestDE:  II= 11 I=2 DE=    0.146130080656D+00
 TestDE:  II= 99 I=2 DE=    0.149919754418D+00
 TestDE:  II= 98 I=2 DE=    0.153709428181D+00
 TestDE:  II= 98 I=3 DE=    0.610097769030D-02
 TestDE:  II= 89 I=1 DE=    0.702297841724D-02
 TestDE:  II= 89 I=2 DE=    0.161975570828D+00
 TestDE:  II= 88 I=3 DE=    0.702297841724D-02
 TestDE:  II= 88 I=2 DE=    0.170241713475D+00
 TestDE:  II=  5 I=1 DE=   -0.692931878027D-02
 TestDE:  II=  7 I=2 DE=    0.791562927509D-01
 TestDE:  II=  8 I=2 DE=   -0.133433004354D+00
 TestDE:  II=  9 I=3 DE=   -0.692931878027D-02
 TestDE:  II= 50 I=1 DE=    0.936596369759D-04
 TestDE:  II= 70 I=2 DE=   -0.542767116033D-01
 TestDE:  II= 90 I=3 DE=    0.936596369759D-04
 UMP4Q scratch file information:
   i      file        len
 ---     ------    ------
   1      19997     27112
   2      19998     27112
   3      19996     27112
   4      19995     27112
   5      19994     27112
   6      19993     12544
 total scratch length=      148104
 TestDE:  II= 71 I=2 DE=   -0.123827567522D-04
 TestDE:  II= 70 I=2 DE=   -0.292587074176D-05
 TestDE:  II= 72 I=2 DE=   -0.123827567522D-04
 TestDE:  II= 75 I=2 DE=   -0.542460943483D-01
 TestDE:  II= 75 I=1 DE=    0.933499394672D-04
 TestDE:  II= 75 I=3 DE=    0.933499394672D-04
 GetDE: DE=      0.00000000D+00
 TestDE:  II= 65 I=1 DE=    0.962325428026D-02
 TestDE:  II= 65 I=2 DE=    0.175549304669D+00
 TestDE:  II= 65 I=3 DE=    0.962325428026D-02
 Singles A-vector converged to   3.7177872D-06
 Singles A-vector converged to   7.4355744D-06
 The Euclidean norm of the A-vectors is   1.5279749D-05
 The Euclidean norm of the A-vectors is   2.3123924D-05
 The Euclidean norm of the A-vectors is   1.2707426D-04
 A(0)= 0.10000E+01      ANORM= 0.10950E+01      W(0)=-0.19606237E+00
 DE(Corr)= -0.19598296     E(CORR)=     -4150.9213018     Delta= 5.38D-07
 NORM(A)=   0.10949535D+01
 Iteration Nr.  14
 **********************
 DD1Dir will call FoFMem   1 times, MxPair=        44
 NAB=    16 NAA=     6 NBB=     6.
 DD1Dir:  Pass   1 NRAB=    16 NRAA=     6 NRBB=     6 NR=    44.
 TestDE:  II= 99 I=2 DE=    0.858292401712D-01
 TestDE:  II= 99 I=1 DE=    0.325363480396D-02
 TestDE:  II= 99 I=3 DE=    0.325363480396D-02
 TestDE:  II= 19 I=1 DE=    0.330640714567D-02
 TestDE:  II= 19 I=2 DE=    0.858253924161D-01
 TestDE:  II= 19 I=3 DE=    0.330640714567D-02
 Contribution from DD1=    0.92438207D-01
 ExpSMa:  Full in-core algorithm.
 ExpSMa:  Full in-core algorithm.
 ExpSMa:  Full in-core algorithm.
 ExpSMa:  Full in-core algorithm.
 ExpSMa:  Full in-core algorithm.
 ExpSMa:  Full in-core algorithm.
 ExpSMa:  Full in-core algorithm.
 ExpSMa:  Full in-core algorithm.
 TestDE:  II=419 I=1 DE=    0.572974177422D-02
 TestDE:  II=419 I=2 DE=    0.146129921149D+00
 TestDE:  II=419 I=3 DE=    0.572974177422D-02
 Contribution from DD2=    0.65151198D-01
 Contribution from DD3=    0.00000000D+00
 Singles added:  Sum=    0.15441305D+00
 Entering DoROCS
 TestDE:  II= 99 I=2 DE=    0.146129921149D+00
 TestDE:  II= 99 I=1 DE=    0.572974177422D-02
 TestDE:  II= 99 I=3 DE=    0.572974177422D-02
 TestDE:  II= 99 I=1 DE=    0.610097053171D-02
 TestDE:  II= 11 I=2 DE=    0.146129921149D+00
 TestDE:  II= 99 I=2 DE=    0.149919563251D+00
 TestDE:  II= 98 I=2 DE=    0.153709205353D+00
 TestDE:  II= 98 I=3 DE=    0.610097053171D-02
 TestDE:  II= 89 I=1 DE=    0.702296439592D-02
 TestDE:  II= 89 I=2 DE=    0.161975210683D+00
 TestDE:  II= 88 I=3 DE=    0.702296439592D-02
 TestDE:  II= 88 I=2 DE=    0.170241216013D+00
 TestDE:  II=  5 I=1 DE=   -0.692941432994D-02
 TestDE:  II=  7 I=2 DE=    0.791556657963D-01
 TestDE:  II=  8 I=2 DE=   -0.133433369908D+00
 TestDE:  II=  9 I=3 DE=   -0.692941432994D-02
 TestDE:  II= 50 I=1 DE=    0.935500659849D-04
 TestDE:  II= 70 I=2 DE=   -0.542777041114D-01
 TestDE:  II= 90 I=3 DE=    0.935500659849D-04
 UMP4Q scratch file information:
   i      file        len
 ---     ------    ------
   1      19997     27112
   2      19998     27112
   3      19996     27112
   4      19995     27112
   5      19994     27112
   6      19993     12544
 total scratch length=      148104
 TestDE:  II= 71 I=2 DE=   -0.123814023935D-04
 TestDE:  II= 70 I=2 DE=   -0.292555769808D-05
 TestDE:  II= 72 I=2 DE=   -0.123814023935D-04
 TestDE:  II= 75 I=2 DE=   -0.542470901912D-01
 TestDE:  II= 75 I=1 DE=    0.932399031606D-04
 TestDE:  II= 75 I=3 DE=    0.932399031606D-04
 GetDE: DE=      0.00000000D+00
 TestDE:  II= 65 I=1 DE=    0.962329744583D-02
 TestDE:  II= 65 I=2 DE=    0.175549458056D+00
 TestDE:  II= 65 I=3 DE=    0.962329744583D-02
 Singles A-vector converged to   3.1598211D-06
 Singles A-vector converged to   6.3196421D-06
 The Euclidean norm of the A-vectors is   1.3544757D-05
 The Euclidean norm of the A-vectors is   2.0769871D-05
 The Euclidean norm of the A-vectors is   8.6554420D-05
 A(0)= 0.10000E+01      ANORM= 0.10950E+01      W(0)=-0.19606249E+00
 DE(Corr)= -0.19598302     E(CORR)=     -4150.9213018     Delta=-6.01D-08
 NORM(A)=   0.10949528D+01
 Iteration Nr.  15
 **********************
 DD1Dir will call FoFMem   1 times, MxPair=        44
 NAB=    16 NAA=     6 NBB=     6.
 DD1Dir:  Pass   1 NRAB=    16 NRAA=     6 NRBB=     6 NR=    44.
 TestDE:  II= 99 I=2 DE=    0.858294599635D-01
 TestDE:  II= 99 I=1 DE=    0.325370671365D-02
 TestDE:  II= 99 I=3 DE=    0.325370671365D-02
 TestDE:  II= 19 I=1 DE=    0.330648554222D-02
 TestDE:  II= 19 I=2 DE=    0.858256845202D-01
 TestDE:  II= 19 I=3 DE=    0.330648554222D-02
 Contribution from DD1=    0.92438656D-01
 ExpSMa:  Full in-core algorithm.
 ExpSMa:  Full in-core algorithm.
 ExpSMa:  Full in-core algorithm.
 ExpSMa:  Full in-core algorithm.
 ExpSMa:  Full in-core algorithm.
 ExpSMa:  Full in-core algorithm.
 ExpSMa:  Full in-core algorithm.
 ExpSMa:  Full in-core algorithm.
 TestDE:  II=419 I=1 DE=    0.572988016725D-02
 TestDE:  II=419 I=2 DE=    0.146130484823D+00
 TestDE:  II=419 I=3 DE=    0.572988016725D-02
 Contribution from DD2=    0.65151590D-01
 Contribution from DD3=    0.00000000D+00
 Singles added:  Sum=    0.15441420D+00
 Entering DoROCS
 TestDE:  II= 99 I=2 DE=    0.146130484823D+00
 TestDE:  II= 99 I=1 DE=    0.572988016725D-02
 TestDE:  II= 99 I=3 DE=    0.572988016725D-02
 TestDE:  II= 99 I=1 DE=    0.610112027802D-02
 TestDE:  II= 11 I=2 DE=    0.146130484823D+00
 TestDE:  II= 99 I=2 DE=    0.149920101163D+00
 TestDE:  II= 98 I=2 DE=    0.153709717503D+00
 TestDE:  II= 98 I=3 DE=    0.610112027802D-02
 TestDE:  II= 89 I=1 DE=    0.702313636269D-02
 TestDE:  II= 89 I=2 DE=    0.161975594510D+00
 TestDE:  II= 88 I=3 DE=    0.702313636269D-02
 TestDE:  II= 88 I=2 DE=    0.170241471518D+00
 TestDE:  II=  5 I=1 DE=   -0.692963978334D-02
 TestDE:  II=  7 I=2 DE=    0.791558881512D-01
 TestDE:  II=  8 I=2 DE=   -0.133433649954D+00
 TestDE:  II=  9 I=3 DE=   -0.692963978334D-02
 TestDE:  II= 50 I=1 DE=    0.934965793500D-04
 TestDE:  II= 70 I=2 DE=   -0.542777618031D-01
 TestDE:  II= 90 I=3 DE=    0.934965793500D-04
 UMP4Q scratch file information:
   i      file        len
 ---     ------    ------
   1      19997     27112
   2      19998     27112
   3      19996     27112
   4      19995     27112
   5      19994     27112
   6      19993     12544
 total scratch length=      148104
 TestDE:  II= 71 I=2 DE=   -0.123820200211D-04
 TestDE:  II= 70 I=2 DE=   -0.292514660603D-05
 TestDE:  II= 72 I=2 DE=   -0.123820200211D-04
 TestDE:  II= 75 I=2 DE=   -0.542471474699D-01
 TestDE:  II= 75 I=1 DE=    0.931875757908D-04
 TestDE:  II= 75 I=3 DE=    0.931875757908D-04
 GetDE: DE=      0.00000000D+00
 TestDE:  II= 65 I=1 DE=    0.962348363264D-02
 TestDE:  II= 65 I=2 DE=    0.175547875884D+00
 TestDE:  II= 65 I=3 DE=    0.962348363264D-02
 Singles A-vector converged to   1.7629581D-06
 Singles A-vector converged to   3.5259162D-06
 The Euclidean norm of the A-vectors is   6.6974729D-06
 The Euclidean norm of the A-vectors is   9.8690296D-06
 The Euclidean norm of the A-vectors is   4.0441228D-05
 A(0)= 0.10000E+01      ANORM= 0.10950E+01      W(0)=-0.19606267E+00
 DE(Corr)= -0.19598297     E(CORR)=     -4150.9213018     Delta= 5.33D-08
 NORM(A)=   0.10949525D+01
 Iteration Nr.  16
 **********************
 DD1Dir will call FoFMem   1 times, MxPair=        44
 NAB=    16 NAA=     6 NBB=     6.
 DD1Dir:  Pass   1 NRAB=    16 NRAA=     6 NRBB=     6 NR=    44.
 TestDE:  II= 99 I=2 DE=    0.858295076628D-01
 TestDE:  II= 99 I=1 DE=    0.325372574344D-02
 TestDE:  II= 99 I=3 DE=    0.325372574344D-02
 TestDE:  II= 19 I=1 DE=    0.330650400820D-02
 TestDE:  II= 19 I=2 DE=    0.858257276401D-01
 TestDE:  II= 19 I=3 DE=    0.330650400820D-02
 Contribution from DD1=    0.92438736D-01
 ExpSMa:  Full in-core algorithm.
 ExpSMa:  Full in-core algorithm.
 ExpSMa:  Full in-core algorithm.
 ExpSMa:  Full in-core algorithm.
 ExpSMa:  Full in-core algorithm.
 ExpSMa:  Full in-core algorithm.
 ExpSMa:  Full in-core algorithm.
 ExpSMa:  Full in-core algorithm.
 TestDE:  II=419 I=1 DE=    0.572991534350D-02
 TestDE:  II=419 I=2 DE=    0.146130590688D+00
 TestDE:  II=419 I=3 DE=    0.572991534350D-02
 Contribution from DD2=    0.65151686D-01
 Contribution from DD3=    0.00000000D+00
 Singles added:  Sum=    0.15441440D+00
 Entering DoROCS
 TestDE:  II= 99 I=2 DE=    0.146130590688D+00
 TestDE:  II= 99 I=1 DE=    0.572991534350D-02
 TestDE:  II= 99 I=3 DE=    0.572991534350D-02
 TestDE:  II= 99 I=1 DE=    0.610115928346D-02
 TestDE:  II= 11 I=2 DE=    0.146130590688D+00
 TestDE:  II= 99 I=2 DE=    0.149920197519D+00
 TestDE:  II= 98 I=2 DE=    0.153709804350D+00
 TestDE:  II= 98 I=3 DE=    0.610115928346D-02
 TestDE:  II= 89 I=1 DE=    0.702318265228D-02
 TestDE:  II= 89 I=2 DE=    0.161975637609D+00
 TestDE:  II= 88 I=3 DE=    0.702318265228D-02
 TestDE:  II= 88 I=2 DE=    0.170241470869D+00
 TestDE:  II=  5 I=1 DE=   -0.692969507850D-02
 TestDE:  II=  7 I=2 DE=    0.791559421325D-01
 TestDE:  II=  8 I=2 DE=   -0.133433707056D+00
 TestDE:  II=  9 I=3 DE=   -0.692969507850D-02
 TestDE:  II= 50 I=1 DE=    0.934875737851D-04
 TestDE:  II= 70 I=2 DE=   -0.542777649231D-01
 TestDE:  II= 90 I=3 DE=    0.934875737851D-04
 UMP4Q scratch file information:
   i      file        len
 ---     ------    ------
   1      19997     27112
   2      19998     27112
   3      19996     27112
   4      19995     27112
   5      19994     27112
   6      19993     12544
 total scratch length=      148104
 TestDE:  II= 71 I=2 DE=   -0.123822814422D-04
 TestDE:  II= 70 I=2 DE=   -0.292525567048D-05
 TestDE:  II= 72 I=2 DE=   -0.123822814422D-04
 TestDE:  II= 75 I=2 DE=   -0.542471498489D-01
 TestDE:  II= 75 I=1 DE=    0.931786429004D-04
 TestDE:  II= 75 I=3 DE=    0.931786429004D-04
 GetDE: DE=      0.00000000D+00
 TestDE:  II= 65 I=1 DE=    0.962353594786D-02
 TestDE:  II= 65 I=2 DE=    0.175547176870D+00
 TestDE:  II= 65 I=3 DE=    0.962353594786D-02
 Singles A-vector converged to   1.1420893D-06
 Singles A-vector converged to   2.2841786D-06
 The Euclidean norm of the A-vectors is   4.0300408D-06
 The Euclidean norm of the A-vectors is   5.7759030D-06
 The Euclidean norm of the A-vectors is   1.9547978D-05
 A(0)= 0.10000E+01      ANORM= 0.10950E+01      W(0)=-0.19606268E+00
 DE(Corr)= -0.19598302     E(CORR)=     -4150.9213018     Delta=-5.33D-08
 NORM(A)=   0.10949522D+01
 Iteration Nr.  17
 **********************
 DD1Dir will call FoFMem   1 times, MxPair=        44
 NAB=    16 NAA=     6 NBB=     6.
 DD1Dir:  Pass   1 NRAB=    16 NRAA=     6 NRBB=     6 NR=    44.
 TestDE:  II= 99 I=2 DE=    0.858293674320D-01
 TestDE:  II= 99 I=1 DE=    0.325372179958D-02
 TestDE:  II= 99 I=3 DE=    0.325372179958D-02
 TestDE:  II= 19 I=1 DE=    0.330649908585D-02
 TestDE:  II= 19 I=2 DE=    0.858255772174D-01
 TestDE:  II= 19 I=3 DE=    0.330649908585D-02
 Contribution from DD1=    0.92438575D-01
 ExpSMa:  Full in-core algorithm.
 ExpSMa:  Full in-core algorithm.
 ExpSMa:  Full in-core algorithm.
 ExpSMa:  Full in-core algorithm.
 ExpSMa:  Full in-core algorithm.
 ExpSMa:  Full in-core algorithm.
 ExpSMa:  Full in-core algorithm.
 ExpSMa:  Full in-core algorithm.
 TestDE:  II=419 I=1 DE=    0.572990997140D-02
 TestDE:  II=419 I=2 DE=    0.146130316954D+00
 TestDE:  II=419 I=3 DE=    0.572990997140D-02
 Contribution from DD2=    0.65151562D-01
 Contribution from DD3=    0.00000000D+00
 Singles added:  Sum=    0.15441408D+00
 Entering DoROCS
 TestDE:  II= 99 I=2 DE=    0.146130316954D+00
 TestDE:  II= 99 I=1 DE=    0.572990997140D-02
 TestDE:  II= 99 I=3 DE=    0.572990997140D-02
 TestDE:  II= 99 I=1 DE=    0.610115440843D-02
 TestDE:  II= 11 I=2 DE=    0.146130316954D+00
 TestDE:  II= 99 I=2 DE=    0.149919909014D+00
 TestDE:  II= 98 I=2 DE=    0.153709501074D+00
 TestDE:  II= 98 I=3 DE=    0.610115440843D-02
 TestDE:  II= 89 I=1 DE=    0.702317731142D-02
 TestDE:  II= 89 I=2 DE=    0.161975285902D+00
 TestDE:  II= 88 I=3 DE=    0.702317731142D-02
 TestDE:  II= 88 I=2 DE=    0.170241070731D+00
 TestDE:  II=  5 I=1 DE=   -0.692968892517D-02
 TestDE:  II=  7 I=2 DE=    0.791558516863D-01
 TestDE:  II=  8 I=2 DE=   -0.133433378250D+00
 TestDE:  II=  9 I=3 DE=   -0.692968892517D-02
 TestDE:  II= 50 I=1 DE=    0.934883862445D-04
 TestDE:  II= 70 I=2 DE=   -0.542775265637D-01
 TestDE:  II= 90 I=3 DE=    0.934883862445D-04
 UMP4Q scratch file information:
   i      file        len
 ---     ------    ------
   1      19997     27112
   2      19998     27112
   3      19996     27112
   4      19995     27112
   5      19994     27112
   6      19993     12544
 total scratch length=      148104
 TestDE:  II= 71 I=2 DE=   -0.123823759866D-04
 TestDE:  II= 70 I=2 DE=   -0.292537633587D-05
 TestDE:  II= 72 I=2 DE=   -0.123823759866D-04
 TestDE:  II= 75 I=2 DE=   -0.542469110590D-01
 TestDE:  II= 75 I=1 DE=    0.931793262542D-04
 TestDE:  II= 75 I=3 DE=    0.931793262542D-04
 GetDE: DE=      0.00000000D+00
 TestDE:  II= 65 I=1 DE=    0.962353924349D-02
 TestDE:  II= 65 I=2 DE=    0.175546419738D+00
 TestDE:  II= 65 I=3 DE=    0.962353924349D-02
 Singles A-vector converged to   5.6128162D-07
 Singles A-vector converged to   1.1225632D-06
 The Euclidean norm of the A-vectors is   2.1228194D-06
 The Euclidean norm of the A-vectors is   3.1230756D-06
 The Euclidean norm of the A-vectors is   1.0583967D-05
 A(0)= 0.10000E+01      ANORM= 0.10950E+01      W(0)=-0.19606272E+00
 DE(Corr)= -0.19598304     E(CORR)=     -4150.9213019     Delta=-1.60D-08
 NORM(A)=   0.10949518D+01
 Iteration Nr.  18
 **********************
 DD1Dir will call FoFMem   1 times, MxPair=        44
 NAB=    16 NAA=     6 NBB=     6.
 DD1Dir:  Pass   1 NRAB=    16 NRAA=     6 NRBB=     6 NR=    44.
 TestDE:  II= 99 I=2 DE=    0.858291185237D-01
 TestDE:  II= 99 I=1 DE=    0.325371640422D-02
 TestDE:  II= 99 I=3 DE=    0.325371640422D-02
 TestDE:  II= 19 I=1 DE=    0.330649295906D-02
 TestDE:  II= 19 I=2 DE=    0.858253165819D-01
 TestDE:  II= 19 I=3 DE=    0.330649295906D-02
 Contribution from DD1=    0.92438303D-01
 ExpSMa:  Full in-core algorithm.
 ExpSMa:  Full in-core algorithm.
 ExpSMa:  Full in-core algorithm.
 ExpSMa:  Full in-core algorithm.
 ExpSMa:  Full in-core algorithm.
 ExpSMa:  Full in-core algorithm.
 ExpSMa:  Full in-core algorithm.
 ExpSMa:  Full in-core algorithm.
 TestDE:  II=419 I=1 DE=    0.572990084717D-02
 TestDE:  II=419 I=2 DE=    0.146129822955D+00
 TestDE:  II=419 I=3 DE=    0.572990084717D-02
 Contribution from DD2=    0.65151322D-01
 Contribution from DD3=    0.00000000D+00
 Singles added:  Sum=    0.15441351D+00
 Entering DoROCS
 TestDE:  II= 99 I=2 DE=    0.146129822955D+00
 TestDE:  II= 99 I=1 DE=    0.572990084717D-02
 TestDE:  II= 99 I=3 DE=    0.572990084717D-02
 TestDE:  II= 99 I=1 DE=    0.610114540667D-02
 TestDE:  II= 11 I=2 DE=    0.146129822955D+00
 TestDE:  II= 99 I=2 DE=    0.149919395096D+00
 TestDE:  II= 98 I=2 DE=    0.153708967237D+00
[...]
 TestDE:  II= 70 I=2 DE=   -0.443246203291D-05
 TestDE:  II= 72 I=2 DE=   -0.130124208411D-04
 TestDE:  II= 75 I=2 DE=   -0.505379330233D-01
 TestDE:  II= 75 I=1 DE=    0.431954222197D-03
 TestDE:  II= 75 I=3 DE=    0.431954222197D-03
 GetDE: DE=      0.00000000D+00
 TestDE:  II= 65 I=1 DE=    0.103672639503D-01
 TestDE:  II= 65 I=2 DE=    0.182470473253D+00
 TestDE:  II= 65 I=3 DE=    0.103672639503D-01
 Singles A-vector converged to   1.1368438D-06
 Singles A-vector converged to   2.2736877D-06
 The Euclidean norm of the A-vectors is   4.7557692D-06
 The Euclidean norm of the A-vectors is   7.2378508D-06
 The Euclidean norm of the A-vectors is   3.0201407D-05
 A(0)= 0.10000E+01      ANORM= 0.10997E+01      W(0)=-0.19992943E+00
 DE(Corr)= -0.19983141     E(CORR)=     -4150.9344927     Delta= 6.58D-08
 NORM(A)=   0.10997194D+01
 Iteration Nr.  16
 **********************
 DD1Dir will call FoFMem   1 times, MxPair=        44
 NAB=    16 NAA=     6 NBB=     6.
 DD1Dir:  Pass   1 NRAB=    16 NRAA=     6 NRBB=     6 NR=    44.
 TestDE:  II= 99 I=2 DE=    0.860604166435D-01
 TestDE:  II= 99 I=1 DE=    0.335932396903D-02
 TestDE:  II= 99 I=3 DE=    0.335932396903D-02
 TestDE:  II= 19 I=1 DE=    0.340894128107D-02
 TestDE:  II= 19 I=2 DE=    0.860524488888D-01
 TestDE:  II= 19 I=3 DE=    0.340894128107D-02
 Contribution from DD1=    0.92870331D-01
 ExpSMa:  Full in-core algorithm.
 ExpSMa:  Full in-core algorithm.
 ExpSMa:  Full in-core algorithm.
 ExpSMa:  Full in-core algorithm.
 ExpSMa:  Full in-core algorithm.
 ExpSMa:  Full in-core algorithm.
 ExpSMa:  Full in-core algorithm.
 ExpSMa:  Full in-core algorithm.
 TestDE:  II=419 I=1 DE=    0.591615119652D-02
 TestDE:  II=419 I=2 DE=    0.145446918309D+00
 TestDE:  II=419 I=3 DE=    0.591615119652D-02
 Contribution from DD2=    0.64408889D-01
 Contribution from DD3=    0.00000000D+00
 Singles added:  Sum=    0.15293542D+00
 Entering DoROCS
 TestDE:  II= 99 I=2 DE=    0.145446918309D+00
 TestDE:  II= 99 I=1 DE=    0.591615119652D-02
 TestDE:  II= 99 I=3 DE=    0.591615119652D-02
 TestDE:  II= 99 I=1 DE=    0.636805906235D-02
 TestDE:  II= 11 I=2 DE=    0.145446918309D+00
 TestDE:  II= 99 I=2 DE=    0.149796805978D+00
 TestDE:  II= 98 I=2 DE=    0.154146693648D+00
 TestDE:  II= 98 I=3 DE=    0.636805906235D-02
 TestDE:  II= 89 I=1 DE=    0.738368297827D-02
 TestDE:  II= 89 I=2 DE=    0.162951051824D+00
 TestDE:  II= 88 I=3 DE=    0.738368297827D-02
 TestDE:  II= 88 I=2 DE=    0.171755410000D+00
 TestDE:  II=  5 I=1 DE=   -0.694918319103D-02
 TestDE:  II=  7 I=2 DE=    0.837553369636D-01
 TestDE:  II=  8 I=2 DE=   -0.134328132535D+00
 TestDE:  II=  9 I=3 DE=   -0.694918319103D-02
 TestDE:  II= 50 I=1 DE=    0.434499787239D-03
 TestDE:  II= 70 I=2 DE=   -0.505727955714D-01
 TestDE:  II= 90 I=3 DE=    0.434499787239D-03
 UMP4Q scratch file information:
   i      file        len
 ---     ------    ------
   1      19997     27112
   2      19998     27112
   3      19996     27112
   4      19995     27112
   5      19994     27112
   6      19993     12544
 total scratch length=      148104
 TestDE:  II= 71 I=2 DE=   -0.130126773837D-04
 TestDE:  II= 70 I=2 DE=   -0.443241309780D-05
 TestDE:  II= 72 I=2 DE=   -0.130126773837D-04
 TestDE:  II= 75 I=2 DE=   -0.505379053904D-01
 TestDE:  II= 75 I=1 DE=    0.431960368369D-03
 TestDE:  II= 75 I=3 DE=    0.431960368369D-03
 GetDE: DE=      0.00000000D+00
 TestDE:  II= 65 I=1 DE=    0.103672843420D-01
 TestDE:  II= 65 I=2 DE=    0.182470514002D+00
 TestDE:  II= 65 I=3 DE=    0.103672843420D-01
 Singles A-vector converged to   5.9661025D-07
 Singles A-vector converged to   1.1932205D-06
 The Euclidean norm of the A-vectors is   2.5101636D-06
 The Euclidean norm of the A-vectors is   3.8271066D-06
 The Euclidean norm of the A-vectors is   1.3742560D-05
 A(0)= 0.10000E+01      ANORM= 0.10997E+01      W(0)=-0.19992939E+00
 DE(Corr)= -0.19983139     E(CORR)=     -4150.9344926     Delta= 1.90D-08
 NORM(A)=   0.10997192D+01
 Iteration Nr.  17
 **********************
 DD1Dir will call FoFMem   1 times, MxPair=        44
 NAB=    16 NAA=     6 NBB=     6.
 DD1Dir:  Pass   1 NRAB=    16 NRAA=     6 NRBB=     6 NR=    44.
 TestDE:  II= 99 I=2 DE=    0.860603479326D-01
 TestDE:  II= 99 I=1 DE=    0.335933088677D-02
 TestDE:  II= 99 I=3 DE=    0.335933088677D-02
 TestDE:  II= 19 I=1 DE=    0.340894818006D-02
 TestDE:  II= 19 I=2 DE=    0.860523828976D-01
 TestDE:  II= 19 I=3 DE=    0.340894818006D-02
 Contribution from DD1=    0.92870279D-01
 ExpSMa:  Full in-core algorithm.
 ExpSMa:  Full in-core algorithm.
 ExpSMa:  Full in-core algorithm.
 ExpSMa:  Full in-core algorithm.
 ExpSMa:  Full in-core algorithm.
 ExpSMa:  Full in-core algorithm.
 ExpSMa:  Full in-core algorithm.
 ExpSMa:  Full in-core algorithm.
 TestDE:  II=419 I=1 DE=    0.591616510825D-02
 TestDE:  II=419 I=2 DE=    0.145446772061D+00
 TestDE:  II=419 I=3 DE=    0.591616510825D-02
 Contribution from DD2=    0.64408823D-01
 Contribution from DD3=    0.00000000D+00
 Singles added:  Sum=    0.15293533D+00
 Entering DoROCS
 TestDE:  II= 99 I=2 DE=    0.145446772061D+00
 TestDE:  II= 99 I=1 DE=    0.591616510825D-02
 TestDE:  II= 99 I=3 DE=    0.591616510825D-02
 TestDE:  II= 99 I=1 DE=    0.636807487114D-02
 TestDE:  II= 11 I=2 DE=    0.145446772061D+00
 TestDE:  II= 99 I=2 DE=    0.149796642088D+00
 TestDE:  II= 98 I=2 DE=    0.154146512114D+00
 TestDE:  II= 98 I=3 DE=    0.636807487114D-02
 TestDE:  II= 89 I=1 DE=    0.738370134482D-02
 TestDE:  II= 89 I=2 DE=    0.162950842339D+00
 TestDE:  II= 88 I=3 DE=    0.738370134482D-02
 TestDE:  II= 88 I=2 DE=    0.171755172563D+00
 TestDE:  II=  5 I=1 DE=   -0.694920506597D-02
 TestDE:  II=  7 I=2 DE=    0.837552431573D-01
 TestDE:  II=  8 I=2 DE=   -0.134327904082D+00
 TestDE:  II=  9 I=3 DE=   -0.694920506597D-02
 TestDE:  II= 50 I=1 DE=    0.434496278847D-03
 TestDE:  II= 70 I=2 DE=   -0.505726609246D-01
 TestDE:  II= 90 I=3 DE=    0.434496278847D-03
 UMP4Q scratch file information:
   i      file        len
 ---     ------    ------
   1      19997     27112
   2      19998     27112
   3      19996     27112
   4      19995     27112
   5      19994     27112
   6      19993     12544
 total scratch length=      148104
 TestDE:  II= 71 I=2 DE=   -0.130127376373D-04
 TestDE:  II= 70 I=2 DE=   -0.443246485732D-05
 TestDE:  II= 72 I=2 DE=   -0.130127376373D-04
 TestDE:  II= 75 I=2 DE=   -0.505377705196D-01
 TestDE:  II= 75 I=1 DE=    0.431956904409D-03
 TestDE:  II= 75 I=3 DE=    0.431956904409D-03
 GetDE: DE=      0.00000000D+00
 TestDE:  II= 65 I=1 DE=    0.103673104457D-01
 TestDE:  II= 65 I=2 DE=    0.182470128743D+00
 TestDE:  II= 65 I=3 DE=    0.103673104457D-01
 Singles A-vector converged to   3.0025149D-07
 Singles A-vector converged to   6.0050298D-07
 The Euclidean norm of the A-vectors is   1.3863102D-06
 The Euclidean norm of the A-vectors is   2.1721175D-06
 The Euclidean norm of the A-vectors is   7.0551167D-06
 A(0)= 0.10000E+01      ANORM= 0.10997E+01      W(0)=-0.19992940E+00
 DE(Corr)= -0.19983138     E(CORR)=     -4150.9344926     Delta= 8.34D-09
 NORM(A)=   0.10997190D+01
 Dominant configurations:
 ***********************
 Spin Case        I    J    A    B          Value
   ABAB          32   32   34   34      -0.141619D+00
 Largest amplitude= 1.42D-01
    T4(aaa)= -0.13737970D-03
    T5(aaa)=  0.26645247D-05
    T4(aab)= -0.63234983D-02
    T5(aab)=  0.11575997D-03
    T4(abb)= -0.63234983D-02
    T5(abb)=  0.11575997D-03
    T4(bbb)= -0.13737970D-03
    T5(bbb)=  0.26645247D-05
 Time for triples=      113.11 seconds.
 T4(CCSD)= -0.12921756D-01
 T5(CCSD)=  0.23684899D-03
 CCSD(T)= -0.41509471775D+04

 NEF-NEF-NEF-NEF-NEF-NEF-NEF-NEF-NEF-NEF-NEF-NEF-NEF-NEF-NEF-NEF-NEF-NEF-
 NUMERICAL EIGENVECTOR FOLLOWING MINIMUM SEARCH
 GRADIENT ESTIMATION COMPLETE
 Hessian updated using Powell update
 ITERATION   4
 HESSIAN EIGENVECTORS AND EIGENVALUES
                           1
     Eigenvalues --     0.09633
   1         R          1.00000
 MINIMUM SEARCH. TAKING SIMPLE RFO STEP
 SEARCHING FOR LAMDA THAT MINIMIZES ALONG ALL MODES
 VALUE TAKEN    LAMDA=   0.00000000
 STEP TAKEN. STEPSIZE IS  0.000001
 CURRENT PARAMETER VALUES (INTERNAL COORDINATES)
    I        X         GRADIENT    DISPLACEMENT       NEWX
    1    4.620274      0.000000     -0.000001      4.620273
         ITEM               VALUE     THRESHOLD  CONVERGED?
 MAXIMUM FORCE            0.000000     0.000015     YES
 RMS     FORCE            0.000000     0.000010     YES
 MAXIMUM DISPLACEMENT     0.000001     0.000060     YES
 RMS     DISPLACEMENT     0.000001     0.000040     YES


 *************************************************
 **  CONVERGENCE CRITERIA APPARENTLY SATISFIED  **
 *************************************************


                       ----------------------------
                       !   Optimized Parameters   !
                       ! (Angstroms and Degrees)  !
 ----------------------                            ----------------------
 !      Name          Value   Derivative information (Atomic Units)     !
 ------------------------------------------------------------------------
 !        R          2.4449   -DE/DX =    0.0                           !
 ------------------------------------------------------------------------
 PREDICTED CHANGE IN ENERGY   0.000000

 NEF-NEF-NEF-NEF-NEF-NEF-NEF-NEF-NEF-NEF-NEF-NEF-NEF-NEF-NEF-NEF-NEF-NEF-
 ---------------------------------------------------------------------------------------------------
                            Z-MATRIX (ANGSTROMS AND DEGREES)
   CD    Cent   Atom    N1       Length/X        N2       Alpha/Y        N3        Beta/Z          J
 ---------------------------------------------------------------------------------------------------
      1      1  Ge
      2      2  Ge       1   2.444944(     1)
 ---------------------------------------------------------------------------------------------------
                         Z-Matrix orientation:                         
 ---------------------------------------------------------------------
 Center     Atomic      Atomic             Coordinates (Angstroms)
 Number     Number       Type             X           Y           Z
 ---------------------------------------------------------------------
      1         32           0        0.000000    0.000000    0.000000
      2         32           0        0.000000    0.000000    2.444944
 ---------------------------------------------------------------------
 Stoichiometry    Ge2
 Framework group  D*H[C*(Ge.Ge)]
 Deg. of freedom     1
 Full point group                 D*H     NOp   8
 Largest Abelian subgroup         D2H     NOp   8
 Largest concise Abelian subgroup C2      NOp   2
                         Standard orientation:                         
 ---------------------------------------------------------------------
 Center     Atomic      Atomic             Coordinates (Angstroms)
 Number     Number       Type             X           Y           Z
 ---------------------------------------------------------------------
      1         32           0        0.000000    0.000000    1.222472
      2         32           0        0.000000    0.000000   -1.222472
 ---------------------------------------------------------------------
 Rotational constants (GHZ):      0.0000000      2.2873918      2.2873918

 **********************************************************************

            Population analysis using the SCF density.

 **********************************************************************

 Orbital symmetries:
       Occupied  (SGG) (SGU) (SGG) (SGU) (PIG) (PIU) (PIG) (PIU)
                 (SGU) (SGG) (SGG) (SGU) (PIU) (PIG) (PIU) (PIG)
                 (SGG) (SGU) (?A) (?B) (?A) (?B) (PIU) (PIG) (?A)
                 (PIU) (PIG) (?B) (SGG) (SGU) (SGG) (?C)
       Virtual   (?C) (?D) (?D) (SGU) (SGG) (?C) (?C) (SGG) (?D)
                 (?D) (SGU) (?E) (?F) (?F) (?C) (?C) (?F) (?E)
                 (?E) (?C) (?C) (PIG) (SGG) (PIG) (?E) (PIG) (PIG)
                 (SGU) (?G) (?H) (?H) (?G) (?G) (?H) (?H) (?G)
                 (?G) (?G) (?H) (?H) (?H) (?H) (?H) (?H) (?H) (PIU)
                 (PIU) (?H) (?H) (?H) (SGG) (PIG) (PIG) (SGU) (PIU)
                 (PIU) (PIG) (SGG) (PIG) (SGG) (?H) (?H) (?H) (?H)
                 (?H) (?H) (?H) (?H) (?H) (?H) (?H) (?H) (?H) (?H)
                 (?H) (?H) (?H) (?H) (?H) (?H) (?H) (?H) (?H) (?H)
                 (?H) (?H) (?H) (?H) (?H) (?H) (?H) (?H) (?H) (?H)
                 (?H) (PIU) (PIU) (?H) (?H) (SGU) (SGG) (PIG) (PIG)
                 (SGU) (PIU) (PIU) (PIG) (PIG) (SGG) (SGU) (SGG)
                 (SGU)
 Unable to determine electronic state:  an orbital has unidentified symmetry.
 Alpha  occ. eigenvalues -- -405.24832-405.24832 -52.15396 -52.15396 -46.24123
 Alpha  occ. eigenvalues --  -46.24123 -46.23983 -46.23983 -46.23895 -46.23895
 Alpha  occ. eigenvalues --   -7.19441  -7.19434  -5.17059  -5.17053  -5.16440
 Alpha  occ. eigenvalues --   -5.16433  -5.16176  -5.16135  -1.64668  -1.64517
 Alpha  occ. eigenvalues --   -1.64420  -1.64372  -1.64141  -1.63821  -1.63592
 Alpha  occ. eigenvalues --   -1.63401  -1.63057  -1.62872  -0.66718  -0.49525
 Alpha  occ. eigenvalues --   -0.28542  -0.25505
 Alpha virt. eigenvalues --   -0.04522   0.02059   0.03423   0.04311   0.06283
 Alpha virt. eigenvalues --    0.06815   0.06982   0.07783   0.10064   0.10283
 Alpha virt. eigenvalues --    0.13843   0.17933   0.23088   0.23152   0.27430
 Alpha virt. eigenvalues --    0.28243   0.31076   0.32726   0.32767   0.39660
 Alpha virt. eigenvalues --    0.41116   0.42365   0.42516   0.43288   0.44248
 Alpha virt. eigenvalues --    0.45924   0.48012   0.48580   0.51758   0.72981
 Alpha virt. eigenvalues --    0.74601   0.75435   0.75445   0.79451   0.79456
 Alpha virt. eigenvalues --    0.82784   0.83256   0.84068   0.86295   0.86315
 Alpha virt. eigenvalues --    0.88889   0.88892   0.93556   0.96635   0.98466
 Alpha virt. eigenvalues --    1.00361   1.02679   1.06443   1.06576   1.13923
 Alpha virt. eigenvalues --    1.18064   1.25878   1.28525   1.43837   1.47261
 Alpha virt. eigenvalues --    1.49745   1.60040   1.60565   1.62742   1.63763
 Alpha virt. eigenvalues --    2.00198   2.01094   2.02822   2.06807   2.07056
 Alpha virt. eigenvalues --    2.07221   2.14009   2.14015   2.17635   2.17720
 Alpha virt. eigenvalues --    2.20205   2.20286   2.20970   2.20970   2.21717
 Alpha virt. eigenvalues --    2.21748   2.23785   2.23788   2.23854   2.23854
 Alpha virt. eigenvalues --    2.23919   2.25862   2.27233   2.27296   2.27808
 Alpha virt. eigenvalues --    2.27825   2.30284   2.32339   2.32452   2.36758
 Alpha virt. eigenvalues --    2.36766   2.41548   2.45213   2.47233   2.48042
 Alpha virt. eigenvalues --    2.58212   2.60987   2.69099   2.69255   2.88068
 Alpha virt. eigenvalues --    3.08384   3.19660   3.22725   3.63257   5.27312
 Alpha virt. eigenvalues --    5.29315   5.36273   5.38293   5.59984   5.77137
 Alpha virt. eigenvalues --    6.59441   7.43931
          Condensed to atoms (all electrons):
              1          2
     1  Ge  31.460420   0.539580
     2  Ge   0.539580  31.460420
 Mulliken atomic charges:
              1
     1  Ge   0.000000
     2  Ge   0.000000
 Sum of Mulliken atomic charges =   0.00000
 Mulliken charges with hydrogens summed into heavy atoms:
              1
     1  Ge   0.000000
     2  Ge   0.000000
 Sum of Mulliken charges with hydrogens summed into heavy atoms =   0.00000
          Atomic-Atomic Spin Densities.
              1          2
     1  Ge   0.000000   0.000000
     2  Ge   0.000000   0.000000
 Mulliken atomic spin densities:
              1
     1  Ge   0.000000
     2  Ge   0.000000
 Sum of Mulliken atomic spin densities =   0.00000
 Electronic spatial extent (au):  <R**2>=            425.6557
 Charge=              0.0000 electrons
 Dipole moment (field-independent basis, Debye):
    X=              0.0000    Y=              0.0000    Z=              0.0000  Tot=              0.0000
 Quadrupole moment (field-independent basis, Debye-Ang):
   XX=            -30.2554   YY=            -41.2903   ZZ=            -41.5781
   XY=              0.0000   XZ=              0.0000   YZ=              0.0000
 Traceless Quadrupole moment (field-independent basis, Debye-Ang):
   XX=              7.4525   YY=             -3.5823   ZZ=             -3.8702
   XY=              0.0000   XZ=              0.0000   YZ=              0.0000
 Octapole moment (field-independent basis, Debye-Ang**2):
  XXX=              0.0000  YYY=              0.0000  ZZZ=              0.0000  XYY=              0.0000
  XXY=              0.0000  XXZ=              0.0000  XZZ=              0.0000  YZZ=              0.0000
  YYZ=              0.0000  XYZ=              0.0000
 Hexadecapole moment (field-independent basis, Debye-Ang**3):
 XXXX=            -40.8786 YYYY=            -93.2877 ZZZZ=           -452.3409 XXXY=              0.0000
 XXXZ=              0.0000 YYYX=              0.0000 YYYZ=              0.0000 ZZZX=              0.0000
 ZZZY=              0.0000 XXYY=            -22.4945 XXZZ=            -68.3853 YYZZ=            -85.5385
 XXYZ=              0.0000 YYXZ=              0.0000 ZZXY=              0.0000
 N-N= 2.216318726089D+02 E-N=-1.557592786856D+04  KE= 6.225966269434D+03
                          Isotropic Fermi Contact Couplings
        Atom                 a.u.       MegaHertz       Gauss      10(-4) cm-1
     1  Ge(73)             0.00000       0.00000       0.00000       0.00000
     2  Ge(73)             0.00000       0.00000       0.00000       0.00000
 --------------------------------------------------------
       Center         ----  Spin Dipole Couplings  ----
                      3XX-RR        3YY-RR        3ZZ-RR
 --------------------------------------------------------
     1   Atom        0.000000      0.000000      0.000000
     2   Atom        0.000000      0.000000      0.000000
 --------------------------------------------------------
                        XY            XZ            YZ
 --------------------------------------------------------
     1   Atom        0.000000      0.000000      0.000000
     2   Atom        0.000000      0.000000      0.000000
 --------------------------------------------------------


 ---------------------------------------------------------------------------------
              Anisotropic Spin Dipole Couplings in Principal Axis System
 ---------------------------------------------------------------------------------

       Atom             a.u.   MegaHertz   Gauss  10(-4) cm-1        Axes

              Baa     0.0000     0.000     0.000     0.000  1.0000  0.0000  0.0000
     1 Ge(73) Bbb     0.0000     0.000     0.000     0.000  0.0000  1.0000  0.0000
              Bcc     0.0000     0.000     0.000     0.000  0.0000  0.0000  1.0000
 
              Baa     0.0000     0.000     0.000     0.000  1.0000  0.0000  0.0000
     2 Ge(73) Bbb     0.0000     0.000     0.000     0.000  0.0000  1.0000  0.0000
              Bcc     0.0000     0.000     0.000     0.000  0.0000  0.0000  1.0000
 

 ---------------------------------------------------------------------------------


 Test job not archived.
 1\1\GINC-C32\FOpt\ROCCSD(T)-RW\Gen\Ge2\GPETERSSON\22-Aug-2012\1\\# ROC
 CSD(T,RW) Gen GFinput Int=NoBasisTransform Int(Grid=Ultrafine) IOp(3/3
 2=2,5/6=10,8/11=1,9/33=1) Maxdisk=128GB Opt=(Tight,Z-Matrix)\\Ge2\\0,1
 \Ge\Ge,1,R\\R=2.44494375\\Version=EM64L-G09RevA.02\HF=-4150.7346598\MP
 2=-4150.9081057\MP3=-4150.9315771\PUHF=-4150.7346598\PMP2-0=-4150.9081
 057\MP4SDQ=-4150.9333554\CCSD=-4150.9344922\CCSD(T)=-4150.9471775\RMSD
 =2.119e-11\RMSF=8.503e-08\PG=D*H [C*(Ge1.Ge1)]\\@


 THOSE WITH THE GOLD MAKE THE RULES.

             -- PETER'S GOLDEN RULE
 Job cpu time:  0 days  3 hours 42 minutes 52.0 seconds.
 File lengths (MBytes):  RWF=    124 Int=      0 D2E=      0 Chk=      3 Scr=      1
 Normal termination of Gaussian 09 at Wed Aug 22 22:22:22 2012.
