 Entering Gaussian System, Link 0=g09
 AtFile(1): 6ZaP-NR.gbs
 Initial command:
 /share/apps/gaussian/g09root/g09/l1.exe /localscratch/737988/Gau-23683.inp -scrdir=/localscratch/737988/
 Entering Link 1 = /share/apps/gaussian/g09root/g09/l1.exe PID=     23684.
  
 Copyright (c) 1988,1990,1992,1993,1995,1998,2003,2009, Gaussian, Inc.
                  All Rights Reserved.
  
 This is part of the Gaussian(R) 09 program.  It is based on
 the Gaussian(R) 03 system (copyright 2003, Gaussian, Inc.),
 the Gaussian(R) 98 system (copyright 1998, Gaussian, Inc.),
 the Gaussian(R) 94 system (copyright 1995, Gaussian, Inc.),
 the Gaussian 92(TM) system (copyright 1992, Gaussian, Inc.),
 the Gaussian 90(TM) system (copyright 1990, Gaussian, Inc.),
 the Gaussian 88(TM) system (copyright 1988, Gaussian, Inc.),
 the Gaussian 86(TM) system (copyright 1986, Carnegie Mellon
 University), and the Gaussian 82(TM) system (copyright 1983,
 Carnegie Mellon University). Gaussian is a federally registered
 trademark of Gaussian, Inc.
  
 This software contains proprietary and confidential information,
 including trade secrets, belonging to Gaussian, Inc.
  
 This software is provided under written license and may be
 used, copied, transmitted, or stored only in accord with that
 written license.
  
 The following legend is applicable only to US Government
 contracts under FAR:
  
                    RESTRICTED RIGHTS LEGEND
  
 Use, reproduction and disclosure by the US Government is
 subject to restrictions as set forth in subparagraphs (a)
 and (c) of the Commercial Computer Software - Restricted
 Rights clause in FAR 52.227-19.
  
 Gaussian, Inc.
 340 Quinnipiac St., Bldg. 40, Wallingford CT 06492
  
  
 ---------------------------------------------------------------
 Warning -- This program may not be used in any manner that
 competes with the business of Gaussian, Inc. or will provide
 assistance to any competitor of Gaussian, Inc.  The licensee
 of this program is prohibited from giving any competitor of
 Gaussian, Inc. access to this program.  By using this program,
 the user acknowledges that Gaussian, Inc. is engaged in the
 business of creating and licensing software in the field of
 computational chemistry and represents and warrants to the
 licensee that it is not a competitor of Gaussian, Inc. and that
 it will not use this program in any manner prohibited above.
 ---------------------------------------------------------------
  

 Cite this work as:
 Gaussian 09, Revision A.02,
 M. J. Frisch, G. W. Trucks, H. B. Schlegel, G. E. Scuseria, 
 M. A. Robb, J. R. Cheeseman, G. Scalmani, V. Barone, B. Mennucci, 
 G. A. Petersson, H. Nakatsuji, M. Caricato, X. Li, H. P. Hratchian, 
 A. F. Izmaylov, J. Bloino, G. Zheng, J. L. Sonnenberg, M. Hada, 
 M. Ehara, K. Toyota, R. Fukuda, J. Hasegawa, M. Ishida, T. Nakajima, 
 Y. Honda, O. Kitao, H. Nakai, T. Vreven, J. A. Montgomery, Jr., 
 J. E. Peralta, F. Ogliaro, M. Bearpark, J. J. Heyd, E. Brothers, 
 K. N. Kudin, V. N. Staroverov, R. Kobayashi, J. Normand, 
 K. Raghavachari, A. Rendell, J. C. Burant, S. S. Iyengar, J. Tomasi, 
 M. Cossi, N. Rega, J. M. Millam, M. Klene, J. E. Knox, J. B. Cross, 
 V. Bakken, C. Adamo, J. Jaramillo, R. Gomperts, R. E. Stratmann, 
 O. Yazyev, A. J. Austin, R. Cammi, C. Pomelli, J. W. Ochterski, 
 R. L. Martin, K. Morokuma, V. G. Zakrzewski, G. A. Voth, 
 P. Salvador, J. J. Dannenberg, S. Dapprich, A. D. Daniels, 
 O. Farkas, J. B. Foresman, J. V. Ortiz, J. Cioslowski, 
 and D. J. Fox, Gaussian, Inc., Wallingford CT, 2009.
 
 ******************************************
 Gaussian 09:  EM64L-G09RevA.02 11-Jun-2009
                23-Aug-2012 
 ******************************************
 % Mem=12GB
 % Nproc=8
 Will use up to    8 processors via shared memory.
 ----------------------------------------------------------------------
 # ROMP2(RW) Gen GFinput Int=NoBasisTransform Int(Grid=Ultrafine) IOp(3
 /32=2,5/6=10,8/11=1,9/33=1) Maxdisk=128GB CBSextrapolate(Nmin=20,MinPo
 p)
 ----------------------------------------------------------------------
 1/38=1/1;
 2/12=2,17=6,18=5,40=1/2;
 3/5=7,11=2,16=1,24=10,25=1,30=1,32=2,60=-1,75=-5,116=101/1,2,3;
 4//1;
 5/5=2,6=10,38=5/2;
 8/5=-1,10=91,11=1/1;
 9/16=-3,33=1,75=2,81=20,83=4/6,4;
 6/7=2,8=2,9=2,10=2/1;
 99/5=1,9=1/99;
 ---
 Ge2
 ---
 Symbolic Z-matrix:
 Charge =  0 Multiplicity = 1
 Ge
 Ge                   1     2.44494 
 
                          Input orientation:                          
 ---------------------------------------------------------------------
 Center     Atomic      Atomic             Coordinates (Angstroms)
 Number     Number       Type             X           Y           Z
 ---------------------------------------------------------------------
      1         32           0        0.000000    0.000000    0.000000
      2         32           0        0.000000    0.000000    2.444944
 ---------------------------------------------------------------------
 Stoichiometry    Ge2
 Framework group  D*H[C*(Ge.Ge)]
 Deg. of freedom     1
 Full point group                 D*H     NOp   8
 Largest Abelian subgroup         D2H     NOp   8
 Largest concise Abelian subgroup C2      NOp   2
                         Standard orientation:                         
 ---------------------------------------------------------------------
 Center     Atomic      Atomic             Coordinates (Angstroms)
 Number     Number       Type             X           Y           Z
 ---------------------------------------------------------------------
      1         32           0        0.000000    0.000000    1.222472
      2         32           0        0.000000    0.000000   -1.222472
 ---------------------------------------------------------------------
 Rotational constants (GHZ):      0.0000000      2.2873918      2.2873918
 General basis read from cards:  (5D, 7F)
 AO basis set in the form of general basis input (Overlap normalization):
      1 0
 S  17 1.00       0.000000000000
      0.4122268980D+08  0.7619756521D-06
      0.7983313080D+07  0.4552129250D-05
      0.1851734950D+07  0.2579634585D-04
      0.5015949500D+06  0.1177488900D-03
      0.1551136690D+06  0.4602311083D-03
      0.5365983180D+05  0.1569185995D-02
      0.2039333180D+05  0.4776087633D-02
      0.8378829330D+04  0.1316591352D-01
      0.3669040500D+04  0.3312711738D-01
      0.1690971220D+04  0.7559901259D-01
      0.8111844160D+03  0.1525645339D+00
      0.4011013350D+03  0.2563840676D+00
      0.2026652420D+03  0.3169496769D+00
      0.1038351640D+03  0.2267270383D+00
      0.5357110400D+02  0.6330876023D-01
      0.2765489200D+02  0.3967379286D-02
      0.1419965900D+02  0.8167901390D-03
 S  14 1.00       0.000000000000
      0.2039333180D+05 -0.7749397977D-05
      0.8378829330D+04 -0.4610141918D-04
      0.3669040500D+04 -0.3100309063D-03
      0.1690971220D+04 -0.1507914846D-02
      0.8111844160D+03 -0.6697310930D-02
      0.4011013350D+03 -0.2357187335D-01
      0.2026652420D+03 -0.6393740340D-01
      0.1038351640D+03 -0.9011602194D-01
      0.5357110400D+02  0.4095639915D-01
      0.2765489200D+02  0.4037319950D+00
      0.1419965900D+02  0.5051005263D+00
      0.7210321000D+01  0.1668663852D+00
      0.3600202000D+01  0.1139208356D-01
      0.1757356000D+01  0.1324887454D-02
 P  15 1.00       0.000000000000
      0.5878475230D+05  0.1006770135D-04
      0.1546268820D+05  0.8140951624D-04
      0.4914418670D+04  0.5222832948D-03
      0.1817946780D+04  0.2522060957D-02
      0.7576001320D+03  0.9720853573D-02
      0.3457718700D+03  0.3064819679D-01
      0.1687033210D+03  0.8056813532D-01
      0.8620415300D+02  0.1720032475D+00
      0.4534423200D+02  0.2849829350D+00
      0.2420451000D+02  0.3319826586D+00
      0.1295848500D+02  0.2131544666D+00
      0.6892095000D+01  0.5640803863D-01
      0.3613555000D+01  0.5184769002D-02
      0.1856025000D+01  0.5206101202D-03
      0.9290730000D+00  0.7906999012D-04
 S  11 1.00       0.000000000000
      0.4011013350D+03  0.1047011300D-03
      0.2026652420D+03  0.9847131968D-03
      0.1038351640D+03  0.2930755417D-02
      0.5357110400D+02  0.4496547850D-03
      0.2765489200D+02 -0.6289553483D-01
      0.1419965900D+02 -0.2098247288D+00
      0.7210321000D+01 -0.2917578469D-01
      0.3600202000D+01  0.4908547261D+00
      0.1757356000D+01  0.5615823628D+00
      0.8334510000D+00  0.1355687727D+00
      0.3815050000D+00  0.5204371907D-03
 P  13 1.00       0.000000000000
      0.7576001320D+03 -0.2824773122D-04
      0.3457718700D+03 -0.2413332076D-03
      0.1687033210D+03 -0.1366796304D-02
      0.8620415300D+02 -0.5483384495D-02
      0.4534423200D+02 -0.1431010805D-01
      0.2420451000D+02 -0.2339127344D-01
      0.1295848500D+02  0.3333937534D-01
      0.6892095000D+01  0.2176226158D+00
      0.3613555000D+01  0.3898925110D+00
      0.1856025000D+01  0.3504488772D+00
      0.9290730000D+00  0.1279297811D+00
      0.4512270000D+00  0.1122065758D-01
      0.2117550000D+00  0.1205370065D-02
 D  14 1.00       0.000000000000
      0.2338872590D+04  0.1782214933D-04
      0.7138462740D+03  0.1839392548D-03
      0.2759750270D+03  0.1159955918D-02
      0.1238804750D+03  0.5190615105D-02
      0.6080347600D+02  0.1778811299D-01
      0.3140289600D+02  0.4826648981D-01
      0.1669260800D+02  0.1089068037D+00
      0.9031064000D+01  0.1911681811D+00
      0.4945221000D+01  0.2520581842D+00
      0.2726070000D+01  0.2658016280D+00
      0.1497064000D+01  0.2282664746D+00
      0.8020380000D+00  0.1471027401D+00
      0.4040410000D+00  0.5505737392D-01
      0.1806180000D+00  0.7091662360D-02
 S  10 1.00       0.000000000000
      0.5357110400D+02  0.1197605162D-03
      0.2765489200D+02 -0.5890639856D-03
      0.1419965900D+02  0.1759378288D-02
      0.7210321000D+01 -0.2815520502D-02
      0.3600202000D+01 -0.1475266842D-01
      0.1757356000D+01 -0.1253647537D+00
      0.8334510000D+00 -0.1312115750D+00
      0.3815050000D+00  0.3100569723D+00
      0.1673150000D+00  0.6237194810D+00
      0.6973100000D-01  0.2623474767D+00
 S   1 1.00       0.000000000000
      0.3005604675D-01  0.1000000000D+01
 P   9 1.00       0.000000000000
      0.1295848500D+02 -0.5760889576D-03
      0.6892095000D+01 -0.3590625169D-02
      0.3613555000D+01 -0.7427448563D-02
      0.1856025000D+01 -0.2065624580D-01
      0.9290730000D+00  0.3879164347D-02
      0.4512270000D+00  0.1711763425D+00
      0.2117550000D+00  0.3963212944D+00
      0.9562500000D-01  0.4212356068D+00
      0.4136600000D-01  0.1437806489D+00
 P   1 1.00       0.000000000000
      0.2153507449D-01  0.1000000000D+01
 S   1 1.00       0.000000000000
      0.2561749000D+01  0.1000000000D+01
 S   1 1.00       0.000000000000
      0.1308885000D+01  0.1000000000D+01
 S   1 1.00       0.000000000000
      0.6687540000D+00  0.1000000000D+01
 S   1 1.00       0.000000000000
      0.3416900000D+00  0.1000000000D+01
 S   1 1.00       0.000000000000
      0.1745810000D+00  0.1000000000D+01
 P   1 1.00       0.000000000000
      0.1385238000D+01  0.1000000000D+01
 P   1 1.00       0.000000000000
      0.7869510000D+00  0.1000000000D+01
 P   1 1.00       0.000000000000
      0.4470660000D+00  0.1000000000D+01
 P   1 1.00       0.000000000000
      0.2539770000D+00  0.1000000000D+01
 P   1 1.00       0.000000000000
      0.1442840000D+00  0.1000000000D+01
 D   1 1.00       0.000000000000
      0.1559087000D+01  0.1000000000D+01
 D   1 1.00       0.000000000000
      0.7885540000D+00  0.1000000000D+01
 D   1 1.00       0.000000000000
      0.3988350000D+00  0.1000000000D+01
 D   1 1.00       0.000000000000
      0.2017220000D+00  0.1000000000D+01
 D   1 1.00       0.000000000000
      0.1020270000D+00  0.1000000000D+01
 F   1 1.00       0.000000000000
      0.8916250000D+00  0.1000000000D+01
 F   1 1.00       0.000000000000
      0.5070970000D+00  0.1000000000D+01
 F   1 1.00       0.000000000000
      0.2884030000D+00  0.1000000000D+01
 F   1 1.00       0.000000000000
      0.1640240000D+00  0.1000000000D+01
 G   1 1.00       0.000000000000
      0.9272770000D+00  0.1000000000D+01
 G   1 1.00       0.000000000000
      0.5014050000D+00  0.1000000000D+01
 G   1 1.00       0.000000000000
      0.2711240000D+00  0.1000000000D+01
 H   1 1.00       0.000000000000
      0.7790020000D+00  0.1000000000D+01
 H   1 1.00       0.000000000000
      0.4026120000D+00  0.1000000000D+01
 I   1 1.00       0.000000000000
      0.6578630345D+00  0.1000000000D+01
 ****
      2 0
 S  17 1.00       0.000000000000
      0.4122268980D+08  0.7619756521D-06
      0.7983313080D+07  0.4552129250D-05
      0.1851734950D+07  0.2579634585D-04
      0.5015949500D+06  0.1177488900D-03
      0.1551136690D+06  0.4602311083D-03
      0.5365983180D+05  0.1569185995D-02
      0.2039333180D+05  0.4776087633D-02
      0.8378829330D+04  0.1316591352D-01
      0.3669040500D+04  0.3312711738D-01
      0.1690971220D+04  0.7559901259D-01
      0.8111844160D+03  0.1525645339D+00
      0.4011013350D+03  0.2563840676D+00
      0.2026652420D+03  0.3169496769D+00
      0.1038351640D+03  0.2267270383D+00
      0.5357110400D+02  0.6330876023D-01
      0.2765489200D+02  0.3967379286D-02
      0.1419965900D+02  0.8167901390D-03
 S  14 1.00       0.000000000000
      0.2039333180D+05 -0.7749397977D-05
      0.8378829330D+04 -0.4610141918D-04
      0.3669040500D+04 -0.3100309063D-03
      0.1690971220D+04 -0.1507914846D-02
      0.8111844160D+03 -0.6697310930D-02
      0.4011013350D+03 -0.2357187335D-01
      0.2026652420D+03 -0.6393740340D-01
      0.1038351640D+03 -0.9011602194D-01
      0.5357110400D+02  0.4095639915D-01
      0.2765489200D+02  0.4037319950D+00
      0.1419965900D+02  0.5051005263D+00
      0.7210321000D+01  0.1668663852D+00
      0.3600202000D+01  0.1139208356D-01
      0.1757356000D+01  0.1324887454D-02
 P  15 1.00       0.000000000000
      0.5878475230D+05  0.1006770135D-04
      0.1546268820D+05  0.8140951624D-04
      0.4914418670D+04  0.5222832948D-03
      0.1817946780D+04  0.2522060957D-02
      0.7576001320D+03  0.9720853573D-02
      0.3457718700D+03  0.3064819679D-01
      0.1687033210D+03  0.8056813532D-01
      0.8620415300D+02  0.1720032475D+00
      0.4534423200D+02  0.2849829350D+00
      0.2420451000D+02  0.3319826586D+00
      0.1295848500D+02  0.2131544666D+00
      0.6892095000D+01  0.5640803863D-01
      0.3613555000D+01  0.5184769002D-02
      0.1856025000D+01  0.5206101202D-03
      0.9290730000D+00  0.7906999012D-04
 S  11 1.00       0.000000000000
      0.4011013350D+03  0.1047011300D-03
      0.2026652420D+03  0.9847131968D-03
      0.1038351640D+03  0.2930755417D-02
      0.5357110400D+02  0.4496547850D-03
      0.2765489200D+02 -0.6289553483D-01
      0.1419965900D+02 -0.2098247288D+00
      0.7210321000D+01 -0.2917578469D-01
      0.3600202000D+01  0.4908547261D+00
      0.1757356000D+01  0.5615823628D+00
      0.8334510000D+00  0.1355687727D+00
      0.3815050000D+00  0.5204371907D-03
 P  13 1.00       0.000000000000
      0.7576001320D+03 -0.2824773122D-04
      0.3457718700D+03 -0.2413332076D-03
      0.1687033210D+03 -0.1366796304D-02
      0.8620415300D+02 -0.5483384495D-02
      0.4534423200D+02 -0.1431010805D-01
      0.2420451000D+02 -0.2339127344D-01
      0.1295848500D+02  0.3333937534D-01
      0.6892095000D+01  0.2176226158D+00
      0.3613555000D+01  0.3898925110D+00
      0.1856025000D+01  0.3504488772D+00
      0.9290730000D+00  0.1279297811D+00
      0.4512270000D+00  0.1122065758D-01
      0.2117550000D+00  0.1205370065D-02
 D  14 1.00       0.000000000000
      0.2338872590D+04  0.1782214933D-04
      0.7138462740D+03  0.1839392548D-03
      0.2759750270D+03  0.1159955918D-02
      0.1238804750D+03  0.5190615105D-02
      0.6080347600D+02  0.1778811299D-01
      0.3140289600D+02  0.4826648981D-01
      0.1669260800D+02  0.1089068037D+00
      0.9031064000D+01  0.1911681811D+00
      0.4945221000D+01  0.2520581842D+00
      0.2726070000D+01  0.2658016280D+00
      0.1497064000D+01  0.2282664746D+00
      0.8020380000D+00  0.1471027401D+00
      0.4040410000D+00  0.5505737392D-01
      0.1806180000D+00  0.7091662360D-02
 S  10 1.00       0.000000000000
      0.5357110400D+02  0.1197605162D-03
      0.2765489200D+02 -0.5890639856D-03
      0.1419965900D+02  0.1759378288D-02
      0.7210321000D+01 -0.2815520502D-02
      0.3600202000D+01 -0.1475266842D-01
      0.1757356000D+01 -0.1253647537D+00
      0.8334510000D+00 -0.1312115750D+00
      0.3815050000D+00  0.3100569723D+00
      0.1673150000D+00  0.6237194810D+00
      0.6973100000D-01  0.2623474767D+00
 S   1 1.00       0.000000000000
      0.3005604675D-01  0.1000000000D+01
 P   9 1.00       0.000000000000
      0.1295848500D+02 -0.5760889576D-03
      0.6892095000D+01 -0.3590625169D-02
      0.3613555000D+01 -0.7427448563D-02
      0.1856025000D+01 -0.2065624580D-01
      0.9290730000D+00  0.3879164347D-02
      0.4512270000D+00  0.1711763425D+00
      0.2117550000D+00  0.3963212944D+00
      0.9562500000D-01  0.4212356068D+00
      0.4136600000D-01  0.1437806489D+00
 P   1 1.00       0.000000000000
      0.2153507449D-01  0.1000000000D+01
 S   1 1.00       0.000000000000
      0.2561749000D+01  0.1000000000D+01
 S   1 1.00       0.000000000000
      0.1308885000D+01  0.1000000000D+01
 S   1 1.00       0.000000000000
      0.6687540000D+00  0.1000000000D+01
 S   1 1.00       0.000000000000
      0.3416900000D+00  0.1000000000D+01
 S   1 1.00       0.000000000000
      0.1745810000D+00  0.1000000000D+01
 P   1 1.00       0.000000000000
      0.1385238000D+01  0.1000000000D+01
 P   1 1.00       0.000000000000
      0.7869510000D+00  0.1000000000D+01
 P   1 1.00       0.000000000000
      0.4470660000D+00  0.1000000000D+01
 P   1 1.00       0.000000000000
      0.2539770000D+00  0.1000000000D+01
 P   1 1.00       0.000000000000
      0.1442840000D+00  0.1000000000D+01
 D   1 1.00       0.000000000000
      0.1559087000D+01  0.1000000000D+01
 D   1 1.00       0.000000000000
      0.7885540000D+00  0.1000000000D+01
 D   1 1.00       0.000000000000
      0.3988350000D+00  0.1000000000D+01
 D   1 1.00       0.000000000000
      0.2017220000D+00  0.1000000000D+01
 D   1 1.00       0.000000000000
      0.1020270000D+00  0.1000000000D+01
 F   1 1.00       0.000000000000
      0.8916250000D+00  0.1000000000D+01
 F   1 1.00       0.000000000000
      0.5070970000D+00  0.1000000000D+01
 F   1 1.00       0.000000000000
      0.2884030000D+00  0.1000000000D+01
 F   1 1.00       0.000000000000
      0.1640240000D+00  0.1000000000D+01
 G   1 1.00       0.000000000000
      0.9272770000D+00  0.1000000000D+01
 G   1 1.00       0.000000000000
      0.5014050000D+00  0.1000000000D+01
 G   1 1.00       0.000000000000
      0.2711240000D+00  0.1000000000D+01
 H   1 1.00       0.000000000000
      0.7790020000D+00  0.1000000000D+01
 H   1 1.00       0.000000000000
      0.4026120000D+00  0.1000000000D+01
 I   1 1.00       0.000000000000
      0.6578630345D+00  0.1000000000D+01
 ****

 There are    58 symmetry adapted basis functions of AG  symmetry.
 There are    23 symmetry adapted basis functions of B1G symmetry.
 There are    38 symmetry adapted basis functions of B2G symmetry.
 There are    38 symmetry adapted basis functions of B3G symmetry.
 There are    23 symmetry adapted basis functions of AU  symmetry.
 There are    58 symmetry adapted basis functions of B1U symmetry.
 There are    38 symmetry adapted basis functions of B2U symmetry.
 There are    38 symmetry adapted basis functions of B3U symmetry.
 Integral buffers will be    131072 words long.
 Raffenetti 2 integral format.
 Two-electron integral symmetry is turned on.
   314 basis functions,   912 primitive gaussians,   456 cartesian basis functions
    32 alpha electrons       32 beta electrons
       nuclear repulsion energy       221.6318725517 Hartrees.
 NAtoms=    2 NActive=    2 NUniq=    1 SFac= 3.00D+00 NAtFMM=   80 NAOKFM=F Big=F
 One-electron integrals computed using PRISM.
 NBasis=   314 RedAO= F  NBF=    58    23    38    38    23    58    38    38
 NBsUse=   314 1.00D-04 NBFU=    58    23    38    38    23    58    38    38
 Harris functional with IExCor=  205 diagonalized for initial guess.
 ExpMin= 2.15D-02 ExpMax= 4.12D+07 ExpMxC= 8.38D+03 IAcc=3 IRadAn=         5 AccDes= 0.00D+00
 HarFok:  IExCor=  205 AccDes= 0.00D+00 IRadAn=         5 IDoV= 1
 ScaDFX=  1.000000  1.000000  1.000000  1.000000
 FoFCou: FMM=F IPFlag=           0 FMFlag=      100000 FMFlg1=           0
         NFxFlg=           0 DoJE=T BraDBF=F KetDBF=T FulRan=T
         Omega=  0.000000  0.000000  1.000000  0.000000  0.000000 ICntrl=     500 IOpCl=  0
         NMat0=    1 NMatS0=    1 NMatT0=    0 NMatD0=    1 NMtDS0=    0 NMtDT0=    0
         I1Cent=           4 NGrid=           0.
 Petite list used in FoFCou.
 Initial guess orbital symmetries:
       Occupied  (SGU) (SGG) (SGU) (SGG) (SGU) (SGG) (PIG) (PIG)
                 (PIU) (PIU) (SGG) (SGU) (SGG) (SGU) (PIU) (PIU)
                 (PIG) (PIG) (SGG) (PIU) (PIU) (DLTG) (DLTG) (DLTU)
                 (DLTU) (PIG) (PIG) (SGU) (SGG) (SGU) (SGG) (PIU)
       Virtual   (PIU) (PIG) (PIG) (SGU) (SGG) (PIU) (PIU) (SGG)
                 (SGU) (PIG) (PIG) (SGU) (DLTG) (DLTG) (PIU) (PIU)
                 (SGG) (PIU) (PIU) (DLTU) (DLTU) (SGG) (PIG) (PIG)
                 (SGU) (SGU) (PIG) (PIG) (SGG) (PHIU) (PHIU) (DLTG)
                 (DLTG) (PIU) (PIU) (PHIG) (PHIG) (SGU) (SGG) (DLTG)
                 (DLTG) (DLTU) (DLTU) (PIU) (PIU) (DLTU) (DLTU)
                 (SGG) (PIG) (PIG) (PIU) (PIU) (SGU) (PIG) (PIG)
                 (SGU) (SGG) (PIG) (PIG) (SGG) (SGU) (PHIU) (PHIU)
                 (DLTG) (DLTG) (?A) (?A) (PIU) (PIU) (PHIU) (PHIU)
                 (?B) (?B) (PHIG) (PHIG) (SGG) (DLTG) (DLTG) (DLTU)
                 (DLTU) (PHIG) (PHIG) (SGU) (PIU) (PIU) (SGG) (DLTG)
                 (DLTG) (PIG) (PIG) (DLTU) (DLTU) (SGU) (PIG) (PIG)
                 (SGU) (PIU) (PIU) (DLTU) (DLTU) (SGU) (PIU) (PIU)
                 (SGG) (PIG) (PIG) (SGG) (PIG) (PIG) (?A) (?A)
                 (PHIU) (PHIU) (?C) (?C) (?D) (?D) (DLTG) (DLTG)
                 (PIU) (PIU) (SGG) (?B) (?B) (PHIU) (PHIU) (DLTG)
                 (DLTG) (SGU) (PHIG) (PHIG) (DLTU) (DLTU) (SGU)
                 (PHIG) (PHIG) (PIG) (PIG) (SGG) (PHIU) (PHIU)
                 (?A) (?A) (?B) (?B) (PIU) (PIU) (DLTG) (DLTG)
                 (PHIG) (PHIG) (SGG) (SGU) (DLTU) (DLTU) (PIG)
                 (PIG) (PIU) (PIU) (SGU) (DLTU) (DLTU) (SGG) (PIG)
                 (PIG) (DLTG) (DLTG) (SGU) (DLTU) (DLTU) (PIU)
                 (PIU) (PIG) (PIG) (SGG) (PIU) (PIU) (PIG) (PIG)
                 (SGU) (PHIU) (PHIU) (DLTG) (DLTG) (?A) (?A) (SGG)
                 (PIU) (PIU) (?C) (?C) (?E) (?E) (?F) (?F) (?D)
                 (?D) (PHIU) (PHIU) (PHIG) (PHIG) (SGG) (DLTG)
                 (DLTG) (?B) (?B) (DLTU) (DLTU) (PIU) (PIU) (PIG)
                 (PIG) (SGU) (PHIG) (PHIG) (SGG) (SGU) (?A) (?A)
                 (?C) (?C) (?D) (?D) (PHIU) (PHIU) (DLTU) (DLTU)
                 (?B) (?B) (PIG) (PIG) (DLTG) (DLTG) (PHIG) (PHIG)
                 (PHIU) (PHIU) (?A) (?A) (?B) (?B) (SGU) (DLTG)
                 (DLTG) (PHIG) (PHIG) (SGG) (PIU) (PIU) (DLTU)
                 (DLTU) (SGU) (PIG) (PIG) (DLTU) (DLTU) (PIU) (PIU)
                 (SGG) (SGU) (PIG) (PIG) (DLTG) (DLTG) (DLTU) (DLTU)
                 (PIU) (PIU) (SGG) (PIG) (PIG) (SGU) (SGG) (PIU)
                 (PIU) (PIG) (PIG) (SGU) (SGG) (SGU) (SGU) (SGG)
 Requested convergence on RMS density matrix=1.00D-10 within 128 cycles.
 Requested convergence on MAX density matrix=1.00D-08.
 Requested convergence on             energy=1.00D-08.
 No special actions if energy rises.
 Initial convergence to 1.0D-05 achieved.  Increase integral accuracy.
 SCF Done:  E(ROHF) =  -4150.73640801     A.U. after   15 cycles
             Convg  =    0.5409D-10             -V/T =  2.0000
 <Sx>= 0.0000 <Sy>= 0.0000 <Sz>= 0.0000 <S**2>= 0.0000 S= 0.0000
 <L.S>= 0.000000000000E+00
 Annihilation of the first spin contaminant:
 S**2 before annihilation     0.0000,   after     0.0000
 GenMOA:  NOpAll=  8 NOp2=8 NOpUse=  8 JSym2X=1
 <Sx>= 0.0000 <Sy>= 0.0000 <Sz>= 0.0000 <S**2>= 0.0000 S= 0.0000
 Range of M.O.s used for correlation:    29   314
 NBasis=   314 NAE=    32 NBE=    32 NFC=    28 NFV=     0
 NROrb=    286 NOA=     4 NOB=     4 NVA=   282 NVB=   282

 **** Warning!!: The largest alpha MO coefficient is  0.21370451D+03


 **** Warning!!: The largest beta MO coefficient is  0.21370451D+03

 Singles contribution to E2=   -0.6078820032D-14
 Disk-based method using OVN memory for  4 occupieds at a time.
 Permanent disk used for amplitudes and <ij||ab> integrals=     3495672 words.
 Estimated scratch disk usage=   156735368 words.
 IUseRI=2 ITolRI= 6 IR12RI=0
 Actual    scratch disk usage=   155953032 words.
 GetIJB would need an additional  1371002525 words of memory to use all   8 processors.
 JobTyp=2 Pass  1:  I=   1 to   4 NPSUse=  1 ParTrn=F ParDer=F DoDerP=F.
 (rs|ai) integrals will be sorted in core.
 T,EIJ(AA): I=   1 J=   2      0.5126108E-03     -0.9536964E-03
 T,EIJ(AA): I=   1 J=   3      0.6703503E-03     -0.1240181E-02
 T,EIJ(AA): I=   1 J=   4      0.1229761E-02     -0.2074263E-02
 T,EIJ(AA): I=   2 J=   3      0.1449839E-02     -0.2241034E-02
 T,EIJ(AA): I=   2 J=   4      0.2335458E-02     -0.3079412E-02
 T,EIJ(AA): I=   3 J=   4      0.5429585E-02     -0.5819913E-02
 T,EIJ(AB): I=   1 J=   1      0.5095469E-02     -0.1125525E-01
 T,EIJ(AB): I=   1 J=   2      0.3453481E-02     -0.6672657E-02
 T,EIJ(AB): I=   1 J=   3      0.3339681E-02     -0.7070086E-02
 T,EIJ(AB): I=   1 J=   4      0.3664171E-02     -0.6852198E-02
 T,EIJ(AB): I=   2 J=   1      0.3453481E-02     -0.6672657E-02
 T,EIJ(AB): I=   2 J=   2      0.7977519E-02     -0.1307450E-01
 T,EIJ(AB): I=   2 J=   3      0.5667793E-02     -0.9627618E-02
 T,EIJ(AB): I=   2 J=   4      0.4314952E-02     -0.6747483E-02
 T,EIJ(AB): I=   3 J=   1      0.3339681E-02     -0.7070086E-02
 T,EIJ(AB): I=   3 J=   2      0.5667793E-02     -0.9627618E-02
 T,EIJ(AB): I=   3 J=   3      0.1137614E-01     -0.1571547E-01
 T,EIJ(AB): I=   3 J=   4      0.6564963E-02     -0.7871055E-02
 T,EIJ(AB): I=   4 J=   1      0.3664171E-02     -0.6852198E-02
 T,EIJ(AB): I=   4 J=   2      0.4314952E-02     -0.6747483E-02
 T,EIJ(AB): I=   4 J=   3      0.6564963E-02     -0.7871055E-02
 T,EIJ(AB): I=   4 J=   4      0.2321228E-01     -0.2060182E-01
 Actual    scratch disk usage=   155953032 words.
 GetIJB would need an additional  1371002525 words of memory to use all   8 processors.
 JobTyp=3 Pass  1:  I=   1 to   4 NPSUse=  1 ParTrn=F ParDer=F DoDerP=F.
 (rs|ai) integrals will be sorted in core.
 T,EIJ(BB): I=   1 J=   2      0.5126108E-03     -0.9536964E-03
 T,EIJ(BB): I=   1 J=   3      0.6703503E-03     -0.1240181E-02
 T,EIJ(BB): I=   1 J=   4      0.1229761E-02     -0.2074263E-02
 T,EIJ(BB): I=   2 J=   3      0.1449839E-02     -0.2241034E-02
 T,EIJ(BB): I=   2 J=   4      0.2335458E-02     -0.3079412E-02
 T,EIJ(BB): I=   3 J=   4      0.5429585E-02     -0.5819913E-02
 Spin components of T(2) and E(2):
     alpha-alpha T2 =       0.1162760460D-01 E2=     -0.1540850020D-01
     alpha-beta  T2 =       0.1016714892D+00 E2=     -0.1503292339D+00
     beta-beta   T2 =       0.1162760460D-01 E2=     -0.1540850020D-01
 ANorm=    0.1060625616D+01
 E2 =    -0.1811462343D+00 EUMP2 =    -0.41509175542455D+04

 Complete Basis Set (CBS) Extrapolation:
 M. R. Nyden and G. A. Petersson, JCP 75, 1843 (1981)
 G. A. Petersson and M. A. Al-Laham, JCP 94, 6081 (1991)
 G. A. Petersson, T. Tensfeldt, and J. A. Montgomery, JCP 94, 6091 (1991)
 J. A. Montgomery, J. W. Ochterski, and G. A. Petersson, JCP 101, 5900 (1994)
 
 Minimum Number of PNO for Extrapolation =  20
 Absolute Overlaps: IRadAn =         5
 LocTrn: ILocal=3 LocCor=F DoCore=F.
 Entering OneElI...
 Overlap between basis sets.
 Requested accuracy = 0.1000D-12
 PrsmSu:  NPrtUS=   1 ThrOK=F IAlg=1
 PRISM was handed  1610178992 working-precision words and   136 shell-pairs
 IPart=  0 NShTot=         136 NBatch=          15 AvBLen=         9.1
 CnvPC2: ToCart=F DoDens=F IPureD=0 IPureF=0.
 Transformed matrix in CnvPC2: 
                 1             2             3             4             5 
      1   0.100000D+01  0.402055D+00  0.000000D+00  0.000000D+00  0.000000D+00
      2   0.402055D+00  0.100000D+01  0.000000D+00  0.000000D+00  0.000000D+00
      3   0.000000D+00  0.000000D+00  0.100000D+01  0.000000D+00  0.000000D+00
      4   0.000000D+00  0.000000D+00  0.000000D+00  0.100000D+01  0.000000D+00
      5   0.000000D+00  0.000000D+00  0.000000D+00  0.000000D+00  0.100000D+01
      6   0.277653D-01  0.326539D+00  0.000000D+00  0.000000D+00  0.000000D+00
      7   0.000000D+00  0.000000D+00  0.339478D+00  0.000000D+00  0.000000D+00
      8   0.000000D+00  0.000000D+00  0.000000D+00  0.339478D+00  0.000000D+00
      9   0.000000D+00  0.000000D+00  0.000000D+00  0.000000D+00  0.339478D+00
     10   0.000000D+00  0.000000D+00  0.000000D+00  0.000000D+00  0.000000D+00
     11   0.000000D+00  0.000000D+00  0.000000D+00  0.000000D+00  0.000000D+00
     12   0.000000D+00  0.000000D+00  0.000000D+00  0.000000D+00  0.000000D+00
     13   0.000000D+00  0.000000D+00  0.000000D+00  0.000000D+00  0.000000D+00
     14   0.000000D+00  0.000000D+00  0.000000D+00  0.000000D+00  0.000000D+00
     15  -0.375498D-03  0.437680D-02  0.000000D+00  0.000000D+00  0.000000D+00
     16   0.000000D+00  0.000000D+00  0.122886D-01  0.000000D+00  0.000000D+00
     17   0.000000D+00  0.000000D+00  0.000000D+00  0.122886D-01  0.000000D+00
     18   0.000000D+00  0.000000D+00  0.000000D+00  0.000000D+00  0.122886D-01
     19   0.000000D+00  0.000000D+00  0.000000D+00  0.000000D+00  0.000000D+00
     20   0.000000D+00  0.000000D+00  0.000000D+00  0.000000D+00  0.000000D+00
     21   0.000000D+00  0.000000D+00  0.000000D+00  0.000000D+00  0.000000D+00
     22   0.000000D+00  0.000000D+00  0.000000D+00  0.000000D+00  0.000000D+00
     23   0.000000D+00  0.000000D+00  0.000000D+00  0.000000D+00  0.000000D+00
     24   0.000000D+00  0.000000D+00  0.000000D+00  0.000000D+00  0.000000D+00
     25   0.000000D+00  0.000000D+00  0.000000D+00  0.000000D+00  0.000000D+00
     26   0.000000D+00  0.000000D+00  0.000000D+00  0.000000D+00  0.000000D+00
     27   0.000000D+00  0.000000D+00  0.000000D+00  0.000000D+00  0.000000D+00
     28   0.000000D+00  0.000000D+00  0.000000D+00  0.000000D+00  0.000000D+00
     29   0.000000D+00  0.000000D+00  0.000000D+00  0.000000D+00  0.000000D+00
     30   0.000000D+00  0.000000D+00  0.000000D+00  0.000000D+00  0.000000D+00
     31   0.000000D+00  0.000000D+00  0.000000D+00  0.000000D+00  0.000000D+00
     32   0.000000D+00  0.000000D+00  0.000000D+00  0.000000D+00  0.000000D+00
     33   0.000000D+00  0.000000D+00  0.000000D+00  0.000000D+00  0.000000D+00
     34   0.000000D+00  0.000000D+00  0.000000D+00  0.000000D+00  0.000000D+00
     35   0.000000D+00  0.000000D+00  0.000000D+00  0.000000D+00  0.000000D+00
     36   0.000000D+00  0.000000D+00  0.000000D+00  0.000000D+00  0.000000D+00
     37   0.000000D+00  0.000000D+00  0.000000D+00  0.000000D+00  0.000000D+00
     38   0.519701D-03  0.324410D-02  0.000000D+00  0.000000D+00 -0.823729D-03
     39   0.000000D+00  0.000000D+00  0.225053D-03  0.000000D+00  0.000000D+00
     40   0.000000D+00  0.000000D+00  0.000000D+00  0.225053D-03  0.000000D+00
     41   0.970167D-03  0.602315D-02  0.000000D+00  0.000000D+00 -0.138017D-02
     42   0.328409D-02  0.201627D-01  0.000000D+00  0.000000D+00 -0.391102D-02
     43   0.000000D+00  0.000000D+00  0.130626D-02  0.000000D+00  0.000000D+00
     44   0.000000D+00  0.000000D+00  0.000000D+00  0.130626D-02  0.000000D+00
     45   0.000000D+00  0.000000D+00  0.000000D+00  0.000000D+00  0.000000D+00
     46   0.000000D+00  0.000000D+00  0.000000D+00  0.000000D+00  0.000000D+00
                 6             7             8             9            10 
      1   0.277653D-01  0.000000D+00  0.000000D+00  0.000000D+00  0.000000D+00
      2   0.326539D+00  0.000000D+00  0.000000D+00  0.000000D+00  0.000000D+00
      3   0.000000D+00  0.339478D+00  0.000000D+00  0.000000D+00  0.000000D+00
      4   0.000000D+00  0.000000D+00  0.339478D+00  0.000000D+00  0.000000D+00
      5   0.000000D+00  0.000000D+00  0.000000D+00  0.339478D+00  0.000000D+00
      6   0.100000D+01  0.000000D+00  0.000000D+00  0.000000D+00  0.000000D+00
      7   0.000000D+00  0.100000D+01  0.000000D+00  0.000000D+00  0.000000D+00
      8   0.000000D+00  0.000000D+00  0.100000D+01  0.000000D+00  0.000000D+00
      9   0.000000D+00  0.000000D+00  0.000000D+00  0.100000D+01  0.000000D+00
     10   0.000000D+00  0.000000D+00  0.000000D+00  0.000000D+00  0.100000D+01
     11   0.000000D+00  0.000000D+00  0.000000D+00  0.000000D+00  0.000000D+00
     12   0.000000D+00  0.000000D+00  0.000000D+00  0.000000D+00  0.000000D+00
     13   0.000000D+00  0.000000D+00  0.000000D+00  0.000000D+00  0.000000D+00
     14   0.000000D+00  0.000000D+00  0.000000D+00  0.000000D+00  0.000000D+00
     15   0.194461D+00  0.000000D+00  0.000000D+00  0.000000D+00  0.000000D+00
     16   0.000000D+00  0.211028D+00  0.000000D+00  0.000000D+00  0.000000D+00
     17   0.000000D+00  0.000000D+00  0.211028D+00  0.000000D+00  0.000000D+00
     18   0.000000D+00  0.000000D+00  0.000000D+00  0.211028D+00  0.000000D+00
     19   0.000000D+00  0.000000D+00  0.000000D+00  0.000000D+00  0.658109D-01
     20   0.000000D+00  0.000000D+00  0.000000D+00  0.000000D+00  0.000000D+00
     21   0.000000D+00  0.000000D+00  0.000000D+00  0.000000D+00  0.000000D+00
     22   0.000000D+00  0.000000D+00  0.000000D+00  0.000000D+00  0.000000D+00
     23   0.000000D+00  0.000000D+00  0.000000D+00  0.000000D+00  0.000000D+00
     24   0.000000D+00  0.000000D+00  0.000000D+00  0.000000D+00  0.000000D+00
     25   0.000000D+00  0.000000D+00  0.000000D+00  0.000000D+00  0.000000D+00
     26   0.000000D+00  0.000000D+00  0.000000D+00  0.000000D+00  0.000000D+00
     27   0.000000D+00  0.000000D+00  0.000000D+00  0.000000D+00  0.000000D+00
     28   0.000000D+00  0.000000D+00  0.000000D+00  0.000000D+00  0.000000D+00
     29   0.000000D+00  0.000000D+00  0.000000D+00  0.000000D+00  0.000000D+00
     30   0.000000D+00  0.000000D+00  0.000000D+00  0.000000D+00  0.000000D+00
     31   0.000000D+00  0.000000D+00  0.000000D+00  0.000000D+00  0.000000D+00
     32   0.000000D+00  0.000000D+00  0.000000D+00  0.000000D+00  0.000000D+00
     33   0.000000D+00  0.000000D+00  0.000000D+00  0.000000D+00  0.000000D+00
     34   0.000000D+00  0.000000D+00  0.000000D+00  0.000000D+00  0.000000D+00
     35   0.000000D+00  0.000000D+00  0.000000D+00  0.000000D+00  0.000000D+00
     36   0.000000D+00  0.000000D+00  0.000000D+00  0.000000D+00  0.000000D+00
     37   0.000000D+00  0.000000D+00  0.000000D+00  0.000000D+00  0.000000D+00
     38   0.205342D-01  0.000000D+00  0.000000D+00 -0.144591D-01  0.559756D-02
     39   0.000000D+00  0.408403D-02  0.000000D+00  0.000000D+00  0.000000D+00
     40   0.000000D+00  0.000000D+00  0.408403D-02  0.000000D+00  0.000000D+00
     41   0.366376D-01  0.000000D+00  0.000000D+00 -0.238252D-01  0.896115D-02
     42   0.110396D+00  0.000000D+00  0.000000D+00 -0.587220D-01  0.161732D-01
     43   0.000000D+00  0.216689D-01  0.000000D+00  0.000000D+00  0.000000D+00
     44   0.000000D+00  0.000000D+00  0.216689D-01  0.000000D+00  0.000000D+00
     45   0.000000D+00  0.000000D+00  0.000000D+00  0.000000D+00  0.000000D+00
     46   0.000000D+00  0.000000D+00  0.000000D+00  0.000000D+00  0.000000D+00
                11            12            13            14            15 
      1   0.000000D+00  0.000000D+00  0.000000D+00  0.000000D+00 -0.375498D-03
      2   0.000000D+00  0.000000D+00  0.000000D+00  0.000000D+00  0.437680D-02
      3   0.000000D+00  0.000000D+00  0.000000D+00  0.000000D+00  0.000000D+00
      4   0.000000D+00  0.000000D+00  0.000000D+00  0.000000D+00  0.000000D+00
      5   0.000000D+00  0.000000D+00  0.000000D+00  0.000000D+00  0.000000D+00
      6   0.000000D+00  0.000000D+00  0.000000D+00  0.000000D+00  0.194461D+00
      7   0.000000D+00  0.000000D+00  0.000000D+00  0.000000D+00  0.000000D+00
      8   0.000000D+00  0.000000D+00  0.000000D+00  0.000000D+00  0.000000D+00
      9   0.000000D+00  0.000000D+00  0.000000D+00  0.000000D+00  0.000000D+00
     10   0.000000D+00  0.000000D+00  0.000000D+00  0.000000D+00  0.000000D+00
     11   0.100000D+01  0.000000D+00  0.000000D+00  0.000000D+00  0.000000D+00
     12   0.000000D+00  0.100000D+01  0.000000D+00  0.000000D+00  0.000000D+00
     13   0.000000D+00  0.000000D+00  0.100000D+01  0.000000D+00  0.000000D+00
     14   0.000000D+00  0.000000D+00  0.000000D+00  0.100000D+01  0.000000D+00
     15   0.000000D+00  0.000000D+00  0.000000D+00  0.000000D+00  0.100000D+01
     16   0.000000D+00  0.000000D+00  0.000000D+00  0.000000D+00  0.000000D+00
     17   0.000000D+00  0.000000D+00  0.000000D+00  0.000000D+00  0.000000D+00
     18   0.000000D+00  0.000000D+00  0.000000D+00  0.000000D+00  0.000000D+00
     19   0.000000D+00  0.000000D+00  0.000000D+00  0.000000D+00  0.000000D+00
     20   0.658109D-01  0.000000D+00  0.000000D+00  0.000000D+00  0.000000D+00
     21   0.000000D+00  0.658109D-01  0.000000D+00  0.000000D+00  0.000000D+00
     22   0.000000D+00  0.000000D+00  0.658109D-01  0.000000D+00  0.000000D+00
     23   0.000000D+00  0.000000D+00  0.000000D+00  0.658109D-01  0.000000D+00
     24   0.000000D+00  0.000000D+00  0.000000D+00  0.000000D+00  0.519701D-03
     25   0.000000D+00  0.000000D+00  0.000000D+00  0.000000D+00  0.324410D-02
     26   0.000000D+00  0.000000D+00  0.000000D+00  0.000000D+00  0.000000D+00
     27   0.000000D+00  0.000000D+00  0.000000D+00  0.000000D+00  0.000000D+00
     28   0.000000D+00  0.000000D+00  0.000000D+00  0.000000D+00  0.823729D-03
     29   0.000000D+00  0.000000D+00  0.000000D+00  0.000000D+00  0.205342D-01
     30   0.000000D+00  0.000000D+00  0.000000D+00  0.000000D+00  0.000000D+00
     31   0.000000D+00  0.000000D+00  0.000000D+00  0.000000D+00  0.000000D+00
     32   0.000000D+00  0.000000D+00  0.000000D+00  0.000000D+00  0.144591D-01
     33   0.000000D+00  0.000000D+00  0.000000D+00  0.000000D+00  0.559756D-02
     34   0.000000D+00  0.000000D+00  0.000000D+00  0.000000D+00  0.000000D+00
     35   0.000000D+00  0.000000D+00  0.000000D+00  0.000000D+00  0.000000D+00
     36   0.000000D+00  0.000000D+00  0.000000D+00  0.000000D+00  0.000000D+00
     37   0.000000D+00  0.000000D+00  0.000000D+00  0.000000D+00  0.000000D+00
     38   0.000000D+00  0.000000D+00  0.000000D+00  0.000000D+00  0.212674D+00
     39  -0.293467D-02  0.000000D+00  0.000000D+00  0.000000D+00  0.000000D+00
     40   0.000000D+00 -0.293467D-02  0.000000D+00  0.000000D+00  0.000000D+00
     41   0.000000D+00  0.000000D+00  0.000000D+00  0.000000D+00  0.276890D+00
     42   0.000000D+00  0.000000D+00  0.000000D+00  0.000000D+00  0.338497D+00
     43  -0.130438D-01  0.000000D+00  0.000000D+00  0.000000D+00  0.000000D+00
     44   0.000000D+00 -0.130438D-01  0.000000D+00  0.000000D+00  0.000000D+00
     45   0.000000D+00  0.000000D+00  0.228296D-02  0.000000D+00  0.000000D+00
     46   0.000000D+00  0.000000D+00  0.000000D+00  0.228296D-02  0.000000D+00
                16            17            18            19            20 
      1   0.000000D+00  0.000000D+00  0.000000D+00  0.000000D+00  0.000000D+00
      2   0.000000D+00  0.000000D+00  0.000000D+00  0.000000D+00  0.000000D+00
      3   0.122886D-01  0.000000D+00  0.000000D+00  0.000000D+00  0.000000D+00
      4   0.000000D+00  0.122886D-01  0.000000D+00  0.000000D+00  0.000000D+00
      5   0.000000D+00  0.000000D+00  0.122886D-01  0.000000D+00  0.000000D+00
      6   0.000000D+00  0.000000D+00  0.000000D+00  0.000000D+00  0.000000D+00
      7   0.211028D+00  0.000000D+00  0.000000D+00  0.000000D+00  0.000000D+00
      8   0.000000D+00  0.211028D+00  0.000000D+00  0.000000D+00  0.000000D+00
      9   0.000000D+00  0.000000D+00  0.211028D+00  0.000000D+00  0.000000D+00
     10   0.000000D+00  0.000000D+00  0.000000D+00  0.658109D-01  0.000000D+00
     11   0.000000D+00  0.000000D+00  0.000000D+00  0.000000D+00  0.658109D-01
     12   0.000000D+00  0.000000D+00  0.000000D+00  0.000000D+00  0.000000D+00
     13   0.000000D+00  0.000000D+00  0.000000D+00  0.000000D+00  0.000000D+00
     14   0.000000D+00  0.000000D+00  0.000000D+00  0.000000D+00  0.000000D+00
     15   0.000000D+00  0.000000D+00  0.000000D+00  0.000000D+00  0.000000D+00
     16   0.100000D+01  0.000000D+00  0.000000D+00  0.000000D+00  0.000000D+00
     17   0.000000D+00  0.100000D+01  0.000000D+00  0.000000D+00  0.000000D+00
     18   0.000000D+00  0.000000D+00  0.100000D+01  0.000000D+00  0.000000D+00
     19   0.000000D+00  0.000000D+00  0.000000D+00  0.100000D+01  0.000000D+00
     20   0.000000D+00  0.000000D+00  0.000000D+00  0.000000D+00  0.100000D+01
     21   0.000000D+00  0.000000D+00  0.000000D+00  0.000000D+00  0.000000D+00
     22   0.000000D+00  0.000000D+00  0.000000D+00  0.000000D+00  0.000000D+00
     23   0.000000D+00  0.000000D+00  0.000000D+00  0.000000D+00  0.000000D+00
     24   0.000000D+00  0.000000D+00 -0.970167D-03  0.328409D-02  0.000000D+00
     25   0.000000D+00  0.000000D+00 -0.602315D-02  0.201627D-01  0.000000D+00
     26   0.225053D-03  0.000000D+00  0.000000D+00  0.000000D+00 -0.130626D-02
     27   0.000000D+00  0.225053D-03  0.000000D+00  0.000000D+00  0.000000D+00
     28   0.000000D+00  0.000000D+00 -0.138017D-02  0.391102D-02  0.000000D+00
     29   0.000000D+00  0.000000D+00 -0.366376D-01  0.110396D+00  0.000000D+00
     30   0.408403D-02  0.000000D+00  0.000000D+00  0.000000D+00 -0.216689D-01
     31   0.000000D+00  0.408403D-02  0.000000D+00  0.000000D+00  0.000000D+00
     32   0.000000D+00  0.000000D+00 -0.238252D-01  0.587220D-01  0.000000D+00
     33   0.000000D+00  0.000000D+00 -0.896115D-02  0.161732D-01  0.000000D+00
     34   0.293467D-02  0.000000D+00  0.000000D+00  0.000000D+00 -0.130438D-01
     35   0.000000D+00  0.293467D-02  0.000000D+00  0.000000D+00  0.000000D+00
     36   0.000000D+00  0.000000D+00  0.000000D+00  0.000000D+00  0.000000D+00
     37   0.000000D+00  0.000000D+00  0.000000D+00  0.000000D+00  0.000000D+00
     38   0.000000D+00  0.000000D+00 -0.276890D+00  0.338497D+00  0.000000D+00
     39   0.105492D+00  0.000000D+00  0.000000D+00  0.000000D+00 -0.271684D+00
     40   0.000000D+00  0.105492D+00  0.000000D+00  0.000000D+00  0.000000D+00
     41   0.000000D+00  0.000000D+00 -0.338873D+00  0.313806D+00  0.000000D+00
     42   0.000000D+00  0.000000D+00 -0.313806D+00  0.898005D-01  0.000000D+00
     43   0.271684D+00  0.000000D+00  0.000000D+00  0.000000D+00 -0.428316D+00
     44   0.000000D+00  0.271684D+00  0.000000D+00  0.000000D+00  0.000000D+00
     45   0.000000D+00  0.000000D+00  0.000000D+00  0.000000D+00  0.000000D+00
     46   0.000000D+00  0.000000D+00  0.000000D+00  0.000000D+00  0.000000D+00
                21            22            23            24            25 
      1   0.000000D+00  0.000000D+00  0.000000D+00  0.000000D+00  0.000000D+00
      2   0.000000D+00  0.000000D+00  0.000000D+00  0.000000D+00  0.000000D+00
      3   0.000000D+00  0.000000D+00  0.000000D+00  0.000000D+00  0.000000D+00
      4   0.000000D+00  0.000000D+00  0.000000D+00  0.000000D+00  0.000000D+00
      5   0.000000D+00  0.000000D+00  0.000000D+00  0.000000D+00  0.000000D+00
      6   0.000000D+00  0.000000D+00  0.000000D+00  0.000000D+00  0.000000D+00
      7   0.000000D+00  0.000000D+00  0.000000D+00  0.000000D+00  0.000000D+00
      8   0.000000D+00  0.000000D+00  0.000000D+00  0.000000D+00  0.000000D+00
      9   0.000000D+00  0.000000D+00  0.000000D+00  0.000000D+00  0.000000D+00
     10   0.000000D+00  0.000000D+00  0.000000D+00  0.000000D+00  0.000000D+00
     11   0.000000D+00  0.000000D+00  0.000000D+00  0.000000D+00  0.000000D+00
     12   0.658109D-01  0.000000D+00  0.000000D+00  0.000000D+00  0.000000D+00
     13   0.000000D+00  0.658109D-01  0.000000D+00  0.000000D+00  0.000000D+00
     14   0.000000D+00  0.000000D+00  0.658109D-01  0.000000D+00  0.000000D+00
     15   0.000000D+00  0.000000D+00  0.000000D+00  0.519701D-03  0.324410D-02
     16   0.000000D+00  0.000000D+00  0.000000D+00  0.000000D+00  0.000000D+00
     17   0.000000D+00  0.000000D+00  0.000000D+00  0.000000D+00  0.000000D+00
     18   0.000000D+00  0.000000D+00  0.000000D+00 -0.970167D-03 -0.602315D-02
     19   0.000000D+00  0.000000D+00  0.000000D+00  0.328409D-02  0.201627D-01
     20   0.000000D+00  0.000000D+00  0.000000D+00  0.000000D+00  0.000000D+00
     21   0.100000D+01  0.000000D+00  0.000000D+00  0.000000D+00  0.000000D+00
     22   0.000000D+00  0.100000D+01  0.000000D+00  0.000000D+00  0.000000D+00
     23   0.000000D+00  0.000000D+00  0.100000D+01  0.000000D+00  0.000000D+00
     24   0.000000D+00  0.000000D+00  0.000000D+00  0.100000D+01  0.402055D+00
     25   0.000000D+00  0.000000D+00  0.000000D+00  0.402055D+00  0.100000D+01
     26   0.000000D+00  0.000000D+00  0.000000D+00  0.000000D+00  0.000000D+00
     27  -0.130626D-02  0.000000D+00  0.000000D+00  0.000000D+00  0.000000D+00
     28   0.000000D+00  0.000000D+00  0.000000D+00  0.000000D+00  0.000000D+00
     29   0.000000D+00  0.000000D+00  0.000000D+00  0.277653D-01  0.326539D+00
     30   0.000000D+00  0.000000D+00  0.000000D+00  0.000000D+00  0.000000D+00
     31  -0.216689D-01  0.000000D+00  0.000000D+00  0.000000D+00  0.000000D+00
     32   0.000000D+00  0.000000D+00  0.000000D+00  0.000000D+00  0.000000D+00
     33   0.000000D+00  0.000000D+00  0.000000D+00  0.000000D+00  0.000000D+00
     34   0.000000D+00  0.000000D+00  0.000000D+00  0.000000D+00  0.000000D+00
     35  -0.130438D-01  0.000000D+00  0.000000D+00  0.000000D+00  0.000000D+00
     36   0.000000D+00  0.228296D-02  0.000000D+00  0.000000D+00  0.000000D+00
     37   0.000000D+00  0.000000D+00  0.228296D-02  0.000000D+00  0.000000D+00
     38   0.000000D+00  0.000000D+00  0.000000D+00 -0.375498D-03  0.437680D-02
     39   0.000000D+00  0.000000D+00  0.000000D+00  0.000000D+00  0.000000D+00
     40  -0.271684D+00  0.000000D+00  0.000000D+00  0.000000D+00  0.000000D+00
     41   0.000000D+00  0.000000D+00  0.000000D+00  0.000000D+00  0.000000D+00
     42   0.000000D+00  0.000000D+00  0.000000D+00  0.000000D+00  0.000000D+00
     43   0.000000D+00  0.000000D+00  0.000000D+00  0.000000D+00  0.000000D+00
     44  -0.428316D+00  0.000000D+00  0.000000D+00  0.000000D+00  0.000000D+00
     45   0.000000D+00  0.162921D+00  0.000000D+00  0.000000D+00  0.000000D+00
     46   0.000000D+00  0.000000D+00  0.162921D+00  0.000000D+00  0.000000D+00
                26            27            28            29            30 
      1   0.000000D+00  0.000000D+00  0.000000D+00  0.000000D+00  0.000000D+00
      2   0.000000D+00  0.000000D+00  0.000000D+00  0.000000D+00  0.000000D+00
      3   0.000000D+00  0.000000D+00  0.000000D+00  0.000000D+00  0.000000D+00
      4   0.000000D+00  0.000000D+00  0.000000D+00  0.000000D+00  0.000000D+00
      5   0.000000D+00  0.000000D+00  0.000000D+00  0.000000D+00  0.000000D+00
      6   0.000000D+00  0.000000D+00  0.000000D+00  0.000000D+00  0.000000D+00
      7   0.000000D+00  0.000000D+00  0.000000D+00  0.000000D+00  0.000000D+00
      8   0.000000D+00  0.000000D+00  0.000000D+00  0.000000D+00  0.000000D+00
      9   0.000000D+00  0.000000D+00  0.000000D+00  0.000000D+00  0.000000D+00
     10   0.000000D+00  0.000000D+00  0.000000D+00  0.000000D+00  0.000000D+00
     11   0.000000D+00  0.000000D+00  0.000000D+00  0.000000D+00  0.000000D+00
     12   0.000000D+00  0.000000D+00  0.000000D+00  0.000000D+00  0.000000D+00
     13   0.000000D+00  0.000000D+00  0.000000D+00  0.000000D+00  0.000000D+00
     14   0.000000D+00  0.000000D+00  0.000000D+00  0.000000D+00  0.000000D+00
     15   0.000000D+00  0.000000D+00  0.823729D-03  0.205342D-01  0.000000D+00
     16   0.225053D-03  0.000000D+00  0.000000D+00  0.000000D+00  0.408403D-02
     17   0.000000D+00  0.225053D-03  0.000000D+00  0.000000D+00  0.000000D+00
     18   0.000000D+00  0.000000D+00 -0.138017D-02 -0.366376D-01  0.000000D+00
     19   0.000000D+00  0.000000D+00  0.391102D-02  0.110396D+00  0.000000D+00
     20  -0.130626D-02  0.000000D+00  0.000000D+00  0.000000D+00 -0.216689D-01
     21   0.000000D+00 -0.130626D-02  0.000000D+00  0.000000D+00  0.000000D+00
     22   0.000000D+00  0.000000D+00  0.000000D+00  0.000000D+00  0.000000D+00
     23   0.000000D+00  0.000000D+00  0.000000D+00  0.000000D+00  0.000000D+00
     24   0.000000D+00  0.000000D+00  0.000000D+00  0.277653D-01  0.000000D+00
     25   0.000000D+00  0.000000D+00  0.000000D+00  0.326539D+00  0.000000D+00
     26   0.100000D+01  0.000000D+00  0.000000D+00  0.000000D+00  0.339478D+00
     27   0.000000D+00  0.100000D+01  0.000000D+00  0.000000D+00  0.000000D+00
     28   0.000000D+00  0.000000D+00  0.100000D+01  0.000000D+00  0.000000D+00
     29   0.000000D+00  0.000000D+00  0.000000D+00  0.100000D+01  0.000000D+00
     30   0.339478D+00  0.000000D+00  0.000000D+00  0.000000D+00  0.100000D+01
     31   0.000000D+00  0.339478D+00  0.000000D+00  0.000000D+00  0.000000D+00
     32   0.000000D+00  0.000000D+00  0.339478D+00  0.000000D+00  0.000000D+00
     33   0.000000D+00  0.000000D+00  0.000000D+00  0.000000D+00  0.000000D+00
     34   0.000000D+00  0.000000D+00  0.000000D+00  0.000000D+00  0.000000D+00
     35   0.000000D+00  0.000000D+00  0.000000D+00  0.000000D+00  0.000000D+00
     36   0.000000D+00  0.000000D+00  0.000000D+00  0.000000D+00  0.000000D+00
     37   0.000000D+00  0.000000D+00  0.000000D+00  0.000000D+00  0.000000D+00
     38   0.000000D+00  0.000000D+00  0.000000D+00  0.194461D+00  0.000000D+00
     39   0.122886D-01  0.000000D+00  0.000000D+00  0.000000D+00  0.211028D+00
     40   0.000000D+00  0.122886D-01  0.000000D+00  0.000000D+00  0.000000D+00
     41   0.000000D+00  0.000000D+00  0.122886D-01  0.000000D+00  0.000000D+00
     42   0.000000D+00  0.000000D+00  0.000000D+00  0.000000D+00  0.000000D+00
     43   0.000000D+00  0.000000D+00  0.000000D+00  0.000000D+00  0.000000D+00
     44   0.000000D+00  0.000000D+00  0.000000D+00  0.000000D+00  0.000000D+00
     45   0.000000D+00  0.000000D+00  0.000000D+00  0.000000D+00  0.000000D+00
     46   0.000000D+00  0.000000D+00  0.000000D+00  0.000000D+00  0.000000D+00
                31            32            33            34            35 
      1   0.000000D+00  0.000000D+00  0.000000D+00  0.000000D+00  0.000000D+00
      2   0.000000D+00  0.000000D+00  0.000000D+00  0.000000D+00  0.000000D+00
      3   0.000000D+00  0.000000D+00  0.000000D+00  0.000000D+00  0.000000D+00
      4   0.000000D+00  0.000000D+00  0.000000D+00  0.000000D+00  0.000000D+00
      5   0.000000D+00  0.000000D+00  0.000000D+00  0.000000D+00  0.000000D+00
      6   0.000000D+00  0.000000D+00  0.000000D+00  0.000000D+00  0.000000D+00
      7   0.000000D+00  0.000000D+00  0.000000D+00  0.000000D+00  0.000000D+00
      8   0.000000D+00  0.000000D+00  0.000000D+00  0.000000D+00  0.000000D+00
      9   0.000000D+00  0.000000D+00  0.000000D+00  0.000000D+00  0.000000D+00
     10   0.000000D+00  0.000000D+00  0.000000D+00  0.000000D+00  0.000000D+00
     11   0.000000D+00  0.000000D+00  0.000000D+00  0.000000D+00  0.000000D+00
     12   0.000000D+00  0.000000D+00  0.000000D+00  0.000000D+00  0.000000D+00
     13   0.000000D+00  0.000000D+00  0.000000D+00  0.000000D+00  0.000000D+00
     14   0.000000D+00  0.000000D+00  0.000000D+00  0.000000D+00  0.000000D+00
     15   0.000000D+00  0.144591D-01  0.559756D-02  0.000000D+00  0.000000D+00
     16   0.000000D+00  0.000000D+00  0.000000D+00  0.293467D-02  0.000000D+00
     17   0.408403D-02  0.000000D+00  0.000000D+00  0.000000D+00  0.293467D-02
     18   0.000000D+00 -0.238252D-01 -0.896115D-02  0.000000D+00  0.000000D+00
     19   0.000000D+00  0.587220D-01  0.161732D-01  0.000000D+00  0.000000D+00
     20   0.000000D+00  0.000000D+00  0.000000D+00 -0.130438D-01  0.000000D+00
     21  -0.216689D-01  0.000000D+00  0.000000D+00  0.000000D+00 -0.130438D-01
     22   0.000000D+00  0.000000D+00  0.000000D+00  0.000000D+00  0.000000D+00
     23   0.000000D+00  0.000000D+00  0.000000D+00  0.000000D+00  0.000000D+00
     24   0.000000D+00  0.000000D+00  0.000000D+00  0.000000D+00  0.000000D+00
     25   0.000000D+00  0.000000D+00  0.000000D+00  0.000000D+00  0.000000D+00
     26   0.000000D+00  0.000000D+00  0.000000D+00  0.000000D+00  0.000000D+00
     27   0.339478D+00  0.000000D+00  0.000000D+00  0.000000D+00  0.000000D+00
     28   0.000000D+00  0.339478D+00  0.000000D+00  0.000000D+00  0.000000D+00
     29   0.000000D+00  0.000000D+00  0.000000D+00  0.000000D+00  0.000000D+00
     30   0.000000D+00  0.000000D+00  0.000000D+00  0.000000D+00  0.000000D+00
     31   0.100000D+01  0.000000D+00  0.000000D+00  0.000000D+00  0.000000D+00
     32   0.000000D+00  0.100000D+01  0.000000D+00  0.000000D+00  0.000000D+00
     33   0.000000D+00  0.000000D+00  0.100000D+01  0.000000D+00  0.000000D+00
     34   0.000000D+00  0.000000D+00  0.000000D+00  0.100000D+01  0.000000D+00
     35   0.000000D+00  0.000000D+00  0.000000D+00  0.000000D+00  0.100000D+01
     36   0.000000D+00  0.000000D+00  0.000000D+00  0.000000D+00  0.000000D+00
     37   0.000000D+00  0.000000D+00  0.000000D+00  0.000000D+00  0.000000D+00
     38   0.000000D+00  0.000000D+00  0.000000D+00  0.000000D+00  0.000000D+00
     39   0.000000D+00  0.000000D+00  0.000000D+00  0.000000D+00  0.000000D+00
     40   0.211028D+00  0.000000D+00  0.000000D+00  0.000000D+00  0.000000D+00
     41   0.000000D+00  0.211028D+00  0.000000D+00  0.000000D+00  0.000000D+00
     42   0.000000D+00  0.000000D+00  0.658109D-01  0.000000D+00  0.000000D+00
     43   0.000000D+00  0.000000D+00  0.000000D+00  0.658109D-01  0.000000D+00
     44   0.000000D+00  0.000000D+00  0.000000D+00  0.000000D+00  0.658109D-01
     45   0.000000D+00  0.000000D+00  0.000000D+00  0.000000D+00  0.000000D+00
     46   0.000000D+00  0.000000D+00  0.000000D+00  0.000000D+00  0.000000D+00
                36            37            38            39            40 
      1   0.000000D+00  0.000000D+00  0.519701D-03  0.000000D+00  0.000000D+00
      2   0.000000D+00  0.000000D+00  0.324410D-02  0.000000D+00  0.000000D+00
      3   0.000000D+00  0.000000D+00  0.000000D+00  0.225053D-03  0.000000D+00
      4   0.000000D+00  0.000000D+00  0.000000D+00  0.000000D+00  0.225053D-03
      5   0.000000D+00  0.000000D+00 -0.823729D-03  0.000000D+00  0.000000D+00
      6   0.000000D+00  0.000000D+00  0.205342D-01  0.000000D+00  0.000000D+00
      7   0.000000D+00  0.000000D+00  0.000000D+00  0.408403D-02  0.000000D+00
      8   0.000000D+00  0.000000D+00  0.000000D+00  0.000000D+00  0.408403D-02
      9   0.000000D+00  0.000000D+00 -0.144591D-01  0.000000D+00  0.000000D+00
     10   0.000000D+00  0.000000D+00  0.559756D-02  0.000000D+00  0.000000D+00
     11   0.000000D+00  0.000000D+00  0.000000D+00 -0.293467D-02  0.000000D+00
     12   0.000000D+00  0.000000D+00  0.000000D+00  0.000000D+00 -0.293467D-02
     13   0.000000D+00  0.000000D+00  0.000000D+00  0.000000D+00  0.000000D+00
     14   0.000000D+00  0.000000D+00  0.000000D+00  0.000000D+00  0.000000D+00
     15   0.000000D+00  0.000000D+00  0.212674D+00  0.000000D+00  0.000000D+00
     16   0.000000D+00  0.000000D+00  0.000000D+00  0.105492D+00  0.000000D+00
     17   0.000000D+00  0.000000D+00  0.000000D+00  0.000000D+00  0.105492D+00
     18   0.000000D+00  0.000000D+00 -0.276890D+00  0.000000D+00  0.000000D+00
     19   0.000000D+00  0.000000D+00  0.338497D+00  0.000000D+00  0.000000D+00
     20   0.000000D+00  0.000000D+00  0.000000D+00 -0.271684D+00  0.000000D+00
     21   0.000000D+00  0.000000D+00  0.000000D+00  0.000000D+00 -0.271684D+00
     22   0.228296D-02  0.000000D+00  0.000000D+00  0.000000D+00  0.000000D+00
     23   0.000000D+00  0.228296D-02  0.000000D+00  0.000000D+00  0.000000D+00
     24   0.000000D+00  0.000000D+00 -0.375498D-03  0.000000D+00  0.000000D+00
     25   0.000000D+00  0.000000D+00  0.437680D-02  0.000000D+00  0.000000D+00
     26   0.000000D+00  0.000000D+00  0.000000D+00  0.122886D-01  0.000000D+00
     27   0.000000D+00  0.000000D+00  0.000000D+00  0.000000D+00  0.122886D-01
     28   0.000000D+00  0.000000D+00  0.000000D+00  0.000000D+00  0.000000D+00
     29   0.000000D+00  0.000000D+00  0.194461D+00  0.000000D+00  0.000000D+00
     30   0.000000D+00  0.000000D+00  0.000000D+00  0.211028D+00  0.000000D+00
     31   0.000000D+00  0.000000D+00  0.000000D+00  0.000000D+00  0.211028D+00
     32   0.000000D+00  0.000000D+00  0.000000D+00  0.000000D+00  0.000000D+00
     33   0.000000D+00  0.000000D+00  0.000000D+00  0.000000D+00  0.000000D+00
     34   0.000000D+00  0.000000D+00  0.000000D+00  0.000000D+00  0.000000D+00
     35   0.000000D+00  0.000000D+00  0.000000D+00  0.000000D+00  0.000000D+00
     36   0.100000D+01  0.000000D+00  0.000000D+00  0.000000D+00  0.000000D+00
     37   0.000000D+00  0.100000D+01  0.000000D+00  0.000000D+00  0.000000D+00
     38   0.000000D+00  0.000000D+00  0.100000D+01  0.000000D+00  0.000000D+00
     39   0.000000D+00  0.000000D+00  0.000000D+00  0.100000D+01  0.000000D+00
     40   0.000000D+00  0.000000D+00  0.000000D+00  0.000000D+00  0.100000D+01
     41   0.000000D+00  0.000000D+00  0.000000D+00  0.000000D+00  0.000000D+00
     42   0.000000D+00  0.000000D+00  0.000000D+00  0.000000D+00  0.000000D+00
     43   0.000000D+00  0.000000D+00  0.000000D+00  0.000000D+00  0.000000D+00
     44   0.000000D+00  0.000000D+00  0.000000D+00  0.000000D+00  0.000000D+00
     45   0.658109D-01  0.000000D+00  0.000000D+00  0.000000D+00  0.000000D+00
     46   0.000000D+00  0.658109D-01  0.000000D+00  0.000000D+00  0.000000D+00
                41            42            43            44            45 
      1   0.970167D-03  0.328409D-02  0.000000D+00  0.000000D+00  0.000000D+00
      2   0.602315D-02  0.201627D-01  0.000000D+00  0.000000D+00  0.000000D+00
      3   0.000000D+00  0.000000D+00  0.130626D-02  0.000000D+00  0.000000D+00
      4   0.000000D+00  0.000000D+00  0.000000D+00  0.130626D-02  0.000000D+00
      5  -0.138017D-02 -0.391102D-02  0.000000D+00  0.000000D+00  0.000000D+00
      6   0.366376D-01  0.110396D+00  0.000000D+00  0.000000D+00  0.000000D+00
      7   0.000000D+00  0.000000D+00  0.216689D-01  0.000000D+00  0.000000D+00
      8   0.000000D+00  0.000000D+00  0.000000D+00  0.216689D-01  0.000000D+00
      9  -0.238252D-01 -0.587220D-01  0.000000D+00  0.000000D+00  0.000000D+00
     10   0.896115D-02  0.161732D-01  0.000000D+00  0.000000D+00  0.000000D+00
     11   0.000000D+00  0.000000D+00 -0.130438D-01  0.000000D+00  0.000000D+00
     12   0.000000D+00  0.000000D+00  0.000000D+00 -0.130438D-01  0.000000D+00
     13   0.000000D+00  0.000000D+00  0.000000D+00  0.000000D+00  0.228296D-02
     14   0.000000D+00  0.000000D+00  0.000000D+00  0.000000D+00  0.000000D+00
     15   0.276890D+00  0.338497D+00  0.000000D+00  0.000000D+00  0.000000D+00
     16   0.000000D+00  0.000000D+00  0.271684D+00  0.000000D+00  0.000000D+00
     17   0.000000D+00  0.000000D+00  0.000000D+00  0.271684D+00  0.000000D+00
     18  -0.338873D+00 -0.313806D+00  0.000000D+00  0.000000D+00  0.000000D+00
     19   0.313806D+00  0.898005D-01  0.000000D+00  0.000000D+00  0.000000D+00
     20   0.000000D+00  0.000000D+00 -0.428316D+00  0.000000D+00  0.000000D+00
     21   0.000000D+00  0.000000D+00  0.000000D+00 -0.428316D+00  0.000000D+00
     22   0.000000D+00  0.000000D+00  0.000000D+00  0.000000D+00  0.162921D+00
     23   0.000000D+00  0.000000D+00  0.000000D+00  0.000000D+00  0.000000D+00
     24   0.000000D+00  0.000000D+00  0.000000D+00  0.000000D+00  0.000000D+00
     25   0.000000D+00  0.000000D+00  0.000000D+00  0.000000D+00  0.000000D+00
     26   0.000000D+00  0.000000D+00  0.000000D+00  0.000000D+00  0.000000D+00
     27   0.000000D+00  0.000000D+00  0.000000D+00  0.000000D+00  0.000000D+00
     28   0.122886D-01  0.000000D+00  0.000000D+00  0.000000D+00  0.000000D+00
     29   0.000000D+00  0.000000D+00  0.000000D+00  0.000000D+00  0.000000D+00
     30   0.000000D+00  0.000000D+00  0.000000D+00  0.000000D+00  0.000000D+00
     31   0.000000D+00  0.000000D+00  0.000000D+00  0.000000D+00  0.000000D+00
     32   0.211028D+00  0.000000D+00  0.000000D+00  0.000000D+00  0.000000D+00
     33   0.000000D+00  0.658109D-01  0.000000D+00  0.000000D+00  0.000000D+00
     34   0.000000D+00  0.000000D+00  0.658109D-01  0.000000D+00  0.000000D+00
     35   0.000000D+00  0.000000D+00  0.000000D+00  0.658109D-01  0.000000D+00
     36   0.000000D+00  0.000000D+00  0.000000D+00  0.000000D+00  0.658109D-01
     37   0.000000D+00  0.000000D+00  0.000000D+00  0.000000D+00  0.000000D+00
     38   0.000000D+00  0.000000D+00  0.000000D+00  0.000000D+00  0.000000D+00
     39   0.000000D+00  0.000000D+00  0.000000D+00  0.000000D+00  0.000000D+00
     40   0.000000D+00  0.000000D+00  0.000000D+00  0.000000D+00  0.000000D+00
     41   0.100000D+01  0.000000D+00  0.000000D+00  0.000000D+00  0.000000D+00
     42   0.000000D+00  0.100000D+01  0.000000D+00  0.000000D+00  0.000000D+00
     43   0.000000D+00  0.000000D+00  0.100000D+01  0.000000D+00  0.000000D+00
     44   0.000000D+00  0.000000D+00  0.000000D+00  0.100000D+01  0.000000D+00
     45   0.000000D+00  0.000000D+00  0.000000D+00  0.000000D+00  0.100000D+01
     46   0.000000D+00  0.000000D+00  0.000000D+00  0.000000D+00  0.000000D+00
                46 
      1   0.000000D+00
      2   0.000000D+00
      3   0.000000D+00
      4   0.000000D+00
      5   0.000000D+00
      6   0.000000D+00
      7   0.000000D+00
      8   0.000000D+00
      9   0.000000D+00
     10   0.000000D+00
     11   0.000000D+00
     12   0.000000D+00
     13   0.000000D+00
     14   0.228296D-02
     15   0.000000D+00
     16   0.000000D+00
     17   0.000000D+00
     18   0.000000D+00
     19   0.000000D+00
     20   0.000000D+00
     21   0.000000D+00
     22   0.000000D+00
     23   0.162921D+00
     24   0.000000D+00
     25   0.000000D+00
     26   0.000000D+00
     27   0.000000D+00
     28   0.000000D+00
     29   0.000000D+00
     30   0.000000D+00
     31   0.000000D+00
     32   0.000000D+00
     33   0.000000D+00
     34   0.000000D+00
     35   0.000000D+00
     36   0.000000D+00
     37   0.658109D-01
     38   0.000000D+00
     39   0.000000D+00
     40   0.000000D+00
     41   0.000000D+00
     42   0.000000D+00
     43   0.000000D+00
     44   0.000000D+00
     45   0.000000D+00
     46   0.100000D+01
 Entering OneElI...
 Overlap between basis sets.
 Requested accuracy = 0.1000D-12
 PrsmSu:  NPrtUS=   1 ThrOK=F IAlg=1
 PRISM was handed  1609768229 working-precision words and   830 shell-pairs
 IPart=  0 NShTot=         830 NBatch=          83 AvBLen=        10.0
 CnvPC2: ToCart=F DoDens=F IPureD=0 IPureF=0.
 Transformed matrix in CnvPC2: 
                 1             2             3             4             5 
      1   0.999791D+00  0.410618D+00  0.000000D+00  0.000000D+00  0.000000D+00
      2   0.288662D+00  0.988505D+00  0.000000D+00  0.000000D+00  0.000000D+00
      3   0.000000D+00  0.000000D+00  0.999236D+00  0.000000D+00  0.000000D+00
      4   0.000000D+00  0.000000D+00  0.000000D+00  0.999236D+00  0.000000D+00
      5   0.000000D+00  0.000000D+00  0.000000D+00  0.000000D+00  0.999236D+00
      6   0.123383D-01  0.319356D+00  0.000000D+00  0.000000D+00  0.000000D+00
      7   0.000000D+00  0.000000D+00  0.343453D+00  0.000000D+00  0.000000D+00
      8   0.000000D+00  0.000000D+00  0.000000D+00  0.343453D+00  0.000000D+00
      9   0.000000D+00  0.000000D+00  0.000000D+00  0.000000D+00  0.343453D+00
     10   0.000000D+00  0.000000D+00  0.000000D+00  0.000000D+00  0.000000D+00
     11   0.000000D+00  0.000000D+00  0.000000D+00  0.000000D+00  0.000000D+00
     12   0.000000D+00  0.000000D+00  0.000000D+00  0.000000D+00  0.000000D+00
     13   0.000000D+00  0.000000D+00  0.000000D+00  0.000000D+00  0.000000D+00
     14   0.000000D+00  0.000000D+00  0.000000D+00  0.000000D+00  0.000000D+00
     15   0.309531D-03  0.137849D-01  0.000000D+00  0.000000D+00  0.000000D+00
     16   0.402334D-02  0.246122D-01  0.000000D+00  0.000000D+00  0.000000D+00
     17   0.000000D+00  0.000000D+00  0.733716D-02  0.000000D+00  0.000000D+00
     18   0.000000D+00  0.000000D+00  0.000000D+00  0.733716D-02  0.000000D+00
     19   0.000000D+00  0.000000D+00  0.000000D+00  0.000000D+00  0.733716D-02
     20   0.000000D+00  0.000000D+00  0.972018D-03  0.000000D+00  0.000000D+00
     21   0.000000D+00  0.000000D+00  0.000000D+00  0.972018D-03  0.000000D+00
     22   0.000000D+00  0.000000D+00  0.000000D+00  0.000000D+00  0.972018D-03
     23   0.109949D+00  0.552190D+00  0.000000D+00  0.000000D+00  0.000000D+00
     24   0.673045D-01  0.370860D+00  0.000000D+00  0.000000D+00  0.000000D+00
     25   0.409446D-01  0.237407D+00  0.000000D+00  0.000000D+00  0.000000D+00
     26   0.248284D-01  0.147912D+00  0.000000D+00  0.000000D+00  0.000000D+00
     27   0.150307D-01  0.908173D-01  0.000000D+00  0.000000D+00  0.000000D+00
     28   0.000000D+00  0.000000D+00  0.146483D+00  0.000000D+00  0.000000D+00
     29   0.000000D+00  0.000000D+00  0.000000D+00  0.146483D+00  0.000000D+00
     30   0.000000D+00  0.000000D+00  0.000000D+00  0.000000D+00  0.146483D+00
     31   0.000000D+00  0.000000D+00  0.783027D-01  0.000000D+00  0.000000D+00
     32   0.000000D+00  0.000000D+00  0.000000D+00  0.783027D-01  0.000000D+00
     33   0.000000D+00  0.000000D+00  0.000000D+00  0.000000D+00  0.783027D-01
     34   0.000000D+00  0.000000D+00  0.405010D-01  0.000000D+00  0.000000D+00
     35   0.000000D+00  0.000000D+00  0.000000D+00  0.405010D-01  0.000000D+00
     36   0.000000D+00  0.000000D+00  0.000000D+00  0.000000D+00  0.405010D-01
     37   0.000000D+00  0.000000D+00  0.205354D-01  0.000000D+00  0.000000D+00
     38   0.000000D+00  0.000000D+00  0.000000D+00  0.205354D-01  0.000000D+00
     39   0.000000D+00  0.000000D+00  0.000000D+00  0.000000D+00  0.205354D-01
     40   0.000000D+00  0.000000D+00  0.102908D-01  0.000000D+00  0.000000D+00
     41   0.000000D+00  0.000000D+00  0.000000D+00  0.102908D-01  0.000000D+00
     42   0.000000D+00  0.000000D+00  0.000000D+00  0.000000D+00  0.102908D-01
     43   0.000000D+00  0.000000D+00  0.000000D+00  0.000000D+00  0.000000D+00
     44   0.000000D+00  0.000000D+00  0.000000D+00  0.000000D+00  0.000000D+00
     45   0.000000D+00  0.000000D+00  0.000000D+00  0.000000D+00  0.000000D+00
     46   0.000000D+00  0.000000D+00  0.000000D+00  0.000000D+00  0.000000D+00
     47   0.000000D+00  0.000000D+00  0.000000D+00  0.000000D+00  0.000000D+00
     48   0.000000D+00  0.000000D+00  0.000000D+00  0.000000D+00  0.000000D+00
     49   0.000000D+00  0.000000D+00  0.000000D+00  0.000000D+00  0.000000D+00
     50   0.000000D+00  0.000000D+00  0.000000D+00  0.000000D+00  0.000000D+00
     51   0.000000D+00  0.000000D+00  0.000000D+00  0.000000D+00  0.000000D+00
     52   0.000000D+00  0.000000D+00  0.000000D+00  0.000000D+00  0.000000D+00
     53   0.000000D+00  0.000000D+00  0.000000D+00  0.000000D+00  0.000000D+00
     54   0.000000D+00  0.000000D+00  0.000000D+00  0.000000D+00  0.000000D+00
     55   0.000000D+00  0.000000D+00  0.000000D+00  0.000000D+00  0.000000D+00
     56   0.000000D+00  0.000000D+00  0.000000D+00  0.000000D+00  0.000000D+00
     57   0.000000D+00  0.000000D+00  0.000000D+00  0.000000D+00  0.000000D+00
     58   0.000000D+00  0.000000D+00  0.000000D+00  0.000000D+00  0.000000D+00
     59   0.000000D+00  0.000000D+00  0.000000D+00  0.000000D+00  0.000000D+00
     60   0.000000D+00  0.000000D+00  0.000000D+00  0.000000D+00  0.000000D+00
     61   0.000000D+00  0.000000D+00  0.000000D+00  0.000000D+00  0.000000D+00
     62   0.000000D+00  0.000000D+00  0.000000D+00  0.000000D+00  0.000000D+00
     63   0.000000D+00  0.000000D+00  0.000000D+00  0.000000D+00  0.000000D+00
     64   0.000000D+00  0.000000D+00  0.000000D+00  0.000000D+00  0.000000D+00
     65   0.000000D+00  0.000000D+00  0.000000D+00  0.000000D+00  0.000000D+00
     66   0.000000D+00  0.000000D+00  0.000000D+00  0.000000D+00  0.000000D+00
     67   0.000000D+00  0.000000D+00  0.000000D+00  0.000000D+00  0.000000D+00
     68   0.000000D+00  0.000000D+00  0.000000D+00  0.000000D+00  0.000000D+00
     69   0.000000D+00  0.000000D+00  0.000000D+00  0.000000D+00  0.000000D+00
     70   0.000000D+00  0.000000D+00  0.000000D+00  0.000000D+00  0.000000D+00
     71   0.000000D+00  0.000000D+00  0.000000D+00  0.000000D+00  0.000000D+00
     72   0.000000D+00  0.000000D+00  0.000000D+00  0.000000D+00  0.000000D+00
     73   0.000000D+00  0.000000D+00  0.000000D+00  0.000000D+00  0.000000D+00
     74   0.000000D+00  0.000000D+00  0.000000D+00  0.000000D+00  0.000000D+00
     75   0.000000D+00  0.000000D+00  0.000000D+00  0.000000D+00  0.000000D+00
     76   0.000000D+00  0.000000D+00  0.000000D+00  0.000000D+00  0.000000D+00
     77   0.000000D+00  0.000000D+00  0.000000D+00  0.000000D+00  0.000000D+00
     78   0.000000D+00  0.000000D+00  0.000000D+00  0.000000D+00  0.000000D+00
     79   0.000000D+00  0.000000D+00  0.000000D+00  0.000000D+00  0.000000D+00
     80   0.000000D+00  0.000000D+00  0.000000D+00  0.000000D+00  0.000000D+00
     81   0.000000D+00  0.000000D+00  0.000000D+00  0.000000D+00  0.000000D+00
     82   0.000000D+00  0.000000D+00  0.000000D+00  0.000000D+00  0.000000D+00
     83   0.000000D+00  0.000000D+00  0.000000D+00  0.000000D+00  0.000000D+00
     84   0.000000D+00  0.000000D+00  0.000000D+00  0.000000D+00  0.000000D+00
     85   0.000000D+00  0.000000D+00  0.000000D+00  0.000000D+00  0.000000D+00
     86   0.000000D+00  0.000000D+00  0.000000D+00  0.000000D+00  0.000000D+00
     87   0.000000D+00  0.000000D+00  0.000000D+00  0.000000D+00  0.000000D+00
     88   0.000000D+00  0.000000D+00  0.000000D+00  0.000000D+00  0.000000D+00
     89   0.000000D+00  0.000000D+00  0.000000D+00  0.000000D+00  0.000000D+00
     90   0.000000D+00  0.000000D+00  0.000000D+00  0.000000D+00  0.000000D+00
     91   0.000000D+00  0.000000D+00  0.000000D+00  0.000000D+00  0.000000D+00
     92   0.000000D+00  0.000000D+00  0.000000D+00  0.000000D+00  0.000000D+00
     93   0.000000D+00  0.000000D+00  0.000000D+00  0.000000D+00  0.000000D+00
     94   0.000000D+00  0.000000D+00  0.000000D+00  0.000000D+00  0.000000D+00
     95   0.000000D+00  0.000000D+00  0.000000D+00  0.000000D+00  0.000000D+00
     96   0.000000D+00  0.000000D+00  0.000000D+00  0.000000D+00  0.000000D+00
     97   0.000000D+00  0.000000D+00  0.000000D+00  0.000000D+00  0.000000D+00
     98   0.000000D+00  0.000000D+00  0.000000D+00  0.000000D+00  0.000000D+00
     99   0.000000D+00  0.000000D+00  0.000000D+00  0.000000D+00  0.000000D+00
    100   0.000000D+00  0.000000D+00  0.000000D+00  0.000000D+00  0.000000D+00
    101   0.000000D+00  0.000000D+00  0.000000D+00  0.000000D+00  0.000000D+00
    102   0.000000D+00  0.000000D+00  0.000000D+00  0.000000D+00  0.000000D+00
    103   0.000000D+00  0.000000D+00  0.000000D+00  0.000000D+00  0.000000D+00
    104   0.000000D+00  0.000000D+00  0.000000D+00  0.000000D+00  0.000000D+00
    105   0.000000D+00  0.000000D+00  0.000000D+00  0.000000D+00  0.000000D+00
    106   0.000000D+00  0.000000D+00  0.000000D+00  0.000000D+00  0.000000D+00
    107   0.000000D+00  0.000000D+00  0.000000D+00  0.000000D+00  0.000000D+00
    108   0.000000D+00  0.000000D+00  0.000000D+00  0.000000D+00  0.000000D+00
    109   0.000000D+00  0.000000D+00  0.000000D+00  0.000000D+00  0.000000D+00
    110   0.000000D+00  0.000000D+00  0.000000D+00  0.000000D+00  0.000000D+00
    111   0.000000D+00  0.000000D+00  0.000000D+00  0.000000D+00  0.000000D+00
    112   0.000000D+00  0.000000D+00  0.000000D+00  0.000000D+00  0.000000D+00
    113   0.000000D+00  0.000000D+00  0.000000D+00  0.000000D+00  0.000000D+00
    114   0.000000D+00  0.000000D+00  0.000000D+00  0.000000D+00  0.000000D+00
    115   0.000000D+00  0.000000D+00  0.000000D+00  0.000000D+00  0.000000D+00
    116   0.000000D+00  0.000000D+00  0.000000D+00  0.000000D+00  0.000000D+00
    117   0.000000D+00  0.000000D+00  0.000000D+00  0.000000D+00  0.000000D+00
    118   0.000000D+00  0.000000D+00  0.000000D+00  0.000000D+00  0.000000D+00
    119   0.000000D+00  0.000000D+00  0.000000D+00  0.000000D+00  0.000000D+00
    120   0.000000D+00  0.000000D+00  0.000000D+00  0.000000D+00  0.000000D+00
    121   0.000000D+00  0.000000D+00  0.000000D+00  0.000000D+00  0.000000D+00
    122   0.000000D+00  0.000000D+00  0.000000D+00  0.000000D+00  0.000000D+00
    123   0.000000D+00  0.000000D+00  0.000000D+00  0.000000D+00  0.000000D+00
    124   0.000000D+00  0.000000D+00  0.000000D+00  0.000000D+00  0.000000D+00
    125   0.000000D+00  0.000000D+00  0.000000D+00  0.000000D+00  0.000000D+00
    126   0.000000D+00  0.000000D+00  0.000000D+00  0.000000D+00  0.000000D+00
    127   0.000000D+00  0.000000D+00  0.000000D+00  0.000000D+00  0.000000D+00
    128   0.000000D+00  0.000000D+00  0.000000D+00  0.000000D+00  0.000000D+00
    129   0.000000D+00  0.000000D+00  0.000000D+00  0.000000D+00  0.000000D+00
    130   0.000000D+00  0.000000D+00  0.000000D+00  0.000000D+00  0.000000D+00
    131   0.000000D+00  0.000000D+00  0.000000D+00  0.000000D+00  0.000000D+00
    132   0.000000D+00  0.000000D+00  0.000000D+00  0.000000D+00  0.000000D+00
    133   0.000000D+00  0.000000D+00  0.000000D+00  0.000000D+00  0.000000D+00
    134   0.000000D+00  0.000000D+00  0.000000D+00  0.000000D+00  0.000000D+00
    135   0.000000D+00  0.000000D+00  0.000000D+00  0.000000D+00  0.000000D+00
    136   0.000000D+00  0.000000D+00  0.000000D+00  0.000000D+00  0.000000D+00
    137   0.000000D+00  0.000000D+00  0.000000D+00  0.000000D+00  0.000000D+00
    138   0.000000D+00  0.000000D+00  0.000000D+00  0.000000D+00  0.000000D+00
    139   0.000000D+00  0.000000D+00  0.000000D+00  0.000000D+00  0.000000D+00
    140   0.000000D+00  0.000000D+00  0.000000D+00  0.000000D+00  0.000000D+00
    141   0.000000D+00  0.000000D+00  0.000000D+00  0.000000D+00  0.000000D+00
    142   0.000000D+00  0.000000D+00  0.000000D+00  0.000000D+00  0.000000D+00
    143   0.000000D+00  0.000000D+00  0.000000D+00  0.000000D+00  0.000000D+00
    144   0.000000D+00  0.000000D+00  0.000000D+00  0.000000D+00  0.000000D+00
    145   0.000000D+00  0.000000D+00  0.000000D+00  0.000000D+00  0.000000D+00
    146   0.000000D+00  0.000000D+00  0.000000D+00  0.000000D+00  0.000000D+00
    147   0.000000D+00  0.000000D+00  0.000000D+00  0.000000D+00  0.000000D+00
    148   0.000000D+00  0.000000D+00  0.000000D+00  0.000000D+00  0.000000D+00
    149   0.000000D+00  0.000000D+00  0.000000D+00  0.000000D+00  0.000000D+00
    150   0.000000D+00  0.000000D+00  0.000000D+00  0.000000D+00  0.000000D+00
    151   0.000000D+00  0.000000D+00  0.000000D+00  0.000000D+00  0.000000D+00
    152   0.000000D+00  0.000000D+00  0.000000D+00  0.000000D+00  0.000000D+00
    153   0.000000D+00  0.000000D+00  0.000000D+00  0.000000D+00  0.000000D+00
    154   0.000000D+00  0.000000D+00  0.000000D+00  0.000000D+00  0.000000D+00
    155   0.000000D+00  0.000000D+00  0.000000D+00  0.000000D+00  0.000000D+00
    156   0.000000D+00  0.000000D+00  0.000000D+00  0.000000D+00  0.000000D+00
    157   0.000000D+00  0.000000D+00  0.000000D+00  0.000000D+00  0.000000D+00
    158   0.000000D+00  0.000000D+00  0.000000D+00  0.000000D+00  0.000000D+00
    159   0.000000D+00  0.000000D+00  0.000000D+00  0.000000D+00  0.000000D+00
    160   0.000000D+00  0.000000D+00  0.000000D+00  0.000000D+00  0.000000D+00
    161   0.000000D+00  0.000000D+00  0.000000D+00  0.000000D+00  0.000000D+00
    162   0.000000D+00  0.000000D+00  0.000000D+00  0.000000D+00  0.000000D+00
    163   0.000000D+00  0.000000D+00  0.000000D+00  0.000000D+00  0.000000D+00
    164   0.000000D+00  0.000000D+00  0.000000D+00  0.000000D+00  0.000000D+00
    165   0.000000D+00  0.000000D+00  0.000000D+00  0.000000D+00  0.000000D+00
    166   0.111746D-05  0.717319D-05  0.000000D+00  0.000000D+00 -0.250148D-05
    167   0.263043D-04  0.166037D-03  0.000000D+00  0.000000D+00 -0.482272D-04
    168   0.000000D+00  0.000000D+00  0.107287D-04  0.000000D+00  0.000000D+00
    169   0.000000D+00  0.000000D+00  0.000000D+00  0.107287D-04  0.000000D+00
    170   0.000000D+00  0.000000D+00  0.000000D+00  0.000000D+00  0.000000D+00
    171   0.000000D+00  0.000000D+00  0.000000D+00  0.000000D+00  0.000000D+00
    172   0.706791D-03  0.436824D-02  0.000000D+00  0.000000D+00 -0.738475D-03
    173   0.211836D-02  0.129731D-01  0.000000D+00  0.000000D+00 -0.621717D-03
    174   0.000000D+00  0.000000D+00  0.549192D-03  0.000000D+00  0.000000D+00
    175   0.000000D+00  0.000000D+00  0.000000D+00  0.549192D-03  0.000000D+00
    176   0.239174D-02  0.146826D-01  0.000000D+00  0.000000D+00 -0.175455D-02
    177   0.000000D+00  0.000000D+00  0.614157D-03  0.000000D+00  0.000000D+00
    178   0.000000D+00  0.000000D+00  0.000000D+00  0.614157D-03  0.000000D+00
    179   0.268302D-02  0.164140D-01  0.000000D+00  0.000000D+00  0.502087D-04
    180   0.000000D+00  0.000000D+00  0.000000D+00  0.000000D+00  0.000000D+00
    181   0.000000D+00  0.000000D+00  0.000000D+00  0.000000D+00  0.000000D+00
    182   0.000000D+00  0.000000D+00  0.000000D+00  0.000000D+00  0.000000D+00
    183   0.171683D-04  0.117691D-03  0.000000D+00  0.000000D+00 -0.623019D-04
    184   0.363440D-03  0.227867D-02  0.000000D+00  0.000000D+00 -0.627539D-03
    185   0.000000D+00  0.000000D+00  0.000000D+00  0.000000D+00  0.000000D+00
    186   0.000000D+00  0.000000D+00  0.000000D+00  0.000000D+00  0.000000D+00
    187   0.000000D+00  0.000000D+00  0.000000D+00  0.000000D+00  0.000000D+00
    188   0.000000D+00  0.000000D+00  0.000000D+00  0.000000D+00  0.000000D+00
    189   0.000000D+00  0.000000D+00  0.000000D+00  0.000000D+00  0.000000D+00
    190   0.000000D+00  0.000000D+00  0.000000D+00  0.000000D+00  0.000000D+00
    191   0.000000D+00  0.000000D+00  0.371452D-05  0.000000D+00  0.000000D+00
    192   0.000000D+00  0.000000D+00  0.000000D+00  0.371452D-05  0.000000D+00
    193   0.137966D-04  0.100863D-03  0.000000D+00  0.000000D+00 -0.653211D-04
    194   0.000000D+00  0.000000D+00  0.983266D-04  0.000000D+00  0.000000D+00
    195   0.000000D+00  0.000000D+00  0.000000D+00  0.983266D-04  0.000000D+00
    196   0.412690D-03  0.263875D-02  0.000000D+00  0.000000D+00 -0.952027D-03
    197   0.000000D+00  0.000000D+00  0.485391D-03  0.000000D+00  0.000000D+00
    198   0.000000D+00  0.000000D+00  0.000000D+00  0.485391D-03  0.000000D+00
    199   0.210674D-02  0.129814D-01  0.000000D+00  0.000000D+00 -0.247937D-02
    200   0.000000D+00  0.000000D+00  0.000000D+00  0.000000D+00  0.000000D+00
    201   0.000000D+00  0.000000D+00  0.000000D+00  0.000000D+00  0.000000D+00
    202   0.000000D+00  0.000000D+00  0.000000D+00  0.000000D+00  0.000000D+00
    203   0.000000D+00  0.000000D+00  0.000000D+00  0.000000D+00  0.000000D+00
    204   0.000000D+00  0.000000D+00  0.000000D+00  0.000000D+00  0.000000D+00
    205   0.000000D+00  0.104552D-05  0.000000D+00  0.000000D+00 -0.112418D-05
    206   0.000000D+00  0.000000D+00  0.000000D+00  0.000000D+00  0.000000D+00
    207   0.000000D+00  0.000000D+00  0.000000D+00  0.000000D+00  0.000000D+00
    208   0.000000D+00  0.000000D+00  0.000000D+00  0.000000D+00  0.000000D+00
    209   0.000000D+00  0.000000D+00  0.000000D+00  0.000000D+00  0.000000D+00
    210   0.111943D-03  0.767241D-03  0.000000D+00  0.000000D+00 -0.415694D-03
    211   0.000000D+00  0.000000D+00  0.492115D-04  0.000000D+00  0.000000D+00
    212   0.000000D+00  0.000000D+00  0.000000D+00  0.492115D-04  0.000000D+00
    213   0.000000D+00  0.000000D+00  0.000000D+00  0.000000D+00  0.000000D+00
    214   0.000000D+00  0.000000D+00  0.000000D+00  0.000000D+00  0.000000D+00
[...]
   31    | -0.005755 -0.005875 -0.021791 -0.000124
   31    | -0.005755 -0.005875  0.000000 -0.000124
         |
   32    | -0.005755 -0.005875 -0.000193 -0.021791
   32    | -0.005755 -0.005875 -0.000193  0.000000
         |

                     Sum of ab pair energies =    -0.117155 A.U.
                     Sum of ba pair energies =    -0.033175 A.U.
                     Sum of aa pair energies =    -0.015409 A.U.
                     Sum of bb pair energies =    -0.015409 A.U.

           Sum of intraorbital pair energies =    -0.083980 A.U.
           Sum of interorbital pair energies =    -0.097166 A.U.
                                                  ----------
                         Total pair energies =    -0.181146 A.U.

                         Single Excitations  =     0.000000 A.U.

                          Total second order =    -0.181146 A.U.


                      Overlap Factors
                      ---------------

 AB - AA |     29        30        31        32
 BA - BB |     29        30        31        32
--------------------------------------------------
   29    |  1.000000  0.343096  0.322165  0.322165
   29    |  0.000000  0.343096  0.322165  0.322165
         |
   30    |  0.420176  1.000000  0.321382  0.321382
   30    |  0.420176  0.000000  0.321382  0.321382
         |
   31    |  0.297544  0.295483  1.000000  0.011615
   31    |  0.297544  0.295483  0.000000  0.011615
         |
   32    |  0.297544  0.295483  0.005876  1.000000
   32    |  0.297544  0.295483  0.005876  0.000000
         |

                    Interference Factors
                    --------------------

 AB - AA |     29        30        31        32
 BA - BB |     29        30        31        32
--------------------------------------------------
   29    |  0.244620  0.640975  0.807506  0.807506
   29    |  0.000000  0.640975  0.807506  0.807506
         |
   30    |  0.398222  0.133362  0.779513  0.779513
   30    |  0.398222  0.000000  0.779513  0.779513
         |
   31    |  0.542718  0.525669  0.282201  0.947382
   31    |  0.542718  0.525669  0.000000  0.947382
         |
   32    |  0.542718  0.525669  0.902270  0.282201
   32    |  0.542718  0.525669  0.902270  0.000000
         |

          Overlap/Interference Sums
          -------------------------

                                      Alpha        Beta
          Overlap                     7.2539      3.2539
          Interference                9.1420      8.1997
          Overlap*Interference        3.0009      2.0585
          Intra-orbital Ovlp*Inf      0.9424      0.0000

              Number of PNO for a Closed Shell
              --------------------------------

 AB - AA |      29        30        31        32
 BA - BB |      29        30        31        32
--------------------------------------------------
   29    |      20        20        20        20
   29    |       0        20        20        20
         |
   30    |      20        20        20        20
   30    |      20         0        20        20
         |
   31    |      20        20        20        20
   31    |      20        20         0        20
         |
   32    |      20        20        20        20
   32    |      20        20        20         0
         |

                   MP2(N) Pair Energies
                   --------------------

 AB - AA |     29        30        31        32
 BA - BB |     29        30        31        32
--------------------------------------------------
   29    | -0.018295 -0.005968 -0.002136 -0.002136
   29    |  0.000000 -0.005968 -0.002136 -0.002136
         |
   30    | -0.009045 -0.019064 -0.002446 -0.002446
   30    | -0.009045  0.000000 -0.002446 -0.002446
         |
   31    | -0.005295 -0.005421 -0.020242 -0.000122
   31    | -0.005295 -0.005421  0.000000 -0.000122
         |
   32    | -0.005295 -0.005421 -0.000183 -0.020242
   32    | -0.005295 -0.005421 -0.000183  0.000000
         |

                     Delta Factors
                     -------------

 AB - AA |     29        30        31        32
 BA - BB |     29        30        31        32
--------------------------------------------------
   29    |  1.372683  0.838009  2.232618  2.232618
   29    |  0.000000  0.838009  2.232618  2.232618
         |
   30    |  1.047603  1.286181  1.984072  1.984072
   30    |  1.047603  0.000000  1.984072  1.984072
         |
   31    |  1.432216  1.366786  1.165467  1.468277
   31    |  1.432216  1.366786  0.000000  1.468277
         |
   32    |  1.432216  1.366786  0.454213  1.165467
   32    |  1.432216  1.366786  0.454213  0.000000
         |

                   MP2(CBS) Pair Energies
                   ----------------------

 AB - AA |     29        30        31        32
 BA - BB |     29        30        31        32
--------------------------------------------------
   29    | -0.020579 -0.006074 -0.002226 -0.002226
   29    |  0.000000 -0.006074 -0.002226 -0.002226
         |
   30    | -0.010020 -0.021358 -0.002537 -0.002537
   30    | -0.010020  0.000000 -0.002537 -0.002537
         |
   31    | -0.005973 -0.006096 -0.022549 -0.000126
   31    | -0.005973 -0.006096  0.000000 -0.000126
         |
   32    | -0.005973 -0.006096 -0.000197 -0.022549
   32    | -0.005973 -0.006096 -0.000197  0.000000
         |

                     Sum of ab pair energies =    -0.121390 A.U.
                     Sum of ba pair energies =    -0.034356 A.U.
                     Sum of aa pair energies =    -0.015726 A.U.
                     Sum of bb pair energies =    -0.015726 A.U.

           Sum of intraorbital pair energies =    -0.087034 A.U.
           Sum of interorbital pair energies =    -0.100164 A.U.
                                                  ----------
                         Total pair energies =    -0.187198 A.U.

                         Single Excitations  =     0.000000 A.U.

                          Total second order =    -0.187198 A.U.



            MP2(CBS) (With Interference Correction) 
            ---------------------------------------

 AB - AA |     29        30        31        32
 BA - BB |     29        30        31        32
--------------------------------------------------
   29    | -0.019987 -0.006061 -0.002212 -0.002212
   29    |  0.000000 -0.006061 -0.002212 -0.002212
         |
   30    | -0.009839 -0.020703 -0.002522 -0.002522
   30    | -0.009839  0.000000 -0.002522 -0.002522
         |
   31    | -0.005874 -0.005991 -0.022005 -0.000126
   31    | -0.005874 -0.005991  0.000000 -0.000126
         |
   32    | -0.005874 -0.005991 -0.000197 -0.022005
   32    | -0.005874 -0.005991 -0.000197  0.000000
         |

                     Sum of ab pair energies =    -0.118466 A.U.
                     Sum of ba pair energies =    -0.033766 A.U.
                     Sum of aa pair energies =    -0.015655 A.U.
                     Sum of bb pair energies =    -0.015655 A.U.

           Sum of intraorbital pair energies =    -0.084700 A.U.
           Sum of interorbital pair energies =    -0.098843 A.U.
                                                  ----------
                         Total pair energies =    -0.183543 A.U.

                         Single Excitations  =     0.000000 A.U.

                          Total second order =    -0.183543 A.U.

                         E2(CBS) - E2(Dir) =      -0.006052 A.U.

 E2(CBS)=      -0.187198 CBS-Int=       0.003655 OIii=       0.942385

 **********************************************************************

            Population analysis using the SCF density.

 **********************************************************************

 Orbital symmetries:
       Occupied  (SGG) (SGU) (SGG) (SGU) (PIG) (PIU) (PIG) (PIU)
                 (SGU) (SGG) (SGG) (SGU) (PIU) (PIG) (PIU) (PIG)
                 (SGG) (SGU) (?A) (?B) (?A) (?B) (PIU) (PIG) (?A)
                 (PIU) (PIG) (?B) (SGG) (SGU) (SGG) (?C)
       Virtual   (?C) (?D) (?D) (SGU) (SGG) (?C) (?C) (SGG) (?D)
                 (?D) (SGU) (?E) (?F) (?F) (?C) (?F) (?C) (?C)
                 (?E) (?C) (?E) (?F) (PIG) (PIG) (?E) (?E) (PIG)
                 (PIG) (?G) (?H) (?H) (?G) (?G) (?H) (?H) (?H)
                 (?H) (?H) (?G) (?G) (?G) (?H) (?H) (?H) (?H) (PIU)
                 (PIU) (?G) (PIG) (PIG) (?H) (PIU) (?H) (PIU) (?H)
                 (?H) (PIG) (SGG) (PIG) (?H) (SGU) (?H) (?H) (?H)
                 (?H) (?H) (?H) (?H) (?H) (?H) (?H) (?H) (?H) (PHIG)
                 (PHIG) (?H) (?H) (?H) (?H) (?H) (?H) (?H) (?H)
                 (PIU) (?H) (?H) (PIU) (?H) (?H) (?H) (?H) (?H)
                 (?H) (PIG) (PIG) (?H) (PIU) (?H) (?H) (PIU) (?H)
                 (PIU) (PIU) (PIG) (SGG) (PIG) (?H) (?H) (PIG)
                 (?H) (PIG) (?H) (?H) (?H) (?H) (?H) (?H) (?H)
                 (?H) (?H) (?H) (?H) (?H) (?H) (?H) (?H) (?H) (?H)
                 (?H) (?H) (?H) (?H) (?H) (?H) (?H) (?H) (?H) (?H)
                 (?H) (?H) (?H) (?H) (?H) (?H) (?H) (?H) (?H) (?H)
                 (?H) (?H) (?H) (?H) (?H) (?H) (?H) (?H) (?H) (PIU)
                 (?H) (?H) (PIU) (?H) (PIG) (PIG) (?H) (?H) (?H)
                 (?H) (?H) (?H) (PIU) (PIU) (PIG) (PIG) (SGG) (PIU)
                 (PIU) (?H) (?H) (?H) (?H) (PIG) (PIG) (?H) (?H)
                 (?H) (?H) (?H) (?H) (?H) (?H) (?H) (?H) (?H) (?H)
                 (?H) (?H) (?H) (?H) (?H) (?H) (PHIG) (PHIG) (?H)
                 (?H) (?H) (?H) (?H) (PIU) (PIU) (?H) (?H) (?H)
                 (?H) (?H) (?H) (?H) (?H) (?H) (?H) (?H) (?H) (?H)
                 (?H) (?H) (?H) (?H) (?H) (?H) (?H) (?H) (?H) (?H)
                 (?H) (?H) (?H) (?H) (PHIU) (PHIU) (?H) (?H) (?H)
                 (?H) (?H) (?H) (PHIG) (PHIG) (?H) (?H) (?H) (PIU)
                 (PIU) (PIG) (PIG) (PIU) (?H) (?H) (PIU) (SGG)
                 (SGU) (PIG) (PIG) (DLTG) (DLTG) (DLTU) (DLTU)
                 (PIU) (PIU) (SGG) (PIG) (PIG) (SGU) (SGG) (PIU)
                 (PIU) (PIG) (SGU) (PIG) (SGG) (SGU) (SGU) (SGG)
 Unable to determine electronic state:  an orbital has unidentified symmetry.
 Alpha  occ. eigenvalues -- -405.24737-405.24737 -52.15319 -52.15318 -46.24046
 Alpha  occ. eigenvalues --  -46.24046 -46.23906 -46.23906 -46.23816 -46.23816
 Alpha  occ. eigenvalues --   -7.19403  -7.19396  -5.16993  -5.16987  -5.16414
 Alpha  occ. eigenvalues --   -5.16408  -5.16167  -5.16126  -1.64601  -1.64448
 Alpha  occ. eigenvalues --   -1.64360  -1.64312  -1.64100  -1.63780  -1.63595
 Alpha  occ. eigenvalues --   -1.63404  -1.63059  -1.62876  -0.66691  -0.49525
 Alpha  occ. eigenvalues --   -0.28565  -0.25501
 Alpha virt. eigenvalues --   -0.04490   0.02038   0.03361   0.03857   0.05422
 Alpha virt. eigenvalues --    0.05661   0.05823   0.06883   0.08562   0.08848
 Alpha virt. eigenvalues --    0.12604   0.15631   0.20287   0.20356   0.24367
 Alpha virt. eigenvalues --    0.24480   0.24694   0.27608   0.29147   0.29150
 Alpha virt. eigenvalues --    0.29245   0.30454   0.30685   0.31469   0.32147
 Alpha virt. eigenvalues --    0.38842   0.38932   0.40438   0.41452   0.50239
 Alpha virt. eigenvalues --    0.50242   0.53725   0.53766   0.58902   0.59926
 Alpha virt. eigenvalues --    0.59929   0.60295   0.62030   0.65283   0.65965
 Alpha virt. eigenvalues --    0.66176   0.71732   0.71781   0.73989   0.74268
 Alpha virt. eigenvalues --    0.74344   0.76412   0.77062   0.77194   0.78782
 Alpha virt. eigenvalues --    0.79020   0.79710   0.80505   0.81820   0.82429
 Alpha virt. eigenvalues --    0.89998   0.99878   1.01112   1.02165   1.05346
 Alpha virt. eigenvalues --    1.05884   1.14341   1.14348   1.16163   1.16164
 Alpha virt. eigenvalues --    1.18694   1.18758   1.23695   1.25182   1.25182
 Alpha virt. eigenvalues --    1.26122   1.27600   1.27692   1.32753   1.32755
 Alpha virt. eigenvalues --    1.37454   1.39075   1.39115   1.42652   1.42657
 Alpha virt. eigenvalues --    1.44282   1.44789   1.47779   1.57094   1.58568
 Alpha virt. eigenvalues --    1.59000   1.59243   1.60545   1.61761   1.62657
 Alpha virt. eigenvalues --    1.63035   1.63643   1.63702   1.67273   1.70020
 Alpha virt. eigenvalues --    1.75948   1.76075   1.76760   1.76891   1.78717
 Alpha virt. eigenvalues --    1.83944   1.92349   1.95253   1.96605   1.98216
 Alpha virt. eigenvalues --    1.99194   2.17048   2.17048   2.17836   2.19207
 Alpha virt. eigenvalues --    2.20896   2.21379   2.21383   2.24756   2.24756
 Alpha virt. eigenvalues --    2.29822   2.29822   2.39437   2.39557   2.43640
 Alpha virt. eigenvalues --    2.44096   2.44096   2.46616   2.52480   2.63913
 Alpha virt. eigenvalues --    2.63916   2.65332   2.65339   2.68660   2.68683
 Alpha virt. eigenvalues --    2.69676   2.71976   2.72202   2.76893   2.76904
 Alpha virt. eigenvalues --    2.83640   2.83939   2.84248   2.84250   2.84570
 Alpha virt. eigenvalues --    2.85491   2.85498   2.86483   2.88961   2.88961
 Alpha virt. eigenvalues --    2.97915   3.00546   3.01207   3.01250   3.01893
 Alpha virt. eigenvalues --    3.01898   3.13988   3.17738   3.18239   3.18311
 Alpha virt. eigenvalues --    3.25957   3.28363   3.28804   3.30051   3.30244
 Alpha virt. eigenvalues --    3.31478   3.34616   3.66249   3.68805   3.75290
 Alpha virt. eigenvalues --    3.76969   3.78868   3.79151   3.84479   3.84563
 Alpha virt. eigenvalues --    3.91498   3.93908   4.12557   4.15485   4.21576
 Alpha virt. eigenvalues --    4.26460   4.29338   4.42646   4.42651   4.47244
 Alpha virt. eigenvalues --    4.47262   4.47835   4.50855   4.50888   4.51340
 Alpha virt. eigenvalues --    4.54473   4.56597   4.57108   4.57108   4.59906
 Alpha virt. eigenvalues --    4.59906   4.60678   4.60678   4.65755   4.65755
 Alpha virt. eigenvalues --    4.66065   4.68768   4.82318   4.82318   4.84052
 Alpha virt. eigenvalues --    4.84057   4.87997   4.87999   4.91597   4.92466
 Alpha virt. eigenvalues --    4.94222   4.97310   4.97313   5.07317   5.10283
 Alpha virt. eigenvalues --    5.11385   5.13789   5.14893   5.15592   5.15752
 Alpha virt. eigenvalues --    5.30649   5.38710   5.38710   5.39715   5.39715
 Alpha virt. eigenvalues --    5.40724   5.42438   5.42438   5.46824   5.46825
 Alpha virt. eigenvalues --    5.47623   5.47814   5.51539   5.51540   5.72803
 Alpha virt. eigenvalues --    5.72810   5.72850   5.74766   5.74770   5.75236
 Alpha virt. eigenvalues --    5.84285   5.84285   5.85250   5.85252   5.88043
 Alpha virt. eigenvalues --    5.88043   5.91278   5.96098   5.97314   5.98670
 Alpha virt. eigenvalues --    5.99179   5.99181   6.08289   6.09501   6.10674
 Alpha virt. eigenvalues --    6.11449   6.13509   6.17681   6.19656   6.42471
 Alpha virt. eigenvalues --    6.43107   6.43164   6.45328   6.89863   6.94314
 Alpha virt. eigenvalues --    7.00679   7.03132   8.75033   8.75062   8.80125
 Alpha virt. eigenvalues --    8.80152   8.84460   8.86007   9.17872   9.32756
 Alpha virt. eigenvalues --    9.34504   9.51142   9.69990  10.46102  10.47952
 Alpha virt. eigenvalues --   10.59239  10.60332  10.61035  11.32542  11.47323
 Alpha virt. eigenvalues --  270.93519 270.94766
          Condensed to atoms (all electrons):
              1          2
     1  Ge  31.438817   0.561183
     2  Ge   0.561183  31.438817
 Mulliken atomic charges:
              1
     1  Ge   0.000000
     2  Ge   0.000000
 Sum of Mulliken atomic charges =   0.00000
 Mulliken charges with hydrogens summed into heavy atoms:
              1
     1  Ge   0.000000
     2  Ge   0.000000
 Sum of Mulliken charges with hydrogens summed into heavy atoms =   0.00000
          Atomic-Atomic Spin Densities.
              1          2
     1  Ge   0.000000   0.000000
     2  Ge   0.000000   0.000000
 Mulliken atomic spin densities:
              1
     1  Ge   0.000000
     2  Ge   0.000000
 Sum of Mulliken atomic spin densities =   0.00000
 Electronic spatial extent (au):  <R**2>=            425.5763
 Charge=              0.0000 electrons
 Dipole moment (field-independent basis, Debye):
    X=              0.0000    Y=              0.0000    Z=              0.0000  Tot=              0.0000
 Quadrupole moment (field-independent basis, Debye-Ang):
   XX=            -41.2049   YY=            -30.3216   ZZ=            -41.4906
   XY=              0.0000   XZ=              0.0000   YZ=              0.0000
 Traceless Quadrupole moment (field-independent basis, Debye-Ang):
   XX=             -3.5325   YY=              7.3508   ZZ=             -3.8182
   XY=              0.0000   XZ=              0.0000   YZ=              0.0000
 Octapole moment (field-independent basis, Debye-Ang**2):
  XXX=              0.0000  YYY=              0.0000  ZZZ=              0.0000  XYY=              0.0000
  XXY=              0.0000  XXZ=              0.0000  XZZ=              0.0000  YZZ=              0.0000
  YYZ=              0.0000  XYZ=              0.0000
 Hexadecapole moment (field-independent basis, Debye-Ang**3):
 XXXX=            -92.8486 YYYY=            -41.0599 ZZZZ=           -451.1596 XXXY=              0.0000
 XXXZ=              0.0000 YYYX=              0.0000 YYYZ=              0.0000 ZZZX=              0.0000
 ZZZY=              0.0000 XXYY=            -22.5870 XXZZ=            -85.0613 YYZZ=            -68.3442
 XXYZ=              0.0000 YYXZ=              0.0000 ZZXY=              0.0000
 N-N= 2.216318725517D+02 E-N=-1.557600579150D+04  KE= 6.226011674966D+03
                          Isotropic Fermi Contact Couplings
        Atom                 a.u.       MegaHertz       Gauss      10(-4) cm-1
     1  Ge(73)             0.00000       0.00000       0.00000       0.00000
     2  Ge(73)             0.00000       0.00000       0.00000       0.00000
 --------------------------------------------------------
       Center         ----  Spin Dipole Couplings  ----
                      3XX-RR        3YY-RR        3ZZ-RR
 --------------------------------------------------------
     1   Atom        0.000000      0.000000      0.000000
     2   Atom        0.000000      0.000000      0.000000
 --------------------------------------------------------
                        XY            XZ            YZ
 --------------------------------------------------------
     1   Atom        0.000000      0.000000      0.000000
     2   Atom        0.000000      0.000000      0.000000
 --------------------------------------------------------


 ---------------------------------------------------------------------------------
              Anisotropic Spin Dipole Couplings in Principal Axis System
 ---------------------------------------------------------------------------------

       Atom             a.u.   MegaHertz   Gauss  10(-4) cm-1        Axes

              Baa     0.0000     0.000     0.000     0.000  1.0000  0.0000  0.0000
     1 Ge(73) Bbb     0.0000     0.000     0.000     0.000  0.0000  1.0000  0.0000
              Bcc     0.0000     0.000     0.000     0.000  0.0000  0.0000  1.0000
 
              Baa     0.0000     0.000     0.000     0.000  1.0000  0.0000  0.0000
     2 Ge(73) Bbb     0.0000     0.000     0.000     0.000  0.0000  1.0000  0.0000
              Bcc     0.0000     0.000     0.000     0.000  0.0000  0.0000  1.0000
 

 ---------------------------------------------------------------------------------


 Test job not archived.
 1\1\GINC-C32\SP\ROMP2-RW\Gen\Ge2\GPETERSSON\23-Aug-2012\0\\# ROMP2(RW)
  Gen GFinput Int=NoBasisTransform Int(Grid=Ultrafine) IOp(3/32=2,5/6=1
 0,8/11=1,9/33=1) Maxdisk=128GB CBSextrapolate(Nmin=20,MinPop)\\Ge2\\0,
 1\Ge\Ge,1,2.44494375\\Version=EM64L-G09RevA.02\HF=-4150.736408\MP2=-41
 50.9175542\E2(CBS)=-0.1871981\CBS-Int=-0.183543\OIii=0.9423847\RMSD=5.
 409e-11\PG=D*H [C*(Ge1.Ge1)]\\@


 REFRAIN FROM ILLUSIONS, INSIST ON WORK AND NOT WORDS,
 PATIENTLY SEEK DIVINE AND SCIENTIFIC TRUTH.
 LAST WORDS OF MARIA MENDELEEVA TO HER SON DMITRI, C. 1850
 Job cpu time:  0 days  9 hours 38 minutes 37.7 seconds.
 File lengths (MBytes):  RWF=   1268 Int=      0 D2E=      0 Chk=      8 Scr=      1
 Normal termination of Gaussian 09 at Thu Aug 23 10:46:00 2012.
