 Entering Gaussian System, Link 0=g09
 AtFile(1): 7ZaPa-NR.gbs
 Initial command:
 /share/apps/gaussian/g09root/g09/l1.exe /localscratch/824915/Gau-16903.inp -scrdir=/localscratch/824915/
 Entering Link 1 = /share/apps/gaussian/g09root/g09/l1.exe PID=     16904.
  
 Copyright (c) 1988,1990,1992,1993,1995,1998,2003,2009, Gaussian, Inc.
                  All Rights Reserved.
  
 This is part of the Gaussian(R) 09 program.  It is based on
 the Gaussian(R) 03 system (copyright 2003, Gaussian, Inc.),
 the Gaussian(R) 98 system (copyright 1998, Gaussian, Inc.),
 the Gaussian(R) 94 system (copyright 1995, Gaussian, Inc.),
 the Gaussian 92(TM) system (copyright 1992, Gaussian, Inc.),
 the Gaussian 90(TM) system (copyright 1990, Gaussian, Inc.),
 the Gaussian 88(TM) system (copyright 1988, Gaussian, Inc.),
 the Gaussian 86(TM) system (copyright 1986, Carnegie Mellon
 University), and the Gaussian 82(TM) system (copyright 1983,
 Carnegie Mellon University). Gaussian is a federally registered
 trademark of Gaussian, Inc.
  
 This software contains proprietary and confidential information,
 including trade secrets, belonging to Gaussian, Inc.
  
 This software is provided under written license and may be
 used, copied, transmitted, or stored only in accord with that
 written license.
  
 The following legend is applicable only to US Government
 contracts under FAR:
  
                    RESTRICTED RIGHTS LEGEND
  
 Use, reproduction and disclosure by the US Government is
 subject to restrictions as set forth in subparagraphs (a)
 and (c) of the Commercial Computer Software - Restricted
 Rights clause in FAR 52.227-19.
  
 Gaussian, Inc.
 340 Quinnipiac St., Bldg. 40, Wallingford CT 06492
  
  
 ---------------------------------------------------------------
 Warning -- This program may not be used in any manner that
 competes with the business of Gaussian, Inc. or will provide
 assistance to any competitor of Gaussian, Inc.  The licensee
 of this program is prohibited from giving any competitor of
 Gaussian, Inc. access to this program.  By using this program,
 the user acknowledges that Gaussian, Inc. is engaged in the
 business of creating and licensing software in the field of
 computational chemistry and represents and warrants to the
 licensee that it is not a competitor of Gaussian, Inc. and that
 it will not use this program in any manner prohibited above.
 ---------------------------------------------------------------
  

 Cite this work as:
 Gaussian 09, Revision A.02,
 M. J. Frisch, G. W. Trucks, H. B. Schlegel, G. E. Scuseria, 
 M. A. Robb, J. R. Cheeseman, G. Scalmani, V. Barone, B. Mennucci, 
 G. A. Petersson, H. Nakatsuji, M. Caricato, X. Li, H. P. Hratchian, 
 A. F. Izmaylov, J. Bloino, G. Zheng, J. L. Sonnenberg, M. Hada, 
 M. Ehara, K. Toyota, R. Fukuda, J. Hasegawa, M. Ishida, T. Nakajima, 
 Y. Honda, O. Kitao, H. Nakai, T. Vreven, J. A. Montgomery, Jr., 
 J. E. Peralta, F. Ogliaro, M. Bearpark, J. J. Heyd, E. Brothers, 
 K. N. Kudin, V. N. Staroverov, R. Kobayashi, J. Normand, 
 K. Raghavachari, A. Rendell, J. C. Burant, S. S. Iyengar, J. Tomasi, 
 M. Cossi, N. Rega, J. M. Millam, M. Klene, J. E. Knox, J. B. Cross, 
 V. Bakken, C. Adamo, J. Jaramillo, R. Gomperts, R. E. Stratmann, 
 O. Yazyev, A. J. Austin, R. Cammi, C. Pomelli, J. W. Ochterski, 
 R. L. Martin, K. Morokuma, V. G. Zakrzewski, G. A. Voth, 
 P. Salvador, J. J. Dannenberg, S. Dapprich, A. D. Daniels, 
 O. Farkas, J. B. Foresman, J. V. Ortiz, J. Cioslowski, 
 and D. J. Fox, Gaussian, Inc., Wallingford CT, 2009.
 
 ******************************************
 Gaussian 09:  EM64L-G09RevA.02 11-Jun-2009
                24-Feb-2013 
 ******************************************
 % Mem=12GB
 % Nproc=8
 Will use up to    8 processors via shared memory.
 ----------------------------------------------------------------------
 # ROMP2(RW) Gen GFinput Int=NoBasisTransform Int(Grid=Ultrafine) IOp(3
 /32=2,5/6=10,8/11=1,9/33=1) Maxdisk=128GB CBSextrapolate(Nmin=25,MinPo
 p)
 ----------------------------------------------------------------------
 1/38=1/1;
 2/12=2,17=6,18=5,40=1/2;
 3/5=7,11=2,16=1,24=10,25=1,30=1,32=2,60=-1,75=-5,116=101/1,2,3;
 4//1;
 5/5=2,6=10,38=5/2;
 8/5=-1,10=91,11=1/1;
 9/16=-3,33=1,75=2,81=25,83=4/6,4;
 6/7=2,8=2,9=2,10=2/1;
 99/5=1,9=1/99;
 ---
 Ge2
 ---
 Symbolic Z-matrix:
 Charge =  0 Multiplicity = 3
 Ge
 Ge                   1     2.5244 
 
                          Input orientation:                          
 ---------------------------------------------------------------------
 Center     Atomic      Atomic             Coordinates (Angstroms)
 Number     Number       Type             X           Y           Z
 ---------------------------------------------------------------------
      1         32           0        0.000000    0.000000    0.000000
      2         32           0        0.000000    0.000000    2.524400
 ---------------------------------------------------------------------
 Stoichiometry    Ge2(3)
 Framework group  D*H[C*(Ge.Ge)]
 Deg. of freedom     1
 Full point group                 D*H     NOp   8
 Largest Abelian subgroup         D2H     NOp   8
 Largest concise Abelian subgroup C2      NOp   2
                         Standard orientation:                         
 ---------------------------------------------------------------------
 Center     Atomic      Atomic             Coordinates (Angstroms)
 Number     Number       Type             X           Y           Z
 ---------------------------------------------------------------------
      1         32           0        0.000000    0.000000    1.262200
      2         32           0        0.000000    0.000000   -1.262200
 ---------------------------------------------------------------------
 Rotational constants (GHZ):      0.0000000      2.1456652      2.1456652
 General basis read from cards:  (5D, 7F)
 AO basis set in the form of general basis input (Overlap normalization):
      1 0
 S  19 1.00       0.000000000000
      0.8707191310D+08  0.3005073544D-06
      0.1669825550D+08  0.1818533280D-05
      0.3859525630D+07  0.1031028591D-04
      0.1045593670D+07  0.4698281939D-04
      0.3239183580D+06  0.1831549625D-03
      0.1122827040D+06  0.6240716948D-03
      0.4273091860D+05  0.1905561269D-02
      0.1756143400D+05  0.5309661789D-02
      0.7684117190D+04  0.1367281523D-01
      0.3536440080D+04  0.3269316489D-01
      0.1694321570D+04  0.7202760736D-01
      0.8377239370D+03  0.1425396431D+00
      0.4243282900D+03  0.2396440051D+00
      0.2188387180D+03  0.3063686411D+00
      0.1143141340D+03  0.2417026980D+00
      0.6021043300D+02  0.8411702340D-01
      0.3184891800D+02  0.7645424842D-02
      0.1685539800D+02  0.9104348067D-03
      0.8891866000D+01  0.1016434407D-04
 S  16 1.00       0.000000000000
      0.4273091860D+05 -0.1234497702D-05
      0.1756143400D+05 -0.9672319890D-05
      0.7684117190D+04 -0.5721849199D-04
      0.3536440080D+04 -0.3191324047D-03
      0.1694321570D+04 -0.1454621765D-02
      0.8377239370D+03 -0.6059369774D-02
      0.4243282900D+03 -0.2080360669D-01
      0.2188387180D+03 -0.5661095074D-01
      0.1143141340D+03 -0.8913728599D-01
      0.6021043300D+02 -0.1414558729D-02
      0.3184891800D+02  0.3098914220D+00
      0.1685539800D+02  0.5146477470D+00
      0.8891866000D+01  0.2594108454D+00
      0.4657631000D+01  0.3298678549D-01
      0.2412055000D+01  0.1428561979D-02
      0.1228901000D+01 -0.7601803025D-03
 P  17 1.00       0.000000000000
      0.1174430380D+06  0.2929071931D-05
      0.3211270170D+05  0.2220745741D-04
      0.1035622780D+05  0.1421432019D-03
      0.3829502370D+04  0.7050720845D-03
      0.1583398750D+04  0.2866935361D-02
      0.7159708880D+03  0.9757952798D-02
      0.3471957940D+03  0.2832181501D-01
      0.1775087620D+03  0.7059822516D-01
      0.9427731900D+02  0.1477216584D+00
      0.5135757400D+02  0.2483888844D+00
      0.2838439400D+02  0.3145594241D+00
      0.1576918100D+02  0.2500337918D+00
      0.8737484000D+01  0.9835996145D-01
      0.4796560000D+01  0.1532905896D-01
      0.2594129000D+01  0.1274961251D-02
      0.1375515000D+01  0.1810616098D-03
      0.7120240000D+00  0.1661202951D-04
 S  12 1.00       0.000000000000
      0.4243282900D+03  0.1389016522D-03
      0.2188387180D+03  0.7331101976D-03
      0.1143141340D+03  0.2981475222D-02
      0.6021043300D+02  0.1618845131D-02
      0.3184891800D+02 -0.3615745898D-01
      0.1685539800D+02 -0.1749707854D+00
      0.8891866000D+01 -0.1335354204D+00
      0.4657631000D+01  0.2842452682D+00
      0.2412055000D+01  0.5827476232D+00
      0.1228901000D+01  0.3278288075D+00
      0.6124070000D+00  0.3366884550D-01
      0.2964650000D+00  0.1474906874D-02
 P  15 1.00       0.000000000000
      0.1583398750D+04 -0.4468798821D-05
      0.7159708880D+03 -0.3649351329D-04
      0.3471957940D+03 -0.2426978284D-03
      0.1775087620D+03 -0.1198011430D-02
      0.9427731900D+02 -0.4469180820D-02
      0.5135757400D+02 -0.1165375033D-01
      0.2838439400D+02 -0.2173662396D-01
      0.1576918100D+02  0.1089098614D-02
      0.8737484000D+01  0.1303270680D+00
      0.4796560000D+01  0.3100348416D+00
      0.2594129000D+01  0.3789054945D+00
      0.1375515000D+01  0.2418316939D+00
      0.7120240000D+00  0.5869325143D-01
      0.3584120000D+00  0.4075599652D-02
      0.1747820000D+00  0.5644374887D-03
 D  16 1.00       0.000000000000
      0.3716671100D+04  0.6098143612D-05
      0.1173615130D+04  0.6126497374D-04
      0.4533829740D+03  0.4079668873D-03
      0.2020128610D+03  0.1937407484D-02
      0.9921297400D+02  0.7211822196D-02
      0.5192319600D+02  0.2130058403D-01
      0.2826466300D+02  0.5196325926D-01
      0.1573951100D+02  0.1083962960D+00
      0.8867485000D+01  0.1818506138D+00
      0.5016733000D+01  0.2392712193D+00
      0.2833262000D+01  0.2570432510D+00
      0.1587258000D+01  0.2269919798D+00
      0.8743800000D+00  0.1516835634D+00
      0.4674350000D+00  0.6547945659D-01
      0.2377920000D+00  0.1347483821D-01
      0.1119320000D+00  0.1024501099D-02
 S  11 1.00       0.000000000000
      0.6021043300D+02 -0.3974529326D-04
      0.3184891800D+02  0.3878706927D-03
      0.1685539800D+02  0.3170552426D-02
      0.8891866000D+01  0.2826985418D-02
      0.4657631000D+01 -0.1262358019D-01
      0.2412055000D+01 -0.6431246080D-01
      0.1228901000D+01 -0.1725622668D+00
      0.6124070000D+00  0.6664773304D-02
      0.2964650000D+00  0.4219025727D+00
      0.1382830000D+00  0.5484238637D+00
      0.6154800000D-01  0.1787391193D+00
 S   1 1.00       0.000000000000
      0.3012465152D-01  0.1000000000D+01
 P  10 1.00       0.000000000000
      0.1576918100D+02 -0.1846393577D-03
      0.8737484000D+01 -0.2104947974D-02
      0.4796560000D+01 -0.5120162132D-02
      0.2594129000D+01 -0.1186971009D-01
      0.1375515000D+01 -0.2083042828D-01
      0.7120240000D+00  0.4547833522D-01
      0.3584120000D+00  0.2291199505D+00
      0.1747820000D+00  0.4050340853D+00
      0.8225900000D-01  0.3623290207D+00
      0.3721000000D-01  0.1025823700D+00
 P   1 1.00       0.000000000000
      0.2107680843D-01  0.1000000000D+01
 S   1 1.00       0.000000000000
      0.3155223000D+01  0.1000000000D+01
 S   1 1.00       0.000000000000
      0.1758949000D+01  0.1000000000D+01
 S   1 1.00       0.000000000000
      0.9805650000D+00  0.1000000000D+01
 S   1 1.00       0.000000000000
      0.5466370000D+00  0.1000000000D+01
 S   1 1.00       0.000000000000
      0.3047350000D+00  0.1000000000D+01
 S   1 1.00       0.000000000000
      0.1698810000D+00  0.1000000000D+01
 P   1 1.00       0.000000000000
      0.1625443000D+01  0.1000000000D+01
 P   1 1.00       0.000000000000
      0.9900980000D+00  0.1000000000D+01
 P   1 1.00       0.000000000000
      0.6030930000D+00  0.1000000000D+01
 P   1 1.00       0.000000000000
      0.3673590000D+00  0.1000000000D+01
 P   1 1.00       0.000000000000
      0.2237670000D+00  0.1000000000D+01
 P   1 1.00       0.000000000000
      0.1363020000D+00  0.1000000000D+01
 D   1 1.00       0.000000000000
      0.1728789000D+01  0.1000000000D+01
 D   1 1.00       0.000000000000
      0.9563500000D+00  0.1000000000D+01
 D   1 1.00       0.000000000000
      0.5290440000D+00  0.1000000000D+01
 D   1 1.00       0.000000000000
      0.2926630000D+00  0.1000000000D+01
 D   1 1.00       0.000000000000
      0.1618980000D+00  0.1000000000D+01
 D   1 1.00       0.000000000000
      0.8956100000D-01  0.1000000000D+01
 F   1 1.00       0.000000000000
      0.1912526000D+01  0.1000000000D+01
 F   1 1.00       0.000000000000
      0.1021803000D+01  0.1000000000D+01
 F   1 1.00       0.000000000000
      0.5459180000D+00  0.1000000000D+01
 F   1 1.00       0.000000000000
      0.2916670000D+00  0.1000000000D+01
 F   1 1.00       0.000000000000
      0.1558280000D+00  0.1000000000D+01
 G   1 1.00       0.000000000000
      0.1494392000D+01  0.1000000000D+01
 G   1 1.00       0.000000000000
      0.8215300000D+00  0.1000000000D+01
 G   1 1.00       0.000000000000
      0.4516290000D+00  0.1000000000D+01
 G   1 1.00       0.000000000000
      0.2482790000D+00  0.1000000000D+01
 H   1 1.00       0.000000000000
      0.9176190000D+00  0.1000000000D+01
 H   1 1.00       0.000000000000
      0.5455350000D+00  0.1000000000D+01
 H   1 1.00       0.000000000000
      0.3243270000D+00  0.1000000000D+01
 I   1 1.00       0.000000000000
      0.9041630000D+00  0.1000000000D+01
 I   1 1.00       0.000000000000
      0.4871810000D+00  0.1000000000D+01
 J   1 1.00       0.000000000000
      0.7559568828D+00  0.1000000000D+01
 ****
      2 0
 S  19 1.00       0.000000000000
      0.8707191310D+08  0.3005073544D-06
      0.1669825550D+08  0.1818533280D-05
      0.3859525630D+07  0.1031028591D-04
      0.1045593670D+07  0.4698281939D-04
      0.3239183580D+06  0.1831549625D-03
      0.1122827040D+06  0.6240716948D-03
      0.4273091860D+05  0.1905561269D-02
      0.1756143400D+05  0.5309661789D-02
      0.7684117190D+04  0.1367281523D-01
      0.3536440080D+04  0.3269316489D-01
      0.1694321570D+04  0.7202760736D-01
      0.8377239370D+03  0.1425396431D+00
      0.4243282900D+03  0.2396440051D+00
      0.2188387180D+03  0.3063686411D+00
      0.1143141340D+03  0.2417026980D+00
      0.6021043300D+02  0.8411702340D-01
      0.3184891800D+02  0.7645424842D-02
      0.1685539800D+02  0.9104348067D-03
      0.8891866000D+01  0.1016434407D-04
 S  16 1.00       0.000000000000
      0.4273091860D+05 -0.1234497702D-05
      0.1756143400D+05 -0.9672319890D-05
      0.7684117190D+04 -0.5721849199D-04
      0.3536440080D+04 -0.3191324047D-03
      0.1694321570D+04 -0.1454621765D-02
      0.8377239370D+03 -0.6059369774D-02
      0.4243282900D+03 -0.2080360669D-01
      0.2188387180D+03 -0.5661095074D-01
      0.1143141340D+03 -0.8913728599D-01
      0.6021043300D+02 -0.1414558729D-02
      0.3184891800D+02  0.3098914220D+00
      0.1685539800D+02  0.5146477470D+00
      0.8891866000D+01  0.2594108454D+00
      0.4657631000D+01  0.3298678549D-01
      0.2412055000D+01  0.1428561979D-02
      0.1228901000D+01 -0.7601803025D-03
 P  17 1.00       0.000000000000
      0.1174430380D+06  0.2929071931D-05
      0.3211270170D+05  0.2220745741D-04
      0.1035622780D+05  0.1421432019D-03
      0.3829502370D+04  0.7050720845D-03
      0.1583398750D+04  0.2866935361D-02
      0.7159708880D+03  0.9757952798D-02
      0.3471957940D+03  0.2832181501D-01
      0.1775087620D+03  0.7059822516D-01
      0.9427731900D+02  0.1477216584D+00
      0.5135757400D+02  0.2483888844D+00
      0.2838439400D+02  0.3145594241D+00
      0.1576918100D+02  0.2500337918D+00
      0.8737484000D+01  0.9835996145D-01
      0.4796560000D+01  0.1532905896D-01
      0.2594129000D+01  0.1274961251D-02
      0.1375515000D+01  0.1810616098D-03
      0.7120240000D+00  0.1661202951D-04
 S  12 1.00       0.000000000000
      0.4243282900D+03  0.1389016522D-03
      0.2188387180D+03  0.7331101976D-03
      0.1143141340D+03  0.2981475222D-02
      0.6021043300D+02  0.1618845131D-02
      0.3184891800D+02 -0.3615745898D-01
      0.1685539800D+02 -0.1749707854D+00
      0.8891866000D+01 -0.1335354204D+00
      0.4657631000D+01  0.2842452682D+00
      0.2412055000D+01  0.5827476232D+00
      0.1228901000D+01  0.3278288075D+00
      0.6124070000D+00  0.3366884550D-01
      0.2964650000D+00  0.1474906874D-02
 P  15 1.00       0.000000000000
      0.1583398750D+04 -0.4468798821D-05
      0.7159708880D+03 -0.3649351329D-04
      0.3471957940D+03 -0.2426978284D-03
      0.1775087620D+03 -0.1198011430D-02
      0.9427731900D+02 -0.4469180820D-02
      0.5135757400D+02 -0.1165375033D-01
      0.2838439400D+02 -0.2173662396D-01
      0.1576918100D+02  0.1089098614D-02
      0.8737484000D+01  0.1303270680D+00
      0.4796560000D+01  0.3100348416D+00
      0.2594129000D+01  0.3789054945D+00
      0.1375515000D+01  0.2418316939D+00
      0.7120240000D+00  0.5869325143D-01
      0.3584120000D+00  0.4075599652D-02
      0.1747820000D+00  0.5644374887D-03
 D  16 1.00       0.000000000000
      0.3716671100D+04  0.6098143612D-05
      0.1173615130D+04  0.6126497374D-04
      0.4533829740D+03  0.4079668873D-03
      0.2020128610D+03  0.1937407484D-02
      0.9921297400D+02  0.7211822196D-02
      0.5192319600D+02  0.2130058403D-01
      0.2826466300D+02  0.5196325926D-01
      0.1573951100D+02  0.1083962960D+00
      0.8867485000D+01  0.1818506138D+00
      0.5016733000D+01  0.2392712193D+00
      0.2833262000D+01  0.2570432510D+00
      0.1587258000D+01  0.2269919798D+00
      0.8743800000D+00  0.1516835634D+00
      0.4674350000D+00  0.6547945659D-01
      0.2377920000D+00  0.1347483821D-01
      0.1119320000D+00  0.1024501099D-02
 S  11 1.00       0.000000000000
      0.6021043300D+02 -0.3974529326D-04
      0.3184891800D+02  0.3878706927D-03
      0.1685539800D+02  0.3170552426D-02
      0.8891866000D+01  0.2826985418D-02
      0.4657631000D+01 -0.1262358019D-01
      0.2412055000D+01 -0.6431246080D-01
      0.1228901000D+01 -0.1725622668D+00
      0.6124070000D+00  0.6664773304D-02
      0.2964650000D+00  0.4219025727D+00
      0.1382830000D+00  0.5484238637D+00
      0.6154800000D-01  0.1787391193D+00
 S   1 1.00       0.000000000000
      0.3012465152D-01  0.1000000000D+01
 P  10 1.00       0.000000000000
      0.1576918100D+02 -0.1846393577D-03
      0.8737484000D+01 -0.2104947974D-02
      0.4796560000D+01 -0.5120162132D-02
      0.2594129000D+01 -0.1186971009D-01
      0.1375515000D+01 -0.2083042828D-01
      0.7120240000D+00  0.4547833522D-01
      0.3584120000D+00  0.2291199505D+00
      0.1747820000D+00  0.4050340853D+00
      0.8225900000D-01  0.3623290207D+00
      0.3721000000D-01  0.1025823700D+00
 P   1 1.00       0.000000000000
      0.2107680843D-01  0.1000000000D+01
 S   1 1.00       0.000000000000
      0.3155223000D+01  0.1000000000D+01
 S   1 1.00       0.000000000000
      0.1758949000D+01  0.1000000000D+01
 S   1 1.00       0.000000000000
      0.9805650000D+00  0.1000000000D+01
 S   1 1.00       0.000000000000
      0.5466370000D+00  0.1000000000D+01
 S   1 1.00       0.000000000000
      0.3047350000D+00  0.1000000000D+01
 S   1 1.00       0.000000000000
      0.1698810000D+00  0.1000000000D+01
 P   1 1.00       0.000000000000
      0.1625443000D+01  0.1000000000D+01
 P   1 1.00       0.000000000000
      0.9900980000D+00  0.1000000000D+01
 P   1 1.00       0.000000000000
      0.6030930000D+00  0.1000000000D+01
 P   1 1.00       0.000000000000
      0.3673590000D+00  0.1000000000D+01
 P   1 1.00       0.000000000000
      0.2237670000D+00  0.1000000000D+01
 P   1 1.00       0.000000000000
      0.1363020000D+00  0.1000000000D+01
 D   1 1.00       0.000000000000
      0.1728789000D+01  0.1000000000D+01
 D   1 1.00       0.000000000000
      0.9563500000D+00  0.1000000000D+01
 D   1 1.00       0.000000000000
      0.5290440000D+00  0.1000000000D+01
 D   1 1.00       0.000000000000
      0.2926630000D+00  0.1000000000D+01
 D   1 1.00       0.000000000000
      0.1618980000D+00  0.1000000000D+01
 D   1 1.00       0.000000000000
      0.8956100000D-01  0.1000000000D+01
 F   1 1.00       0.000000000000
      0.1912526000D+01  0.1000000000D+01
 F   1 1.00       0.000000000000
      0.1021803000D+01  0.1000000000D+01
 F   1 1.00       0.000000000000
      0.5459180000D+00  0.1000000000D+01
 F   1 1.00       0.000000000000
      0.2916670000D+00  0.1000000000D+01
 F   1 1.00       0.000000000000
      0.1558280000D+00  0.1000000000D+01
 G   1 1.00       0.000000000000
      0.1494392000D+01  0.1000000000D+01
 G   1 1.00       0.000000000000
      0.8215300000D+00  0.1000000000D+01
 G   1 1.00       0.000000000000
      0.4516290000D+00  0.1000000000D+01
 G   1 1.00       0.000000000000
      0.2482790000D+00  0.1000000000D+01
 H   1 1.00       0.000000000000
      0.9176190000D+00  0.1000000000D+01
 H   1 1.00       0.000000000000
      0.5455350000D+00  0.1000000000D+01
 H   1 1.00       0.000000000000
      0.3243270000D+00  0.1000000000D+01
 I   1 1.00       0.000000000000
      0.9041630000D+00  0.1000000000D+01
 I   1 1.00       0.000000000000
      0.4871810000D+00  0.1000000000D+01
 J   1 1.00       0.000000000000
      0.7559568828D+00  0.1000000000D+01
 ****

 There are    78 symmetry adapted basis functions of AG  symmetry.
 There are    35 symmetry adapted basis functions of B1G symmetry.
 There are    54 symmetry adapted basis functions of B2G symmetry.
 There are    54 symmetry adapted basis functions of B3G symmetry.
 There are    35 symmetry adapted basis functions of AU  symmetry.
 There are    78 symmetry adapted basis functions of B1U symmetry.
 There are    54 symmetry adapted basis functions of B2U symmetry.
 There are    54 symmetry adapted basis functions of B3U symmetry.
 Integral buffers will be    131072 words long.
 Raffenetti 2 integral format.
 Two-electron integral symmetry is turned on.
   442 basis functions,  1218 primitive gaussians,   696 cartesian basis functions
    33 alpha electrons       31 beta electrons
       nuclear repulsion energy       214.6559426383 Hartrees.
 NAtoms=    2 NActive=    2 NUniq=    1 SFac= 3.00D+00 NAtFMM=   80 NAOKFM=F Big=F
 One-electron integrals computed using PRISM.
 NBasis=   442 RedAO= F  NBF=    78    35    54    54    35    78    54    54
 NBsUse=   442 1.00D-04 NBFU=    78    35    54    54    35    78    54    54
 Harris functional with IExCor=  205 diagonalized for initial guess.
 ExpMin= 2.11D-02 ExpMax= 8.71D+07 ExpMxC= 7.68D+03 IAcc=3 IRadAn=         5 AccDes= 0.00D+00
 HarFok:  IExCor=  205 AccDes= 0.00D+00 IRadAn=         5 IDoV= 1
 ScaDFX=  1.000000  1.000000  1.000000  1.000000
 FoFCou: FMM=F IPFlag=           0 FMFlag=      100000 FMFlg1=           0
         NFxFlg=           0 DoJE=T BraDBF=F KetDBF=T FulRan=T
         Omega=  0.000000  0.000000  1.000000  0.000000  0.000000 ICntrl=     500 IOpCl=  0
         NMat0=    1 NMatS0=    1 NMatT0=    0 NMatD0=    1 NMtDS0=    0 NMtDT0=    0
         I1Cent=           4 NGrid=           0.
 Petite list used in FoFCou.
 Initial guess orbital symmetries:
       Occupied  (SGU) (SGG) (SGU) (SGG) (SGU) (SGG) (PIG) (PIG)
                 (PIU) (PIU) (SGG) (SGU) (SGG) (SGU) (PIU) (PIU)
                 (PIG) (PIG) (SGG) (PIU) (PIU) (DLTG) (DLTG) (DLTU)
                 (DLTU) (PIG) (PIG) (SGU) (SGG) (SGU) (SGG) (PIU)
                 (PIU)
       Virtual   (PIG) (PIG) (SGU) (SGG) (PIU) (PIU) (SGG) (SGU)
                 (PIG) (PIG) (DLTG) (DLTG) (SGU) (PIU) (PIU) (SGG)
                 (DLTU) (DLTU) (PIU) (PIU) (SGU) (PIG) (PIG) (SGG)
                 (SGU) (PIG) (PIG) (SGG) (DLTG) (DLTG) (PIU) (PIU)
                 (PHIU) (PHIU) (SGU) (DLTG) (DLTG) (SGG) (DLTU)
                 (DLTU) (PHIG) (PHIG) (PIG) (PIG) (SGU) (PIU) (PIU)
                 (PIU) (PIU) (SGG) (DLTU) (DLTU) (PIG) (PIG) (SGU)
                 (SGG) (PIG) (PIG) (SGG) (SGU) (PHIU) (PHIU) (?A)
                 (?A) (PIU) (PIU) (SGG) (DLTG) (DLTG) (?B) (?B)
                 (DLTG) (DLTG) (DLTU) (DLTU) (PHIU) (PHIU) (PIG)
                 (PIG) (SGU) (PHIG) (PHIG) (DLTG) (DLTG) (PIU)
                 (PIU) (PHIG) (PHIG) (SGU) (DLTU) (DLTU) (SGG)
                 (PIG) (PIG) (SGU) (PIU) (PIU) (DLTU) (DLTU) (PIU)
                 (PIU) (SGG) (PIG) (PIG) (?A) (?A) (?C) (?C) (SGG)
                 (SGU) (PHIU) (PHIU) (?D) (?D) (PIG) (PIG) (?B)
                 (?B) (DLTG) (DLTG) (SGG) (SGU) (PIU) (PIU) (PIG)
                 (PIG) (PHIG) (PHIG) (DLTU) (DLTU) (SGU) (SGG)
                 (PHIU) (PHIU) (PIU) (PIU) (DLTG) (DLTG) (?A) (?A)
                 (DLTG) (DLTG) (PHIU) (PHIU) (?B) (?B) (DLTU) (DLTU)
                 (PHIG) (PHIG) (DLTG) (DLTG) (SGG) (PHIG) (PHIG)
                 (PIG) (PIG) (PIU) (PIU) (SGU) (DLTU) (DLTU) (SGG)
                 (SGU) (PIU) (PIU) (DLTU) (DLTU) (PIG) (PIG) (SGU)
                 (SGG) (?A) (?A) (PIU) (PIU) (?C) (?C) (PIG) (PIG)
                 (PHIU) (PHIU) (?E) (?E) (?F) (?F) (?D) (?D) (SGU)
                 (DLTG) (DLTG) (SGG) (PIG) (PIG) (?B) (?B) (PIU)
                 (PIU) (?A) (?A) (?C) (?C) (?D) (?D) (PHIU) (PHIU)
                 (?B) (?B) (PHIG) (PHIG) (SGG) (SGU) (PIG) (PIG)
                 (SGG) (DLTU) (DLTU) (DLTG) (DLTG) (PHIG) (PHIG)
                 (PIU) (PIU) (DLTU) (DLTU) (SGU) (PIG) (PIG) (SGU)
                 (PHIU) (PHIU) (?A) (?A) (PHIU) (PHIU) (DLTG) (DLTG)
                 (?B) (?B) (PHIG) (PHIG) (DLTG) (DLTG) (DLTG) (DLTG)
                 (PHIG) (PHIG) (PIU) (PIU) (DLTU) (DLTU) (SGG)
                 (PIG) (PIG) (SGG) (SGU) (DLTU) (DLTU) (PIU) (PIU)
                 (PIU) (PIU) (DLTU) (DLTU) (PIG) (PIG) (SGU) (PHIU)
                 (PHIU) (?A) (?A) (SGG) (SGU) (?C) (?C) (DLTG)
                 (DLTG) (?E) (?E) (?G) (?G) (?H) (?H) (?F) (?F)
                 (SGG) (?D) (?D) (PIU) (PIU) (PIG) (PIG) (PIU)
                 (PIU) (?B) (?B) (PIG) (PIG) (SGU) (SGG) (PHIG)
                 (PHIG) (SGG) (DLTU) (DLTU) (PIG) (PIG) (SGU) (?A)
                 (?A) (?C) (?C) (PHIU) (PHIU) (?D) (?D) (?C) (?C)
                 (?A) (?A) (?B) (?B) (?E) (?E) (DLTG) (DLTG) (?F)
                 (?F) (?D) (?D) (PHIU) (PHIU) (PHIG) (PHIG) (PIU)
                 (PIU) (?B) (?B) (SGU) (SGG) (PIG) (PIG) (DLTU)
                 (DLTU) (PHIG) (PHIG) (DLTG) (DLTG) (PIU) (PIU)
                 (SGU) (SGG) (DLTU) (DLTU) (SGU) (PIG) (PIG) (PHIU)
                 (PHIU) (PHIG) (PHIG) (DLTG) (DLTG) (PHIU) (PHIU)
                 (DLTU) (DLTU) (?A) (?A) (?B) (?B) (DLTG) (DLTG)
                 (PHIG) (PHIG) (PIU) (PIU) (SGG) (PIG) (PIG) (SGU)
                 (PIU) (PIU) (DLTU) (DLTU) (SGG) (DLTG) (DLTG)
                 (PIG) (PIG) (DLTU) (DLTU) (PIU) (PIU) (SGU) (PIG)
                 (PIG) (SGU) (SGG) (PIU) (PIU) (PIG) (PIG) (SGG)
                 (SGU) (SGG) (SGU) (SGG) (SGU)
 The electronic state of the initial guess is 3-SGG.
 Requested convergence on RMS density matrix=1.00D-10 within 128 cycles.
 Requested convergence on MAX density matrix=1.00D-08.
 Requested convergence on             energy=1.00D-08.
 No special actions if energy rises.
 Initial convergence to 1.0D-05 achieved.  Increase integral accuracy.
 SCF Done:  E(ROHF) =  -4150.76812168     A.U. after   19 cycles
             Convg  =    0.2751D-10             -V/T =  2.0000
 <Sx>= 0.0000 <Sy>= 0.0000 <Sz>= 1.0000 <S**2>= 2.0000 S= 1.0000
 <L.S>= 0.000000000000E+00
 Annihilation of the first spin contaminant:
 S**2 before annihilation     2.0000,   after     2.0000
 GenMOA:  NOpAll=  8 NOp2=8 NOpUse=  8 JSym2X=1
 <Sx>= 0.0000 <Sy>= 0.0000 <Sz>= 1.0000 <S**2>= 2.0000 S= 1.0000
 Range of M.O.s used for correlation:    29   442
 NBasis=   442 NAE=    33 NBE=    31 NFC=    28 NFV=     0
 NROrb=    414 NOA=     5 NOB=     3 NVA=   409 NVB=   411

 **** Warning!!: The largest alpha MO coefficient is  0.25370721D+03


 **** Warning!!: The largest beta MO coefficient is  0.25344303D+03

 Singles contribution to E2=   -0.1712237697D-02
 Disk-based method using OVN memory for  5 occupieds at a time.
 Permanent disk used for amplitudes and <ij||ab> integrals=     7217220 words.
 Estimated scratch disk usage=   654834996 words.
 IUseRI=2 ITolRI= 6 IR12RI=0
 Actual    scratch disk usage=   650917756 words.
 GetIJB would need an additional  1683258931 words of memory to use all   8 processors.
 JobTyp=2 Pass  1:  I=   1 to   5 NPSUse=  1 ParTrn=F ParDer=F DoDerP=F.
 (rs|ai) integrals will be sorted in core.
 T,EIJ(AA): I=   1 J=   2      0.3406716E-03     -0.7188050E-03
 T,EIJ(AA): I=   1 J=   3      0.4251317E-03     -0.9118995E-03
 T,EIJ(AA): I=   1 J=   4      0.9084235E-03     -0.1681170E-02
 T,EIJ(AA): I=   1 J=   5      0.9084235E-03     -0.1681170E-02
 T,EIJ(AA): I=   2 J=   3      0.1431615E-02     -0.2220917E-02
 T,EIJ(AA): I=   2 J=   4      0.2244769E-02     -0.2975710E-02
 T,EIJ(AA): I=   2 J=   5      0.2244769E-02     -0.2975710E-02
 T,EIJ(AA): I=   3 J=   4      0.5833545E-02     -0.6034337E-02
 T,EIJ(AA): I=   3 J=   5      0.5833545E-02     -0.6034337E-02
 T,EIJ(AA): I=   4 J=   5      0.9379071E-02     -0.7566072E-02
 T,EIJ(AB): I=   1 J=   1      0.3789993E-02     -0.9311492E-02
 T,EIJ(AB): I=   1 J=   2      0.2876816E-02     -0.6031629E-02
 T,EIJ(AB): I=   1 J=   3      0.2744823E-02     -0.6398455E-02
 T,EIJ(AB): I=   2 J=   1      0.4485773E-02     -0.7980231E-02
 T,EIJ(AB): I=   2 J=   2      0.7200295E-02     -0.1239582E-01
 T,EIJ(AB): I=   2 J=   3      0.5172020E-02     -0.9056370E-02
 T,EIJ(AB): I=   3 J=   1      0.4147877E-02     -0.8077120E-02
 T,EIJ(AB): I=   3 J=   2      0.6022854E-02     -0.9963349E-02
 T,EIJ(AB): I=   3 J=   3      0.1143811E-01     -0.1595054E-01
 T,EIJ(AB): I=   4 J=   1      0.4744753E-02     -0.8122492E-02
 T,EIJ(AB): I=   4 J=   2      0.4600239E-02     -0.7150055E-02
 T,EIJ(AB): I=   4 J=   3      0.7217993E-02     -0.8438817E-02
 T,EIJ(AB): I=   5 J=   1      0.4744753E-02     -0.8122492E-02
 T,EIJ(AB): I=   5 J=   2      0.4600239E-02     -0.7150055E-02
 T,EIJ(AB): I=   5 J=   3      0.7217993E-02     -0.8438817E-02
 Actual    scratch disk usage=   654100788 words.
 GetIJB would need an additional  1683249187 words of memory to use all   8 processors.
 JobTyp=3 Pass  1:  I=   1 to   3 NPSUse=  1 ParTrn=F ParDer=F DoDerP=F.
 (rs|ai) integrals will be sorted in core.
 T,EIJ(BB): I=   1 J=   2      0.5927876E-03     -0.1004610E-02
 T,EIJ(BB): I=   1 J=   3      0.9516735E-03     -0.1603525E-02
 T,EIJ(BB): I=   2 J=   3      0.1617709E-02     -0.2455328E-02
 Spin components of T(2) and E(2):
     alpha-alpha T2 =       0.2954996312D-01 E2=     -0.3280012752D-01
     alpha-beta  T2 =       0.8100453378D-01 E2=     -0.1325877427D+00
     beta-beta   T2 =       0.3162170086D-02 E2=     -0.5063463736D-02
 ANorm=    0.1056226573D+01
 E2 =    -0.1721635717D+00 EUMP2 =    -0.41509402852560D+04

 Complete Basis Set (CBS) Extrapolation:
 M. R. Nyden and G. A. Petersson, JCP 75, 1843 (1981)
 G. A. Petersson and M. A. Al-Laham, JCP 94, 6081 (1991)
 G. A. Petersson, T. Tensfeldt, and J. A. Montgomery, JCP 94, 6091 (1991)
 J. A. Montgomery, J. W. Ochterski, and G. A. Petersson, JCP 101, 5900 (1994)
 
 Minimum Number of PNO for Extrapolation =  25
 Absolute Overlaps: IRadAn =         5
 LocTrn: ILocal=3 LocCor=F DoCore=F.
 Entering OneElI...
 Overlap between basis sets.
 Requested accuracy = 0.1000D-12
 PrsmSu:  NPrtUS=   1 ThrOK=F IAlg=1
 PRISM was handed  1609708739 working-precision words and   136 shell-pairs
 IPart=  0 NShTot=         136 NBatch=          15 AvBLen=         9.1
 CnvPC2: ToCart=F DoDens=F IPureD=0 IPureF=0.
 Transformed matrix in CnvPC2: 
                 1             2             3             4             5 
      1   0.100000D+01  0.402055D+00  0.000000D+00  0.000000D+00  0.000000D+00
      2   0.402055D+00  0.100000D+01  0.000000D+00  0.000000D+00  0.000000D+00
      3   0.000000D+00  0.000000D+00  0.100000D+01  0.000000D+00  0.000000D+00
      4   0.000000D+00  0.000000D+00  0.000000D+00  0.100000D+01  0.000000D+00
      5   0.000000D+00  0.000000D+00  0.000000D+00  0.000000D+00  0.100000D+01
      6   0.277653D-01  0.326539D+00  0.000000D+00  0.000000D+00  0.000000D+00
      7   0.000000D+00  0.000000D+00  0.339478D+00  0.000000D+00  0.000000D+00
      8   0.000000D+00  0.000000D+00  0.000000D+00  0.339478D+00  0.000000D+00
      9   0.000000D+00  0.000000D+00  0.000000D+00  0.000000D+00  0.339478D+00
     10   0.000000D+00  0.000000D+00  0.000000D+00  0.000000D+00  0.000000D+00
     11   0.000000D+00  0.000000D+00  0.000000D+00  0.000000D+00  0.000000D+00
     12   0.000000D+00  0.000000D+00  0.000000D+00  0.000000D+00  0.000000D+00
     13   0.000000D+00  0.000000D+00  0.000000D+00  0.000000D+00  0.000000D+00
     14   0.000000D+00  0.000000D+00  0.000000D+00  0.000000D+00  0.000000D+00
     15  -0.375498D-03  0.437680D-02  0.000000D+00  0.000000D+00  0.000000D+00
     16   0.000000D+00  0.000000D+00  0.122886D-01  0.000000D+00  0.000000D+00
     17   0.000000D+00  0.000000D+00  0.000000D+00  0.122886D-01  0.000000D+00
     18   0.000000D+00  0.000000D+00  0.000000D+00  0.000000D+00  0.122886D-01
     19   0.000000D+00  0.000000D+00  0.000000D+00  0.000000D+00  0.000000D+00
     20   0.000000D+00  0.000000D+00  0.000000D+00  0.000000D+00  0.000000D+00
     21   0.000000D+00  0.000000D+00  0.000000D+00  0.000000D+00  0.000000D+00
     22   0.000000D+00  0.000000D+00  0.000000D+00  0.000000D+00  0.000000D+00
     23   0.000000D+00  0.000000D+00  0.000000D+00  0.000000D+00  0.000000D+00
     24   0.000000D+00  0.000000D+00  0.000000D+00  0.000000D+00  0.000000D+00
     25   0.000000D+00  0.000000D+00  0.000000D+00  0.000000D+00  0.000000D+00
     26   0.000000D+00  0.000000D+00  0.000000D+00  0.000000D+00  0.000000D+00
     27   0.000000D+00  0.000000D+00  0.000000D+00  0.000000D+00  0.000000D+00
     28   0.000000D+00  0.000000D+00  0.000000D+00  0.000000D+00  0.000000D+00
     29   0.000000D+00  0.000000D+00  0.000000D+00  0.000000D+00  0.000000D+00
     30   0.000000D+00  0.000000D+00  0.000000D+00  0.000000D+00  0.000000D+00
     31   0.000000D+00  0.000000D+00  0.000000D+00  0.000000D+00  0.000000D+00
     32   0.000000D+00  0.000000D+00  0.000000D+00  0.000000D+00  0.000000D+00
     33   0.000000D+00  0.000000D+00  0.000000D+00  0.000000D+00  0.000000D+00
     34   0.000000D+00  0.000000D+00  0.000000D+00  0.000000D+00  0.000000D+00
     35   0.000000D+00  0.000000D+00  0.000000D+00  0.000000D+00  0.000000D+00
     36   0.000000D+00  0.000000D+00  0.000000D+00  0.000000D+00  0.000000D+00
     37   0.000000D+00  0.000000D+00  0.000000D+00  0.000000D+00  0.000000D+00
     38   0.414408D-03  0.259218D-02  0.000000D+00  0.000000D+00 -0.679358D-03
     39   0.000000D+00  0.000000D+00  0.178062D-03  0.000000D+00  0.000000D+00
     40   0.000000D+00  0.000000D+00  0.000000D+00  0.178062D-03  0.000000D+00
     41   0.791530D-03  0.492106D-02  0.000000D+00  0.000000D+00 -0.116083D-02
     42   0.275559D-02  0.169573D-01  0.000000D+00  0.000000D+00 -0.347652D-02
     43   0.000000D+00  0.000000D+00  0.106378D-02  0.000000D+00  0.000000D+00
     44   0.000000D+00  0.000000D+00  0.000000D+00  0.106378D-02  0.000000D+00
     45   0.000000D+00  0.000000D+00  0.000000D+00  0.000000D+00  0.000000D+00
     46   0.000000D+00  0.000000D+00  0.000000D+00  0.000000D+00  0.000000D+00
                 6             7             8             9            10 
      1   0.277653D-01  0.000000D+00  0.000000D+00  0.000000D+00  0.000000D+00
      2   0.326539D+00  0.000000D+00  0.000000D+00  0.000000D+00  0.000000D+00
      3   0.000000D+00  0.339478D+00  0.000000D+00  0.000000D+00  0.000000D+00
      4   0.000000D+00  0.000000D+00  0.339478D+00  0.000000D+00  0.000000D+00
      5   0.000000D+00  0.000000D+00  0.000000D+00  0.339478D+00  0.000000D+00
      6   0.100000D+01  0.000000D+00  0.000000D+00  0.000000D+00  0.000000D+00
      7   0.000000D+00  0.100000D+01  0.000000D+00  0.000000D+00  0.000000D+00
      8   0.000000D+00  0.000000D+00  0.100000D+01  0.000000D+00  0.000000D+00
      9   0.000000D+00  0.000000D+00  0.000000D+00  0.100000D+01  0.000000D+00
     10   0.000000D+00  0.000000D+00  0.000000D+00  0.000000D+00  0.100000D+01
     11   0.000000D+00  0.000000D+00  0.000000D+00  0.000000D+00  0.000000D+00
     12   0.000000D+00  0.000000D+00  0.000000D+00  0.000000D+00  0.000000D+00
     13   0.000000D+00  0.000000D+00  0.000000D+00  0.000000D+00  0.000000D+00
     14   0.000000D+00  0.000000D+00  0.000000D+00  0.000000D+00  0.000000D+00
     15   0.194461D+00  0.000000D+00  0.000000D+00  0.000000D+00  0.000000D+00
     16   0.000000D+00  0.211028D+00  0.000000D+00  0.000000D+00  0.000000D+00
     17   0.000000D+00  0.000000D+00  0.211028D+00  0.000000D+00  0.000000D+00
     18   0.000000D+00  0.000000D+00  0.000000D+00  0.211028D+00  0.000000D+00
     19   0.000000D+00  0.000000D+00  0.000000D+00  0.000000D+00  0.658109D-01
     20   0.000000D+00  0.000000D+00  0.000000D+00  0.000000D+00  0.000000D+00
     21   0.000000D+00  0.000000D+00  0.000000D+00  0.000000D+00  0.000000D+00
     22   0.000000D+00  0.000000D+00  0.000000D+00  0.000000D+00  0.000000D+00
     23   0.000000D+00  0.000000D+00  0.000000D+00  0.000000D+00  0.000000D+00
     24   0.000000D+00  0.000000D+00  0.000000D+00  0.000000D+00  0.000000D+00
     25   0.000000D+00  0.000000D+00  0.000000D+00  0.000000D+00  0.000000D+00
     26   0.000000D+00  0.000000D+00  0.000000D+00  0.000000D+00  0.000000D+00
     27   0.000000D+00  0.000000D+00  0.000000D+00  0.000000D+00  0.000000D+00
     28   0.000000D+00  0.000000D+00  0.000000D+00  0.000000D+00  0.000000D+00
     29   0.000000D+00  0.000000D+00  0.000000D+00  0.000000D+00  0.000000D+00
     30   0.000000D+00  0.000000D+00  0.000000D+00  0.000000D+00  0.000000D+00
     31   0.000000D+00  0.000000D+00  0.000000D+00  0.000000D+00  0.000000D+00
     32   0.000000D+00  0.000000D+00  0.000000D+00  0.000000D+00  0.000000D+00
     33   0.000000D+00  0.000000D+00  0.000000D+00  0.000000D+00  0.000000D+00
     34   0.000000D+00  0.000000D+00  0.000000D+00  0.000000D+00  0.000000D+00
     35   0.000000D+00  0.000000D+00  0.000000D+00  0.000000D+00  0.000000D+00
     36   0.000000D+00  0.000000D+00  0.000000D+00  0.000000D+00  0.000000D+00
     37   0.000000D+00  0.000000D+00  0.000000D+00  0.000000D+00  0.000000D+00
     38   0.166892D-01  0.000000D+00  0.000000D+00 -0.121004D-01  0.483186D-02
     39   0.000000D+00  0.326399D-02  0.000000D+00  0.000000D+00  0.000000D+00
     40   0.000000D+00  0.000000D+00  0.326399D-02  0.000000D+00  0.000000D+00
     41   0.302845D-01  0.000000D+00  0.000000D+00 -0.201964D-01  0.771491D-02
     42   0.946274D-01  0.000000D+00  0.000000D+00 -0.531731D-01  0.156207D-01
     43   0.000000D+00  0.179359D-01  0.000000D+00  0.000000D+00  0.000000D+00
     44   0.000000D+00  0.000000D+00  0.179359D-01  0.000000D+00  0.000000D+00
     45   0.000000D+00  0.000000D+00  0.000000D+00  0.000000D+00  0.000000D+00
     46   0.000000D+00  0.000000D+00  0.000000D+00  0.000000D+00  0.000000D+00
                11            12            13            14            15 
      1   0.000000D+00  0.000000D+00  0.000000D+00  0.000000D+00 -0.375498D-03
      2   0.000000D+00  0.000000D+00  0.000000D+00  0.000000D+00  0.437680D-02
      3   0.000000D+00  0.000000D+00  0.000000D+00  0.000000D+00  0.000000D+00
      4   0.000000D+00  0.000000D+00  0.000000D+00  0.000000D+00  0.000000D+00
      5   0.000000D+00  0.000000D+00  0.000000D+00  0.000000D+00  0.000000D+00
      6   0.000000D+00  0.000000D+00  0.000000D+00  0.000000D+00  0.194461D+00
      7   0.000000D+00  0.000000D+00  0.000000D+00  0.000000D+00  0.000000D+00
      8   0.000000D+00  0.000000D+00  0.000000D+00  0.000000D+00  0.000000D+00
      9   0.000000D+00  0.000000D+00  0.000000D+00  0.000000D+00  0.000000D+00
     10   0.000000D+00  0.000000D+00  0.000000D+00  0.000000D+00  0.000000D+00
     11   0.100000D+01  0.000000D+00  0.000000D+00  0.000000D+00  0.000000D+00
     12   0.000000D+00  0.100000D+01  0.000000D+00  0.000000D+00  0.000000D+00
     13   0.000000D+00  0.000000D+00  0.100000D+01  0.000000D+00  0.000000D+00
     14   0.000000D+00  0.000000D+00  0.000000D+00  0.100000D+01  0.000000D+00
     15   0.000000D+00  0.000000D+00  0.000000D+00  0.000000D+00  0.100000D+01
     16   0.000000D+00  0.000000D+00  0.000000D+00  0.000000D+00  0.000000D+00
     17   0.000000D+00  0.000000D+00  0.000000D+00  0.000000D+00  0.000000D+00
     18   0.000000D+00  0.000000D+00  0.000000D+00  0.000000D+00  0.000000D+00
     19   0.000000D+00  0.000000D+00  0.000000D+00  0.000000D+00  0.000000D+00
     20   0.658109D-01  0.000000D+00  0.000000D+00  0.000000D+00  0.000000D+00
     21   0.000000D+00  0.658109D-01  0.000000D+00  0.000000D+00  0.000000D+00
     22   0.000000D+00  0.000000D+00  0.658109D-01  0.000000D+00  0.000000D+00
     23   0.000000D+00  0.000000D+00  0.000000D+00  0.658109D-01  0.000000D+00
     24   0.000000D+00  0.000000D+00  0.000000D+00  0.000000D+00  0.414408D-03
     25   0.000000D+00  0.000000D+00  0.000000D+00  0.000000D+00  0.259218D-02
     26   0.000000D+00  0.000000D+00  0.000000D+00  0.000000D+00  0.000000D+00
     27   0.000000D+00  0.000000D+00  0.000000D+00  0.000000D+00  0.000000D+00
     28   0.000000D+00  0.000000D+00  0.000000D+00  0.000000D+00  0.679358D-03
     29   0.000000D+00  0.000000D+00  0.000000D+00  0.000000D+00  0.166892D-01
     30   0.000000D+00  0.000000D+00  0.000000D+00  0.000000D+00  0.000000D+00
     31   0.000000D+00  0.000000D+00  0.000000D+00  0.000000D+00  0.000000D+00
     32   0.000000D+00  0.000000D+00  0.000000D+00  0.000000D+00  0.121004D-01
     33   0.000000D+00  0.000000D+00  0.000000D+00  0.000000D+00  0.483186D-02
     34   0.000000D+00  0.000000D+00  0.000000D+00  0.000000D+00  0.000000D+00
     35   0.000000D+00  0.000000D+00  0.000000D+00  0.000000D+00  0.000000D+00
     36   0.000000D+00  0.000000D+00  0.000000D+00  0.000000D+00  0.000000D+00
     37   0.000000D+00  0.000000D+00  0.000000D+00  0.000000D+00  0.000000D+00
     38   0.000000D+00  0.000000D+00  0.000000D+00  0.000000D+00  0.191243D+00
     39  -0.238846D-02  0.000000D+00  0.000000D+00  0.000000D+00  0.000000D+00
     40   0.000000D+00 -0.238846D-02  0.000000D+00  0.000000D+00  0.000000D+00
     41   0.000000D+00  0.000000D+00  0.000000D+00  0.000000D+00  0.253530D+00
     42   0.000000D+00  0.000000D+00  0.000000D+00  0.000000D+00  0.324991D+00
     43  -0.112588D-01  0.000000D+00  0.000000D+00  0.000000D+00  0.000000D+00
     44   0.000000D+00 -0.112588D-01  0.000000D+00  0.000000D+00  0.000000D+00
     45   0.000000D+00  0.000000D+00  0.182900D-02  0.000000D+00  0.000000D+00
     46   0.000000D+00  0.000000D+00  0.000000D+00  0.182900D-02  0.000000D+00
                16            17            18            19            20 
      1   0.000000D+00  0.000000D+00  0.000000D+00  0.000000D+00  0.000000D+00
      2   0.000000D+00  0.000000D+00  0.000000D+00  0.000000D+00  0.000000D+00
      3   0.122886D-01  0.000000D+00  0.000000D+00  0.000000D+00  0.000000D+00
      4   0.000000D+00  0.122886D-01  0.000000D+00  0.000000D+00  0.000000D+00
      5   0.000000D+00  0.000000D+00  0.122886D-01  0.000000D+00  0.000000D+00
      6   0.000000D+00  0.000000D+00  0.000000D+00  0.000000D+00  0.000000D+00
      7   0.211028D+00  0.000000D+00  0.000000D+00  0.000000D+00  0.000000D+00
      8   0.000000D+00  0.211028D+00  0.000000D+00  0.000000D+00  0.000000D+00
      9   0.000000D+00  0.000000D+00  0.211028D+00  0.000000D+00  0.000000D+00
     10   0.000000D+00  0.000000D+00  0.000000D+00  0.658109D-01  0.000000D+00
     11   0.000000D+00  0.000000D+00  0.000000D+00  0.000000D+00  0.658109D-01
     12   0.000000D+00  0.000000D+00  0.000000D+00  0.000000D+00  0.000000D+00
     13   0.000000D+00  0.000000D+00  0.000000D+00  0.000000D+00  0.000000D+00
     14   0.000000D+00  0.000000D+00  0.000000D+00  0.000000D+00  0.000000D+00
     15   0.000000D+00  0.000000D+00  0.000000D+00  0.000000D+00  0.000000D+00
     16   0.100000D+01  0.000000D+00  0.000000D+00  0.000000D+00  0.000000D+00
     17   0.000000D+00  0.100000D+01  0.000000D+00  0.000000D+00  0.000000D+00
     18   0.000000D+00  0.000000D+00  0.100000D+01  0.000000D+00  0.000000D+00
     19   0.000000D+00  0.000000D+00  0.000000D+00  0.100000D+01  0.000000D+00
     20   0.000000D+00  0.000000D+00  0.000000D+00  0.000000D+00  0.100000D+01
     21   0.000000D+00  0.000000D+00  0.000000D+00  0.000000D+00  0.000000D+00
     22   0.000000D+00  0.000000D+00  0.000000D+00  0.000000D+00  0.000000D+00
     23   0.000000D+00  0.000000D+00  0.000000D+00  0.000000D+00  0.000000D+00
     24   0.000000D+00  0.000000D+00 -0.791530D-03  0.275559D-02  0.000000D+00
     25   0.000000D+00  0.000000D+00 -0.492106D-02  0.169573D-01  0.000000D+00
     26   0.178062D-03  0.000000D+00  0.000000D+00  0.000000D+00 -0.106378D-02
     27   0.000000D+00  0.178062D-03  0.000000D+00  0.000000D+00  0.000000D+00
     28   0.000000D+00  0.000000D+00 -0.116083D-02  0.347652D-02  0.000000D+00
     29   0.000000D+00  0.000000D+00 -0.302845D-01  0.946274D-01  0.000000D+00
     30   0.326399D-02  0.000000D+00  0.000000D+00  0.000000D+00 -0.179359D-01
     31   0.000000D+00  0.326399D-02  0.000000D+00  0.000000D+00  0.000000D+00
     32   0.000000D+00  0.000000D+00 -0.201964D-01  0.531731D-01  0.000000D+00
     33   0.000000D+00  0.000000D+00 -0.771491D-02  0.156207D-01  0.000000D+00
     34   0.238846D-02  0.000000D+00  0.000000D+00  0.000000D+00 -0.112588D-01
     35   0.000000D+00  0.238846D-02  0.000000D+00  0.000000D+00  0.000000D+00
     36   0.000000D+00  0.000000D+00  0.000000D+00  0.000000D+00  0.000000D+00
     37   0.000000D+00  0.000000D+00  0.000000D+00  0.000000D+00  0.000000D+00
     38   0.000000D+00  0.000000D+00 -0.253530D+00  0.324991D+00  0.000000D+00
     39   0.918417D-01  0.000000D+00  0.000000D+00  0.000000D+00 -0.245842D+00
     40   0.000000D+00  0.918417D-01  0.000000D+00  0.000000D+00  0.000000D+00
     41   0.000000D+00  0.000000D+00 -0.317384D+00  0.319682D+00  0.000000D+00
     42   0.000000D+00  0.000000D+00 -0.319682D+00  0.120046D+00  0.000000D+00
     43   0.245842D+00  0.000000D+00  0.000000D+00  0.000000D+00 -0.414580D+00
     44   0.000000D+00  0.245842D+00  0.000000D+00  0.000000D+00  0.000000D+00
     45   0.000000D+00  0.000000D+00  0.000000D+00  0.000000D+00  0.000000D+00
     46   0.000000D+00  0.000000D+00  0.000000D+00  0.000000D+00  0.000000D+00
                21            22            23            24            25 
      1   0.000000D+00  0.000000D+00  0.000000D+00  0.000000D+00  0.000000D+00
      2   0.000000D+00  0.000000D+00  0.000000D+00  0.000000D+00  0.000000D+00
      3   0.000000D+00  0.000000D+00  0.000000D+00  0.000000D+00  0.000000D+00
      4   0.000000D+00  0.000000D+00  0.000000D+00  0.000000D+00  0.000000D+00
      5   0.000000D+00  0.000000D+00  0.000000D+00  0.000000D+00  0.000000D+00
      6   0.000000D+00  0.000000D+00  0.000000D+00  0.000000D+00  0.000000D+00
      7   0.000000D+00  0.000000D+00  0.000000D+00  0.000000D+00  0.000000D+00
      8   0.000000D+00  0.000000D+00  0.000000D+00  0.000000D+00  0.000000D+00
      9   0.000000D+00  0.000000D+00  0.000000D+00  0.000000D+00  0.000000D+00
     10   0.000000D+00  0.000000D+00  0.000000D+00  0.000000D+00  0.000000D+00
     11   0.000000D+00  0.000000D+00  0.000000D+00  0.000000D+00  0.000000D+00
     12   0.658109D-01  0.000000D+00  0.000000D+00  0.000000D+00  0.000000D+00
     13   0.000000D+00  0.658109D-01  0.000000D+00  0.000000D+00  0.000000D+00
     14   0.000000D+00  0.000000D+00  0.658109D-01  0.000000D+00  0.000000D+00
     15   0.000000D+00  0.000000D+00  0.000000D+00  0.414408D-03  0.259218D-02
     16   0.000000D+00  0.000000D+00  0.000000D+00  0.000000D+00  0.000000D+00
     17   0.000000D+00  0.000000D+00  0.000000D+00  0.000000D+00  0.000000D+00
     18   0.000000D+00  0.000000D+00  0.000000D+00 -0.791530D-03 -0.492106D-02
     19   0.000000D+00  0.000000D+00  0.000000D+00  0.275559D-02  0.169573D-01
     20   0.000000D+00  0.000000D+00  0.000000D+00  0.000000D+00  0.000000D+00
     21   0.100000D+01  0.000000D+00  0.000000D+00  0.000000D+00  0.000000D+00
     22   0.000000D+00  0.100000D+01  0.000000D+00  0.000000D+00  0.000000D+00
     23   0.000000D+00  0.000000D+00  0.100000D+01  0.000000D+00  0.000000D+00
     24   0.000000D+00  0.000000D+00  0.000000D+00  0.100000D+01  0.402055D+00
     25   0.000000D+00  0.000000D+00  0.000000D+00  0.402055D+00  0.100000D+01
     26   0.000000D+00  0.000000D+00  0.000000D+00  0.000000D+00  0.000000D+00
     27  -0.106378D-02  0.000000D+00  0.000000D+00  0.000000D+00  0.000000D+00
     28   0.000000D+00  0.000000D+00  0.000000D+00  0.000000D+00  0.000000D+00
     29   0.000000D+00  0.000000D+00  0.000000D+00  0.277653D-01  0.326539D+00
     30   0.000000D+00  0.000000D+00  0.000000D+00  0.000000D+00  0.000000D+00
     31  -0.179359D-01  0.000000D+00  0.000000D+00  0.000000D+00  0.000000D+00
     32   0.000000D+00  0.000000D+00  0.000000D+00  0.000000D+00  0.000000D+00
     33   0.000000D+00  0.000000D+00  0.000000D+00  0.000000D+00  0.000000D+00
     34   0.000000D+00  0.000000D+00  0.000000D+00  0.000000D+00  0.000000D+00
     35  -0.112588D-01  0.000000D+00  0.000000D+00  0.000000D+00  0.000000D+00
     36   0.000000D+00  0.182900D-02  0.000000D+00  0.000000D+00  0.000000D+00
     37   0.000000D+00  0.000000D+00  0.182900D-02  0.000000D+00  0.000000D+00
     38   0.000000D+00  0.000000D+00  0.000000D+00 -0.375498D-03  0.437680D-02
     39   0.000000D+00  0.000000D+00  0.000000D+00  0.000000D+00  0.000000D+00
     40  -0.245842D+00  0.000000D+00  0.000000D+00  0.000000D+00  0.000000D+00
     41   0.000000D+00  0.000000D+00  0.000000D+00  0.000000D+00  0.000000D+00
     42   0.000000D+00  0.000000D+00  0.000000D+00  0.000000D+00  0.000000D+00
     43   0.000000D+00  0.000000D+00  0.000000D+00  0.000000D+00  0.000000D+00
     44  -0.414580D+00  0.000000D+00  0.000000D+00  0.000000D+00  0.000000D+00
     45   0.000000D+00  0.144519D+00  0.000000D+00  0.000000D+00  0.000000D+00
     46   0.000000D+00  0.000000D+00  0.144519D+00  0.000000D+00  0.000000D+00
                26            27            28            29            30 
      1   0.000000D+00  0.000000D+00  0.000000D+00  0.000000D+00  0.000000D+00
      2   0.000000D+00  0.000000D+00  0.000000D+00  0.000000D+00  0.000000D+00
      3   0.000000D+00  0.000000D+00  0.000000D+00  0.000000D+00  0.000000D+00
      4   0.000000D+00  0.000000D+00  0.000000D+00  0.000000D+00  0.000000D+00
      5   0.000000D+00  0.000000D+00  0.000000D+00  0.000000D+00  0.000000D+00
      6   0.000000D+00  0.000000D+00  0.000000D+00  0.000000D+00  0.000000D+00
      7   0.000000D+00  0.000000D+00  0.000000D+00  0.000000D+00  0.000000D+00
      8   0.000000D+00  0.000000D+00  0.000000D+00  0.000000D+00  0.000000D+00
      9   0.000000D+00  0.000000D+00  0.000000D+00  0.000000D+00  0.000000D+00
     10   0.000000D+00  0.000000D+00  0.000000D+00  0.000000D+00  0.000000D+00
     11   0.000000D+00  0.000000D+00  0.000000D+00  0.000000D+00  0.000000D+00
     12   0.000000D+00  0.000000D+00  0.000000D+00  0.000000D+00  0.000000D+00
     13   0.000000D+00  0.000000D+00  0.000000D+00  0.000000D+00  0.000000D+00
     14   0.000000D+00  0.000000D+00  0.000000D+00  0.000000D+00  0.000000D+00
     15   0.000000D+00  0.000000D+00  0.679358D-03  0.166892D-01  0.000000D+00
     16   0.178062D-03  0.000000D+00  0.000000D+00  0.000000D+00  0.326399D-02
     17   0.000000D+00  0.178062D-03  0.000000D+00  0.000000D+00  0.000000D+00
     18   0.000000D+00  0.000000D+00 -0.116083D-02 -0.302845D-01  0.000000D+00
     19   0.000000D+00  0.000000D+00  0.347652D-02  0.946274D-01  0.000000D+00
     20  -0.106378D-02  0.000000D+00  0.000000D+00  0.000000D+00 -0.179359D-01
     21   0.000000D+00 -0.106378D-02  0.000000D+00  0.000000D+00  0.000000D+00
     22   0.000000D+00  0.000000D+00  0.000000D+00  0.000000D+00  0.000000D+00
     23   0.000000D+00  0.000000D+00  0.000000D+00  0.000000D+00  0.000000D+00
     24   0.000000D+00  0.000000D+00  0.000000D+00  0.277653D-01  0.000000D+00
     25   0.000000D+00  0.000000D+00  0.000000D+00  0.326539D+00  0.000000D+00
     26   0.100000D+01  0.000000D+00  0.000000D+00  0.000000D+00  0.339478D+00
     27   0.000000D+00  0.100000D+01  0.000000D+00  0.000000D+00  0.000000D+00
     28   0.000000D+00  0.000000D+00  0.100000D+01  0.000000D+00  0.000000D+00
     29   0.000000D+00  0.000000D+00  0.000000D+00  0.100000D+01  0.000000D+00
     30   0.339478D+00  0.000000D+00  0.000000D+00  0.000000D+00  0.100000D+01
     31   0.000000D+00  0.339478D+00  0.000000D+00  0.000000D+00  0.000000D+00
     32   0.000000D+00  0.000000D+00  0.339478D+00  0.000000D+00  0.000000D+00
     33   0.000000D+00  0.000000D+00  0.000000D+00  0.000000D+00  0.000000D+00
     34   0.000000D+00  0.000000D+00  0.000000D+00  0.000000D+00  0.000000D+00
     35   0.000000D+00  0.000000D+00  0.000000D+00  0.000000D+00  0.000000D+00
     36   0.000000D+00  0.000000D+00  0.000000D+00  0.000000D+00  0.000000D+00
     37   0.000000D+00  0.000000D+00  0.000000D+00  0.000000D+00  0.000000D+00
     38   0.000000D+00  0.000000D+00  0.000000D+00  0.194461D+00  0.000000D+00
     39   0.122886D-01  0.000000D+00  0.000000D+00  0.000000D+00  0.211028D+00
     40   0.000000D+00  0.122886D-01  0.000000D+00  0.000000D+00  0.000000D+00
     41   0.000000D+00  0.000000D+00  0.122886D-01  0.000000D+00  0.000000D+00
     42   0.000000D+00  0.000000D+00  0.000000D+00  0.000000D+00  0.000000D+00
     43   0.000000D+00  0.000000D+00  0.000000D+00  0.000000D+00  0.000000D+00
     44   0.000000D+00  0.000000D+00  0.000000D+00  0.000000D+00  0.000000D+00
     45   0.000000D+00  0.000000D+00  0.000000D+00  0.000000D+00  0.000000D+00
     46   0.000000D+00  0.000000D+00  0.000000D+00  0.000000D+00  0.000000D+00
                31            32            33            34            35 
      1   0.000000D+00  0.000000D+00  0.000000D+00  0.000000D+00  0.000000D+00
      2   0.000000D+00  0.000000D+00  0.000000D+00  0.000000D+00  0.000000D+00
      3   0.000000D+00  0.000000D+00  0.000000D+00  0.000000D+00  0.000000D+00
      4   0.000000D+00  0.000000D+00  0.000000D+00  0.000000D+00  0.000000D+00
      5   0.000000D+00  0.000000D+00  0.000000D+00  0.000000D+00  0.000000D+00
      6   0.000000D+00  0.000000D+00  0.000000D+00  0.000000D+00  0.000000D+00
      7   0.000000D+00  0.000000D+00  0.000000D+00  0.000000D+00  0.000000D+00
      8   0.000000D+00  0.000000D+00  0.000000D+00  0.000000D+00  0.000000D+00
      9   0.000000D+00  0.000000D+00  0.000000D+00  0.000000D+00  0.000000D+00
     10   0.000000D+00  0.000000D+00  0.000000D+00  0.000000D+00  0.000000D+00
     11   0.000000D+00  0.000000D+00  0.000000D+00  0.000000D+00  0.000000D+00
     12   0.000000D+00  0.000000D+00  0.000000D+00  0.000000D+00  0.000000D+00
     13   0.000000D+00  0.000000D+00  0.000000D+00  0.000000D+00  0.000000D+00
     14   0.000000D+00  0.000000D+00  0.000000D+00  0.000000D+00  0.000000D+00
     15   0.000000D+00  0.121004D-01  0.483186D-02  0.000000D+00  0.000000D+00
     16   0.000000D+00  0.000000D+00  0.000000D+00  0.238846D-02  0.000000D+00
     17   0.326399D-02  0.000000D+00  0.000000D+00  0.000000D+00  0.238846D-02
     18   0.000000D+00 -0.201964D-01 -0.771491D-02  0.000000D+00  0.000000D+00
     19   0.000000D+00  0.531731D-01  0.156207D-01  0.000000D+00  0.000000D+00
     20   0.000000D+00  0.000000D+00  0.000000D+00 -0.112588D-01  0.000000D+00
     21  -0.179359D-01  0.000000D+00  0.000000D+00  0.000000D+00 -0.112588D-01
     22   0.000000D+00  0.000000D+00  0.000000D+00  0.000000D+00  0.000000D+00
     23   0.000000D+00  0.000000D+00  0.000000D+00  0.000000D+00  0.000000D+00
     24   0.000000D+00  0.000000D+00  0.000000D+00  0.000000D+00  0.000000D+00
     25   0.000000D+00  0.000000D+00  0.000000D+00  0.000000D+00  0.000000D+00
     26   0.000000D+00  0.000000D+00  0.000000D+00  0.000000D+00  0.000000D+00
     27   0.339478D+00  0.000000D+00  0.000000D+00  0.000000D+00  0.000000D+00
     28   0.000000D+00  0.339478D+00  0.000000D+00  0.000000D+00  0.000000D+00
     29   0.000000D+00  0.000000D+00  0.000000D+00  0.000000D+00  0.000000D+00
     30   0.000000D+00  0.000000D+00  0.000000D+00  0.000000D+00  0.000000D+00
     31   0.100000D+01  0.000000D+00  0.000000D+00  0.000000D+00  0.000000D+00
     32   0.000000D+00  0.100000D+01  0.000000D+00  0.000000D+00  0.000000D+00
     33   0.000000D+00  0.000000D+00  0.100000D+01  0.000000D+00  0.000000D+00
     34   0.000000D+00  0.000000D+00  0.000000D+00  0.100000D+01  0.000000D+00
     35   0.000000D+00  0.000000D+00  0.000000D+00  0.000000D+00  0.100000D+01
     36   0.000000D+00  0.000000D+00  0.000000D+00  0.000000D+00  0.000000D+00
     37   0.000000D+00  0.000000D+00  0.000000D+00  0.000000D+00  0.000000D+00
     38   0.000000D+00  0.000000D+00  0.000000D+00  0.000000D+00  0.000000D+00
     39   0.000000D+00  0.000000D+00  0.000000D+00  0.000000D+00  0.000000D+00
     40   0.211028D+00  0.000000D+00  0.000000D+00  0.000000D+00  0.000000D+00
     41   0.000000D+00  0.211028D+00  0.000000D+00  0.000000D+00  0.000000D+00
     42   0.000000D+00  0.000000D+00  0.658109D-01  0.000000D+00  0.000000D+00
     43   0.000000D+00  0.000000D+00  0.000000D+00  0.658109D-01  0.000000D+00
     44   0.000000D+00  0.000000D+00  0.000000D+00  0.000000D+00  0.658109D-01
     45   0.000000D+00  0.000000D+00  0.000000D+00  0.000000D+00  0.000000D+00
     46   0.000000D+00  0.000000D+00  0.000000D+00  0.000000D+00  0.000000D+00
                36            37            38            39            40 
      1   0.000000D+00  0.000000D+00  0.414408D-03  0.000000D+00  0.000000D+00
      2   0.000000D+00  0.000000D+00  0.259218D-02  0.000000D+00  0.000000D+00
      3   0.000000D+00  0.000000D+00  0.000000D+00  0.178062D-03  0.000000D+00
      4   0.000000D+00  0.000000D+00  0.000000D+00  0.000000D+00  0.178062D-03
      5   0.000000D+00  0.000000D+00 -0.679358D-03  0.000000D+00  0.000000D+00
      6   0.000000D+00  0.000000D+00  0.166892D-01  0.000000D+00  0.000000D+00
      7   0.000000D+00  0.000000D+00  0.000000D+00  0.326399D-02  0.000000D+00
      8   0.000000D+00  0.000000D+00  0.000000D+00  0.000000D+00  0.326399D-02
      9   0.000000D+00  0.000000D+00 -0.121004D-01  0.000000D+00  0.000000D+00
     10   0.000000D+00  0.000000D+00  0.483186D-02  0.000000D+00  0.000000D+00
     11   0.000000D+00  0.000000D+00  0.000000D+00 -0.238846D-02  0.000000D+00
     12   0.000000D+00  0.000000D+00  0.000000D+00  0.000000D+00 -0.238846D-02
     13   0.000000D+00  0.000000D+00  0.000000D+00  0.000000D+00  0.000000D+00
     14   0.000000D+00  0.000000D+00  0.000000D+00  0.000000D+00  0.000000D+00
     15   0.000000D+00  0.000000D+00  0.191243D+00  0.000000D+00  0.000000D+00
     16   0.000000D+00  0.000000D+00  0.000000D+00  0.918417D-01  0.000000D+00
     17   0.000000D+00  0.000000D+00  0.000000D+00  0.000000D+00  0.918417D-01
     18   0.000000D+00  0.000000D+00 -0.253530D+00  0.000000D+00  0.000000D+00
     19   0.000000D+00  0.000000D+00  0.324991D+00  0.000000D+00  0.000000D+00
     20   0.000000D+00  0.000000D+00  0.000000D+00 -0.245842D+00  0.000000D+00
     21   0.000000D+00  0.000000D+00  0.000000D+00  0.000000D+00 -0.245842D+00
     22   0.182900D-02  0.000000D+00  0.000000D+00  0.000000D+00  0.000000D+00
     23   0.000000D+00  0.182900D-02  0.000000D+00  0.000000D+00  0.000000D+00
     24   0.000000D+00  0.000000D+00 -0.375498D-03  0.000000D+00  0.000000D+00
     25   0.000000D+00  0.000000D+00  0.437680D-02  0.000000D+00  0.000000D+00
     26   0.000000D+00  0.000000D+00  0.000000D+00  0.122886D-01  0.000000D+00
     27   0.000000D+00  0.000000D+00  0.000000D+00  0.000000D+00  0.122886D-01
     28   0.000000D+00  0.000000D+00  0.000000D+00  0.000000D+00  0.000000D+00
     29   0.000000D+00  0.000000D+00  0.194461D+00  0.000000D+00  0.000000D+00
     30   0.000000D+00  0.000000D+00  0.000000D+00  0.211028D+00  0.000000D+00
     31   0.000000D+00  0.000000D+00  0.000000D+00  0.000000D+00  0.211028D+00
     32   0.000000D+00  0.000000D+00  0.000000D+00  0.000000D+00  0.000000D+00
     33   0.000000D+00  0.000000D+00  0.000000D+00  0.000000D+00  0.000000D+00
     34   0.000000D+00  0.000000D+00  0.000000D+00  0.000000D+00  0.000000D+00
     35   0.000000D+00  0.000000D+00  0.000000D+00  0.000000D+00  0.000000D+00
     36   0.100000D+01  0.000000D+00  0.000000D+00  0.000000D+00  0.000000D+00
     37   0.000000D+00  0.100000D+01  0.000000D+00  0.000000D+00  0.000000D+00
     38   0.000000D+00  0.000000D+00  0.100000D+01  0.000000D+00  0.000000D+00
     39   0.000000D+00  0.000000D+00  0.000000D+00  0.100000D+01  0.000000D+00
     40   0.000000D+00  0.000000D+00  0.000000D+00  0.000000D+00  0.100000D+01
     41   0.000000D+00  0.000000D+00  0.000000D+00  0.000000D+00  0.000000D+00
     42   0.000000D+00  0.000000D+00  0.000000D+00  0.000000D+00  0.000000D+00
     43   0.000000D+00  0.000000D+00  0.000000D+00  0.000000D+00  0.000000D+00
     44   0.000000D+00  0.000000D+00  0.000000D+00  0.000000D+00  0.000000D+00
     45   0.658109D-01  0.000000D+00  0.000000D+00  0.000000D+00  0.000000D+00
     46   0.000000D+00  0.658109D-01  0.000000D+00  0.000000D+00  0.000000D+00
                41            42            43            44            45 
      1   0.791530D-03  0.275559D-02  0.000000D+00  0.000000D+00  0.000000D+00
      2   0.492106D-02  0.169573D-01  0.000000D+00  0.000000D+00  0.000000D+00
      3   0.000000D+00  0.000000D+00  0.106378D-02  0.000000D+00  0.000000D+00
      4   0.000000D+00  0.000000D+00  0.000000D+00  0.106378D-02  0.000000D+00
      5  -0.116083D-02 -0.347652D-02  0.000000D+00  0.000000D+00  0.000000D+00
      6   0.302845D-01  0.946274D-01  0.000000D+00  0.000000D+00  0.000000D+00
      7   0.000000D+00  0.000000D+00  0.179359D-01  0.000000D+00  0.000000D+00
      8   0.000000D+00  0.000000D+00  0.000000D+00  0.179359D-01  0.000000D+00
      9  -0.201964D-01 -0.531731D-01  0.000000D+00  0.000000D+00  0.000000D+00
     10   0.771491D-02  0.156207D-01  0.000000D+00  0.000000D+00  0.000000D+00
     11   0.000000D+00  0.000000D+00 -0.112588D-01  0.000000D+00  0.000000D+00
     12   0.000000D+00  0.000000D+00  0.000000D+00 -0.112588D-01  0.000000D+00
     13   0.000000D+00  0.000000D+00  0.000000D+00  0.000000D+00  0.182900D-02
     14   0.000000D+00  0.000000D+00  0.000000D+00  0.000000D+00  0.000000D+00
     15   0.253530D+00  0.324991D+00  0.000000D+00  0.000000D+00  0.000000D+00
     16   0.000000D+00  0.000000D+00  0.245842D+00  0.000000D+00  0.000000D+00
     17   0.000000D+00  0.000000D+00  0.000000D+00  0.245842D+00  0.000000D+00
     18  -0.317384D+00 -0.319682D+00  0.000000D+00  0.000000D+00  0.000000D+00
     19   0.319682D+00  0.120046D+00  0.000000D+00  0.000000D+00  0.000000D+00
     20   0.000000D+00  0.000000D+00 -0.414580D+00  0.000000D+00  0.000000D+00
     21   0.000000D+00  0.000000D+00  0.000000D+00 -0.414580D+00  0.000000D+00
     22   0.000000D+00  0.000000D+00  0.000000D+00  0.000000D+00  0.144519D+00
     23   0.000000D+00  0.000000D+00  0.000000D+00  0.000000D+00  0.000000D+00
     24   0.000000D+00  0.000000D+00  0.000000D+00  0.000000D+00  0.000000D+00
     25   0.000000D+00  0.000000D+00  0.000000D+00  0.000000D+00  0.000000D+00
     26   0.000000D+00  0.000000D+00  0.000000D+00  0.000000D+00  0.000000D+00
     27   0.000000D+00  0.000000D+00  0.000000D+00  0.000000D+00  0.000000D+00
     28   0.122886D-01  0.000000D+00  0.000000D+00  0.000000D+00  0.000000D+00
     29   0.000000D+00  0.000000D+00  0.000000D+00  0.000000D+00  0.000000D+00
     30   0.000000D+00  0.000000D+00  0.000000D+00  0.000000D+00  0.000000D+00
     31   0.000000D+00  0.000000D+00  0.000000D+00  0.000000D+00  0.000000D+00
     32   0.211028D+00  0.000000D+00  0.000000D+00  0.000000D+00  0.000000D+00
     33   0.000000D+00  0.658109D-01  0.000000D+00  0.000000D+00  0.000000D+00
     34   0.000000D+00  0.000000D+00  0.658109D-01  0.000000D+00  0.000000D+00
     35   0.000000D+00  0.000000D+00  0.000000D+00  0.658109D-01  0.000000D+00
     36   0.000000D+00  0.000000D+00  0.000000D+00  0.000000D+00  0.658109D-01
     37   0.000000D+00  0.000000D+00  0.000000D+00  0.000000D+00  0.000000D+00
     38   0.000000D+00  0.000000D+00  0.000000D+00  0.000000D+00  0.000000D+00
     39   0.000000D+00  0.000000D+00  0.000000D+00  0.000000D+00  0.000000D+00
     40   0.000000D+00  0.000000D+00  0.000000D+00  0.000000D+00  0.000000D+00
     41   0.100000D+01  0.000000D+00  0.000000D+00  0.000000D+00  0.000000D+00
     42   0.000000D+00  0.100000D+01  0.000000D+00  0.000000D+00  0.000000D+00
     43   0.000000D+00  0.000000D+00  0.100000D+01  0.000000D+00  0.000000D+00
     44   0.000000D+00  0.000000D+00  0.000000D+00  0.100000D+01  0.000000D+00
     45   0.000000D+00  0.000000D+00  0.000000D+00  0.000000D+00  0.100000D+01
     46   0.000000D+00  0.000000D+00  0.000000D+00  0.000000D+00  0.000000D+00
                46 
      1   0.000000D+00
      2   0.000000D+00
      3   0.000000D+00
      4   0.000000D+00
      5   0.000000D+00
      6   0.000000D+00
      7   0.000000D+00
      8   0.000000D+00
      9   0.000000D+00
     10   0.000000D+00
     11   0.000000D+00
     12   0.000000D+00
     13   0.000000D+00
     14   0.182900D-02
     15   0.000000D+00
     16   0.000000D+00
     17   0.000000D+00
     18   0.000000D+00
     19   0.000000D+00
     20   0.000000D+00
     21   0.000000D+00
     22   0.000000D+00
     23   0.144519D+00
     24   0.000000D+00
     25   0.000000D+00
     26   0.000000D+00
     27   0.000000D+00
     28   0.000000D+00
     29   0.000000D+00
     30   0.000000D+00
     31   0.000000D+00
     32   0.000000D+00
     33   0.000000D+00
     34   0.000000D+00
     35   0.000000D+00
     36   0.000000D+00
     37   0.658109D-01
     38   0.000000D+00
     39   0.000000D+00
     40   0.000000D+00
     41   0.000000D+00
     42   0.000000D+00
     43   0.000000D+00
     44   0.000000D+00
     45   0.000000D+00
     46   0.100000D+01
 Entering OneElI...
 Overlap between basis sets.
 Requested accuracy = 0.1000D-12
 PrsmSu:  NPrtUS=   1 ThrOK=F IAlg=1
 PRISM was handed  1608942275 working-precision words and  1024 shell-pairs
 IPart=  0 NShTot=        1024 NBatch=          90 AvBLen=        11.4
 CnvPC2: ToCart=F DoDens=F IPureD=0 IPureF=0.
 Transformed matrix in CnvPC2: 
                 1             2             3             4             5 
      1   0.999793D+00  0.410396D+00  0.000000D+00  0.000000D+00  0.000000D+00
      2   0.288767D+00  0.988641D+00  0.000000D+00  0.000000D+00  0.000000D+00
      3   0.000000D+00  0.000000D+00  0.999238D+00  0.000000D+00  0.000000D+00
      4   0.000000D+00  0.000000D+00  0.000000D+00  0.999238D+00  0.000000D+00
      5   0.000000D+00  0.000000D+00  0.000000D+00  0.000000D+00  0.999238D+00
      6   0.119645D-01  0.318206D+00  0.000000D+00  0.000000D+00  0.000000D+00
      7   0.000000D+00  0.000000D+00  0.342796D+00  0.000000D+00  0.000000D+00
      8   0.000000D+00  0.000000D+00  0.000000D+00  0.342796D+00  0.000000D+00
      9   0.000000D+00  0.000000D+00  0.000000D+00  0.000000D+00  0.342796D+00
     10   0.000000D+00  0.000000D+00  0.000000D+00  0.000000D+00  0.000000D+00
     11   0.000000D+00  0.000000D+00  0.000000D+00  0.000000D+00  0.000000D+00
     12   0.000000D+00  0.000000D+00  0.000000D+00  0.000000D+00  0.000000D+00
     13   0.000000D+00  0.000000D+00  0.000000D+00  0.000000D+00  0.000000D+00
     14   0.000000D+00  0.000000D+00  0.000000D+00  0.000000D+00  0.000000D+00
     15   0.289427D-04  0.823684D-02  0.000000D+00  0.000000D+00  0.000000D+00
     16   0.403023D-02  0.246542D-01  0.000000D+00  0.000000D+00  0.000000D+00
     17   0.000000D+00  0.000000D+00  0.733925D-02  0.000000D+00  0.000000D+00
     18   0.000000D+00  0.000000D+00  0.000000D+00  0.733925D-02  0.000000D+00
     19   0.000000D+00  0.000000D+00  0.000000D+00  0.000000D+00  0.733925D-02
     20   0.000000D+00  0.000000D+00  0.946296D-03  0.000000D+00  0.000000D+00
     21   0.000000D+00  0.000000D+00  0.000000D+00  0.946296D-03  0.000000D+00
     22   0.000000D+00  0.000000D+00  0.000000D+00  0.000000D+00  0.946296D-03
     23   0.127775D+00  0.615912D+00  0.000000D+00  0.000000D+00  0.000000D+00
     24   0.836172D-01  0.445201D+00  0.000000D+00  0.000000D+00  0.000000D+00
     25   0.543812D-01  0.307485D+00  0.000000D+00  0.000000D+00  0.000000D+00
     26   0.352429D-01  0.206406D+00  0.000000D+00  0.000000D+00  0.000000D+00
     27   0.227947D-01  0.136219D+00  0.000000D+00  0.000000D+00  0.000000D+00
     28   0.147269D-01  0.890174D-01  0.000000D+00  0.000000D+00  0.000000D+00
     29   0.000000D+00  0.000000D+00  0.173394D+00  0.000000D+00  0.000000D+00
     30   0.000000D+00  0.000000D+00  0.000000D+00  0.173394D+00  0.000000D+00
     31   0.000000D+00  0.000000D+00  0.000000D+00  0.000000D+00  0.173394D+00
     32   0.000000D+00  0.000000D+00  0.101478D+00  0.000000D+00  0.000000D+00
     33   0.000000D+00  0.000000D+00  0.000000D+00  0.101478D+00  0.000000D+00
     34   0.000000D+00  0.000000D+00  0.000000D+00  0.000000D+00  0.101478D+00
     35   0.000000D+00  0.000000D+00  0.576001D-01  0.000000D+00  0.000000D+00
     36   0.000000D+00  0.000000D+00  0.000000D+00  0.576001D-01  0.000000D+00
     37   0.000000D+00  0.000000D+00  0.000000D+00  0.000000D+00  0.576001D-01
     38   0.000000D+00  0.000000D+00  0.320477D-01  0.000000D+00  0.000000D+00
     39   0.000000D+00  0.000000D+00  0.000000D+00  0.320477D-01  0.000000D+00
     40   0.000000D+00  0.000000D+00  0.000000D+00  0.000000D+00  0.320477D-01
     41   0.000000D+00  0.000000D+00  0.176057D-01  0.000000D+00  0.000000D+00
     42   0.000000D+00  0.000000D+00  0.000000D+00  0.176057D-01  0.000000D+00
     43   0.000000D+00  0.000000D+00  0.000000D+00  0.000000D+00  0.176057D-01
     44   0.000000D+00  0.000000D+00  0.959529D-02  0.000000D+00  0.000000D+00
     45   0.000000D+00  0.000000D+00  0.000000D+00  0.959529D-02  0.000000D+00
     46   0.000000D+00  0.000000D+00  0.000000D+00  0.000000D+00  0.959529D-02
     47   0.000000D+00  0.000000D+00  0.000000D+00  0.000000D+00  0.000000D+00
     48   0.000000D+00  0.000000D+00  0.000000D+00  0.000000D+00  0.000000D+00
     49   0.000000D+00  0.000000D+00  0.000000D+00  0.000000D+00  0.000000D+00
     50   0.000000D+00  0.000000D+00  0.000000D+00  0.000000D+00  0.000000D+00
     51   0.000000D+00  0.000000D+00  0.000000D+00  0.000000D+00  0.000000D+00
     52   0.000000D+00  0.000000D+00  0.000000D+00  0.000000D+00  0.000000D+00
     53   0.000000D+00  0.000000D+00  0.000000D+00  0.000000D+00  0.000000D+00
     54   0.000000D+00  0.000000D+00  0.000000D+00  0.000000D+00  0.000000D+00
     55   0.000000D+00  0.000000D+00  0.000000D+00  0.000000D+00  0.000000D+00
     56   0.000000D+00  0.000000D+00  0.000000D+00  0.000000D+00  0.000000D+00
     57   0.000000D+00  0.000000D+00  0.000000D+00  0.000000D+00  0.000000D+00
     58   0.000000D+00  0.000000D+00  0.000000D+00  0.000000D+00  0.000000D+00
     59   0.000000D+00  0.000000D+00  0.000000D+00  0.000000D+00  0.000000D+00
     60   0.000000D+00  0.000000D+00  0.000000D+00  0.000000D+00  0.000000D+00
     61   0.000000D+00  0.000000D+00  0.000000D+00  0.000000D+00  0.000000D+00
     62   0.000000D+00  0.000000D+00  0.000000D+00  0.000000D+00  0.000000D+00
     63   0.000000D+00  0.000000D+00  0.000000D+00  0.000000D+00  0.000000D+00
     64   0.000000D+00  0.000000D+00  0.000000D+00  0.000000D+00  0.000000D+00
     65   0.000000D+00  0.000000D+00  0.000000D+00  0.000000D+00  0.000000D+00
     66   0.000000D+00  0.000000D+00  0.000000D+00  0.000000D+00  0.000000D+00
     67   0.000000D+00  0.000000D+00  0.000000D+00  0.000000D+00  0.000000D+00
     68   0.000000D+00  0.000000D+00  0.000000D+00  0.000000D+00  0.000000D+00
     69   0.000000D+00  0.000000D+00  0.000000D+00  0.000000D+00  0.000000D+00
     70   0.000000D+00  0.000000D+00  0.000000D+00  0.000000D+00  0.000000D+00
     71   0.000000D+00  0.000000D+00  0.000000D+00  0.000000D+00  0.000000D+00
     72   0.000000D+00  0.000000D+00  0.000000D+00  0.000000D+00  0.000000D+00
     73   0.000000D+00  0.000000D+00  0.000000D+00  0.000000D+00  0.000000D+00
     74   0.000000D+00  0.000000D+00  0.000000D+00  0.000000D+00  0.000000D+00
     75   0.000000D+00  0.000000D+00  0.000000D+00  0.000000D+00  0.000000D+00
     76   0.000000D+00  0.000000D+00  0.000000D+00  0.000000D+00  0.000000D+00
     77   0.000000D+00  0.000000D+00  0.000000D+00  0.000000D+00  0.000000D+00
     78   0.000000D+00  0.000000D+00  0.000000D+00  0.000000D+00  0.000000D+00
     79   0.000000D+00  0.000000D+00  0.000000D+00  0.000000D+00  0.000000D+00
     80   0.000000D+00  0.000000D+00  0.000000D+00  0.000000D+00  0.000000D+00
     81   0.000000D+00  0.000000D+00  0.000000D+00  0.000000D+00  0.000000D+00
     82   0.000000D+00  0.000000D+00  0.000000D+00  0.000000D+00  0.000000D+00
     83   0.000000D+00  0.000000D+00  0.000000D+00  0.000000D+00  0.000000D+00
     84   0.000000D+00  0.000000D+00  0.000000D+00  0.000000D+00  0.000000D+00
     85   0.000000D+00  0.000000D+00  0.000000D+00  0.000000D+00  0.000000D+00
     86   0.000000D+00  0.000000D+00  0.000000D+00  0.000000D+00  0.000000D+00
     87   0.000000D+00  0.000000D+00  0.000000D+00  0.000000D+00  0.000000D+00
     88   0.000000D+00  0.000000D+00  0.000000D+00  0.000000D+00  0.000000D+00
     89   0.000000D+00  0.000000D+00  0.000000D+00  0.000000D+00  0.000000D+00
     90   0.000000D+00  0.000000D+00  0.000000D+00  0.000000D+00  0.000000D+00
     91   0.000000D+00  0.000000D+00  0.000000D+00  0.000000D+00  0.000000D+00
     92   0.000000D+00  0.000000D+00  0.000000D+00  0.000000D+00  0.000000D+00
     93   0.000000D+00  0.000000D+00  0.000000D+00  0.000000D+00  0.000000D+00
     94   0.000000D+00  0.000000D+00  0.000000D+00  0.000000D+00  0.000000D+00
     95   0.000000D+00  0.000000D+00  0.000000D+00  0.000000D+00  0.000000D+00
     96   0.000000D+00  0.000000D+00  0.000000D+00  0.000000D+00  0.000000D+00
     97   0.000000D+00  0.000000D+00  0.000000D+00  0.000000D+00  0.000000D+00
     98   0.000000D+00  0.000000D+00  0.000000D+00  0.000000D+00  0.000000D+00
     99   0.000000D+00  0.000000D+00  0.000000D+00  0.000000D+00  0.000000D+00
    100   0.000000D+00  0.000000D+00  0.000000D+00  0.000000D+00  0.000000D+00
    101   0.000000D+00  0.000000D+00  0.000000D+00  0.000000D+00  0.000000D+00
    102   0.000000D+00  0.000000D+00  0.000000D+00  0.000000D+00  0.000000D+00
    103   0.000000D+00  0.000000D+00  0.000000D+00  0.000000D+00  0.000000D+00
    104   0.000000D+00  0.000000D+00  0.000000D+00  0.000000D+00  0.000000D+00
    105   0.000000D+00  0.000000D+00  0.000000D+00  0.000000D+00  0.000000D+00
    106   0.000000D+00  0.000000D+00  0.000000D+00  0.000000D+00  0.000000D+00
    107   0.000000D+00  0.000000D+00  0.000000D+00  0.000000D+00  0.000000D+00
    108   0.000000D+00  0.000000D+00  0.000000D+00  0.000000D+00  0.000000D+00
    109   0.000000D+00  0.000000D+00  0.000000D+00  0.000000D+00  0.000000D+00
    110   0.000000D+00  0.000000D+00  0.000000D+00  0.000000D+00  0.000000D+00
    111   0.000000D+00  0.000000D+00  0.000000D+00  0.000000D+00  0.000000D+00
    112   0.000000D+00  0.000000D+00  0.000000D+00  0.000000D+00  0.000000D+00
    113   0.000000D+00  0.000000D+00  0.000000D+00  0.000000D+00  0.000000D+00
    114   0.000000D+00  0.000000D+00  0.000000D+00  0.000000D+00  0.000000D+00
    115   0.000000D+00  0.000000D+00  0.000000D+00  0.000000D+00  0.000000D+00
    116   0.000000D+00  0.000000D+00  0.000000D+00  0.000000D+00  0.000000D+00
    117   0.000000D+00  0.000000D+00  0.000000D+00  0.000000D+00  0.000000D+00
    118   0.000000D+00  0.000000D+00  0.000000D+00  0.000000D+00  0.000000D+00
    119   0.000000D+00  0.000000D+00  0.000000D+00  0.000000D+00  0.000000D+00
    120   0.000000D+00  0.000000D+00  0.000000D+00  0.000000D+00  0.000000D+00
    121   0.000000D+00  0.000000D+00  0.000000D+00  0.000000D+00  0.000000D+00
    122   0.000000D+00  0.000000D+00  0.000000D+00  0.000000D+00  0.000000D+00
    123   0.000000D+00  0.000000D+00  0.000000D+00  0.000000D+00  0.000000D+00
    124   0.000000D+00  0.000000D+00  0.000000D+00  0.000000D+00  0.000000D+00
    125   0.000000D+00  0.000000D+00  0.000000D+00  0.000000D+00  0.000000D+00
    126   0.000000D+00  0.000000D+00  0.000000D+00  0.000000D+00  0.000000D+00
    127   0.000000D+00  0.000000D+00  0.000000D+00  0.000000D+00  0.000000D+00
    128   0.000000D+00  0.000000D+00  0.000000D+00  0.000000D+00  0.000000D+00
    129   0.000000D+00  0.000000D+00  0.000000D+00  0.000000D+00  0.000000D+00
    130   0.000000D+00  0.000000D+00  0.000000D+00  0.000000D+00  0.000000D+00
    131   0.000000D+00  0.000000D+00  0.000000D+00  0.000000D+00  0.000000D+00
    132   0.000000D+00  0.000000D+00  0.000000D+00  0.000000D+00  0.000000D+00
    133   0.000000D+00  0.000000D+00  0.000000D+00  0.000000D+00  0.000000D+00
    134   0.000000D+00  0.000000D+00  0.000000D+00  0.000000D+00  0.000000D+00
    135   0.000000D+00  0.000000D+00  0.000000D+00  0.000000D+00  0.000000D+00
    136   0.000000D+00  0.000000D+00  0.000000D+00  0.000000D+00  0.000000D+00
    137   0.000000D+00  0.000000D+00  0.000000D+00  0.000000D+00  0.000000D+00
    138   0.000000D+00  0.000000D+00  0.000000D+00  0.000000D+00  0.000000D+00
    139   0.000000D+00  0.000000D+00  0.000000D+00  0.000000D+00  0.000000D+00
    140   0.000000D+00  0.000000D+00  0.000000D+00  0.000000D+00  0.000000D+00
    141   0.000000D+00  0.000000D+00  0.000000D+00  0.000000D+00  0.000000D+00
    142   0.000000D+00  0.000000D+00  0.000000D+00  0.000000D+00  0.000000D+00
    143   0.000000D+00  0.000000D+00  0.000000D+00  0.000000D+00  0.000000D+00
    144   0.000000D+00  0.000000D+00  0.000000D+00  0.000000D+00  0.000000D+00
    145   0.000000D+00  0.000000D+00  0.000000D+00  0.000000D+00  0.000000D+00
    146   0.000000D+00  0.000000D+00  0.000000D+00  0.000000D+00  0.000000D+00
    147   0.000000D+00  0.000000D+00  0.000000D+00  0.000000D+00  0.000000D+00
    148   0.000000D+00  0.000000D+00  0.000000D+00  0.000000D+00  0.000000D+00
    149   0.000000D+00  0.000000D+00  0.000000D+00  0.000000D+00  0.000000D+00
    150   0.000000D+00  0.000000D+00  0.000000D+00  0.000000D+00  0.000000D+00
    151   0.000000D+00  0.000000D+00  0.000000D+00  0.000000D+00  0.000000D+00
    152   0.000000D+00  0.000000D+00  0.000000D+00  0.000000D+00  0.000000D+00
    153   0.000000D+00  0.000000D+00  0.000000D+00  0.000000D+00  0.000000D+00
    154   0.000000D+00  0.000000D+00  0.000000D+00  0.000000D+00  0.000000D+00
    155   0.000000D+00  0.000000D+00  0.000000D+00  0.000000D+00  0.000000D+00
    156   0.000000D+00  0.000000D+00  0.000000D+00  0.000000D+00  0.000000D+00
    157   0.000000D+00  0.000000D+00  0.000000D+00  0.000000D+00  0.000000D+00
    158   0.000000D+00  0.000000D+00  0.000000D+00  0.000000D+00  0.000000D+00
    159   0.000000D+00  0.000000D+00  0.000000D+00  0.000000D+00  0.000000D+00
    160   0.000000D+00  0.000000D+00  0.000000D+00  0.000000D+00  0.000000D+00
    161   0.000000D+00  0.000000D+00  0.000000D+00  0.000000D+00  0.000000D+00
    162   0.000000D+00  0.000000D+00  0.000000D+00  0.000000D+00  0.000000D+00
    163   0.000000D+00  0.000000D+00  0.000000D+00  0.000000D+00  0.000000D+00
    164   0.000000D+00  0.000000D+00  0.000000D+00  0.000000D+00  0.000000D+00
    165   0.000000D+00  0.000000D+00  0.000000D+00  0.000000D+00  0.000000D+00
    166   0.000000D+00  0.000000D+00  0.000000D+00  0.000000D+00  0.000000D+00
    167   0.000000D+00  0.000000D+00  0.000000D+00  0.000000D+00  0.000000D+00
    168   0.000000D+00  0.000000D+00  0.000000D+00  0.000000D+00  0.000000D+00
    169   0.000000D+00  0.000000D+00  0.000000D+00  0.000000D+00  0.000000D+00
    170   0.000000D+00  0.000000D+00  0.000000D+00  0.000000D+00  0.000000D+00
    171   0.000000D+00  0.000000D+00  0.000000D+00  0.000000D+00  0.000000D+00
    172   0.000000D+00  0.000000D+00  0.000000D+00  0.000000D+00  0.000000D+00
[...]
 BA - BB |     29        30        31        32        33
------------------------------------------------------------
   29    |  1.459227  2.506799  2.506799  0.828839  0.828839
   29    |  0.000000  2.031918  2.031918  0.000000  0.000000
         |
   30    |  1.610863  1.257016  3.217646  2.112541  2.112541
   30    |  1.321256  0.000000  0.821330  0.000000  0.000000
         |
   31    |  1.610863  0.448838  1.257016  2.112541  2.112541
   31    |  1.321256  0.448838  0.000000  0.000000  0.000000
         |
   32    |  0.896363  1.103182  1.103182  0.000000  0.607333
   32    |  0.000000  0.000000  0.000000  0.000000  0.000000
         |
   33    |  0.896363  1.103182  1.103182  0.000000  0.000000
   33    |  0.000000  0.000000  0.000000  0.000000  0.000000
         |

                   MP2(CBS) Pair Energies
                   ----------------------

 AB - AA |     29        30        31        32        33
 BA - BB |     29        30        31        32        33
------------------------------------------------------------
   29    | -0.019855 -0.001950 -0.001950 -0.006125 -0.006125
   29    |  0.000000 -0.002485 -0.002485  0.000000  0.000000
         |
   30    | -0.005624 -0.021634 -0.000047 -0.002343 -0.002343
   30    | -0.006318  0.000000 -0.000192  0.000000  0.000000
         |
   31    | -0.005624 -0.000182 -0.021634 -0.002343 -0.002343
   31    | -0.006318 -0.000182  0.000000  0.000000  0.000000
         |
   32    | -0.010847 -0.006688 -0.006688  0.000000 -0.007592
   32    |  0.000000  0.000000  0.000000  0.000000  0.000000
         |
   33    | -0.010847 -0.006688 -0.006688  0.000000  0.000000
   33    |  0.000000  0.000000  0.000000  0.000000  0.000000
         |

                     Sum of ab pair energies =    -0.122999 A.U.
                     Sum of ba pair energies =    -0.012819 A.U.
                     Sum of aa pair energies =    -0.033163 A.U.
                     Sum of bb pair energies =    -0.005162 A.U.

           Sum of intraorbital pair energies =    -0.063122 A.U.
           Sum of interorbital pair energies =    -0.111021 A.U.
                                                  ----------
                         Total pair energies =    -0.174143 A.U.

                         Single Excitations  =    -0.001712 A.U.

                          Total second order =    -0.175855 A.U.



            MP2(CBS) (With Interference Correction) 
            ---------------------------------------

 AB - AA |     29        30        31        32        33
 BA - BB |     29        30        31        32        33
------------------------------------------------------------
   29    | -0.019423 -0.001941 -0.001941 -0.006116 -0.006116
   29    |  0.000000 -0.002475 -0.002475  0.000000  0.000000
         |
   30    | -0.005552 -0.021253 -0.000047 -0.002333 -0.002333
   30    | -0.006243  0.000000 -0.000192  0.000000  0.000000
         |
   31    | -0.005552 -0.000182 -0.021253 -0.002333 -0.002333
   31    | -0.006243 -0.000182  0.000000  0.000000  0.000000
         |
   32    | -0.010714 -0.006613 -0.006613  0.000000 -0.007581
   32    |  0.000000  0.000000  0.000000  0.000000  0.000000
         |
   33    | -0.010714 -0.006613 -0.006613  0.000000  0.000000
   33    |  0.000000  0.000000  0.000000  0.000000  0.000000
         |

                     Sum of ab pair energies =    -0.121094 A.U.
                     Sum of ba pair energies =    -0.012669 A.U.
                     Sum of aa pair energies =    -0.033075 A.U.
                     Sum of bb pair energies =    -0.005141 A.U.

           Sum of intraorbital pair energies =    -0.061930 A.U.
           Sum of interorbital pair energies =    -0.110050 A.U.
                                                  ----------
                         Total pair energies =    -0.171979 A.U.

                         Single Excitations  =    -0.001712 A.U.

                          Total second order =    -0.173692 A.U.

                         E2(CBS) - E2(Dir) =      -0.003692 A.U.

 E2(CBS)=      -0.175855 CBS-Int=       0.002164 OIii=       0.753097

 **********************************************************************

            Population analysis using the SCF density.

 **********************************************************************

 Orbital symmetries:
       Occupied  (SGG) (SGU) (SGG) (SGU) (PIG) (PIG) (PIU) (PIU)
                 (SGU) (SGG) (SGG) (SGU) (PIU) (PIU) (PIG) (PIG)
                 (SGG) (SGU) (DLTG) (DLTG) (DLTU) (DLTU) (SGG)
                 (PIU) (PIU) (PIG) (PIG) (SGU) (SGG) (SGU) (SGG)
                 (PIU) (PIU)
       Virtual   (PIG) (PIG) (SGU) (SGG) (PIU) (PIU) (SGG) (PIG)
                 (PIG) (SGU) (SGU) (DLTG) (DLTG) (PIU) (PIU) (SGG)
                 (DLTU) (DLTU) (PIU) (PIU) (SGU) (PIG) (PIG) (SGG)
                 (SGU) (PIG) (PIG) (SGG) (PHIU) (PHIU) (DLTG) (DLTG)
                 (PIU) (PIU) (SGU) (DLTG) (DLTG) (SGG) (PHIG) (PHIG)
                 (DLTU) (DLTU) (SGU) (PIG) (PIG) (PIU) (PIU) (PIU)
                 (PIU) (SGG) (DLTU) (DLTU) (PIG) (PIG) (SGU) (SGG)
                 (PIG) (PIG) (SGU) (SGG) (PHIU) (PHIU) (?A) (?A)
                 (PIU) (PIU) (DLTG) (DLTG) (SGG) (?B) (?B) (DLTG)
                 (DLTG) (DLTU) (DLTU) (PHIU) (PHIU) (PHIG) (PHIG)
                 (SGU) (PIG) (PIG) (DLTG) (DLTG) (PHIG) (PHIG)
                 (PIU) (PIU) (SGU) (DLTU) (DLTU) (PIG) (PIG) (SGG)
                 (SGU) (PIU) (PIU) (DLTU) (DLTU) (PIU) (PIU) (SGG)
                 (?A) (?A) (PIG) (PIG) (?C) (?C) (PHIU) (PHIU)
                 (?D) (?D) (SGG) (SGU) (PIG) (PIG) (?B) (?B) (DLTG)
                 (DLTG) (SGG) (PIU) (PIU) (SGU) (PHIG) (PHIG) (PIG)
                 (PIG) (DLTU) (DLTU) (SGU) (PHIU) (PHIU) (?A) (?A)
                 (SGG) (?B) (?B) (DLTG) (DLTG) (DLTG) (DLTG) (PHIU)
                 (PHIU) (PIU) (PIU) (PHIG) (PHIG) (DLTU) (DLTU)
                 (DLTG) (DLTG) (PHIG) (PHIG) (SGG) (PIG) (PIG)
                 (PIU) (PIU) (SGU) (DLTU) (DLTU) (SGU) (PIU) (PIU)
                 (SGG) (DLTU) (DLTU) (PIG) (PIG) (?A) (?A) (SGU)
                 (?C) (?C) (SGG) (?E) (?E) (PHIU) (PHIU) (?F) (?F)
                 (PIU) (PIU) (PIG) (PIG) (?D) (?D) (DLTG) (DLTG)
                 (SGU) (SGG) (?B) (?B) (PIG) (PIG) (PIU) (PIU)
                 (?A) (?A) (?C) (?C) (?D) (?D) (PHIU) (PHIU) (?B)
                 (?B) (PHIG) (PHIG) (SGG) (SGU) (PIG) (PIG) (SGG)
                 (DLTU) (DLTU) (PHIG) (PHIG) (DLTG) (DLTG) (PIU)
                 (PIU) (DLTU) (DLTU) (SGU) (SGU) (PIG) (PIG) (?A)
                 (?A) (PHIU) (PHIU) (?B) (?B) (PHIU) (PHIU) (DLTG)
                 (DLTG) (PHIG) (PHIG) (DLTG) (DLTG) (PHIG) (PHIG)
                 (DLTG) (DLTG) (PIU) (PIU) (DLTU) (DLTU) (SGG)
                 (PIG) (PIG) (SGG) (DLTU) (DLTU) (SGU) (PIU) (PIU)
                 (PIU) (PIU) (DLTU) (DLTU) (PIG) (PIG) (SGU) (?A)
                 (?A) (PHIU) (PHIU) (?C) (?C) (SGG) (?E) (?E) (?G)
                 (?G) (?H) (?H) (?F) (?F) (DLTG) (DLTG) (SGU) (?D)
                 (?D) (SGG) (?B) (?B) (PIU) (PIU) (PIU) (PIU) (PIG)
                 (PIG) (PIG) (PIG) (SGU) (SGG) (PHIG) (PHIG) (SGG)
                 (DLTU) (DLTU) (PIG) (PIG) (SGU) (?C) (?C) (?A)
                 (?A) (?C) (?C) (PHIU) (PHIU) (?D) (?D) (?A) (?A)
                 (?E) (?E) (?F) (?F) (?B) (?B) (?D) (?D) (DLTG)
                 (DLTG) (PHIU) (PHIU) (PHIG) (PHIG) (?B) (?B) (PIU)
                 (PIU) (SGU) (SGG) (PIG) (PIG) (DLTU) (DLTU) (PHIG)
                 (PHIG) (DLTG) (DLTG) (PIU) (PIU) (SGU) (DLTU)
                 (DLTU) (SGG) (SGU) (PIG) (PIG) (PHIU) (PHIU) (PHIG)
                 (PHIG) (DLTG) (DLTG) (DLTU) (DLTU) (?A) (?A) (PHIU)
                 (PHIU) (?B) (?B) (DLTG) (DLTG) (PHIG) (PHIG) (PIU)
                 (PIU) (SGG) (PIG) (PIG) (SGU) (DLTU) (DLTU) (PIU)
                 (PIU) (SGG) (PIG) (PIG) (DLTG) (DLTG) (DLTU) (DLTU)
                 (SGU) (PIU) (PIU) (PIG) (PIG) (SGU) (SGG) (PIU)
                 (PIU) (PIG) (PIG) (SGG) (SGU) (SGG) (SGU) (SGG)
                 (SGU)
 The electronic state is 3-SGG.
 Alpha  occ. eigenvalues -- -405.24784-405.24784 -52.15299 -52.15299 -46.24033
 Alpha  occ. eigenvalues --  -46.24033 -46.24033 -46.24033 -46.23786 -46.23786
 Alpha  occ. eigenvalues --   -7.19490  -7.19483  -5.16918  -5.16918  -5.16913
 Alpha  occ. eigenvalues --   -5.16913  -5.16152  -5.16123  -1.64486  -1.64486
 Alpha  occ. eigenvalues --   -1.64429  -1.64429  -1.63822  -1.63822  -1.63758
 Alpha  occ. eigenvalues --   -1.63546  -1.63546  -1.63121  -0.69961  -0.52325
 Alpha  occ. eigenvalues --   -0.29327  -0.28220  -0.28220
 Alpha virt. eigenvalues --   -0.00321  -0.00321   0.03534   0.04907   0.05113
 Alpha virt. eigenvalues --    0.05113   0.06398   0.07488   0.07488   0.11447
 Alpha virt. eigenvalues --    0.13865   0.15918   0.15918   0.21114   0.21114
 Alpha virt. eigenvalues --    0.22006   0.24657   0.24657   0.24791   0.24791
 Alpha virt. eigenvalues --    0.27466   0.27574   0.27574   0.27912   0.33021
 Alpha virt. eigenvalues --    0.34397   0.34397   0.36959   0.47782   0.47782
 Alpha virt. eigenvalues --    0.48314   0.48314   0.49302   0.49302   0.51817
 Alpha virt. eigenvalues --    0.55218   0.55218   0.56180   0.57736   0.57736
 Alpha virt. eigenvalues --    0.57764   0.57764   0.67259   0.67673   0.67673
 Alpha virt. eigenvalues --    0.68422   0.68422   0.70339   0.70339   0.70714
 Alpha virt. eigenvalues --    0.70778   0.70778   0.71955   0.71955   0.75448
 Alpha virt. eigenvalues --    0.85321   0.85568   0.85568   0.94025   0.96631
 Alpha virt. eigenvalues --    1.03388   1.03388   1.04243   1.04243   1.10438
 Alpha virt. eigenvalues --    1.10438   1.11559   1.11559   1.12478   1.12904
 Alpha virt. eigenvalues --    1.12904   1.22625   1.22625   1.25636   1.25636
 Alpha virt. eigenvalues --    1.26420   1.26420   1.27026   1.27026   1.29526
 Alpha virt. eigenvalues --    1.29526   1.29616   1.32029   1.32029   1.33044
 Alpha virt. eigenvalues --    1.33044   1.35406   1.35406   1.36123   1.40545
 Alpha virt. eigenvalues --    1.40545   1.47133   1.47133   1.47718   1.50275
 Alpha virt. eigenvalues --    1.52624   1.52624   1.53881   1.53881   1.59229
 Alpha virt. eigenvalues --    1.59229   1.62735   1.64176   1.64176   1.64732
 Alpha virt. eigenvalues --    1.64732   1.68726   1.68726   1.75421   1.75421
 Alpha virt. eigenvalues --    1.75585   1.75585   1.77444   1.78750   1.89017
 Alpha virt. eigenvalues --    1.89017   1.90559   1.90559   1.98147   1.98147
 Alpha virt. eigenvalues --    2.02144   2.07826   2.07826   2.11083   2.16587
 Alpha virt. eigenvalues --    2.16587   2.20362   2.20362   2.30083   2.30083
 Alpha virt. eigenvalues --    2.36027   2.50238   2.50238   2.50774   2.50774
 Alpha virt. eigenvalues --    2.51528   2.55438   2.55438   2.57162   2.57162
 Alpha virt. eigenvalues --    2.59239   2.59239   2.59353   2.59353   2.60477
 Alpha virt. eigenvalues --    2.60477   2.63305   2.63305   2.64475   2.64475
 Alpha virt. eigenvalues --    2.65674   2.65674   2.68754   2.68754   2.74144
 Alpha virt. eigenvalues --    2.76532   2.76532   2.76553   2.76553   2.81772
 Alpha virt. eigenvalues --    2.85501   2.85501   2.89942   2.91345   2.91345
 Alpha virt. eigenvalues --    2.91557   2.94034   2.94034   3.06143   3.06143
 Alpha virt. eigenvalues --    3.10021   3.10021   3.10275   3.15531   3.15531
 Alpha virt. eigenvalues --    3.19194   3.22071   3.22071   3.22612   3.22612
 Alpha virt. eigenvalues --    3.24514   3.24514   3.25212   3.25212   3.28917
 Alpha virt. eigenvalues --    3.28917   3.34094   3.34094   3.47672   3.47672
 Alpha virt. eigenvalues --    3.49739   3.55289   3.58550   3.58550   3.58774
 Alpha virt. eigenvalues --    3.58774   3.72405   3.72405   3.76600   3.76600
 Alpha virt. eigenvalues --    3.76948   3.76948   3.80628   3.80628   3.86880
 Alpha virt. eigenvalues --    3.86880   3.91444   3.91444   3.94292   3.94292
 Alpha virt. eigenvalues --    4.04169   4.04608   4.08074   4.08074   4.13537
 Alpha virt. eigenvalues --    4.14971   4.14971   4.16015   4.16015   4.16270
 Alpha virt. eigenvalues --    4.16270   4.21752   4.21752   4.45372   4.45372
 Alpha virt. eigenvalues --    4.53290   4.68244   4.68782   4.68782   5.08204
 Alpha virt. eigenvalues --    5.08204   5.09085   5.09085   5.12136   5.12136
 Alpha virt. eigenvalues --    5.12254   5.12254   5.13916   5.13916   5.15964
 Alpha virt. eigenvalues --    5.15964   5.22083   5.22083   5.24330   5.24330
 Alpha virt. eigenvalues --    5.31527   5.31527   5.33960   5.33960   5.34473
 Alpha virt. eigenvalues --    5.34473   5.38320   5.38963   5.38963   5.40393
 Alpha virt. eigenvalues --    5.41196   5.41196   5.42868   5.44431   5.44431
 Alpha virt. eigenvalues --    5.54538   5.54538   5.61133   5.61133   5.80014
 Alpha virt. eigenvalues --    5.80014   5.85961   5.93695   5.93695   5.94427
 Alpha virt. eigenvalues --    5.94427   6.03500   6.03500   6.04006   6.09431
 Alpha virt. eigenvalues --    6.09431   6.09908   6.09908   6.10141   6.10141
 Alpha virt. eigenvalues --    6.12716   6.12716   6.13732   6.13732   6.18818
 Alpha virt. eigenvalues --    6.21495   6.21495   6.33319   6.44895   6.44895
 Alpha virt. eigenvalues --    6.46113   6.46113   6.51816   6.51816   6.53346
 Alpha virt. eigenvalues --    6.53346   6.63634   6.63634   6.73140   6.74839
 Alpha virt. eigenvalues --    6.82400   6.82400   7.09181   7.10360   7.10360
 Alpha virt. eigenvalues --    7.24676   7.24676   7.31350   7.32618   7.32618
 Alpha virt. eigenvalues --    7.32646   7.32646   7.34298   7.34298   7.34866
 Alpha virt. eigenvalues --    7.34866   7.35151   7.35151   7.35574   7.35574
 Alpha virt. eigenvalues --    7.35574   7.35574   7.36905   7.36905   7.41102
 Alpha virt. eigenvalues --    7.41102   7.43712   7.43712   7.46478   7.46478
 Alpha virt. eigenvalues --    7.55453   7.55453   7.60617   7.60617   7.61714
 Alpha virt. eigenvalues --    7.61714   7.65299   7.65299   7.82676   7.83168
 Alpha virt. eigenvalues --    7.89713   7.89713   7.93810   7.93810   7.94590
 Alpha virt. eigenvalues --    7.94590   7.97258   7.97258   8.22543   8.22543
 Alpha virt. eigenvalues --    8.25901   8.38186   8.38186   8.42561   8.51380
 Alpha virt. eigenvalues --    8.76845   8.76845   9.43544   9.43544   9.47139
 Alpha virt. eigenvalues --    9.47139   9.48624   9.48624   9.69819   9.69819
 Alpha virt. eigenvalues --    9.71312   9.71312   9.72523   9.72523   9.74287
 Alpha virt. eigenvalues --    9.74287   9.82979   9.82979   9.84551   9.84551
 Alpha virt. eigenvalues --    9.85005   9.85005   9.90318  10.02954  10.02954
 Alpha virt. eigenvalues --   10.13507  10.22344  10.22344  10.24709  10.24709
 Alpha virt. eigenvalues --   10.41411  10.93936  10.93936  11.06598  11.06598
 Alpha virt. eigenvalues --   11.13912  11.13912  11.16063  11.32406  11.32406
 Alpha virt. eigenvalues --   11.98503  11.98503  12.22080  12.86889  14.39927
 Alpha virt. eigenvalues --   14.39927  14.50235  14.50235  14.70928  14.98335
 Alpha virt. eigenvalues --   15.26749  16.47510 491.64662 491.98095
          Condensed to atoms (all electrons):
              1          2
     1  Ge  31.532386   0.467614
     2  Ge   0.467614  31.532386
 Mulliken atomic charges:
              1
     1  Ge   0.000000
     2  Ge   0.000000
 Sum of Mulliken atomic charges =   0.00000
 Mulliken charges with hydrogens summed into heavy atoms:
              1
     1  Ge   0.000000
     2  Ge   0.000000
 Sum of Mulliken charges with hydrogens summed into heavy atoms =   0.00000
          Atomic-Atomic Spin Densities.
              1          2
     1  Ge   0.726126   0.273874
     2  Ge   0.273874   0.726126
 Mulliken atomic spin densities:
              1
     1  Ge   1.000000
     2  Ge   1.000000
 Sum of Mulliken atomic spin densities =   2.00000
 Electronic spatial extent (au):  <R**2>=            447.2190
 Charge=              0.0000 electrons
 Dipole moment (field-independent basis, Debye):
    X=              0.0000    Y=              0.0000    Z=              0.0000  Tot=              0.0000
 Quadrupole moment (field-independent basis, Debye-Ang):
   XX=            -35.6448   YY=            -35.6448   ZZ=            -40.4933
   XY=              0.0000   XZ=              0.0000   YZ=              0.0000
 Traceless Quadrupole moment (field-independent basis, Debye-Ang):
   XX=              1.6162   YY=              1.6162   ZZ=             -3.2323
   XY=              0.0000   XZ=              0.0000   YZ=              0.0000
 Octapole moment (field-independent basis, Debye-Ang**2):
  XXX=              0.0000  YYY=              0.0000  ZZZ=              0.0000  XYY=              0.0000
  XXY=              0.0000  XXZ=              0.0000  XZZ=              0.0000  YZZ=              0.0000
  YYZ=              0.0000  XYZ=              0.0000
 Hexadecapole moment (field-independent basis, Debye-Ang**3):
 XXXX=            -64.8911 YYYY=            -64.8911 ZZZZ=           -468.7351 XXXY=              0.0000
 XXXZ=              0.0000 YYYX=              0.0000 YYYZ=              0.0000 ZZZX=              0.0000
 ZZZY=              0.0000 XXYY=            -21.6304 XXZZ=            -78.2374 YYZZ=            -78.2374
 XXYZ=              0.0000 YYXZ=              0.0000 ZZXY=              0.0000
 N-N= 2.146559426383D+02 E-N=-1.553498333115D+04  KE= 6.224907004442D+03
                          Isotropic Fermi Contact Couplings
        Atom                 a.u.       MegaHertz       Gauss      10(-4) cm-1
     1  Ge(73)             0.00000       0.00000       0.00000       0.00000
     2  Ge(73)             0.00000       0.00000       0.00000       0.00000
 --------------------------------------------------------
       Center         ----  Spin Dipole Couplings  ----
                      3XX-RR        3YY-RR        3ZZ-RR
 --------------------------------------------------------
     1   Atom        0.750200      0.750200     -1.500401
     2   Atom        0.750200      0.750200     -1.500401
 --------------------------------------------------------
                        XY            XZ            YZ
 --------------------------------------------------------
     1   Atom        0.000000      0.000000      0.000000
     2   Atom        0.000000      0.000000      0.000000
 --------------------------------------------------------


 ---------------------------------------------------------------------------------
              Anisotropic Spin Dipole Couplings in Principal Axis System
 ---------------------------------------------------------------------------------

       Atom             a.u.   MegaHertz   Gauss  10(-4) cm-1        Axes

              Baa    -1.5004    28.010     9.995     9.343  0.0000  0.0000  1.0000
     1 Ge(73) Bbb     0.7502   -14.005    -4.997    -4.672  0.0008  1.0000  0.0000
              Bcc     0.7502   -14.005    -4.997    -4.672  1.0000 -0.0008  0.0000
 
              Baa    -1.5004    28.010     9.995     9.343  0.0000  0.0000  1.0000
     2 Ge(73) Bbb     0.7502   -14.005    -4.997    -4.672  0.0008  1.0000  0.0000
              Bcc     0.7502   -14.005    -4.997    -4.672  1.0000 -0.0008  0.0000
 

 ---------------------------------------------------------------------------------


 Test job not archived.
 1\1\GINC-C35\SP\ROMP2-RW\Gen\Ge2(3)\GPETERSSON\24-Feb-2013\0\\# ROMP2(
 RW) Gen GFinput Int=NoBasisTransform Int(Grid=Ultrafine) IOp(3/32=2,5/
 6=10,8/11=1,9/33=1) Maxdisk=128GB CBSextrapolate(Nmin=25,MinPop)\\Ge2\
 \0,3\Ge\Ge,1,2.5244\\Version=EM64L-G09RevA.02\State=3-SGG\HF=-4150.768
 1217\MP2=-4150.9402853\E2(CBS)=-0.1758553\CBS-Int=-0.1736916\OIii=0.75
 30973\RMSD=2.751e-11\PG=D*H [C*(Ge1.Ge1)]\\@


 NEVER TEACH A PIG TO SING.
 IT WASTES YOUR TIME AND ANNOYS THE PIG.
     -- SEEN ON A GREETING CARD
 Job cpu time:  2 days  6 hours 29 minutes 53.0 seconds.
 File lengths (MBytes):  RWF=   5139 Int=      0 D2E=      0 Chk=     16 Scr=      1
 Normal termination of Gaussian 09 at Sun Feb 24 21:41:14 2013.
