 Entering Gaussian System, Link 0=g09
 AtFile(1): 6ZaP-NR.gbs
 Initial command:
 /share/apps/gaussian/g09root/g09/l1.exe /localscratch/737989/Gau-8926.inp -scrdir=/localscratch/737989/
 Entering Link 1 = /share/apps/gaussian/g09root/g09/l1.exe PID=      8927.
  
 Copyright (c) 1988,1990,1992,1993,1995,1998,2003,2009, Gaussian, Inc.
                  All Rights Reserved.
  
 This is part of the Gaussian(R) 09 program.  It is based on
 the Gaussian(R) 03 system (copyright 2003, Gaussian, Inc.),
 the Gaussian(R) 98 system (copyright 1998, Gaussian, Inc.),
 the Gaussian(R) 94 system (copyright 1995, Gaussian, Inc.),
 the Gaussian 92(TM) system (copyright 1992, Gaussian, Inc.),
 the Gaussian 90(TM) system (copyright 1990, Gaussian, Inc.),
 the Gaussian 88(TM) system (copyright 1988, Gaussian, Inc.),
 the Gaussian 86(TM) system (copyright 1986, Carnegie Mellon
 University), and the Gaussian 82(TM) system (copyright 1983,
 Carnegie Mellon University). Gaussian is a federally registered
 trademark of Gaussian, Inc.
  
 This software contains proprietary and confidential information,
 including trade secrets, belonging to Gaussian, Inc.
  
 This software is provided under written license and may be
 used, copied, transmitted, or stored only in accord with that
 written license.
  
 The following legend is applicable only to US Government
 contracts under FAR:
  
                    RESTRICTED RIGHTS LEGEND
  
 Use, reproduction and disclosure by the US Government is
 subject to restrictions as set forth in subparagraphs (a)
 and (c) of the Commercial Computer Software - Restricted
 Rights clause in FAR 52.227-19.
  
 Gaussian, Inc.
 340 Quinnipiac St., Bldg. 40, Wallingford CT 06492
  
  
 ---------------------------------------------------------------
 Warning -- This program may not be used in any manner that
 competes with the business of Gaussian, Inc. or will provide
 assistance to any competitor of Gaussian, Inc.  The licensee
 of this program is prohibited from giving any competitor of
 Gaussian, Inc. access to this program.  By using this program,
 the user acknowledges that Gaussian, Inc. is engaged in the
 business of creating and licensing software in the field of
 computational chemistry and represents and warrants to the
 licensee that it is not a competitor of Gaussian, Inc. and that
 it will not use this program in any manner prohibited above.
 ---------------------------------------------------------------
  

 Cite this work as:
 Gaussian 09, Revision A.02,
 M. J. Frisch, G. W. Trucks, H. B. Schlegel, G. E. Scuseria, 
 M. A. Robb, J. R. Cheeseman, G. Scalmani, V. Barone, B. Mennucci, 
 G. A. Petersson, H. Nakatsuji, M. Caricato, X. Li, H. P. Hratchian, 
 A. F. Izmaylov, J. Bloino, G. Zheng, J. L. Sonnenberg, M. Hada, 
 M. Ehara, K. Toyota, R. Fukuda, J. Hasegawa, M. Ishida, T. Nakajima, 
 Y. Honda, O. Kitao, H. Nakai, T. Vreven, J. A. Montgomery, Jr., 
 J. E. Peralta, F. Ogliaro, M. Bearpark, J. J. Heyd, E. Brothers, 
 K. N. Kudin, V. N. Staroverov, R. Kobayashi, J. Normand, 
 K. Raghavachari, A. Rendell, J. C. Burant, S. S. Iyengar, J. Tomasi, 
 M. Cossi, N. Rega, J. M. Millam, M. Klene, J. E. Knox, J. B. Cross, 
 V. Bakken, C. Adamo, J. Jaramillo, R. Gomperts, R. E. Stratmann, 
 O. Yazyev, A. J. Austin, R. Cammi, C. Pomelli, J. W. Ochterski, 
 R. L. Martin, K. Morokuma, V. G. Zakrzewski, G. A. Voth, 
 P. Salvador, J. J. Dannenberg, S. Dapprich, A. D. Daniels, 
 O. Farkas, J. B. Foresman, J. V. Ortiz, J. Cioslowski, 
 and D. J. Fox, Gaussian, Inc., Wallingford CT, 2009.
 
 ******************************************
 Gaussian 09:  EM64L-G09RevA.02 11-Jun-2009
                23-Aug-2012 
 ******************************************
 % Mem=12GB
 % Nproc=8
 Will use up to    8 processors via shared memory.
 ----------------------------------------------------------------------
 # ROMP2(RW) Gen GFinput Int=NoBasisTransform Int(Grid=Ultrafine) IOp(3
 /32=2,5/6=10,8/11=1,9/33=1) Maxdisk=128GB CBSextrapolate(Nmin=20,MinPo
 p)
 ----------------------------------------------------------------------
 1/38=1/1;
 2/12=2,17=6,18=5,40=1/2;
 3/5=7,11=2,16=1,24=10,25=1,30=1,32=2,60=-1,75=-5,116=101/1,2,3;
 4//1;
 5/5=2,6=10,38=5/2;
 8/5=-1,10=91,11=1/1;
 9/16=-3,33=1,75=2,81=20,83=4/6,4;
 6/7=2,8=2,9=2,10=2/1;
 99/5=1,9=1/99;
 ----
 GeH4
 ----
 Symbolic Z-matrix:
 Charge =  0 Multiplicity = 1
 Ge
 H                    1    Rgeh
 H                    1    Rgeh     2    Ahgeh
 H                    1    Rgeh     2    Ahgeh    3     120.     0
 H                    1    Rgeh     2    Ahgeh    3     240.     0
       Variables:
  Rgeh                  1.54097                  
  Ahgeh               109.47122                  
 
     3 tetrahedral angles replaced.
    3 tetrahedral angles replaced.
                          Input orientation:                          
 ---------------------------------------------------------------------
 Center     Atomic      Atomic             Coordinates (Angstroms)
 Number     Number       Type             X           Y           Z
 ---------------------------------------------------------------------
      1         32           0        0.000000    0.000000    0.000000
      2          1           0        0.000000    0.000000    1.540971
      3          1           0        1.452841    0.000000   -0.513657
      4          1           0       -0.726421   -1.258197   -0.513657
      5          1           0       -0.726421    1.258197   -0.513657
 ---------------------------------------------------------------------
                    Distance matrix (angstroms):
                    1          2          3          4          5
     1  Ge   0.000000
     2  H    1.540971   0.000000
     3  H    1.540971   2.516395   0.000000
     4  H    1.540971   2.516395   2.516395   0.000000
     5  H    1.540971   2.516395   2.516395   2.516395   0.000000
 Stoichiometry    GeH4
 Framework group  TD[O(Ge),4C3(H)]
 Deg. of freedom     1
 Full point group                 TD      NOp  24
 Largest Abelian subgroup         D2      NOp   4
 Largest concise Abelian subgroup D2      NOp   4
                         Standard orientation:                         
 ---------------------------------------------------------------------
 Center     Atomic      Atomic             Coordinates (Angstroms)
 Number     Number       Type             X           Y           Z
 ---------------------------------------------------------------------
      1         32           0        0.000000    0.000000    0.000000
      2          1           0        0.889680    0.889680    0.889680
      3          1           0       -0.889680   -0.889680    0.889680
      4          1           0       -0.889680    0.889680   -0.889680
      5          1           0        0.889680   -0.889680   -0.889680
 ---------------------------------------------------------------------
 Rotational constants (GHZ):     79.1907563     79.1907563     79.1907563
 General basis read from cards:  (5D, 7F)
 AO basis set in the form of general basis input (Overlap normalization):
      1 0
 S  17 1.00       0.000000000000
      0.4122268980D+08  0.7619756521D-06
      0.7983313080D+07  0.4552129250D-05
      0.1851734950D+07  0.2579634585D-04
      0.5015949500D+06  0.1177488900D-03
      0.1551136690D+06  0.4602311083D-03
      0.5365983180D+05  0.1569185995D-02
      0.2039333180D+05  0.4776087633D-02
      0.8378829330D+04  0.1316591352D-01
      0.3669040500D+04  0.3312711738D-01
      0.1690971220D+04  0.7559901259D-01
      0.8111844160D+03  0.1525645339D+00
      0.4011013350D+03  0.2563840676D+00
      0.2026652420D+03  0.3169496769D+00
      0.1038351640D+03  0.2267270383D+00
      0.5357110400D+02  0.6330876023D-01
      0.2765489200D+02  0.3967379286D-02
      0.1419965900D+02  0.8167901390D-03
 S  14 1.00       0.000000000000
      0.2039333180D+05 -0.7749397977D-05
      0.8378829330D+04 -0.4610141918D-04
      0.3669040500D+04 -0.3100309063D-03
      0.1690971220D+04 -0.1507914846D-02
      0.8111844160D+03 -0.6697310930D-02
      0.4011013350D+03 -0.2357187335D-01
      0.2026652420D+03 -0.6393740340D-01
      0.1038351640D+03 -0.9011602194D-01
      0.5357110400D+02  0.4095639915D-01
      0.2765489200D+02  0.4037319950D+00
      0.1419965900D+02  0.5051005263D+00
      0.7210321000D+01  0.1668663852D+00
      0.3600202000D+01  0.1139208356D-01
      0.1757356000D+01  0.1324887454D-02
 P  15 1.00       0.000000000000
      0.5878475230D+05  0.1006770135D-04
      0.1546268820D+05  0.8140951624D-04
      0.4914418670D+04  0.5222832948D-03
      0.1817946780D+04  0.2522060957D-02
      0.7576001320D+03  0.9720853573D-02
      0.3457718700D+03  0.3064819679D-01
      0.1687033210D+03  0.8056813532D-01
      0.8620415300D+02  0.1720032475D+00
      0.4534423200D+02  0.2849829350D+00
      0.2420451000D+02  0.3319826586D+00
      0.1295848500D+02  0.2131544666D+00
      0.6892095000D+01  0.5640803863D-01
      0.3613555000D+01  0.5184769002D-02
      0.1856025000D+01  0.5206101202D-03
      0.9290730000D+00  0.7906999012D-04
 S  11 1.00       0.000000000000
      0.4011013350D+03  0.1047011300D-03
      0.2026652420D+03  0.9847131968D-03
      0.1038351640D+03  0.2930755417D-02
      0.5357110400D+02  0.4496547850D-03
      0.2765489200D+02 -0.6289553483D-01
      0.1419965900D+02 -0.2098247288D+00
      0.7210321000D+01 -0.2917578469D-01
      0.3600202000D+01  0.4908547261D+00
      0.1757356000D+01  0.5615823628D+00
      0.8334510000D+00  0.1355687727D+00
      0.3815050000D+00  0.5204371907D-03
 P  13 1.00       0.000000000000
      0.7576001320D+03 -0.2824773122D-04
      0.3457718700D+03 -0.2413332076D-03
      0.1687033210D+03 -0.1366796304D-02
      0.8620415300D+02 -0.5483384495D-02
      0.4534423200D+02 -0.1431010805D-01
      0.2420451000D+02 -0.2339127344D-01
      0.1295848500D+02  0.3333937534D-01
      0.6892095000D+01  0.2176226158D+00
      0.3613555000D+01  0.3898925110D+00
      0.1856025000D+01  0.3504488772D+00
      0.9290730000D+00  0.1279297811D+00
      0.4512270000D+00  0.1122065758D-01
      0.2117550000D+00  0.1205370065D-02
 D  14 1.00       0.000000000000
      0.2338872590D+04  0.1782214933D-04
      0.7138462740D+03  0.1839392548D-03
      0.2759750270D+03  0.1159955918D-02
      0.1238804750D+03  0.5190615105D-02
      0.6080347600D+02  0.1778811299D-01
      0.3140289600D+02  0.4826648981D-01
      0.1669260800D+02  0.1089068037D+00
      0.9031064000D+01  0.1911681811D+00
      0.4945221000D+01  0.2520581842D+00
      0.2726070000D+01  0.2658016280D+00
      0.1497064000D+01  0.2282664746D+00
      0.8020380000D+00  0.1471027401D+00
      0.4040410000D+00  0.5505737392D-01
      0.1806180000D+00  0.7091662360D-02
 S  10 1.00       0.000000000000
      0.5357110400D+02  0.1197605162D-03
      0.2765489200D+02 -0.5890639856D-03
      0.1419965900D+02  0.1759378288D-02
      0.7210321000D+01 -0.2815520502D-02
      0.3600202000D+01 -0.1475266842D-01
      0.1757356000D+01 -0.1253647537D+00
      0.8334510000D+00 -0.1312115750D+00
      0.3815050000D+00  0.3100569723D+00
      0.1673150000D+00  0.6237194810D+00
      0.6973100000D-01  0.2623474767D+00
 S   1 1.00       0.000000000000
      0.3005604675D-01  0.1000000000D+01
 P   9 1.00       0.000000000000
      0.1295848500D+02 -0.5760889576D-03
      0.6892095000D+01 -0.3590625169D-02
      0.3613555000D+01 -0.7427448563D-02
      0.1856025000D+01 -0.2065624580D-01
      0.9290730000D+00  0.3879164347D-02
      0.4512270000D+00  0.1711763425D+00
      0.2117550000D+00  0.3963212944D+00
      0.9562500000D-01  0.4212356068D+00
      0.4136600000D-01  0.1437806489D+00
 P   1 1.00       0.000000000000
      0.2153507449D-01  0.1000000000D+01
 S   1 1.00       0.000000000000
      0.2561749000D+01  0.1000000000D+01
 S   1 1.00       0.000000000000
      0.1308885000D+01  0.1000000000D+01
 S   1 1.00       0.000000000000
      0.6687540000D+00  0.1000000000D+01
 S   1 1.00       0.000000000000
      0.3416900000D+00  0.1000000000D+01
 S   1 1.00       0.000000000000
      0.1745810000D+00  0.1000000000D+01
 P   1 1.00       0.000000000000
      0.1385238000D+01  0.1000000000D+01
 P   1 1.00       0.000000000000
      0.7869510000D+00  0.1000000000D+01
 P   1 1.00       0.000000000000
      0.4470660000D+00  0.1000000000D+01
 P   1 1.00       0.000000000000
      0.2539770000D+00  0.1000000000D+01
 P   1 1.00       0.000000000000
      0.1442840000D+00  0.1000000000D+01
 D   1 1.00       0.000000000000
      0.1559087000D+01  0.1000000000D+01
 D   1 1.00       0.000000000000
      0.7885540000D+00  0.1000000000D+01
 D   1 1.00       0.000000000000
      0.3988350000D+00  0.1000000000D+01
 D   1 1.00       0.000000000000
      0.2017220000D+00  0.1000000000D+01
 D   1 1.00       0.000000000000
      0.1020270000D+00  0.1000000000D+01
 F   1 1.00       0.000000000000
      0.8916250000D+00  0.1000000000D+01
 F   1 1.00       0.000000000000
      0.5070970000D+00  0.1000000000D+01
 F   1 1.00       0.000000000000
      0.2884030000D+00  0.1000000000D+01
 F   1 1.00       0.000000000000
      0.1640240000D+00  0.1000000000D+01
 G   1 1.00       0.000000000000
      0.9272770000D+00  0.1000000000D+01
 G   1 1.00       0.000000000000
      0.5014050000D+00  0.1000000000D+01
 G   1 1.00       0.000000000000
      0.2711240000D+00  0.1000000000D+01
 H   1 1.00       0.000000000000
      0.7790020000D+00  0.1000000000D+01
 H   1 1.00       0.000000000000
      0.4026120000D+00  0.1000000000D+01
 I   1 1.00       0.000000000000
      0.6578630345D+00  0.1000000000D+01
 ****
      2 0
 S  10 1.00       0.000000000000
      0.1236550887D+04  0.5411825039D-04
      0.2770666880D+03  0.3008878800D-03
      0.6190041000D+02  0.1768785770D-02
      0.1750924900D+02  0.7217571709D-02
      0.5729993000D+01  0.2566849940D-01
      0.2065079000D+01  0.7841463929D-01
      0.8007820000D+00  0.1973910090D+00
      0.3301280000D+00  0.3598285599D+00
      0.1424660000D+00  0.3642526999D+00
      0.6222000000D-01  0.1099635200D+00
 S   1 1.00       0.000000000000
      0.2553500000D-01  0.1000000000D+01
 S   1 1.00       0.000000000000
      0.9587000000D-02  0.1000000000D+01
 S   1 1.00       0.000000000000
      0.2433484000D+01  0.1000000000D+01
 S   1 1.00       0.000000000000
      0.9567950000D+00  0.1000000000D+01
 S   1 1.00       0.000000000000
      0.3936420000D+00  0.1000000000D+01
 S   1 1.00       0.000000000000
      0.1550630000D+00  0.1000000000D+01
 S   1 1.00       0.000000000000
      0.6403400000D-01  0.1000000000D+01
 P   1 1.00       0.000000000000
      0.7153038000D+01  0.1000000000D+01
 P   1 1.00       0.000000000000
      0.2428633000D+01  0.1000000000D+01
 P   1 1.00       0.000000000000
      0.1082791000D+01  0.1000000000D+01
 P   1 1.00       0.000000000000
      0.4677970000D+00  0.1000000000D+01
 P   1 1.00       0.000000000000
      0.1959010000D+00  0.1000000000D+01
 D   1 1.00       0.000000000000
      0.6264435000D+01  0.1000000000D+01
 D   1 1.00       0.000000000000
      0.2645911000D+01  0.1000000000D+01
 D   1 1.00       0.000000000000
      0.1150688000D+01  0.1000000000D+01
 D   1 1.00       0.000000000000
      0.4254790000D+00  0.1000000000D+01
 F   1 1.00       0.000000000000
      0.3223699000D+01  0.1000000000D+01
 F   1 1.00       0.000000000000
      0.1222229000D+01  0.1000000000D+01
 F   1 1.00       0.000000000000
      0.5009380000D+00  0.1000000000D+01
 G   1 1.00       0.000000000000
      0.3442219000D+01  0.1000000000D+01
 G   1 1.00       0.000000000000
      0.1244815000D+01  0.1000000000D+01
 H   1 1.00       0.000000000000
      0.1202396970D+01  0.1000000000D+01
 ****
      3 0
 S  10 1.00       0.000000000000
      0.1236550887D+04  0.5411825039D-04
      0.2770666880D+03  0.3008878800D-03
      0.6190041000D+02  0.1768785770D-02
      0.1750924900D+02  0.7217571709D-02
      0.5729993000D+01  0.2566849940D-01
      0.2065079000D+01  0.7841463929D-01
      0.8007820000D+00  0.1973910090D+00
      0.3301280000D+00  0.3598285599D+00
      0.1424660000D+00  0.3642526999D+00
      0.6222000000D-01  0.1099635200D+00
 S   1 1.00       0.000000000000
      0.2553500000D-01  0.1000000000D+01
 S   1 1.00       0.000000000000
      0.9587000000D-02  0.1000000000D+01
 S   1 1.00       0.000000000000
      0.2433484000D+01  0.1000000000D+01
 S   1 1.00       0.000000000000
      0.9567950000D+00  0.1000000000D+01
 S   1 1.00       0.000000000000
      0.3936420000D+00  0.1000000000D+01
 S   1 1.00       0.000000000000
      0.1550630000D+00  0.1000000000D+01
 S   1 1.00       0.000000000000
      0.6403400000D-01  0.1000000000D+01
 P   1 1.00       0.000000000000
      0.7153038000D+01  0.1000000000D+01
 P   1 1.00       0.000000000000
      0.2428633000D+01  0.1000000000D+01
 P   1 1.00       0.000000000000
      0.1082791000D+01  0.1000000000D+01
 P   1 1.00       0.000000000000
      0.4677970000D+00  0.1000000000D+01
 P   1 1.00       0.000000000000
      0.1959010000D+00  0.1000000000D+01
 D   1 1.00       0.000000000000
      0.6264435000D+01  0.1000000000D+01
 D   1 1.00       0.000000000000
      0.2645911000D+01  0.1000000000D+01
 D   1 1.00       0.000000000000
      0.1150688000D+01  0.1000000000D+01
 D   1 1.00       0.000000000000
      0.4254790000D+00  0.1000000000D+01
 F   1 1.00       0.000000000000
      0.3223699000D+01  0.1000000000D+01
 F   1 1.00       0.000000000000
      0.1222229000D+01  0.1000000000D+01
 F   1 1.00       0.000000000000
      0.5009380000D+00  0.1000000000D+01
 G   1 1.00       0.000000000000
      0.3442219000D+01  0.1000000000D+01
 G   1 1.00       0.000000000000
      0.1244815000D+01  0.1000000000D+01
 H   1 1.00       0.000000000000
      0.1202396970D+01  0.1000000000D+01
 ****
      4 0
 S  10 1.00       0.000000000000
      0.1236550887D+04  0.5411825039D-04
      0.2770666880D+03  0.3008878800D-03
      0.6190041000D+02  0.1768785770D-02
      0.1750924900D+02  0.7217571709D-02
      0.5729993000D+01  0.2566849940D-01
      0.2065079000D+01  0.7841463929D-01
      0.8007820000D+00  0.1973910090D+00
      0.3301280000D+00  0.3598285599D+00
      0.1424660000D+00  0.3642526999D+00
      0.6222000000D-01  0.1099635200D+00
 S   1 1.00       0.000000000000
      0.2553500000D-01  0.1000000000D+01
 S   1 1.00       0.000000000000
      0.9587000000D-02  0.1000000000D+01
 S   1 1.00       0.000000000000
      0.2433484000D+01  0.1000000000D+01
 S   1 1.00       0.000000000000
      0.9567950000D+00  0.1000000000D+01
 S   1 1.00       0.000000000000
      0.3936420000D+00  0.1000000000D+01
 S   1 1.00       0.000000000000
      0.1550630000D+00  0.1000000000D+01
 S   1 1.00       0.000000000000
      0.6403400000D-01  0.1000000000D+01
 P   1 1.00       0.000000000000
      0.7153038000D+01  0.1000000000D+01
 P   1 1.00       0.000000000000
      0.2428633000D+01  0.1000000000D+01
 P   1 1.00       0.000000000000
      0.1082791000D+01  0.1000000000D+01
 P   1 1.00       0.000000000000
      0.4677970000D+00  0.1000000000D+01
 P   1 1.00       0.000000000000
      0.1959010000D+00  0.1000000000D+01
 D   1 1.00       0.000000000000
      0.6264435000D+01  0.1000000000D+01
 D   1 1.00       0.000000000000
      0.2645911000D+01  0.1000000000D+01
 D   1 1.00       0.000000000000
      0.1150688000D+01  0.1000000000D+01
 D   1 1.00       0.000000000000
      0.4254790000D+00  0.1000000000D+01
 F   1 1.00       0.000000000000
      0.3223699000D+01  0.1000000000D+01
 F   1 1.00       0.000000000000
      0.1222229000D+01  0.1000000000D+01
 F   1 1.00       0.000000000000
      0.5009380000D+00  0.1000000000D+01
 G   1 1.00       0.000000000000
      0.3442219000D+01  0.1000000000D+01
 G   1 1.00       0.000000000000
      0.1244815000D+01  0.1000000000D+01
 H   1 1.00       0.000000000000
      0.1202396970D+01  0.1000000000D+01
 ****
      5 0
 S  10 1.00       0.000000000000
      0.1236550887D+04  0.5411825039D-04
      0.2770666880D+03  0.3008878800D-03
      0.6190041000D+02  0.1768785770D-02
      0.1750924900D+02  0.7217571709D-02
      0.5729993000D+01  0.2566849940D-01
      0.2065079000D+01  0.7841463929D-01
      0.8007820000D+00  0.1973910090D+00
      0.3301280000D+00  0.3598285599D+00
      0.1424660000D+00  0.3642526999D+00
      0.6222000000D-01  0.1099635200D+00
 S   1 1.00       0.000000000000
      0.2553500000D-01  0.1000000000D+01
 S   1 1.00       0.000000000000
      0.9587000000D-02  0.1000000000D+01
 S   1 1.00       0.000000000000
      0.2433484000D+01  0.1000000000D+01
 S   1 1.00       0.000000000000
      0.9567950000D+00  0.1000000000D+01
 S   1 1.00       0.000000000000
      0.3936420000D+00  0.1000000000D+01
 S   1 1.00       0.000000000000
      0.1550630000D+00  0.1000000000D+01
 S   1 1.00       0.000000000000
      0.6403400000D-01  0.1000000000D+01
 P   1 1.00       0.000000000000
      0.7153038000D+01  0.1000000000D+01
 P   1 1.00       0.000000000000
      0.2428633000D+01  0.1000000000D+01
 P   1 1.00       0.000000000000
      0.1082791000D+01  0.1000000000D+01
 P   1 1.00       0.000000000000
      0.4677970000D+00  0.1000000000D+01
 P   1 1.00       0.000000000000
      0.1959010000D+00  0.1000000000D+01
 D   1 1.00       0.000000000000
      0.6264435000D+01  0.1000000000D+01
 D   1 1.00       0.000000000000
      0.2645911000D+01  0.1000000000D+01
 D   1 1.00       0.000000000000
      0.1150688000D+01  0.1000000000D+01
 D   1 1.00       0.000000000000
      0.4254790000D+00  0.1000000000D+01
 F   1 1.00       0.000000000000
      0.3223699000D+01  0.1000000000D+01
 F   1 1.00       0.000000000000
      0.1222229000D+01  0.1000000000D+01
 F   1 1.00       0.000000000000
      0.5009380000D+00  0.1000000000D+01
 G   1 1.00       0.000000000000
      0.3442219000D+01  0.1000000000D+01
 G   1 1.00       0.000000000000
      0.1244815000D+01  0.1000000000D+01
 H   1 1.00       0.000000000000
      0.1202396970D+01  0.1000000000D+01
 ****

 There are   136 symmetry adapted basis functions of A   symmetry.
 There are   131 symmetry adapted basis functions of B1  symmetry.
 There are   131 symmetry adapted basis functions of B2  symmetry.
 There are   131 symmetry adapted basis functions of B3  symmetry.
 Integral buffers will be    131072 words long.
 Raffenetti 2 integral format.
 Two-electron integral symmetry is turned on.
   529 basis functions,  1004 primitive gaussians,   740 cartesian basis functions
    18 alpha electrons       18 beta electrons
       nuclear repulsion energy        45.2176011460 Hartrees.
 NAtoms=    5 NActive=    5 NUniq=    2 SFac= 3.00D+00 NAtFMM=   80 NAOKFM=F Big=F
 One-electron integrals computed using PRISM.
 NBasis=   529 RedAO= F  NBF=   136   131   131   131
 NBsUse=   529 1.00D-04 NBFU=   136   131   131   131
 Harris functional with IExCor=  205 diagonalized for initial guess.
 ExpMin= 9.59D-03 ExpMax= 4.12D+07 ExpMxC= 8.38D+03 IAcc=3 IRadAn=         5 AccDes= 0.00D+00
 HarFok:  IExCor=  205 AccDes= 0.00D+00 IRadAn=         5 IDoV= 1
 ScaDFX=  1.000000  1.000000  1.000000  1.000000
 FoFCou: FMM=F IPFlag=           0 FMFlag=      100000 FMFlg1=           0
         NFxFlg=           0 DoJE=T BraDBF=F KetDBF=T FulRan=T
         Omega=  0.000000  0.000000  1.000000  0.000000  0.000000 ICntrl=     500 IOpCl=  0
         NMat0=    1 NMatS0=    1 NMatT0=    0 NMatD0=    1 NMtDS0=    0 NMtDT0=    0
         I1Cent=           4 NGrid=           0.
 Petite list used in FoFCou.
 Initial guess orbital symmetries:
       Occupied  (A1) (A1) (T2) (T2) (T2) (A1) (T2) (T2) (T2) (T2)
                 (T2) (T2) (E) (E) (A1) (T2) (T2) (T2)
       Virtual   (A1) (T2) (T2) (T2) (T2) (T2) (T2) (A1) (T2) (T2)
                 (T2) (T2) (T2) (T2) (A1) (E) (E) (A1) (T2) (T2)
                 (T2) (A1) (T2) (T2) (T2) (T2) (T2) (T2) (T1) (T1)
                 (T1) (A1) (E) (E) (T2) (T2) (T2) (T2) (T2) (T2)
                 (A1) (E) (E) (T1) (T1) (T1) (T2) (T2) (T2) (T2)
                 (T2) (T2) (A1) (T2) (T2) (T2) (A1) (T1) (T1) (T1)
                 (T2) (T2) (T2) (E) (E) (T2) (T2) (T2) (E) (E)
                 (A1) (A1) (T2) (T2) (T2) (T1) (T1) (T1) (T1) (T1)
                 (T1) (T2) (T2) (T2) (E) (E) (T2) (T2) (T2) (T2)
                 (T2) (T2) (T1) (T1) (T1) (A1) (T2) (T2) (T2) (A1)
                 (E) (E) (T2) (T2) (T2) (T1) (T1) (T1) (A2) (T2)
                 (T2) (T2) (E) (E) (T1) (T1) (T1) (T2) (T2) (T2)
                 (A1) (T2) (T2) (T2) (E) (E) (A1) (T2) (T2) (T2)
                 (E) (E) (T1) (T1) (T1) (T1) (T1) (T1) (T2) (T2)
                 (T2) (A1) (T2) (T2) (T2) (T1) (T1) (T1) (T2) (T2)
                 (T2) (T2) (T2) (T2) (A1) (E) (E) (T2) (T2) (T2)
                 (A1) (E) (E) (T1) (T1) (T1) (T2) (T2) (T2) (T2)
                 (T2) (T2) (A1) (T1) (T1) (T1) (E) (E) (A1) (T2)
                 (T2) (T2) (T2) (T2) (T2) (T1) (T1) (T1) (E) (E)
                 (T2) (T2) (T2) (T1) (T1) (T1) (T2) (T2) (T2) (T1)
                 (T1) (T1) (A1) (A2) (E) (E) (T2) (T2) (T2) (T2)
                 (T2) (T2) (E) (E) (T2) (T2) (T2) (T1) (T1) (T1)
                 (A1) (T2) (T2) (T2) (T1) (T1) (T1) (A1) (T2) (T2)
                 (T2) (E) (E) (E) (E) (T2) (T2) (T2) (T1) (T1)
                 (T1) (A1) (E) (E) (T2) (T2) (T2) (T1) (T1) (T1)
                 (A2) (T2) (T2) (T2) (T1) (T1) (T1) (T2) (T2) (T2)
                 (A1) (E) (E) (T1) (T1) (T1) (T2) (T2) (T2) (T2)
                 (T2) (T2) (A1) (E) (E) (T2) (T2) (T2) (T1) (T1)
                 (T1) (T1) (T1) (T1) (A1) (T2) (T2) (T2) (A2) (T1)
                 (T1) (T1) (T2) (T2) (T2) (E) (E) (T1) (T1) (T1)
                 (T2) (T2) (T2) (A1) (E) (E) (T2) (T2) (T2) (T2)
                 (T2) (T2) (T1) (T1) (T1) (E) (E) (T2) (T2) (T2)
                 (T1) (T1) (T1) (E) (E) (T2) (T2) (T2) (A1) (A1)
                 (E) (E) (T1) (T1) (T1) (T2) (T2) (T2) (T2) (T2)
                 (T2) (T1) (T1) (T1) (E) (E) (T2) (T2) (T2) (A1)
                 (T1) (T1) (T1) (T2) (T2) (T2) (E) (E) (A1) (T2)
                 (T2) (T2) (A2) (T1) (T1) (T1) (T2) (T2) (T2) (E)
                 (E) (T2) (T2) (T2) (T1) (T1) (T1) (T2) (T2) (T2)
                 (E) (E) (A1) (T2) (T2) (T2) (T1) (T1) (T1) (A1)
                 (E) (E) (T2) (T2) (T2) (T2) (T2) (T2) (T1) (T1)
                 (T1) (T2) (T2) (T2) (E) (E) (A1) (T2) (T2) (T2)
                 (T2) (T2) (T2) (T1) (T1) (T1) (A2) (A1) (E) (E)
                 (T1) (T1) (T1) (T2) (T2) (T2) (T1) (T1) (T1) (A1)
                 (T2) (T2) (T2) (T2) (T2) (T2) (E) (E) (T1) (T1)
                 (T1) (E) (E) (T2) (T2) (T2) (T1) (T1) (T1) (T2)
                 (T2) (T2) (A1) (A2) (E) (E) (T1) (T1) (T1) (T2)
                 (T2) (T2) (E) (E) (T1) (T1) (T1) (T2) (T2) (T2)
                 (A1) (T2) (T2) (T2) (T2) (T2) (T2) (A1) (E) (E)
                 (T2) (T2) (T2) (T1) (T1) (T1) (A1) (T2) (T2) (T2)
                 (T1) (T1) (T1) (T2) (T2) (T2) (E) (E) (T1) (T1)
                 (T1) (T2) (T2) (T2) (E) (E) (A1) (T2) (T2) (T2)
                 (A1)
 The electronic state of the initial guess is 1-A1.
 Requested convergence on RMS density matrix=1.00D-10 within 128 cycles.
 Requested convergence on MAX density matrix=1.00D-08.
 Requested convergence on             energy=1.00D-08.
 No special actions if energy rises.
 Initial convergence to 1.0D-05 achieved.  Increase integral accuracy.
 SCF Done:  E(ROHF) =  -2077.72267338     A.U. after   13 cycles
             Convg  =    0.1510D-11             -V/T =  2.0000
 <Sx>= 0.0000 <Sy>= 0.0000 <Sz>= 0.0000 <S**2>= 0.0000 S= 0.0000
 <L.S>= 0.000000000000E+00
 Annihilation of the first spin contaminant:
 S**2 before annihilation     0.0000,   after     0.0000
 DiagDN has N=   529 LTot=  1619 but NE2=     3 cannot use DSYEVD.
 GenMOA:  NOpAll= 24 NOp2=4 NOpUse= 24 JSym2X=1
 <Sx>= 0.0000 <Sy>= 0.0000 <Sz>= 0.0000 <S**2>= 0.0000 S= 0.0000
 Range of M.O.s used for correlation:    15   529
 NBasis=   529 NAE=    18 NBE=    18 NFC=    14 NFV=     0
 NROrb=    515 NOA=     4 NOB=     4 NVA=   511 NVB=   511

 **** Warning!!: The largest alpha MO coefficient is  0.22599273D+03


 **** Warning!!: The largest beta MO coefficient is  0.22599273D+03

 Singles contribution to E2=   -0.9894928929D-17
 Disk-based method using OVN memory for  4 occupieds at a time.
 Permanent disk used for amplitudes and <ij||ab> integrals=    11483192 words.
 Estimated scratch disk usage=   469711796 words.
 IUseRI=2 ITolRI= 6 IR12RI=0
 Actual    scratch disk usage=   466898868 words.
 GetIJB would need an additional  1386696160 words of memory to use all   8 processors.
 JobTyp=2 Pass  1:  I=   1 to   4 NPSUse=  1 ParTrn=F ParDer=F DoDerP=F.
 (rs|ai) integrals will be sorted in core.
 T,EIJ(AA): I=   1 J=   2      0.3676399E-03     -0.9004489E-03
 T,EIJ(AA): I=   1 J=   3      0.3676399E-03     -0.9004489E-03
 T,EIJ(AA): I=   1 J=   4      0.3676399E-03     -0.9004489E-03
 T,EIJ(AA): I=   2 J=   3      0.8352804E-03     -0.1610503E-02
 T,EIJ(AA): I=   2 J=   4      0.8352804E-03     -0.1610503E-02
 T,EIJ(AA): I=   3 J=   4      0.8352804E-03     -0.1610503E-02
 T,EIJ(AB): I=   1 J=   1      0.2888432E-02     -0.8568128E-02
 T,EIJ(AB): I=   1 J=   2      0.2410228E-02     -0.7125486E-02
 T,EIJ(AB): I=   1 J=   3      0.2410228E-02     -0.7125486E-02
 T,EIJ(AB): I=   1 J=   4      0.2410228E-02     -0.7125486E-02
 T,EIJ(AB): I=   2 J=   1      0.2410228E-02     -0.7125486E-02
 T,EIJ(AB): I=   2 J=   2      0.4943740E-02     -0.1148288E-01
 T,EIJ(AB): I=   2 J=   3      0.3383589E-02     -0.8686932E-02
 T,EIJ(AB): I=   2 J=   4      0.3383589E-02     -0.8686932E-02
 T,EIJ(AB): I=   3 J=   1      0.2410228E-02     -0.7125486E-02
 T,EIJ(AB): I=   3 J=   2      0.3383589E-02     -0.8686932E-02
 T,EIJ(AB): I=   3 J=   3      0.4943740E-02     -0.1148288E-01
 T,EIJ(AB): I=   3 J=   4      0.3383589E-02     -0.8686932E-02
 T,EIJ(AB): I=   4 J=   1      0.2410228E-02     -0.7125486E-02
 T,EIJ(AB): I=   4 J=   2      0.3383589E-02     -0.8686932E-02
 T,EIJ(AB): I=   4 J=   3      0.3383589E-02     -0.8686932E-02
 T,EIJ(AB): I=   4 J=   4      0.4943740E-02     -0.1148288E-01
 Actual    scratch disk usage=   466898868 words.
 GetIJB would need an additional  1386696160 words of memory to use all   8 processors.
 JobTyp=3 Pass  1:  I=   1 to   4 NPSUse=  1 ParTrn=F ParDer=F DoDerP=F.
 (rs|ai) integrals will be sorted in core.
 T,EIJ(BB): I=   1 J=   2      0.3676399E-03     -0.9004489E-03
 T,EIJ(BB): I=   1 J=   3      0.3676399E-03     -0.9004489E-03
 T,EIJ(BB): I=   1 J=   4      0.3676399E-03     -0.9004489E-03
 T,EIJ(BB): I=   2 J=   3      0.8352804E-03     -0.1610503E-02
 T,EIJ(BB): I=   2 J=   4      0.8352804E-03     -0.1610503E-02
 T,EIJ(BB): I=   3 J=   4      0.8352804E-03     -0.1610503E-02
 Spin components of T(2) and E(2):
     alpha-alpha T2 =       0.3608760992D-02 E2=     -0.7532855399D-02
     alpha-beta  T2 =       0.5248255431D-01 E2=     -0.1378912811D+00
     beta-beta   T2 =       0.3608760992D-02 E2=     -0.7532855399D-02
 ANorm=    0.1029417348D+01
 E2 =    -0.1529569919D+00 EUMP2 =    -0.20778756303718D+04

 Complete Basis Set (CBS) Extrapolation:
 M. R. Nyden and G. A. Petersson, JCP 75, 1843 (1981)
 G. A. Petersson and M. A. Al-Laham, JCP 94, 6081 (1991)
 G. A. Petersson, T. Tensfeldt, and J. A. Montgomery, JCP 94, 6091 (1991)
 J. A. Montgomery, J. W. Ochterski, and G. A. Petersson, JCP 101, 5900 (1994)
 
 Minimum Number of PNO for Extrapolation =  20
 Absolute Overlaps: IRadAn =         5
 LocTrn: ILocal=3 LocCor=F DoCore=F.
 Entering OneElI...
 Overlap between basis sets.
 Requested accuracy = 0.1000D-12
 PrsmSu:  NPrtUS=   1 ThrOK=F IAlg=1
 PRISM was handed  1609486434 working-precision words and   100 shell-pairs
 IPart=  0 NShTot=         100 NBatch=          10 AvBLen=        10.0
 CnvPC2: ToCart=F DoDens=F IPureD=0 IPureF=0.
 Transformed matrix in CnvPC2: 
                 1             2             3             4             5 
      1   0.100000D+01  0.402055D+00  0.000000D+00  0.000000D+00  0.000000D+00
      2   0.402055D+00  0.100000D+01  0.000000D+00  0.000000D+00  0.000000D+00
      3   0.000000D+00  0.000000D+00  0.100000D+01  0.000000D+00  0.000000D+00
      4   0.000000D+00  0.000000D+00  0.000000D+00  0.100000D+01  0.000000D+00
      5   0.000000D+00  0.000000D+00  0.000000D+00  0.000000D+00  0.100000D+01
      6   0.277653D-01  0.326539D+00  0.000000D+00  0.000000D+00  0.000000D+00
      7   0.000000D+00  0.000000D+00  0.339478D+00  0.000000D+00  0.000000D+00
      8   0.000000D+00  0.000000D+00  0.000000D+00  0.339478D+00  0.000000D+00
      9   0.000000D+00  0.000000D+00  0.000000D+00  0.000000D+00  0.339478D+00
     10   0.000000D+00  0.000000D+00  0.000000D+00  0.000000D+00  0.000000D+00
     11   0.000000D+00  0.000000D+00  0.000000D+00  0.000000D+00  0.000000D+00
     12   0.000000D+00  0.000000D+00  0.000000D+00  0.000000D+00  0.000000D+00
     13   0.000000D+00  0.000000D+00  0.000000D+00  0.000000D+00  0.000000D+00
     14   0.000000D+00  0.000000D+00  0.000000D+00  0.000000D+00  0.000000D+00
     15  -0.375498D-03  0.437680D-02  0.000000D+00  0.000000D+00  0.000000D+00
     16   0.000000D+00  0.000000D+00  0.122886D-01  0.000000D+00  0.000000D+00
     17   0.000000D+00  0.000000D+00  0.000000D+00  0.122886D-01  0.000000D+00
     18   0.000000D+00  0.000000D+00  0.000000D+00  0.000000D+00  0.122886D-01
     19   0.000000D+00  0.000000D+00  0.000000D+00  0.000000D+00  0.000000D+00
     20   0.000000D+00  0.000000D+00  0.000000D+00  0.000000D+00  0.000000D+00
     21   0.000000D+00  0.000000D+00  0.000000D+00  0.000000D+00  0.000000D+00
     22   0.000000D+00  0.000000D+00  0.000000D+00  0.000000D+00  0.000000D+00
     23   0.000000D+00  0.000000D+00  0.000000D+00  0.000000D+00  0.000000D+00
     24   0.166697D-02  0.103077D-01  0.118762D-02  0.118762D-02  0.118762D-02
     25   0.166697D-02  0.103077D-01 -0.118762D-02 -0.118762D-02  0.118762D-02
     26   0.166697D-02  0.103077D-01 -0.118762D-02  0.118762D-02 -0.118762D-02
     27   0.166697D-02  0.103077D-01  0.118762D-02 -0.118762D-02 -0.118762D-02
                 6             7             8             9            10 
      1   0.277653D-01  0.000000D+00  0.000000D+00  0.000000D+00  0.000000D+00
      2   0.326539D+00  0.000000D+00  0.000000D+00  0.000000D+00  0.000000D+00
      3   0.000000D+00  0.339478D+00  0.000000D+00  0.000000D+00  0.000000D+00
      4   0.000000D+00  0.000000D+00  0.339478D+00  0.000000D+00  0.000000D+00
      5   0.000000D+00  0.000000D+00  0.000000D+00  0.339478D+00  0.000000D+00
      6   0.100000D+01  0.000000D+00  0.000000D+00  0.000000D+00  0.000000D+00
      7   0.000000D+00  0.100000D+01  0.000000D+00  0.000000D+00  0.000000D+00
      8   0.000000D+00  0.000000D+00  0.100000D+01  0.000000D+00  0.000000D+00
      9   0.000000D+00  0.000000D+00  0.000000D+00  0.100000D+01  0.000000D+00
     10   0.000000D+00  0.000000D+00  0.000000D+00  0.000000D+00  0.100000D+01
     11   0.000000D+00  0.000000D+00  0.000000D+00  0.000000D+00  0.000000D+00
     12   0.000000D+00  0.000000D+00  0.000000D+00  0.000000D+00  0.000000D+00
     13   0.000000D+00  0.000000D+00  0.000000D+00  0.000000D+00  0.000000D+00
     14   0.000000D+00  0.000000D+00  0.000000D+00  0.000000D+00  0.000000D+00
     15   0.194461D+00  0.000000D+00  0.000000D+00  0.000000D+00  0.000000D+00
     16   0.000000D+00  0.211028D+00  0.000000D+00  0.000000D+00  0.000000D+00
     17   0.000000D+00  0.000000D+00  0.211028D+00  0.000000D+00  0.000000D+00
     18   0.000000D+00  0.000000D+00  0.000000D+00  0.211028D+00  0.000000D+00
     19   0.000000D+00  0.000000D+00  0.000000D+00  0.000000D+00  0.658109D-01
     20   0.000000D+00  0.000000D+00  0.000000D+00  0.000000D+00  0.000000D+00
     21   0.000000D+00  0.000000D+00  0.000000D+00  0.000000D+00  0.000000D+00
     22   0.000000D+00  0.000000D+00  0.000000D+00  0.000000D+00  0.000000D+00
     23   0.000000D+00  0.000000D+00  0.000000D+00  0.000000D+00  0.000000D+00
     24   0.611503D-01  0.211954D-01  0.211954D-01  0.211954D-01  0.000000D+00
     25   0.611503D-01 -0.211954D-01 -0.211954D-01  0.211954D-01  0.000000D+00
     26   0.611503D-01 -0.211954D-01  0.211954D-01 -0.211954D-01  0.000000D+00
     27   0.611503D-01  0.211954D-01 -0.211954D-01 -0.211954D-01  0.000000D+00
                11            12            13            14            15 
      1   0.000000D+00  0.000000D+00  0.000000D+00  0.000000D+00 -0.375498D-03
      2   0.000000D+00  0.000000D+00  0.000000D+00  0.000000D+00  0.437680D-02
      3   0.000000D+00  0.000000D+00  0.000000D+00  0.000000D+00  0.000000D+00
      4   0.000000D+00  0.000000D+00  0.000000D+00  0.000000D+00  0.000000D+00
      5   0.000000D+00  0.000000D+00  0.000000D+00  0.000000D+00  0.000000D+00
      6   0.000000D+00  0.000000D+00  0.000000D+00  0.000000D+00  0.194461D+00
      7   0.000000D+00  0.000000D+00  0.000000D+00  0.000000D+00  0.000000D+00
      8   0.000000D+00  0.000000D+00  0.000000D+00  0.000000D+00  0.000000D+00
      9   0.000000D+00  0.000000D+00  0.000000D+00  0.000000D+00  0.000000D+00
     10   0.000000D+00  0.000000D+00  0.000000D+00  0.000000D+00  0.000000D+00
     11   0.100000D+01  0.000000D+00  0.000000D+00  0.000000D+00  0.000000D+00
     12   0.000000D+00  0.100000D+01  0.000000D+00  0.000000D+00  0.000000D+00
     13   0.000000D+00  0.000000D+00  0.100000D+01  0.000000D+00  0.000000D+00
     14   0.000000D+00  0.000000D+00  0.000000D+00  0.100000D+01  0.000000D+00
     15   0.000000D+00  0.000000D+00  0.000000D+00  0.000000D+00  0.100000D+01
     16   0.000000D+00  0.000000D+00  0.000000D+00  0.000000D+00  0.000000D+00
     17   0.000000D+00  0.000000D+00  0.000000D+00  0.000000D+00  0.000000D+00
     18   0.000000D+00  0.000000D+00  0.000000D+00  0.000000D+00  0.000000D+00
     19   0.000000D+00  0.000000D+00  0.000000D+00  0.000000D+00  0.000000D+00
     20   0.658109D-01  0.000000D+00  0.000000D+00  0.000000D+00  0.000000D+00
     21   0.000000D+00  0.658109D-01  0.000000D+00  0.000000D+00  0.000000D+00
     22   0.000000D+00  0.000000D+00  0.658109D-01  0.000000D+00  0.000000D+00
     23   0.000000D+00  0.000000D+00  0.000000D+00  0.658109D-01  0.000000D+00
     24   0.900617D-02  0.900617D-02  0.000000D+00  0.900617D-02  0.385429D+00
     25  -0.900617D-02 -0.900617D-02  0.000000D+00  0.900617D-02  0.385429D+00
     26   0.900617D-02 -0.900617D-02  0.000000D+00 -0.900617D-02  0.385429D+00
     27  -0.900617D-02  0.900617D-02  0.000000D+00 -0.900617D-02  0.385429D+00
                16            17            18            19            20 
      1   0.000000D+00  0.000000D+00  0.000000D+00  0.000000D+00  0.000000D+00
      2   0.000000D+00  0.000000D+00  0.000000D+00  0.000000D+00  0.000000D+00
      3   0.122886D-01  0.000000D+00  0.000000D+00  0.000000D+00  0.000000D+00
      4   0.000000D+00  0.122886D-01  0.000000D+00  0.000000D+00  0.000000D+00
      5   0.000000D+00  0.000000D+00  0.122886D-01  0.000000D+00  0.000000D+00
      6   0.000000D+00  0.000000D+00  0.000000D+00  0.000000D+00  0.000000D+00
      7   0.211028D+00  0.000000D+00  0.000000D+00  0.000000D+00  0.000000D+00
      8   0.000000D+00  0.211028D+00  0.000000D+00  0.000000D+00  0.000000D+00
      9   0.000000D+00  0.000000D+00  0.211028D+00  0.000000D+00  0.000000D+00
     10   0.000000D+00  0.000000D+00  0.000000D+00  0.658109D-01  0.000000D+00
     11   0.000000D+00  0.000000D+00  0.000000D+00  0.000000D+00  0.658109D-01
     12   0.000000D+00  0.000000D+00  0.000000D+00  0.000000D+00  0.000000D+00
     13   0.000000D+00  0.000000D+00  0.000000D+00  0.000000D+00  0.000000D+00
     14   0.000000D+00  0.000000D+00  0.000000D+00  0.000000D+00  0.000000D+00
     15   0.000000D+00  0.000000D+00  0.000000D+00  0.000000D+00  0.000000D+00
     16   0.100000D+01  0.000000D+00  0.000000D+00  0.000000D+00  0.000000D+00
     17   0.000000D+00  0.100000D+01  0.000000D+00  0.000000D+00  0.000000D+00
     18   0.000000D+00  0.000000D+00  0.100000D+01  0.000000D+00  0.000000D+00
     19   0.000000D+00  0.000000D+00  0.000000D+00  0.100000D+01  0.000000D+00
     20   0.000000D+00  0.000000D+00  0.000000D+00  0.000000D+00  0.100000D+01
     21   0.000000D+00  0.000000D+00  0.000000D+00  0.000000D+00  0.000000D+00
     22   0.000000D+00  0.000000D+00  0.000000D+00  0.000000D+00  0.000000D+00
     23   0.000000D+00  0.000000D+00  0.000000D+00  0.000000D+00  0.000000D+00
     24   0.274022D+00  0.274022D+00  0.274022D+00  0.000000D+00  0.274433D+00
     25  -0.274022D+00 -0.274022D+00  0.274022D+00  0.000000D+00 -0.274433D+00
     26  -0.274022D+00  0.274022D+00 -0.274022D+00  0.000000D+00  0.274433D+00
     27   0.274022D+00 -0.274022D+00 -0.274022D+00  0.000000D+00 -0.274433D+00
                21            22            23            24            25 
      1   0.000000D+00  0.000000D+00  0.000000D+00  0.166697D-02  0.166697D-02
      2   0.000000D+00  0.000000D+00  0.000000D+00  0.103077D-01  0.103077D-01
      3   0.000000D+00  0.000000D+00  0.000000D+00  0.118762D-02 -0.118762D-02
      4   0.000000D+00  0.000000D+00  0.000000D+00  0.118762D-02 -0.118762D-02
      5   0.000000D+00  0.000000D+00  0.000000D+00  0.118762D-02  0.118762D-02
      6   0.000000D+00  0.000000D+00  0.000000D+00  0.611503D-01  0.611503D-01
      7   0.000000D+00  0.000000D+00  0.000000D+00  0.211954D-01 -0.211954D-01
      8   0.000000D+00  0.000000D+00  0.000000D+00  0.211954D-01 -0.211954D-01
      9   0.000000D+00  0.000000D+00  0.000000D+00  0.211954D-01  0.211954D-01
     10   0.000000D+00  0.000000D+00  0.000000D+00  0.000000D+00  0.000000D+00
     11   0.000000D+00  0.000000D+00  0.000000D+00  0.900617D-02 -0.900617D-02
     12   0.658109D-01  0.000000D+00  0.000000D+00  0.900617D-02 -0.900617D-02
     13   0.000000D+00  0.658109D-01  0.000000D+00  0.000000D+00  0.000000D+00
     14   0.000000D+00  0.000000D+00  0.658109D-01  0.900617D-02  0.900617D-02
     15   0.000000D+00  0.000000D+00  0.000000D+00  0.385429D+00  0.385429D+00
     16   0.000000D+00  0.000000D+00  0.000000D+00  0.274022D+00 -0.274022D+00
     17   0.000000D+00  0.000000D+00  0.000000D+00  0.274022D+00 -0.274022D+00
     18   0.000000D+00  0.000000D+00  0.000000D+00  0.274022D+00  0.274022D+00
     19   0.000000D+00  0.000000D+00  0.000000D+00  0.000000D+00  0.000000D+00
     20   0.000000D+00  0.000000D+00  0.000000D+00  0.274433D+00 -0.274433D+00
     21   0.100000D+01  0.000000D+00  0.000000D+00  0.274433D+00 -0.274433D+00
     22   0.000000D+00  0.100000D+01  0.000000D+00  0.000000D+00  0.000000D+00
     23   0.000000D+00  0.000000D+00  0.100000D+01  0.274433D+00  0.274433D+00
     24   0.274433D+00  0.000000D+00  0.274433D+00  0.100000D+01  0.480155D-01
     25  -0.274433D+00  0.000000D+00  0.274433D+00  0.480155D-01  0.100000D+01
     26  -0.274433D+00  0.000000D+00 -0.274433D+00  0.480155D-01  0.480155D-01
     27   0.274433D+00  0.000000D+00 -0.274433D+00  0.480155D-01  0.480155D-01
                26            27 
      1   0.166697D-02  0.166697D-02
      2   0.103077D-01  0.103077D-01
      3  -0.118762D-02  0.118762D-02
      4   0.118762D-02 -0.118762D-02
      5  -0.118762D-02 -0.118762D-02
      6   0.611503D-01  0.611503D-01
      7  -0.211954D-01  0.211954D-01
      8   0.211954D-01 -0.211954D-01
      9  -0.211954D-01 -0.211954D-01
     10   0.000000D+00  0.000000D+00
     11   0.900617D-02 -0.900617D-02
     12  -0.900617D-02  0.900617D-02
     13   0.000000D+00  0.000000D+00
     14  -0.900617D-02 -0.900617D-02
     15   0.385429D+00  0.385429D+00
     16  -0.274022D+00  0.274022D+00
     17   0.274022D+00 -0.274022D+00
     18  -0.274022D+00 -0.274022D+00
     19   0.000000D+00  0.000000D+00
     20   0.274433D+00 -0.274433D+00
     21  -0.274433D+00  0.274433D+00
     22   0.000000D+00  0.000000D+00
     23  -0.274433D+00 -0.274433D+00
     24   0.480155D-01  0.480155D-01
     25   0.480155D-01  0.480155D-01
     26   0.100000D+01  0.480155D-01
     27   0.480155D-01  0.100000D+01
 Entering OneElI...
 Overlap between basis sets.
 Requested accuracy = 0.1000D-12
 PrsmSu:  NPrtUS=   1 ThrOK=F IAlg=1
 PRISM was handed  1608718776 working-precision words and  1262 shell-pairs
 IPart=  0 NShTot=        1262 NBatch=          69 AvBLen=        18.3
 CnvPC2: ToCart=F DoDens=F IPureD=0 IPureF=0.
 Transformed matrix in CnvPC2: 
                 1             2             3             4             5 
      1   0.999791D+00  0.410618D+00  0.000000D+00  0.000000D+00  0.000000D+00
      2   0.288662D+00  0.988505D+00  0.000000D+00  0.000000D+00  0.000000D+00
      3   0.000000D+00  0.000000D+00  0.999236D+00  0.000000D+00  0.000000D+00
      4   0.000000D+00  0.000000D+00  0.000000D+00  0.999236D+00  0.000000D+00
      5   0.000000D+00  0.000000D+00  0.000000D+00  0.000000D+00  0.999236D+00
      6   0.123383D-01  0.319356D+00  0.000000D+00  0.000000D+00  0.000000D+00
      7   0.000000D+00  0.000000D+00  0.343453D+00  0.000000D+00  0.000000D+00
      8   0.000000D+00  0.000000D+00  0.000000D+00  0.343453D+00  0.000000D+00
      9   0.000000D+00  0.000000D+00  0.000000D+00  0.000000D+00  0.343453D+00
     10   0.000000D+00  0.000000D+00  0.000000D+00  0.000000D+00  0.000000D+00
     11   0.000000D+00  0.000000D+00  0.000000D+00  0.000000D+00  0.000000D+00
     12   0.000000D+00  0.000000D+00  0.000000D+00  0.000000D+00  0.000000D+00
     13   0.000000D+00  0.000000D+00  0.000000D+00  0.000000D+00  0.000000D+00
     14   0.000000D+00  0.000000D+00  0.000000D+00  0.000000D+00  0.000000D+00
     15   0.309531D-03  0.137849D-01  0.000000D+00  0.000000D+00  0.000000D+00
     16   0.402334D-02  0.246122D-01  0.000000D+00  0.000000D+00  0.000000D+00
     17   0.000000D+00  0.000000D+00  0.733716D-02  0.000000D+00  0.000000D+00
     18   0.000000D+00  0.000000D+00  0.000000D+00  0.733716D-02  0.000000D+00
     19   0.000000D+00  0.000000D+00  0.000000D+00  0.000000D+00  0.733716D-02
     20   0.000000D+00  0.000000D+00  0.972018D-03  0.000000D+00  0.000000D+00
     21   0.000000D+00  0.000000D+00  0.000000D+00  0.972018D-03  0.000000D+00
     22   0.000000D+00  0.000000D+00  0.000000D+00  0.000000D+00  0.972018D-03
     23   0.109949D+00  0.552190D+00  0.000000D+00  0.000000D+00  0.000000D+00
     24   0.673045D-01  0.370860D+00  0.000000D+00  0.000000D+00  0.000000D+00
     25   0.409446D-01  0.237407D+00  0.000000D+00  0.000000D+00  0.000000D+00
     26   0.248284D-01  0.147912D+00  0.000000D+00  0.000000D+00  0.000000D+00
     27   0.150307D-01  0.908173D-01  0.000000D+00  0.000000D+00  0.000000D+00
     28   0.000000D+00  0.000000D+00  0.146483D+00  0.000000D+00  0.000000D+00
     29   0.000000D+00  0.000000D+00  0.000000D+00  0.146483D+00  0.000000D+00
     30   0.000000D+00  0.000000D+00  0.000000D+00  0.000000D+00  0.146483D+00
     31   0.000000D+00  0.000000D+00  0.783027D-01  0.000000D+00  0.000000D+00
     32   0.000000D+00  0.000000D+00  0.000000D+00  0.783027D-01  0.000000D+00
     33   0.000000D+00  0.000000D+00  0.000000D+00  0.000000D+00  0.783027D-01
     34   0.000000D+00  0.000000D+00  0.405010D-01  0.000000D+00  0.000000D+00
     35   0.000000D+00  0.000000D+00  0.000000D+00  0.405010D-01  0.000000D+00
     36   0.000000D+00  0.000000D+00  0.000000D+00  0.000000D+00  0.405010D-01
     37   0.000000D+00  0.000000D+00  0.205354D-01  0.000000D+00  0.000000D+00
     38   0.000000D+00  0.000000D+00  0.000000D+00  0.205354D-01  0.000000D+00
     39   0.000000D+00  0.000000D+00  0.000000D+00  0.000000D+00  0.205354D-01
     40   0.000000D+00  0.000000D+00  0.102908D-01  0.000000D+00  0.000000D+00
     41   0.000000D+00  0.000000D+00  0.000000D+00  0.102908D-01  0.000000D+00
     42   0.000000D+00  0.000000D+00  0.000000D+00  0.000000D+00  0.102908D-01
     43   0.000000D+00  0.000000D+00  0.000000D+00  0.000000D+00  0.000000D+00
     44   0.000000D+00  0.000000D+00  0.000000D+00  0.000000D+00  0.000000D+00
     45   0.000000D+00  0.000000D+00  0.000000D+00  0.000000D+00  0.000000D+00
     46   0.000000D+00  0.000000D+00  0.000000D+00  0.000000D+00  0.000000D+00
     47   0.000000D+00  0.000000D+00  0.000000D+00  0.000000D+00  0.000000D+00
     48   0.000000D+00  0.000000D+00  0.000000D+00  0.000000D+00  0.000000D+00
     49   0.000000D+00  0.000000D+00  0.000000D+00  0.000000D+00  0.000000D+00
     50   0.000000D+00  0.000000D+00  0.000000D+00  0.000000D+00  0.000000D+00
     51   0.000000D+00  0.000000D+00  0.000000D+00  0.000000D+00  0.000000D+00
     52   0.000000D+00  0.000000D+00  0.000000D+00  0.000000D+00  0.000000D+00
     53   0.000000D+00  0.000000D+00  0.000000D+00  0.000000D+00  0.000000D+00
     54   0.000000D+00  0.000000D+00  0.000000D+00  0.000000D+00  0.000000D+00
     55   0.000000D+00  0.000000D+00  0.000000D+00  0.000000D+00  0.000000D+00
     56   0.000000D+00  0.000000D+00  0.000000D+00  0.000000D+00  0.000000D+00
     57   0.000000D+00  0.000000D+00  0.000000D+00  0.000000D+00  0.000000D+00
     58   0.000000D+00  0.000000D+00  0.000000D+00  0.000000D+00  0.000000D+00
     59   0.000000D+00  0.000000D+00  0.000000D+00  0.000000D+00  0.000000D+00
     60   0.000000D+00  0.000000D+00  0.000000D+00  0.000000D+00  0.000000D+00
     61   0.000000D+00  0.000000D+00  0.000000D+00  0.000000D+00  0.000000D+00
     62   0.000000D+00  0.000000D+00  0.000000D+00  0.000000D+00  0.000000D+00
     63   0.000000D+00  0.000000D+00  0.000000D+00  0.000000D+00  0.000000D+00
     64   0.000000D+00  0.000000D+00  0.000000D+00  0.000000D+00  0.000000D+00
     65   0.000000D+00  0.000000D+00  0.000000D+00  0.000000D+00  0.000000D+00
     66   0.000000D+00  0.000000D+00  0.000000D+00  0.000000D+00  0.000000D+00
     67   0.000000D+00  0.000000D+00  0.000000D+00  0.000000D+00  0.000000D+00
     68   0.000000D+00  0.000000D+00  0.000000D+00  0.000000D+00  0.000000D+00
     69   0.000000D+00  0.000000D+00  0.000000D+00  0.000000D+00  0.000000D+00
     70   0.000000D+00  0.000000D+00  0.000000D+00  0.000000D+00  0.000000D+00
     71   0.000000D+00  0.000000D+00  0.000000D+00  0.000000D+00  0.000000D+00
     72   0.000000D+00  0.000000D+00  0.000000D+00  0.000000D+00  0.000000D+00
     73   0.000000D+00  0.000000D+00  0.000000D+00  0.000000D+00  0.000000D+00
     74   0.000000D+00  0.000000D+00  0.000000D+00  0.000000D+00  0.000000D+00
     75   0.000000D+00  0.000000D+00  0.000000D+00  0.000000D+00  0.000000D+00
     76   0.000000D+00  0.000000D+00  0.000000D+00  0.000000D+00  0.000000D+00
     77   0.000000D+00  0.000000D+00  0.000000D+00  0.000000D+00  0.000000D+00
     78   0.000000D+00  0.000000D+00  0.000000D+00  0.000000D+00  0.000000D+00
     79   0.000000D+00  0.000000D+00  0.000000D+00  0.000000D+00  0.000000D+00
     80   0.000000D+00  0.000000D+00  0.000000D+00  0.000000D+00  0.000000D+00
     81   0.000000D+00  0.000000D+00  0.000000D+00  0.000000D+00  0.000000D+00
     82   0.000000D+00  0.000000D+00  0.000000D+00  0.000000D+00  0.000000D+00
     83   0.000000D+00  0.000000D+00  0.000000D+00  0.000000D+00  0.000000D+00
     84   0.000000D+00  0.000000D+00  0.000000D+00  0.000000D+00  0.000000D+00
     85   0.000000D+00  0.000000D+00  0.000000D+00  0.000000D+00  0.000000D+00
     86   0.000000D+00  0.000000D+00  0.000000D+00  0.000000D+00  0.000000D+00
     87   0.000000D+00  0.000000D+00  0.000000D+00  0.000000D+00  0.000000D+00
     88   0.000000D+00  0.000000D+00  0.000000D+00  0.000000D+00  0.000000D+00
     89   0.000000D+00  0.000000D+00  0.000000D+00  0.000000D+00  0.000000D+00
     90   0.000000D+00  0.000000D+00  0.000000D+00  0.000000D+00  0.000000D+00
     91   0.000000D+00  0.000000D+00  0.000000D+00  0.000000D+00  0.000000D+00
     92   0.000000D+00  0.000000D+00  0.000000D+00  0.000000D+00  0.000000D+00
     93   0.000000D+00  0.000000D+00  0.000000D+00  0.000000D+00  0.000000D+00
     94   0.000000D+00  0.000000D+00  0.000000D+00  0.000000D+00  0.000000D+00
     95   0.000000D+00  0.000000D+00  0.000000D+00  0.000000D+00  0.000000D+00
     96   0.000000D+00  0.000000D+00  0.000000D+00  0.000000D+00  0.000000D+00
     97   0.000000D+00  0.000000D+00  0.000000D+00  0.000000D+00  0.000000D+00
     98   0.000000D+00  0.000000D+00  0.000000D+00  0.000000D+00  0.000000D+00
     99   0.000000D+00  0.000000D+00  0.000000D+00  0.000000D+00  0.000000D+00
    100   0.000000D+00  0.000000D+00  0.000000D+00  0.000000D+00  0.000000D+00
    101   0.000000D+00  0.000000D+00  0.000000D+00  0.000000D+00  0.000000D+00
    102   0.000000D+00  0.000000D+00  0.000000D+00  0.000000D+00  0.000000D+00
    103   0.000000D+00  0.000000D+00  0.000000D+00  0.000000D+00  0.000000D+00
    104   0.000000D+00  0.000000D+00  0.000000D+00  0.000000D+00  0.000000D+00
    105   0.000000D+00  0.000000D+00  0.000000D+00  0.000000D+00  0.000000D+00
    106   0.000000D+00  0.000000D+00  0.000000D+00  0.000000D+00  0.000000D+00
    107   0.000000D+00  0.000000D+00  0.000000D+00  0.000000D+00  0.000000D+00
    108   0.000000D+00  0.000000D+00  0.000000D+00  0.000000D+00  0.000000D+00
    109   0.000000D+00  0.000000D+00  0.000000D+00  0.000000D+00  0.000000D+00
    110   0.000000D+00  0.000000D+00  0.000000D+00  0.000000D+00  0.000000D+00
    111   0.000000D+00  0.000000D+00  0.000000D+00  0.000000D+00  0.000000D+00
    112   0.000000D+00  0.000000D+00  0.000000D+00  0.000000D+00  0.000000D+00
    113   0.000000D+00  0.000000D+00  0.000000D+00  0.000000D+00  0.000000D+00
    114   0.000000D+00  0.000000D+00  0.000000D+00  0.000000D+00  0.000000D+00
    115   0.000000D+00  0.000000D+00  0.000000D+00  0.000000D+00  0.000000D+00
    116   0.000000D+00  0.000000D+00  0.000000D+00  0.000000D+00  0.000000D+00
    117   0.000000D+00  0.000000D+00  0.000000D+00  0.000000D+00  0.000000D+00
    118   0.000000D+00  0.000000D+00  0.000000D+00  0.000000D+00  0.000000D+00
    119   0.000000D+00  0.000000D+00  0.000000D+00  0.000000D+00  0.000000D+00
    120   0.000000D+00  0.000000D+00  0.000000D+00  0.000000D+00  0.000000D+00
    121   0.000000D+00  0.000000D+00  0.000000D+00  0.000000D+00  0.000000D+00
    122   0.000000D+00  0.000000D+00  0.000000D+00  0.000000D+00  0.000000D+00
    123   0.000000D+00  0.000000D+00  0.000000D+00  0.000000D+00  0.000000D+00
    124   0.000000D+00  0.000000D+00  0.000000D+00  0.000000D+00  0.000000D+00
    125   0.000000D+00  0.000000D+00  0.000000D+00  0.000000D+00  0.000000D+00
    126   0.000000D+00  0.000000D+00  0.000000D+00  0.000000D+00  0.000000D+00
    127   0.000000D+00  0.000000D+00  0.000000D+00  0.000000D+00  0.000000D+00
    128   0.000000D+00  0.000000D+00  0.000000D+00  0.000000D+00  0.000000D+00
    129   0.000000D+00  0.000000D+00  0.000000D+00  0.000000D+00  0.000000D+00
    130   0.000000D+00  0.000000D+00  0.000000D+00  0.000000D+00  0.000000D+00
    131   0.000000D+00  0.000000D+00  0.000000D+00  0.000000D+00  0.000000D+00
    132   0.000000D+00  0.000000D+00  0.000000D+00  0.000000D+00  0.000000D+00
    133   0.000000D+00  0.000000D+00  0.000000D+00  0.000000D+00  0.000000D+00
    134   0.000000D+00  0.000000D+00  0.000000D+00  0.000000D+00  0.000000D+00
    135   0.000000D+00  0.000000D+00  0.000000D+00  0.000000D+00  0.000000D+00
    136   0.000000D+00  0.000000D+00  0.000000D+00  0.000000D+00  0.000000D+00
    137   0.000000D+00  0.000000D+00  0.000000D+00  0.000000D+00  0.000000D+00
    138   0.000000D+00  0.000000D+00  0.000000D+00  0.000000D+00  0.000000D+00
    139   0.000000D+00  0.000000D+00  0.000000D+00  0.000000D+00  0.000000D+00
    140   0.000000D+00  0.000000D+00  0.000000D+00  0.000000D+00  0.000000D+00
    141   0.000000D+00  0.000000D+00  0.000000D+00  0.000000D+00  0.000000D+00
    142   0.000000D+00  0.000000D+00  0.000000D+00  0.000000D+00  0.000000D+00
    143   0.000000D+00  0.000000D+00  0.000000D+00  0.000000D+00  0.000000D+00
    144   0.000000D+00  0.000000D+00  0.000000D+00  0.000000D+00  0.000000D+00
    145   0.000000D+00  0.000000D+00  0.000000D+00  0.000000D+00  0.000000D+00
    146   0.000000D+00  0.000000D+00  0.000000D+00  0.000000D+00  0.000000D+00
    147   0.000000D+00  0.000000D+00  0.000000D+00  0.000000D+00  0.000000D+00
    148   0.000000D+00  0.000000D+00  0.000000D+00  0.000000D+00  0.000000D+00
    149   0.000000D+00  0.000000D+00  0.000000D+00  0.000000D+00  0.000000D+00
    150   0.000000D+00  0.000000D+00  0.000000D+00  0.000000D+00  0.000000D+00
    151   0.000000D+00  0.000000D+00  0.000000D+00  0.000000D+00  0.000000D+00
    152   0.000000D+00  0.000000D+00  0.000000D+00  0.000000D+00  0.000000D+00
    153   0.000000D+00  0.000000D+00  0.000000D+00  0.000000D+00  0.000000D+00
    154   0.000000D+00  0.000000D+00  0.000000D+00  0.000000D+00  0.000000D+00
    155   0.000000D+00  0.000000D+00  0.000000D+00  0.000000D+00  0.000000D+00
    156   0.000000D+00  0.000000D+00  0.000000D+00  0.000000D+00  0.000000D+00
    157   0.000000D+00  0.000000D+00  0.000000D+00  0.000000D+00  0.000000D+00
    158   0.240105D-02  0.147914D-01  0.147103D-02  0.147103D-02  0.147103D-02
    159   0.286740D-02  0.175533D-01  0.260141D-03  0.260141D-03  0.260141D-03
    160   0.157467D-02  0.965025D-02  0.537400D-04  0.537400D-04  0.537400D-04
    161   0.000000D+00  0.000000D+00  0.000000D+00  0.000000D+00  0.000000D+00
    162   0.168792D-04  0.145651D-03  0.743358D-04  0.743358D-04  0.743358D-04
    163   0.988788D-03  0.631203D-02  0.140583D-02  0.140583D-02  0.140583D-02
    164   0.369839D-02  0.226443D-01  0.202243D-02  0.202243D-02  0.202243D-02
    165   0.412170D-02  0.251904D-01  0.934208D-03  0.934208D-03  0.934208D-03
    166   0.000000D+00  0.000000D+00  0.000000D+00  0.000000D+00  0.000000D+00
    167   0.000000D+00  0.000000D+00  0.000000D+00  0.000000D+00  0.000000D+00
    168   0.000000D+00  0.000000D+00  0.000000D+00  0.000000D+00  0.000000D+00
    169   0.000000D+00  0.000000D+00  0.000000D+00  0.000000D+00  0.000000D+00
    170   0.000000D+00  0.000000D+00  0.000000D+00  0.000000D+00  0.000000D+00
    171   0.000000D+00  0.000000D+00  0.000000D+00  0.000000D+00  0.000000D+00
    172  -0.224018D-04 -0.201846D-03 -0.952458D-04 -0.115349D-03 -0.115349D-03
    173  -0.224018D-04 -0.201846D-03 -0.115349D-03 -0.952458D-04 -0.115349D-03
    174  -0.224018D-04 -0.201846D-03 -0.115349D-03 -0.115349D-03 -0.952458D-04
    175  -0.137975D-02 -0.878159D-02 -0.141544D-02 -0.231510D-02 -0.231510D-02
    176  -0.137975D-02 -0.878159D-02 -0.231510D-02 -0.141544D-02 -0.231510D-02
    177  -0.137975D-02 -0.878159D-02 -0.231510D-02 -0.231510D-02 -0.141544D-02
    178  -0.463482D-02 -0.281569D-01 -0.274758D-03 -0.317193D-02 -0.317193D-02
    179  -0.463482D-02 -0.281569D-01 -0.317193D-02 -0.274758D-03 -0.317193D-02
    180  -0.463482D-02 -0.281569D-01 -0.317193D-02 -0.317193D-02 -0.274758D-03
    181   0.000000D+00  0.000000D+00  0.000000D+00  0.000000D+00  0.000000D+00
    182   0.000000D+00  0.000000D+00  0.000000D+00  0.000000D+00  0.000000D+00
    183   0.000000D+00  0.000000D+00  0.000000D+00  0.000000D+00  0.000000D+00
    184   0.000000D+00  0.000000D+00  0.000000D+00  0.000000D+00  0.000000D+00
    185   0.000000D+00  0.000000D+00  0.000000D+00  0.000000D+00  0.000000D+00
    186   0.000000D+00  0.000000D+00  0.000000D+00  0.000000D+00  0.000000D+00
    187   0.000000D+00  0.000000D+00  0.000000D+00  0.000000D+00  0.000000D+00
    188   0.000000D+00  0.000000D+00  0.000000D+00  0.000000D+00  0.000000D+00
    189   0.000000D+00  0.000000D+00  0.000000D+00  0.000000D+00  0.000000D+00
    190   0.000000D+00  0.000000D+00  0.000000D+00  0.000000D+00  0.000000D+00
    191   0.000000D+00  0.000000D+00  0.252200D-04  0.252200D-04 -0.504401D-04
    192   0.490065D-04  0.438334D-03  0.221665D-03  0.265347D-03  0.221665D-03
    193   0.490065D-04  0.438334D-03  0.265347D-03  0.221665D-03  0.221665D-03
    194   0.000000D+00  0.000000D+00 -0.436824D-04  0.436824D-04  0.000000D+00
    195   0.490065D-04  0.438334D-03  0.221665D-03  0.221665D-03  0.265347D-03
    196   0.000000D+00  0.000000D+00  0.139620D-02  0.139620D-02 -0.279241D-02
    197   0.383124D-02  0.235263D-01  0.325632D-02  0.567462D-02  0.325632D-02
    198   0.383124D-02  0.235263D-01  0.567462D-02  0.325632D-02  0.325632D-02
    199   0.000000D+00  0.000000D+00 -0.241830D-02  0.241830D-02  0.000000D+00
    200   0.383124D-02  0.235263D-01  0.325632D-02  0.325632D-02  0.567462D-02
    201   0.000000D+00  0.000000D+00  0.000000D+00  0.000000D+00  0.000000D+00
    202   0.000000D+00  0.000000D+00  0.000000D+00  0.000000D+00  0.000000D+00
    203   0.000000D+00  0.000000D+00  0.000000D+00  0.000000D+00  0.000000D+00
    204   0.000000D+00  0.000000D+00  0.000000D+00  0.000000D+00  0.000000D+00
    205   0.000000D+00  0.000000D+00  0.000000D+00  0.000000D+00  0.000000D+00
    206   0.000000D+00  0.000000D+00  0.000000D+00  0.000000D+00  0.000000D+00
    207   0.000000D+00  0.000000D+00  0.000000D+00  0.000000D+00  0.000000D+00
    208   0.569786D-04  0.505544D-03  0.248361D-03  0.248361D-03  0.323982D-03
    209  -0.348921D-04 -0.309581D-03 -0.198398D-03 -0.229270D-03 -0.749089D-04
    210  -0.348921D-04 -0.309581D-03 -0.229270D-03 -0.198398D-03 -0.749089D-04
    211   0.000000D+00  0.000000D+00  0.976264D-04 -0.976264D-04  0.000000D+00
    212  -0.110338D-03 -0.978981D-03 -0.529762D-03 -0.529762D-03 -0.529762D-03
    213   0.450455D-04  0.399668D-03  0.256130D-03  0.136563D-03  0.256130D-03
    214  -0.450455D-04 -0.399668D-03 -0.136563D-03 -0.256130D-03 -0.256130D-03
    215   0.330021D-02  0.200518D-01  0.258103D-02  0.258103D-02  0.567591D-02
    216  -0.202096D-02 -0.122792D-01 -0.347577D-02 -0.473925D-02  0.157814D-02
    217  -0.202096D-02 -0.122792D-01 -0.473925D-02 -0.347577D-02  0.157814D-02
    218   0.000000D+00  0.000000D+00  0.399547D-02 -0.399547D-02  0.000000D+00
    219  -0.639084D-02 -0.388302D-01 -0.699589D-02 -0.699589D-02 -0.699589D-02
    220   0.260905D-02  0.158523D-01  0.448720D-02 -0.406230D-03  0.448720D-02
    221  -0.260905D-02 -0.158523D-01  0.406230D-03 -0.448720D-02 -0.448720D-02
    222   0.000000D+00  0.000000D+00  0.000000D+00  0.000000D+00  0.000000D+00
    223   0.000000D+00  0.000000D+00  0.000000D+00  0.000000D+00  0.000000D+00
    224   0.000000D+00  0.000000D+00  0.000000D+00  0.000000D+00  0.000000D+00
    225   0.000000D+00  0.000000D+00  0.000000D+00  0.000000D+00  0.000000D+00
    226   0.000000D+00  0.000000D+00  0.000000D+00  0.000000D+00  0.000000D+00
    227   0.000000D+00  0.000000D+00  0.000000D+00  0.000000D+00  0.000000D+00
    228   0.000000D+00  0.000000D+00  0.000000D+00  0.000000D+00  0.000000D+00
    229   0.000000D+00  0.000000D+00  0.000000D+00  0.000000D+00  0.000000D+00
    230   0.000000D+00  0.000000D+00  0.000000D+00  0.000000D+00  0.000000D+00
    231  -0.120908D-03 -0.101893D-02 -0.579665D-03 -0.579665D-03 -0.433943D-03
    232  -0.546208D-04 -0.460304D-03 -0.117039D-03 -0.163120D-03 -0.439608D-03
    233  -0.546208D-04 -0.460304D-03 -0.163120D-03 -0.117039D-03 -0.439608D-03
    234   0.000000D+00  0.000000D+00 -0.130338D-03  0.130338D-03  0.000000D+00
    235   0.154491D-03  0.130194D-02  0.787217D-03  0.787217D-03  0.461373D-03
    236  -0.144513D-03 -0.121785D-02 -0.797334D-03 -0.431575D-03 -0.675415D-03
    237   0.144513D-03  0.121785D-02  0.431575D-03  0.797334D-03  0.675415D-03
    238  -0.102186D-03 -0.861149D-03 -0.391380D-03 -0.391380D-03 -0.563800D-03
    239   0.000000D+00  0.000000D+00 -0.172420D-03  0.172420D-03  0.000000D+00
    240   0.818952D-04  0.624223D-03  0.609141D-03  0.609141D-03 -0.335644D-03
    241   0.317179D-03  0.241760D-02  0.976852D-03  0.122079D-02  0.122079D-02
    242   0.317179D-03  0.241760D-02  0.122079D-02  0.976852D-03  0.122079D-02
    243   0.000000D+00  0.000000D+00  0.000000D+00  0.000000D+00  0.000000D+00
    244   0.000000D+00  0.000000D+00 -0.430274D-03 -0.430274D-03  0.860548D-03
    245   0.342592D-03  0.261131D-02  0.175776D-02  0.967292D-03  0.967292D-03
    246  -0.342592D-03 -0.261131D-02 -0.967292D-03 -0.175776D-02 -0.967292D-03
    247   0.484498D-03  0.369295D-02  0.161638D-02  0.161638D-02  0.198900D-02
    248   0.000000D+00  0.000000D+00  0.745256D-03 -0.745256D-03  0.000000D+00
    249   0.153212D-03  0.116781D-02  0.157637D-03  0.746814D-03  0.746814D-03
    250   0.153212D-03  0.116781D-02  0.746814D-03  0.157637D-03  0.746814D-03
    251   0.240105D-02  0.147914D-01 -0.147103D-02 -0.147103D-02  0.147103D-02
    252   0.286740D-02  0.175533D-01 -0.260141D-03 -0.260141D-03  0.260141D-03
    253   0.157467D-02  0.965025D-02 -0.537400D-04 -0.537400D-04  0.537400D-04
    254   0.000000D+00  0.000000D+00  0.000000D+00  0.000000D+00  0.000000D+00
    255   0.168792D-04  0.145651D-03 -0.743358D-04 -0.743358D-04  0.743358D-04
    256   0.988788D-03  0.631203D-02 -0.140583D-02 -0.140583D-02  0.140583D-02
    257   0.369839D-02  0.226443D-01 -0.202243D-02 -0.202243D-02  0.202243D-02
    258   0.412170D-02  0.251904D-01 -0.934208D-03 -0.934208D-03  0.934208D-03
    259   0.000000D+00  0.000000D+00  0.000000D+00  0.000000D+00  0.000000D+00
    260   0.000000D+00  0.000000D+00  0.000000D+00  0.000000D+00  0.000000D+00
    261   0.000000D+00  0.000000D+00  0.000000D+00  0.000000D+00  0.000000D+00
    262   0.000000D+00  0.000000D+00  0.000000D+00  0.000000D+00  0.000000D+00
    263   0.000000D+00  0.000000D+00  0.000000D+00  0.000000D+00  0.000000D+00
    264   0.000000D+00  0.000000D+00  0.000000D+00  0.000000D+00  0.000000D+00
    265   0.224018D-04  0.201846D-03 -0.952458D-04 -0.115349D-03  0.115349D-03
    266   0.224018D-04  0.201846D-03 -0.115349D-03 -0.952458D-04  0.115349D-03
    267  -0.224018D-04 -0.201846D-03  0.115349D-03  0.115349D-03 -0.952458D-04
    268   0.137975D-02  0.878159D-02 -0.141544D-02 -0.231510D-02  0.231510D-02
    269   0.137975D-02  0.878159D-02 -0.231510D-02 -0.141544D-02  0.231510D-02
    270  -0.137975D-02 -0.878159D-02  0.231510D-02  0.231510D-02 -0.141544D-02
    271   0.463482D-02  0.281569D-01 -0.274758D-03 -0.317193D-02  0.317193D-02
    272   0.463482D-02  0.281569D-01 -0.317193D-02 -0.274758D-03  0.317193D-02
    273  -0.463482D-02 -0.281569D-01  0.317193D-02  0.317193D-02 -0.274758D-03
    274   0.000000D+00  0.000000D+00  0.000000D+00  0.000000D+00  0.000000D+00
    275   0.000000D+00  0.000000D+00  0.000000D+00  0.000000D+00  0.000000D+00
    276   0.000000D+00  0.000000D+00  0.000000D+00  0.000000D+00  0.000000D+00
    277   0.000000D+00  0.000000D+00  0.000000D+00  0.000000D+00  0.000000D+00
    278   0.000000D+00  0.000000D+00  0.000000D+00  0.000000D+00  0.000000D+00
    279   0.000000D+00  0.000000D+00  0.000000D+00  0.000000D+00  0.000000D+00
    280   0.000000D+00  0.000000D+00  0.000000D+00  0.000000D+00  0.000000D+00
    281   0.000000D+00  0.000000D+00  0.000000D+00  0.000000D+00  0.000000D+00
    282   0.000000D+00  0.000000D+00  0.000000D+00  0.000000D+00  0.000000D+00
    283   0.000000D+00  0.000000D+00  0.000000D+00  0.000000D+00  0.000000D+00
    284   0.000000D+00  0.000000D+00 -0.252200D-04 -0.252200D-04 -0.504401D-04
    285  -0.490065D-04 -0.438334D-03  0.221665D-03  0.265347D-03 -0.221665D-03
    286  -0.490065D-04 -0.438334D-03  0.265347D-03  0.221665D-03 -0.221665D-03
    287   0.000000D+00  0.000000D+00  0.436824D-04 -0.436824D-04  0.000000D+00
    288   0.490065D-04  0.438334D-03 -0.221665D-03 -0.221665D-03  0.265347D-03
    289   0.000000D+00  0.000000D+00 -0.139620D-02 -0.139620D-02 -0.279241D-02
    290  -0.383124D-02 -0.235263D-01  0.325632D-02  0.567462D-02 -0.325632D-02
    291  -0.383124D-02 -0.235263D-01  0.567462D-02  0.325632D-02 -0.325632D-02
    292   0.000000D+00  0.000000D+00  0.241830D-02 -0.241830D-02  0.000000D+00
    293   0.383124D-02  0.235263D-01 -0.325632D-02 -0.325632D-02  0.567462D-02
    294   0.000000D+00  0.000000D+00  0.000000D+00  0.000000D+00  0.000000D+00
    295   0.000000D+00  0.000000D+00  0.000000D+00  0.000000D+00  0.000000D+00
    296   0.000000D+00  0.000000D+00  0.000000D+00  0.000000D+00  0.000000D+00
    297   0.000000D+00  0.000000D+00  0.000000D+00  0.000000D+00  0.000000D+00
    298   0.000000D+00  0.000000D+00  0.000000D+00  0.000000D+00  0.000000D+00
    299   0.000000D+00  0.000000D+00  0.000000D+00  0.000000D+00  0.000000D+00
    300   0.000000D+00  0.000000D+00  0.000000D+00  0.000000D+00  0.000000D+00
    301   0.569786D-04  0.505544D-03 -0.248361D-03 -0.248361D-03  0.323982D-03
    302   0.348921D-04  0.309581D-03 -0.198398D-03 -0.229270D-03  0.749089D-04
    303   0.348921D-04  0.309581D-03 -0.229270D-03 -0.198398D-03  0.749089D-04
    304   0.000000D+00  0.000000D+00 -0.976264D-04  0.976264D-04  0.000000D+00
    305  -0.110338D-03 -0.978981D-03  0.529762D-03  0.529762D-03 -0.529762D-03
    306  -0.450455D-04 -0.399668D-03  0.256130D-03  0.136563D-03 -0.256130D-03
    307   0.450455D-04  0.399668D-03 -0.136563D-03 -0.256130D-03  0.256130D-03
    308   0.330021D-02  0.200518D-01 -0.258103D-02 -0.258103D-02  0.567591D-02
    309   0.202096D-02  0.122792D-01 -0.347577D-02 -0.473925D-02 -0.157814D-02
    310   0.202096D-02  0.122792D-01 -0.473925D-02 -0.347577D-02 -0.157814D-02
    311   0.000000D+00  0.000000D+00 -0.399547D-02  0.399547D-02  0.000000D+00
    312  -0.639084D-02 -0.388302D-01  0.699589D-02  0.699589D-02 -0.699589D-02
    313  -0.260905D-02 -0.158523D-01  0.448720D-02 -0.406230D-03 -0.448720D-02
    314   0.260905D-02  0.158523D-01  0.406230D-03 -0.448720D-02  0.448720D-02
    315   0.000000D+00  0.000000D+00  0.000000D+00  0.000000D+00  0.000000D+00
    316   0.000000D+00  0.000000D+00  0.000000D+00  0.000000D+00  0.000000D+00
    317   0.000000D+00  0.000000D+00  0.000000D+00  0.000000D+00  0.000000D+00
    318   0.000000D+00  0.000000D+00  0.000000D+00  0.000000D+00  0.000000D+00
    319   0.000000D+00  0.000000D+00  0.000000D+00  0.000000D+00  0.000000D+00
    320   0.000000D+00  0.000000D+00  0.000000D+00  0.000000D+00  0.000000D+00
    321   0.000000D+00  0.000000D+00  0.000000D+00  0.000000D+00  0.000000D+00
    322   0.000000D+00  0.000000D+00  0.000000D+00  0.000000D+00  0.000000D+00
    323   0.000000D+00  0.000000D+00  0.000000D+00  0.000000D+00  0.000000D+00
    324  -0.120908D-03 -0.101893D-02  0.579665D-03  0.579665D-03 -0.433943D-03
    325   0.546208D-04  0.460304D-03 -0.117039D-03 -0.163120D-03  0.439608D-03
    326   0.546208D-04  0.460304D-03 -0.163120D-03 -0.117039D-03  0.439608D-03
    327   0.000000D+00  0.000000D+00  0.130338D-03 -0.130338D-03  0.000000D+00
    328   0.154491D-03  0.130194D-02 -0.787217D-03 -0.787217D-03  0.461373D-03
    329   0.144513D-03  0.121785D-02 -0.797334D-03 -0.431575D-03  0.675415D-03
    330  -0.144513D-03 -0.121785D-02  0.431575D-03  0.797334D-03 -0.675415D-03
    331  -0.102186D-03 -0.861149D-03  0.391380D-03  0.391380D-03 -0.563800D-03
    332   0.000000D+00  0.000000D+00  0.172420D-03 -0.172420D-03  0.000000D+00
    333   0.818952D-04  0.624223D-03 -0.609141D-03 -0.609141D-03 -0.335644D-03
    334  -0.317179D-03 -0.241760D-02  0.976852D-03  0.122079D-02 -0.122079D-02
    335  -0.317179D-03 -0.241760D-02  0.122079D-02  0.976852D-03 -0.122079D-02
    336   0.000000D+00  0.000000D+00  0.000000D+00  0.000000D+00  0.000000D+00
    337   0.000000D+00  0.000000D+00  0.430274D-03  0.430274D-03  0.860548D-03
    338  -0.342592D-03 -0.261131D-02  0.175776D-02  0.967292D-03 -0.967292D-03
    339   0.342592D-03  0.261131D-02 -0.967292D-03 -0.175776D-02  0.967292D-03
    340   0.484498D-03  0.369295D-02 -0.161638D-02 -0.161638D-02  0.198900D-02
    341   0.000000D+00  0.000000D+00 -0.745256D-03  0.745256D-03  0.000000D+00
    342  -0.153212D-03 -0.116781D-02  0.157637D-03  0.746814D-03 -0.746814D-03
    343  -0.153212D-03 -0.116781D-02  0.746814D-03  0.157637D-03 -0.746814D-03
    344   0.240105D-02  0.147914D-01 -0.147103D-02  0.147103D-02 -0.147103D-02
    345   0.286740D-02  0.175533D-01 -0.260141D-03  0.260141D-03 -0.260141D-03
    346   0.157467D-02  0.965025D-02 -0.537400D-04  0.537400D-04 -0.537400D-04
    347   0.000000D+00  0.000000D+00  0.000000D+00  0.000000D+00  0.000000D+00
    348   0.168792D-04  0.145651D-03 -0.743358D-04  0.743358D-04 -0.743358D-04
    349   0.988788D-03  0.631203D-02 -0.140583D-02  0.140583D-02 -0.140583D-02
    350   0.369839D-02  0.226443D-01 -0.202243D-02  0.202243D-02 -0.202243D-02
    351   0.412170D-02  0.251904D-01 -0.934208D-03  0.934208D-03 -0.934208D-03
    352   0.000000D+00  0.000000D+00  0.000000D+00  0.000000D+00  0.000000D+00
    353   0.000000D+00  0.000000D+00  0.000000D+00  0.000000D+00  0.000000D+00
    354   0.000000D+00  0.000000D+00  0.000000D+00  0.000000D+00  0.000000D+00
    355   0.000000D+00  0.000000D+00  0.000000D+00  0.000000D+00  0.000000D+00
    356   0.000000D+00  0.000000D+00  0.000000D+00  0.000000D+00  0.000000D+00
    357   0.000000D+00  0.000000D+00  0.000000D+00  0.000000D+00  0.000000D+00
    358   0.224018D-04  0.201846D-03 -0.952458D-04  0.115349D-03 -0.115349D-03
    359  -0.224018D-04 -0.201846D-03  0.115349D-03 -0.952458D-04  0.115349D-03
    360   0.224018D-04  0.201846D-03 -0.115349D-03  0.115349D-03 -0.952458D-04
    361   0.137975D-02  0.878159D-02 -0.141544D-02  0.231510D-02 -0.231510D-02
    362  -0.137975D-02 -0.878159D-02  0.231510D-02 -0.141544D-02  0.231510D-02
    363   0.137975D-02  0.878159D-02 -0.231510D-02  0.231510D-02 -0.141544D-02
    364   0.463482D-02  0.281569D-01 -0.274758D-03  0.317193D-02 -0.317193D-02
    365  -0.463482D-02 -0.281569D-01  0.317193D-02 -0.274758D-03  0.317193D-02
    366   0.463482D-02  0.281569D-01 -0.317193D-02  0.317193D-02 -0.274758D-03
    367   0.000000D+00  0.000000D+00  0.000000D+00  0.000000D+00  0.000000D+00
    368   0.000000D+00  0.000000D+00  0.000000D+00  0.000000D+00  0.000000D+00
    369   0.000000D+00  0.000000D+00  0.000000D+00  0.000000D+00  0.000000D+00
    370   0.000000D+00  0.000000D+00  0.000000D+00  0.000000D+00  0.000000D+00
    371   0.000000D+00  0.000000D+00  0.000000D+00  0.000000D+00  0.000000D+00
    372   0.000000D+00  0.000000D+00  0.000000D+00  0.000000D+00  0.000000D+00
    373   0.000000D+00  0.000000D+00  0.000000D+00  0.000000D+00  0.000000D+00
    374   0.000000D+00  0.000000D+00  0.000000D+00  0.000000D+00  0.000000D+00
    375   0.000000D+00  0.000000D+00  0.000000D+00  0.000000D+00  0.000000D+00
    376   0.000000D+00  0.000000D+00  0.000000D+00  0.000000D+00  0.000000D+00
    377   0.000000D+00  0.000000D+00 -0.252200D-04  0.252200D-04  0.504401D-04
    378   0.490065D-04  0.438334D-03 -0.221665D-03  0.265347D-03 -0.221665D-03
    379  -0.490065D-04 -0.438334D-03  0.265347D-03 -0.221665D-03  0.221665D-03
    380   0.000000D+00  0.000000D+00  0.436824D-04  0.436824D-04  0.000000D+00
    381  -0.490065D-04 -0.438334D-03  0.221665D-03 -0.221665D-03  0.265347D-03
    382   0.000000D+00  0.000000D+00 -0.139620D-02  0.139620D-02  0.279241D-02
    383   0.383124D-02  0.235263D-01 -0.325632D-02  0.567462D-02 -0.325632D-02
    384  -0.383124D-02 -0.235263D-01  0.567462D-02 -0.325632D-02  0.325632D-02
    385   0.000000D+00  0.000000D+00  0.241830D-02  0.241830D-02  0.000000D+00
    386  -0.383124D-02 -0.235263D-01  0.325632D-02 -0.325632D-02  0.567462D-02
    387   0.000000D+00  0.000000D+00  0.000000D+00  0.000000D+00  0.000000D+00
    388   0.000000D+00  0.000000D+00  0.000000D+00  0.000000D+00  0.000000D+00
    389   0.000000D+00  0.000000D+00  0.000000D+00  0.000000D+00  0.000000D+00
    390   0.000000D+00  0.000000D+00  0.000000D+00  0.000000D+00  0.000000D+00
    391   0.000000D+00  0.000000D+00  0.000000D+00  0.000000D+00  0.000000D+00
    392   0.000000D+00  0.000000D+00  0.000000D+00  0.000000D+00  0.000000D+00
    393   0.000000D+00  0.000000D+00  0.000000D+00  0.000000D+00  0.000000D+00
    394  -0.569786D-04 -0.505544D-03  0.248361D-03 -0.248361D-03  0.323982D-03
    395   0.348921D-04  0.309581D-03 -0.198398D-03  0.229270D-03 -0.749089D-04
    396  -0.348921D-04 -0.309581D-03  0.229270D-03 -0.198398D-03  0.749089D-04
    397   0.000000D+00  0.000000D+00  0.976264D-04  0.976264D-04  0.000000D+00
    398  -0.110338D-03 -0.978981D-03  0.529762D-03 -0.529762D-03  0.529762D-03
    399  -0.450455D-04 -0.399668D-03  0.256130D-03 -0.136563D-03  0.256130D-03
    400  -0.450455D-04 -0.399668D-03  0.136563D-03 -0.256130D-03  0.256130D-03
    401  -0.330021D-02 -0.200518D-01  0.258103D-02 -0.258103D-02  0.567591D-02
    402   0.202096D-02  0.122792D-01 -0.347577D-02  0.473925D-02  0.157814D-02
    403  -0.202096D-02 -0.122792D-01  0.473925D-02 -0.347577D-02 -0.157814D-02
    404   0.000000D+00  0.000000D+00  0.399547D-02  0.399547D-02  0.000000D+00
    405  -0.639084D-02 -0.388302D-01  0.699589D-02 -0.699589D-02  0.699589D-02
    406  -0.260905D-02 -0.158523D-01  0.448720D-02  0.406230D-03  0.448720D-02
    407  -0.260905D-02 -0.158523D-01 -0.406230D-03 -0.448720D-02  0.448720D-02
    408   0.000000D+00  0.000000D+00  0.000000D+00  0.000000D+00  0.000000D+00
    409   0.000000D+00  0.000000D+00  0.000000D+00  0.000000D+00  0.000000D+00
    410   0.000000D+00  0.000000D+00  0.000000D+00  0.000000D+00  0.000000D+00
    411   0.000000D+00  0.000000D+00  0.000000D+00  0.000000D+00  0.000000D+00
    412   0.000000D+00  0.000000D+00  0.000000D+00  0.000000D+00  0.000000D+00
    413   0.000000D+00  0.000000D+00  0.000000D+00  0.000000D+00  0.000000D+00
    414   0.000000D+00  0.000000D+00  0.000000D+00  0.000000D+00  0.000000D+00
    415   0.000000D+00  0.000000D+00  0.000000D+00  0.000000D+00  0.000000D+00
    416   0.000000D+00  0.000000D+00  0.000000D+00  0.000000D+00  0.000000D+00
    417  -0.120908D-03 -0.101893D-02  0.579665D-03 -0.579665D-03  0.433943D-03
    418  -0.546208D-04 -0.460304D-03  0.117039D-03 -0.163120D-03  0.439608D-03
    419   0.546208D-04  0.460304D-03 -0.163120D-03  0.117039D-03 -0.439608D-03
    420   0.000000D+00  0.000000D+00  0.130338D-03  0.130338D-03  0.000000D+00
    421  -0.154491D-03 -0.130194D-02  0.787217D-03 -0.787217D-03  0.461373D-03
    422  -0.144513D-03 -0.121785D-02  0.797334D-03 -0.431575D-03  0.675415D-03
    423  -0.144513D-03 -0.121785D-02  0.431575D-03 -0.797334D-03  0.675415D-03
    424  -0.102186D-03 -0.861149D-03  0.391380D-03 -0.391380D-03  0.563800D-03
    425   0.000000D+00  0.000000D+00 -0.172420D-03 -0.172420D-03  0.000000D+00
    426  -0.818952D-04 -0.624223D-03  0.609141D-03 -0.609141D-03 -0.335644D-03
    427  -0.317179D-03 -0.241760D-02  0.976852D-03 -0.122079D-02  0.122079D-02
    428   0.317179D-03  0.241760D-02 -0.122079D-02  0.976852D-03 -0.122079D-02
    429   0.000000D+00  0.000000D+00  0.000000D+00  0.000000D+00  0.000000D+00
    430   0.000000D+00  0.000000D+00  0.430274D-03 -0.430274D-03 -0.860548D-03
    431  -0.342592D-03 -0.261131D-02  0.175776D-02 -0.967292D-03  0.967292D-03
    432  -0.342592D-03 -0.261131D-02  0.967292D-03 -0.175776D-02  0.967292D-03
    433  -0.484498D-03 -0.369295D-02  0.161638D-02 -0.161638D-02  0.198900D-02
    434   0.000000D+00  0.000000D+00 -0.745256D-03 -0.745256D-03  0.000000D+00
    435  -0.153212D-03 -0.116781D-02  0.157637D-03 -0.746814D-03  0.746814D-03
    436   0.153212D-03  0.116781D-02 -0.746814D-03  0.157637D-03 -0.746814D-03
    437   0.240105D-02  0.147914D-01  0.147103D-02 -0.147103D-02 -0.147103D-02
    438   0.286740D-02  0.175533D-01  0.260141D-03 -0.260141D-03 -0.260141D-03
    439   0.157467D-02  0.965025D-02  0.537400D-04 -0.537400D-04 -0.537400D-04
    440   0.000000D+00  0.000000D+00  0.000000D+00  0.000000D+00  0.000000D+00
    441   0.168792D-04  0.145651D-03  0.743358D-04 -0.743358D-04 -0.743358D-04
    442   0.988788D-03  0.631203D-02  0.140583D-02 -0.140583D-02 -0.140583D-02
    443   0.369839D-02  0.226443D-01  0.202243D-02 -0.202243D-02 -0.202243D-02
    444   0.412170D-02  0.251904D-01  0.934208D-03 -0.934208D-03 -0.934208D-03
    445   0.000000D+00  0.000000D+00  0.000000D+00  0.000000D+00  0.000000D+00
    446   0.000000D+00  0.000000D+00  0.000000D+00  0.000000D+00  0.000000D+00
    447   0.000000D+00  0.000000D+00  0.000000D+00  0.000000D+00  0.000000D+00
    448   0.000000D+00  0.000000D+00  0.000000D+00  0.000000D+00  0.000000D+00
    449   0.000000D+00  0.000000D+00  0.000000D+00  0.000000D+00  0.000000D+00
    450   0.000000D+00  0.000000D+00  0.000000D+00  0.000000D+00  0.000000D+00
    451  -0.224018D-04 -0.201846D-03 -0.952458D-04  0.115349D-03  0.115349D-03
    452   0.224018D-04  0.201846D-03  0.115349D-03 -0.952458D-04 -0.115349D-03
[...]
         |

                     Sum of ab pair energies =    -0.127898 A.U.
                     Sum of ba pair energies =    -0.011105 A.U.
                     Sum of aa pair energies =    -0.007674 A.U.
                     Sum of bb pair energies =    -0.007674 A.U.

           Sum of intraorbital pair energies =    -0.116793 A.U.
           Sum of interorbital pair energies =    -0.037559 A.U.
                                                  ----------
                         Total pair energies =    -0.154352 A.U.

                         Single Excitations  =     0.000000 A.U.

                          Total second order =    -0.154352 A.U.

                         E2(CBS) - E2(Dir) =      -0.003078 A.U.

 E2(CBS)=      -0.156035 CBS-Int=       0.001683 OIii=       1.274020

 **********************************************************************

            Population analysis using the SCF density.

 **********************************************************************

 Orbital symmetries:
       Occupied  (A1) (A1) (T2) (T2) (T2) (A1) (T2) (T2) (T2) (T2)
                 (T2) (T2) (E) (E) (A1) (T2) (T2) (T2)
       Virtual   (A1) (T2) (T2) (T2) (A1) (T2) (T2) (T2) (T2) (T2)
                 (T2) (A1) (T2) (T2) (T2) (A1) (E) (E) (T2) (T2)
                 (T2) (T2) (T2) (T2) (A1) (T2) (T2) (T2) (A1) (T1)
                 (T1) (T1) (T2) (T2) (T2) (E) (E) (T2) (T2) (T2)
                 (A1) (T1) (T1) (T1) (E) (E) (T2) (T2) (T2) (T2)
                 (T2) (T2) (A1) (T2) (T2) (T2) (A1) (T1) (T1) (T1)
                 (T2) (T2) (T2) (E) (E) (T2) (T2) (T2) (A1) (E)
                 (E) (A1) (T1) (T1) (T1) (T2) (T2) (T2) (T1) (T1)
                 (T1) (T2) (T2) (T2) (E) (E) (T2) (T2) (T2) (T2)
                 (T2) (T2) (T1) (T1) (T1) (A1) (T2) (T2) (T2) (A1)
                 (E) (E) (T2) (T2) (T2) (T1) (T1) (T1) (A2) (T2)
                 (T2) (T2) (E) (E) (T1) (T1) (T1) (T2) (T2) (T2)
                 (A1) (T2) (T2) (T2) (E) (E) (A1) (T2) (T2) (T2)
                 (E) (E) (T1) (T1) (T1) (T1) (T1) (T1) (T2) (T2)
                 (T2) (A1) (T2) (T2) (T2) (T1) (T1) (T1) (T2) (T2)
                 (T2) (T2) (T2) (T2) (A1) (E) (E) (T2) (T2) (T2)
                 (A1) (E) (E) (T2) (T2) (T2) (T1) (T1) (T1) (A1)
                 (T1) (T1) (T1) (T2) (T2) (T2) (E) (E) (A1) (T2)
                 (T2) (T2) (T1) (T1) (T1) (T2) (T2) (T2) (E) (E)
                 (T2) (T2) (T2) (T1) (T1) (T1) (T2) (T2) (T2) (A1)
                 (A2) (T1) (T1) (T1) (E) (E) (T2) (T2) (T2) (T2)
                 (T2) (T2) (E) (E) (T2) (T2) (T2) (T1) (T1) (T1)
                 (A1) (T2) (T2) (T2) (T1) (T1) (T1) (T2) (T2) (T2)
                 (A1) (E) (E) (E) (E) (T2) (T2) (T2) (T1) (T1)
                 (T1) (A1) (E) (E) (T2) (T2) (T2) (T1) (T1) (T1)
                 (A2) (T1) (T1) (T1) (T2) (T2) (T2) (T2) (T2) (T2)
                 (E) (E) (A1) (T1) (T1) (T1) (T2) (T2) (T2) (T2)
                 (T2) (T2) (A1) (T2) (T2) (T2) (E) (E) (T1) (T1)
                 (T1) (T1) (T1) (T1) (A1) (T2) (T2) (T2) (A2) (T1)
                 (T1) (T1) (T2) (T2) (T2) (E) (E) (T1) (T1) (T1)
                 (T2) (T2) (T2) (A1) (E) (E) (T2) (T2) (T2) (T1)
                 (T1) (T1) (T2) (T2) (T2) (E) (E) (T2) (T2) (T2)
                 (T1) (T1) (T1) (E) (E) (T2) (T2) (T2) (A1) (A1)
                 (T1) (T1) (T1) (T2) (T2) (T2) (E) (E) (T2) (T2)
                 (T2) (T1) (T1) (T1) (E) (E) (T2) (T2) (T2) (A1)
                 (T1) (T1) (T1) (A1) (T2) (T2) (T2) (E) (E) (T2)
                 (T2) (T2) (A2) (T1) (T1) (T1) (T2) (T2) (T2) (E)
                 (E) (T2) (T2) (T2) (T1) (T1) (T1) (T2) (T2) (T2)
                 (E) (E) (A1) (T2) (T2) (T2) (T1) (T1) (T1) (E)
                 (E) (T2) (T2) (T2) (A1) (T2) (T2) (T2) (T1) (T1)
                 (T1) (T2) (T2) (T2) (E) (E) (A1) (T2) (T2) (T2)
                 (T2) (T2) (T2) (T1) (T1) (T1) (A2) (A1) (E) (E)
                 (T1) (T1) (T1) (T2) (T2) (T2) (T1) (T1) (T1) (A1)
                 (T2) (T2) (T2) (T2) (T2) (T2) (E) (E) (T1) (T1)
                 (T1) (E) (E) (T2) (T2) (T2) (T1) (T1) (T1) (T2)
                 (T2) (T2) (A1) (A2) (E) (E) (T2) (T2) (T2) (T1)
                 (T1) (T1) (T1) (T1) (T1) (E) (E) (T2) (T2) (T2)
                 (A1) (T2) (T2) (T2) (T2) (T2) (T2) (A1) (E) (E)
                 (T2) (T2) (T2) (T1) (T1) (T1) (A1) (T2) (T2) (T2)
                 (T1) (T1) (T1) (T2) (T2) (T2) (E) (E) (T1) (T1)
                 (T1) (T2) (T2) (T2) (E) (E) (A1) (T2) (T2) (T2)
                 (A1)
 The electronic state is 1-A1.
 Alpha  occ. eigenvalues -- -405.22689 -52.13408 -46.22148 -46.22148 -46.22148
 Alpha  occ. eigenvalues --   -7.17757  -5.15288  -5.15288  -5.15288  -1.62817
 Alpha  occ. eigenvalues --   -1.62817  -1.62817  -1.62450  -1.62450  -0.73544
 Alpha  occ. eigenvalues --   -0.47186  -0.47186  -0.47186
 Alpha virt. eigenvalues --    0.01263   0.02059   0.02059   0.02059   0.05938
 Alpha virt. eigenvalues --    0.06305   0.06305   0.06305   0.08542   0.08542
 Alpha virt. eigenvalues --    0.08542   0.15161   0.16045   0.16045   0.16045
 Alpha virt. eigenvalues --    0.18990   0.22057   0.22057   0.26194   0.26194
 Alpha virt. eigenvalues --    0.26194   0.33018   0.33018   0.33018   0.36516
 Alpha virt. eigenvalues --    0.38677   0.38677   0.38677   0.43351   0.44678
 Alpha virt. eigenvalues --    0.44678   0.44678   0.58867   0.58867   0.58867
 Alpha virt. eigenvalues --    0.60525   0.60525   0.70182   0.70182   0.70182
 Alpha virt. eigenvalues --    0.70332   0.72666   0.72666   0.72666   0.73058
 Alpha virt. eigenvalues --    0.73058   0.75812   0.75812   0.75812   0.82721
 Alpha virt. eigenvalues --    0.82721   0.82721   0.83418   0.88319   0.88319
 Alpha virt. eigenvalues --    0.88319   0.91960   1.05198   1.05198   1.05198
 Alpha virt. eigenvalues --    1.19165   1.19165   1.19165   1.22018   1.22018
 Alpha virt. eigenvalues --    1.32820   1.32820   1.32820   1.43551   1.44605
 Alpha virt. eigenvalues --    1.44605   1.47716   1.48545   1.48545   1.48545
 Alpha virt. eigenvalues --    1.50677   1.50677   1.50677   1.58942   1.58942
 Alpha virt. eigenvalues --    1.58942   1.60160   1.60160   1.60160   1.65646
 Alpha virt. eigenvalues --    1.65646   1.69562   1.69562   1.69562   1.76608
 Alpha virt. eigenvalues --    1.76608   1.76608   1.80537   1.80537   1.80537
 Alpha virt. eigenvalues --    1.88439   1.88498   1.88498   1.88498   2.01367
 Alpha virt. eigenvalues --    2.10329   2.10329   2.13006   2.13006   2.13006
 Alpha virt. eigenvalues --    2.18824   2.18824   2.18824   2.19541   2.27613
 Alpha virt. eigenvalues --    2.27613   2.27613   2.31822   2.31822   2.37358
 Alpha virt. eigenvalues --    2.37358   2.37358   2.41840   2.41840   2.41840
 Alpha virt. eigenvalues --    2.42704   2.53349   2.53349   2.53349   2.61708
 Alpha virt. eigenvalues --    2.61708   2.63117   2.63253   2.63253   2.63253
 Alpha virt. eigenvalues --    2.72096   2.72096   2.74640   2.74640   2.74640
 Alpha virt. eigenvalues --    2.79182   2.79182   2.79182   2.84650   2.84650
 Alpha virt. eigenvalues --    2.84650   3.00240   3.02409   3.02409   3.02409
 Alpha virt. eigenvalues --    3.08271   3.08271   3.08271   3.09090   3.09090
 Alpha virt. eigenvalues --    3.09090   3.19153   3.19153   3.19153   3.22582
 Alpha virt. eigenvalues --    3.23874   3.23874   3.39071   3.39071   3.39071
 Alpha virt. eigenvalues --    3.47080   3.50387   3.50387   3.51939   3.51939
 Alpha virt. eigenvalues --    3.51939   3.52962   3.52962   3.52962   3.64726
 Alpha virt. eigenvalues --    3.65723   3.65723   3.65723   3.67392   3.67392
 Alpha virt. eigenvalues --    3.67392   4.13834   4.13834   4.28785   4.39290
 Alpha virt. eigenvalues --    4.39290   4.39290   4.59914   4.59914   4.59914
 Alpha virt. eigenvalues --    4.60365   4.60365   4.60365   4.70963   4.70963
 Alpha virt. eigenvalues --    4.72941   4.72941   4.72941   4.76837   4.76837
 Alpha virt. eigenvalues --    4.76837   4.79311   4.79311   4.79311   4.83792
 Alpha virt. eigenvalues --    4.86065   4.88098   4.88098   4.88098   4.99309
 Alpha virt. eigenvalues --    4.99309   5.07038   5.07038   5.07038   5.12958
 Alpha virt. eigenvalues --    5.12958   5.12958   5.13435   5.13435   5.34538
 Alpha virt. eigenvalues --    5.34538   5.34538   5.36939   5.36939   5.36939
 Alpha virt. eigenvalues --    5.40562   5.55791   5.55791   5.55791   5.67113
 Alpha virt. eigenvalues --    5.67113   5.67113   5.70482   5.70482   5.70482
 Alpha virt. eigenvalues --    5.74472   5.75159   5.75159   5.95551   5.95551
 Alpha virt. eigenvalues --    5.96778   5.96778   5.96778   6.07439   6.07439
 Alpha virt. eigenvalues --    6.07439   6.22989   6.28891   6.28891   6.38456
 Alpha virt. eigenvalues --    6.38456   6.38456   6.40206   6.40206   6.40206
 Alpha virt. eigenvalues --    6.40416   6.47733   6.47733   6.47733   6.50715
 Alpha virt. eigenvalues --    6.50715   6.50715   6.56968   6.56968   6.56968
 Alpha virt. eigenvalues --    6.58628   6.58628   6.61478   6.67609   6.67609
 Alpha virt. eigenvalues --    6.67609   6.68445   6.68445   6.68445   6.85695
 Alpha virt. eigenvalues --    6.85695   6.85695   6.86557   6.93739   6.93739
 Alpha virt. eigenvalues --    6.93739   6.93938   6.93938   7.02401   7.02401
 Alpha virt. eigenvalues --    7.02401   7.15615   7.15615   7.15615   7.40104
 Alpha virt. eigenvalues --    7.40671   7.40671   7.40671   7.48043   7.51036
 Alpha virt. eigenvalues --    7.51036   7.51036   7.66052   7.66052   7.66052
 Alpha virt. eigenvalues --    7.69021   7.69021   7.72798   7.72798   7.72798
 Alpha virt. eigenvalues --    7.74740   7.74740   7.74740   7.83587   7.84588
 Alpha virt. eigenvalues --    7.84588   7.84998   7.84998   7.84998   7.99621
 Alpha virt. eigenvalues --    7.99621   7.99621   8.06071   8.06071   8.06071
 Alpha virt. eigenvalues --    8.07880   8.07880   8.15981   8.15981   8.15981
 Alpha virt. eigenvalues --    8.25724   8.25724   8.25724   8.30118   8.30118
 Alpha virt. eigenvalues --    8.37213   8.37213   8.37213   8.43071   8.57109
 Alpha virt. eigenvalues --    8.63782   8.63782   8.63782   8.68527   8.68527
 Alpha virt. eigenvalues --    8.68527   8.69219   8.69219   8.72879   8.72879
 Alpha virt. eigenvalues --    8.72879   8.90623   8.90623   8.90623   9.14460
 Alpha virt. eigenvalues --    9.14460   9.15939   9.15939   9.15939   9.27450
 Alpha virt. eigenvalues --    9.29469   9.29469   9.29469   9.36888   9.38733
 Alpha virt. eigenvalues --    9.38733   9.38733   9.40581   9.40581   9.53568
 Alpha virt. eigenvalues --    9.53568   9.53568   9.74550   9.80601   9.80601
 Alpha virt. eigenvalues --    9.80601   9.88233   9.88233   9.88233  10.21062
 Alpha virt. eigenvalues --   10.21062  10.66001  10.66001  10.66001  10.75048
 Alpha virt. eigenvalues --   10.75048  10.75048  10.86426  10.86426  10.86426
 Alpha virt. eigenvalues --   10.94599  10.94599  11.58550  11.95749  11.95749
 Alpha virt. eigenvalues --   11.95749  12.24890  12.24890  12.24890  12.48249
 Alpha virt. eigenvalues --   12.48249  12.54873  12.54873  12.54873  12.60480
 Alpha virt. eigenvalues --   12.96706  12.96706  12.96706  13.27662  13.27662
 Alpha virt. eigenvalues --   13.27662  13.62693  13.62693  13.62693  13.89470
 Alpha virt. eigenvalues --   13.89470  14.47530  14.60383  14.60383  14.60383
 Alpha virt. eigenvalues --   17.53222  17.53222  17.53222  17.54399  17.54399
 Alpha virt. eigenvalues --   17.54399  17.54910  17.67010  17.74549  17.74549
 Alpha virt. eigenvalues --   17.93977  17.93977  17.93977  17.98601  17.98601
 Alpha virt. eigenvalues --   17.98601  18.30424  18.30424  18.30424  18.41776
 Alpha virt. eigenvalues --   18.48934  18.48934  18.48934  18.62897  18.62897
 Alpha virt. eigenvalues --   18.62897  18.68760  18.68760  20.73801  20.73801
 Alpha virt. eigenvalues --   20.73801  20.80770  20.80770  20.84792  20.84792
 Alpha virt. eigenvalues --   20.84792  21.12730  21.12730  21.12730  21.25586
 Alpha virt. eigenvalues --   21.25586  21.25586  21.39512  21.64848  21.74815
 Alpha virt. eigenvalues --   21.74815  21.90689  21.90689  21.90689  21.91131
 Alpha virt. eigenvalues --   21.91131  21.91131  22.01001  22.01001  22.01001
 Alpha virt. eigenvalues --   22.01865  22.01865  22.01912  22.01912  22.01912
 Alpha virt. eigenvalues --   22.23159  22.46978  22.46978  22.46978  27.09245
 Alpha virt. eigenvalues --   27.09245  27.09245  27.15630  27.40203  27.40203
 Alpha virt. eigenvalues --   27.49514  27.49514  27.49514  27.57958  27.57958
 Alpha virt. eigenvalues --   27.57958  29.54257  29.86084  29.86084  29.86084
 Alpha virt. eigenvalues --   30.93297  30.93297  30.93297  31.10873  31.10873
 Alpha virt. eigenvalues --   31.10873  31.15089  31.15089  31.76988  31.76988
 Alpha virt. eigenvalues --   31.76988  31.99156  31.99156  31.99156  32.19518
 Alpha virt. eigenvalues --   32.19518  32.54096  32.81240  32.81240  32.81240
 Alpha virt. eigenvalues --  335.63198
          Condensed to atoms (all electrons):
              1          2          3          4          5
     1  Ge  29.645391   0.398301   0.398301   0.398301   0.398301
     2  H    0.398301   0.856969  -0.021640  -0.021640  -0.021640
     3  H    0.398301  -0.021640   0.856969  -0.021640  -0.021640
     4  H    0.398301  -0.021640  -0.021640   0.856969  -0.021640
     5  H    0.398301  -0.021640  -0.021640  -0.021640   0.856969
 Mulliken atomic charges:
              1
     1  Ge   0.761405
     2  H   -0.190351
     3  H   -0.190351
     4  H   -0.190351
     5  H   -0.190351
 Sum of Mulliken atomic charges =   0.00000
 Mulliken charges with hydrogens summed into heavy atoms:
              1
     1  Ge   0.000000
 Sum of Mulliken charges with hydrogens summed into heavy atoms =   0.00000
          Atomic-Atomic Spin Densities.
              1          2          3          4          5
     1  Ge   0.000000   0.000000   0.000000   0.000000   0.000000
     2  H    0.000000   0.000000   0.000000   0.000000   0.000000
     3  H    0.000000   0.000000   0.000000   0.000000   0.000000
     4  H    0.000000   0.000000   0.000000   0.000000   0.000000
     5  H    0.000000   0.000000   0.000000   0.000000   0.000000
 Mulliken atomic spin densities:
              1
     1  Ge   0.000000
     2  H    0.000000
     3  H    0.000000
     4  H    0.000000
     5  H    0.000000
 Sum of Mulliken atomic spin densities =   0.00000
 Electronic spatial extent (au):  <R**2>=             81.1988
 Charge=              0.0000 electrons
 Dipole moment (field-independent basis, Debye):
    X=              0.0000    Y=              0.0000    Z=              0.0000  Tot=              0.0000
 Quadrupole moment (field-independent basis, Debye-Ang):
   XX=            -21.1975   YY=            -21.1975   ZZ=            -21.1975
   XY=              0.0000   XZ=              0.0000   YZ=              0.0000
 Traceless Quadrupole moment (field-independent basis, Debye-Ang):
   XX=              0.0000   YY=              0.0000   ZZ=              0.0000
   XY=              0.0000   XZ=              0.0000   YZ=              0.0000
 Octapole moment (field-independent basis, Debye-Ang**2):
  XXX=              0.0000  YYY=              0.0000  ZZZ=              0.0000  XYY=              0.0000
  XXY=              0.0000  XXZ=              0.0000  XZZ=              0.0000  YZZ=              0.0000
  YYZ=              0.0000  XYZ=             -1.4512
 Hexadecapole moment (field-independent basis, Debye-Ang**3):
 XXXX=            -48.8059 YYYY=            -48.8059 ZZZZ=            -48.8059 XXXY=              0.0000
 XXXZ=              0.0000 YYYX=              0.0000 YYYZ=              0.0000 ZZZX=              0.0000
 ZZZY=              0.0000 XXYY=            -16.1013 XXZZ=            -16.1013 YYZZ=            -16.1013
 XXYZ=              0.0000 YYXZ=              0.0000 ZZXY=              0.0000
 N-N= 4.521760114598D+01 E-N=-7.598536896202D+03  KE= 3.116554545914D+03
                          Isotropic Fermi Contact Couplings
        Atom                 a.u.       MegaHertz       Gauss      10(-4) cm-1
     1  Ge(73)             0.00000       0.00000       0.00000       0.00000
     2  H(1)               0.00000       0.00000       0.00000       0.00000
     3  H(1)               0.00000       0.00000       0.00000       0.00000
     4  H(1)               0.00000       0.00000       0.00000       0.00000
     5  H(1)               0.00000       0.00000       0.00000       0.00000
 --------------------------------------------------------
       Center         ----  Spin Dipole Couplings  ----
                      3XX-RR        3YY-RR        3ZZ-RR
 --------------------------------------------------------
     1   Atom        0.000000      0.000000      0.000000
     2   Atom        0.000000      0.000000      0.000000
     3   Atom        0.000000      0.000000      0.000000
     4   Atom        0.000000      0.000000      0.000000
     5   Atom        0.000000      0.000000      0.000000
 --------------------------------------------------------
                        XY            XZ            YZ
 --------------------------------------------------------
     1   Atom        0.000000      0.000000      0.000000
     2   Atom        0.000000      0.000000      0.000000
     3   Atom        0.000000      0.000000      0.000000
     4   Atom        0.000000      0.000000      0.000000
     5   Atom        0.000000      0.000000      0.000000
 --------------------------------------------------------


 ---------------------------------------------------------------------------------
              Anisotropic Spin Dipole Couplings in Principal Axis System
 ---------------------------------------------------------------------------------

       Atom             a.u.   MegaHertz   Gauss  10(-4) cm-1        Axes

              Baa     0.0000     0.000     0.000     0.000  1.0000  0.0000  0.0000
     1 Ge(73) Bbb     0.0000     0.000     0.000     0.000  0.0000  1.0000  0.0000
              Bcc     0.0000     0.000     0.000     0.000  0.0000  0.0000  1.0000
 
              Baa     0.0000     0.000     0.000     0.000  1.0000  0.0000  0.0000
     2 H(1)   Bbb     0.0000     0.000     0.000     0.000  0.0000  1.0000  0.0000
              Bcc     0.0000     0.000     0.000     0.000  0.0000  0.0000  1.0000
 
              Baa     0.0000     0.000     0.000     0.000  1.0000  0.0000  0.0000
     3 H(1)   Bbb     0.0000     0.000     0.000     0.000  0.0000  1.0000  0.0000
              Bcc     0.0000     0.000     0.000     0.000  0.0000  0.0000  1.0000
 
              Baa     0.0000     0.000     0.000     0.000  1.0000  0.0000  0.0000
     4 H(1)   Bbb     0.0000     0.000     0.000     0.000  0.0000  1.0000  0.0000
              Bcc     0.0000     0.000     0.000     0.000  0.0000  0.0000  1.0000
 
              Baa     0.0000     0.000     0.000     0.000  1.0000  0.0000  0.0000
     5 H(1)   Bbb     0.0000     0.000     0.000     0.000  0.0000  1.0000  0.0000
              Bcc     0.0000     0.000     0.000     0.000  0.0000  0.0000  1.0000
 

 ---------------------------------------------------------------------------------


 Test job not archived.
 1\1\GINC-C17\SP\ROMP2-RW\Gen\Ge1H4\GPETERSSON\23-Aug-2012\0\\# ROMP2(R
 W) Gen GFinput Int=NoBasisTransform Int(Grid=Ultrafine) IOp(3/32=2,5/6
 =10,8/11=1,9/33=1) Maxdisk=128GB CBSextrapolate(Nmin=20,MinPop)\\GeH4\
 \0,1\Ge\H,1,1.54097082\H,1,1.54097082,2,109.47122063\H,1,1.54097082,2,
 109.47122063,3,120.,0\H,1,1.54097082,2,109.47122063,3,240.,0\\Version=
 EM64L-G09RevA.02\State=1-A1\HF=-2077.7226734\MP2=-2077.8756304\E2(CBS)
 =-0.1560347\CBS-Int=-0.1543519\OIii=1.2740202\RMSD=1.510e-12\PG=TD [O(
 Ge1),4C3(H1)]\\@


 YOU SHOULDN'T LET PEOPLE DRIVE YOU CRAZY
 WHEN YOU KNOW IT'S WITHIN WALKING DISTANCE.
 Job cpu time:  0 days 13 hours  2 minutes 11.4 seconds.
 File lengths (MBytes):  RWF=   3773 Int=      0 D2E=      0 Chk=     22 Scr=      1
 Normal termination of Gaussian 09 at Thu Aug 23 11:13:46 2012.
