 Entering Gaussian System, Link 0=g09
 AtFile(1): 4ZaP-NR.gbs
 Initial command:
 /share/apps/gaussian/g09root/g09/l1.exe /localscratch/737876/Gau-31027.inp -scrdir=/localscratch/737876/
 Entering Link 1 = /share/apps/gaussian/g09root/g09/l1.exe PID=     31028.
  
 Copyright (c) 1988,1990,1992,1993,1995,1998,2003,2009, Gaussian, Inc.
                  All Rights Reserved.
  
 This is part of the Gaussian(R) 09 program.  It is based on
 the Gaussian(R) 03 system (copyright 2003, Gaussian, Inc.),
 the Gaussian(R) 98 system (copyright 1998, Gaussian, Inc.),
 the Gaussian(R) 94 system (copyright 1995, Gaussian, Inc.),
 the Gaussian 92(TM) system (copyright 1992, Gaussian, Inc.),
 the Gaussian 90(TM) system (copyright 1990, Gaussian, Inc.),
 the Gaussian 88(TM) system (copyright 1988, Gaussian, Inc.),
 the Gaussian 86(TM) system (copyright 1986, Carnegie Mellon
 University), and the Gaussian 82(TM) system (copyright 1983,
 Carnegie Mellon University). Gaussian is a federally registered
 trademark of Gaussian, Inc.
  
 This software contains proprietary and confidential information,
 including trade secrets, belonging to Gaussian, Inc.
  
 This software is provided under written license and may be
 used, copied, transmitted, or stored only in accord with that
 written license.
  
 The following legend is applicable only to US Government
 contracts under FAR:
  
                    RESTRICTED RIGHTS LEGEND
  
 Use, reproduction and disclosure by the US Government is
 subject to restrictions as set forth in subparagraphs (a)
 and (c) of the Commercial Computer Software - Restricted
 Rights clause in FAR 52.227-19.
  
 Gaussian, Inc.
 340 Quinnipiac St., Bldg. 40, Wallingford CT 06492
  
  
 ---------------------------------------------------------------
 Warning -- This program may not be used in any manner that
 competes with the business of Gaussian, Inc. or will provide
 assistance to any competitor of Gaussian, Inc.  The licensee
 of this program is prohibited from giving any competitor of
 Gaussian, Inc. access to this program.  By using this program,
 the user acknowledges that Gaussian, Inc. is engaged in the
 business of creating and licensing software in the field of
 computational chemistry and represents and warrants to the
 licensee that it is not a competitor of Gaussian, Inc. and that
 it will not use this program in any manner prohibited above.
 ---------------------------------------------------------------
  

 Cite this work as:
 Gaussian 09, Revision A.02,
 M. J. Frisch, G. W. Trucks, H. B. Schlegel, G. E. Scuseria, 
 M. A. Robb, J. R. Cheeseman, G. Scalmani, V. Barone, B. Mennucci, 
 G. A. Petersson, H. Nakatsuji, M. Caricato, X. Li, H. P. Hratchian, 
 A. F. Izmaylov, J. Bloino, G. Zheng, J. L. Sonnenberg, M. Hada, 
 M. Ehara, K. Toyota, R. Fukuda, J. Hasegawa, M. Ishida, T. Nakajima, 
 Y. Honda, O. Kitao, H. Nakai, T. Vreven, J. A. Montgomery, Jr., 
 J. E. Peralta, F. Ogliaro, M. Bearpark, J. J. Heyd, E. Brothers, 
 K. N. Kudin, V. N. Staroverov, R. Kobayashi, J. Normand, 
 K. Raghavachari, A. Rendell, J. C. Burant, S. S. Iyengar, J. Tomasi, 
 M. Cossi, N. Rega, J. M. Millam, M. Klene, J. E. Knox, J. B. Cross, 
 V. Bakken, C. Adamo, J. Jaramillo, R. Gomperts, R. E. Stratmann, 
 O. Yazyev, A. J. Austin, R. Cammi, C. Pomelli, J. W. Ochterski, 
 R. L. Martin, K. Morokuma, V. G. Zakrzewski, G. A. Voth, 
 P. Salvador, J. J. Dannenberg, S. Dapprich, A. D. Daniels, 
 O. Farkas, J. B. Foresman, J. V. Ortiz, J. Cioslowski, 
 and D. J. Fox, Gaussian, Inc., Wallingford CT, 2009.
 
 ******************************************
 Gaussian 09:  EM64L-G09RevA.02 11-Jun-2009
                22-Aug-2012 
 ******************************************
 % Mem=12GB
 % Nproc=8
 Will use up to    8 processors via shared memory.
 ----------------------------------------------------------------------
 # ROCCSD(T,RW) Gen GFinput Int=NoBasisTransform Int(Grid=Ultrafine) IO
 p(3/32=2,5/6=10,8/11=1,9/33=1) Maxdisk=128GB Opt=(Tight,Z-Matrix)
 ----------------------------------------------------------------------

 Warning:  this job cannot use analytic gradients
           and so will do many energy evaluations.

 1/7=10,18=40,29=20000,38=1/1,14;
 2/12=2,17=6,18=5,29=3,40=1/2;
 3/5=7,11=2,16=1,24=10,25=1,30=1,32=2,60=-1,75=-5,116=101/1,2,3;
 4//1;
 5/5=2,6=10,38=5/2;
 8/5=-1,6=4,9=120000,10=91,11=1/1,4;
 9/5=7,14=2,33=1/13;
 6/7=2,8=2,9=2,10=2/1;
 1/7=10,18=40/14(2);
 2/29=3/2;
 99//99;
 2/29=3/2;
 3/5=7,6=1,11=2,16=1,25=1,30=1,32=2,60=-1,75=-5,82=7,116=101/1,2,3;
 4/5=5,16=3/1;
 5/5=2,6=10,23=1,38=5/2;
 8/5=-1,6=4,9=120000,10=93,11=1/1,4;
 9/5=7,14=2,33=1/13;
 1/7=10,18=40/14(-6);
 2/29=3/2;
 6/7=2,8=2,9=2,10=2/1;
 99//99;
 ----
 GeH4
 ----
 Symbolic Z-matrix:
 Charge =  0 Multiplicity = 1
 Ge
 H                    1    Rgeh
 H                    1    Rgeh     2    Ahgeh
 H                    1    Rgeh     2    Ahgeh    3     120.     0
 H                    1    Rgeh     2    Ahgeh    3     240.     0
       Variables:
  Rgeh                  1.5                      
       Constants:
  Ahgeh               109.47122                  
 
     3 tetrahedral angles replaced.
    3 tetrahedral angles replaced.

 NEF-NEF-NEF-NEF-NEF-NEF-NEF-NEF-NEF-NEF-NEF-NEF-NEF-NEF-NEF-NEF-NEF-NEF-
 NUMERICAL EIGENVECTOR FOLLOWING MINIMUM SEARCH
 INITIALIZATION PASS
                       ----------------------------
                       !    Initial Parameters    !
                       ! (Angstroms and Degrees)  !
 ----------------------                            ----------------------
 !      Name          Value   Derivative information (Atomic Units)     !
 ------------------------------------------------------------------------
 !      Rgeh         1.5      estimate D2E/DX2                          !
 ------------------------------------------------------------------------


 ***************************************************
 ** O P T I M I Z A T I O N   P A R A M E T E R S **
 **  MAXIMUM NO. OF ITERATIONS      :          21 **
 **  MAXIMUM ALLOWED STEP LENGTH    :    0.300000 **
 ***************************************************



 NEF-NEF-NEF-NEF-NEF-NEF-NEF-NEF-NEF-NEF-NEF-NEF-NEF-NEF-NEF-NEF-NEF-NEF-
 ---------------------------------------------------------------------------------------------------
                            Z-MATRIX (ANGSTROMS AND DEGREES)
   CD    Cent   Atom    N1       Length/X        N2       Alpha/Y        N3        Beta/Z          J
 ---------------------------------------------------------------------------------------------------
      1      1  Ge
      2      2  H        1   1.500000(     1)
      3      3  H        1   1.500000(     2)      2  109.471(     5)
      4      4  H        1   1.500000(     3)      2  109.471(     6)      3  120.000(     8)      0
      5      5  H        1   1.500000(     4)      2  109.471(     7)      3  240.000(     9)      0
 ---------------------------------------------------------------------------------------------------
                         Z-Matrix orientation:                         
 ---------------------------------------------------------------------
 Center     Atomic      Atomic             Coordinates (Angstroms)
 Number     Number       Type             X           Y           Z
 ---------------------------------------------------------------------
      1         32           0        0.000000    0.000000    0.000000
      2          1           0        0.000000    0.000000    1.500000
      3          1           0        1.414214    0.000000   -0.500000
      4          1           0       -0.707107   -1.224745   -0.500000
      5          1           0       -0.707107    1.224745   -0.500000
 ---------------------------------------------------------------------
                    Distance matrix (angstroms):
                    1          2          3          4          5
     1  Ge   0.000000
     2  H    1.500000   0.000000
     3  H    1.500000   2.449490   0.000000
     4  H    1.500000   2.449490   2.449490   0.000000
     5  H    1.500000   2.449490   2.449490   2.449490   0.000000
 Stoichiometry    GeH4
 Framework group  TD[O(Ge),4C3(H)]
 Deg. of freedom     1
 Full point group                 TD      NOp  24
 Largest Abelian subgroup         D2      NOp   4
 Largest concise Abelian subgroup D2      NOp   4
                         Standard orientation:                         
 ---------------------------------------------------------------------
 Center     Atomic      Atomic             Coordinates (Angstroms)
 Number     Number       Type             X           Y           Z
 ---------------------------------------------------------------------
      1         32           0        0.000000    0.000000    0.000000
      2          1           0        0.866025    0.866025    0.866025
      3          1           0       -0.866025   -0.866025    0.866025
      4          1           0       -0.866025    0.866025   -0.866025
      5          1           0        0.866025   -0.866025   -0.866025
 ---------------------------------------------------------------------
 Rotational constants (GHZ):     83.5758500     83.5758500     83.5758500
 General basis read from cards:  (5D, 7F)
 AO basis set in the form of general basis input (Overlap normalization):
      1 0
 S  14 1.00       0.000000000000
      0.7277676850D+07  0.6926503645D-05
      0.1281558340D+07  0.4689739541D-04
      0.2859757190D+06  0.2692052544D-03
      0.7727674870D+05  0.1206656689D-02
      0.2432996900D+05  0.4519361457D-02
      0.8639863450D+04  0.1459610332D-01
      0.3368176670D+04  0.4142080934D-01
      0.1409616860D+04  0.1028871253D+00
      0.6218156930D+03  0.2141305179D+00
      0.2848055070D+03  0.3365591701D+00
      0.1337714940D+03  0.3134182730D+00
      0.6375809300D+02  0.1120682991D+00
      0.3055008300D+02  0.7126704702D-02
      0.1458677800D+02  0.1858828018D-02
 S  11 1.00       0.000000000000
      0.8639863450D+04 -0.5466652870D-04
      0.3368176670D+04 -0.3705190309D-03
      0.1409616860D+04 -0.2537819243D-02
      0.6218156930D+03 -0.1205864019D-01
      0.2848055070D+03 -0.4610902944D-01
      0.1337714940D+03 -0.9847605600D-01
      0.6375809300D+02 -0.2276420153D-01
      0.3055008300D+02  0.3881456258D+00
      0.1458677800D+02  0.5676206725D+00
      0.6877832000D+01  0.1639017782D+00
      0.3170810000D+01  0.5399164615D-02
 P  11 1.00       0.000000000000
      0.1432091360D+05  0.1230952445D-03
      0.3585048500D+04  0.1054926445D-02
      0.1131552710D+04  0.6418366950D-02
      0.4237770580D+03  0.2731725010D-01
      0.1790184010D+03  0.8778012371D-01
      0.8182589900D+02  0.2092368089D+00
      0.3912966100D+02  0.3533687431D+00
      0.1905988400D+02  0.3505031727D+00
      0.9260422000D+01  0.1381554948D+00
      0.4415595000D+01  0.1333860485D-01
      0.2040492000D+01  0.1249092027D-02
 S   9 1.00       0.000000000000
      0.2848055070D+03  0.4694640275D-03
      0.1337714940D+03  0.2230266748D-02
      0.6375809300D+02  0.3719070024D-02
      0.3055008300D+02 -0.5128722018D-01
      0.1458677800D+02 -0.2260657998D+00
      0.6877832000D+01 -0.2166685936D-02
      0.3170810000D+01  0.6285635114D+00
      0.1412854000D+01  0.4936207932D+00
      0.6000820000D+00  0.4222125608D-01
 P  10 1.00       0.000000000000
      0.4237770580D+03 -0.1479959036D-03
      0.1790184010D+03 -0.1335200121D-02
      0.8182589900D+02 -0.6686378878D-02
      0.3912966100D+02 -0.1968278268D-01
      0.1905988400D+02 -0.1741685137D-01
      0.9260422000D+01  0.1381100795D+00
      0.4415595000D+01  0.4101365766D+00
      0.2040492000D+01  0.4345834551D+00
      0.9047480000D+00  0.1439929549D+00
      0.3816650000D+00  0.5156196884D-02
 D  10 1.00       0.000000000000
      0.6076799870D+03  0.3503345510D-03
      0.1834961110D+03  0.3292921599D-02
      0.7072201300D+02  0.1747298741D-01
      0.3110579200D+02  0.5939999562D-01
      0.1459154900D+02  0.1506645752D+00
      0.7031819000D+01  0.2659494768D+00
      0.3407828000D+01  0.3256960431D+00
      0.1629148000D+01  0.2956202900D+00
      0.7446000000D+00  0.1700218360D+00
      0.3072120000D+00  0.3918785493D-01
 S   8 1.00       0.000000000000
      0.3055008300D+02  0.6744410682D-03
      0.1458677800D+02  0.7578424758D-02
      0.6877832000D+01 -0.3185745836D-02
      0.3170810000D+01 -0.4531982405D-01
      0.1412854000D+01 -0.1972381375D+00
      0.6000820000D+00  0.1265709098D-01
      0.2388800000D+00  0.6654067282D+00
      0.8730900000D-01  0.4629876531D+00
 S   1 1.00       0.000000000000
      0.2915529897D-01  0.1000000000D+01
 P   7 1.00       0.000000000000
      0.9260422000D+01 -0.2464876628D-02
      0.4415595000D+01 -0.6634634345D-02
      0.2040492000D+01 -0.2248732837D-01
      0.9047480000D+00  0.9304793847D-02
      0.3816650000D+00  0.2672760649D+00
      0.1519500000D+00  0.5392507825D+00
      0.5659900000D-01  0.3167301474D+00
 P   1 1.00       0.000000000000
      0.2331095259D-01  0.1000000000D+01
 S   1 1.00       0.000000000000
      0.1029954000D+01  0.1000000000D+01
 S   1 1.00       0.000000000000
      0.4653560000D+00  0.1000000000D+01
 S   1 1.00       0.000000000000
      0.2102580000D+00  0.1000000000D+01
 P   1 1.00       0.000000000000
      0.1071955000D+01  0.1000000000D+01
 P   1 1.00       0.000000000000
      0.4718660000D+00  0.1000000000D+01
 P   1 1.00       0.000000000000
      0.2077110000D+00  0.1000000000D+01
 D   1 1.00       0.000000000000
      0.5096400000D+00  0.1000000000D+01
 D   1 1.00       0.000000000000
      0.2409860000D+00  0.1000000000D+01
 D   1 1.00       0.000000000000
      0.1139510000D+00  0.1000000000D+01
 F   1 1.00       0.000000000000
      0.5442880000D+00  0.1000000000D+01
 F   1 1.00       0.000000000000
      0.2353100000D+00  0.1000000000D+01
 G   1 1.00       0.000000000000
      0.4718505880D+00  0.1000000000D+01
 ****
      2 0
 S   7 1.00       0.000000000000
      0.1907996280D+03  0.7061124941D-03
      0.2864425700D+02  0.5475336771D-02
      0.6499666000D+01  0.2797731080D-01
      0.1843654000D+01  0.1074041990D+00
      0.5987830000D+00  0.2991562050D+00
      0.2139610000D+00  0.4740174051D+00
      0.8032200000D-01  0.2294115550D+00
 S   1 1.00       0.000000000000
      0.2905840000D-01  0.1000000000D+01
 S   1 1.00       0.000000000000
      0.1158000000D-01  0.1000000000D+01
 S   1 1.00       0.000000000000
      0.8017240000D+00  0.1000000000D+01
 S   1 1.00       0.000000000000
      0.2597140000D+00  0.1000000000D+01
 S   1 1.00       0.000000000000
      0.9337500000D-01  0.1000000000D+01
 P   1 1.00       0.000000000000
      0.2791527000D+01  0.1000000000D+01
 P   1 1.00       0.000000000000
      0.8745530000D+00  0.1000000000D+01
 P   1 1.00       0.000000000000
      0.3003000000D+00  0.1000000000D+01
 D   1 1.00       0.000000000000
      0.2023425000D+01  0.1000000000D+01
 D   1 1.00       0.000000000000
      0.6748480000D+00  0.1000000000D+01
 F   1 1.00       0.000000000000
      0.1367042037D+01  0.1000000000D+01
 ****
      3 0
 S   7 1.00       0.000000000000
      0.1907996280D+03  0.7061124941D-03
      0.2864425700D+02  0.5475336771D-02
      0.6499666000D+01  0.2797731080D-01
      0.1843654000D+01  0.1074041990D+00
      0.5987830000D+00  0.2991562050D+00
      0.2139610000D+00  0.4740174051D+00
      0.8032200000D-01  0.2294115550D+00
 S   1 1.00       0.000000000000
      0.2905840000D-01  0.1000000000D+01
 S   1 1.00       0.000000000000
      0.1158000000D-01  0.1000000000D+01
 S   1 1.00       0.000000000000
      0.8017240000D+00  0.1000000000D+01
 S   1 1.00       0.000000000000
      0.2597140000D+00  0.1000000000D+01
 S   1 1.00       0.000000000000
      0.9337500000D-01  0.1000000000D+01
 P   1 1.00       0.000000000000
      0.2791527000D+01  0.1000000000D+01
 P   1 1.00       0.000000000000
      0.8745530000D+00  0.1000000000D+01
 P   1 1.00       0.000000000000
      0.3003000000D+00  0.1000000000D+01
 D   1 1.00       0.000000000000
      0.2023425000D+01  0.1000000000D+01
 D   1 1.00       0.000000000000
      0.6748480000D+00  0.1000000000D+01
 F   1 1.00       0.000000000000
      0.1367042037D+01  0.1000000000D+01
 ****
      4 0
 S   7 1.00       0.000000000000
      0.1907996280D+03  0.7061124941D-03
      0.2864425700D+02  0.5475336771D-02
      0.6499666000D+01  0.2797731080D-01
      0.1843654000D+01  0.1074041990D+00
      0.5987830000D+00  0.2991562050D+00
      0.2139610000D+00  0.4740174051D+00
      0.8032200000D-01  0.2294115550D+00
 S   1 1.00       0.000000000000
      0.2905840000D-01  0.1000000000D+01
 S   1 1.00       0.000000000000
      0.1158000000D-01  0.1000000000D+01
 S   1 1.00       0.000000000000
      0.8017240000D+00  0.1000000000D+01
 S   1 1.00       0.000000000000
      0.2597140000D+00  0.1000000000D+01
 S   1 1.00       0.000000000000
      0.9337500000D-01  0.1000000000D+01
 P   1 1.00       0.000000000000
      0.2791527000D+01  0.1000000000D+01
 P   1 1.00       0.000000000000
      0.8745530000D+00  0.1000000000D+01
 P   1 1.00       0.000000000000
      0.3003000000D+00  0.1000000000D+01
 D   1 1.00       0.000000000000
      0.2023425000D+01  0.1000000000D+01
 D   1 1.00       0.000000000000
      0.6748480000D+00  0.1000000000D+01
 F   1 1.00       0.000000000000
      0.1367042037D+01  0.1000000000D+01
 ****
      5 0
 S   7 1.00       0.000000000000
      0.1907996280D+03  0.7061124941D-03
      0.2864425700D+02  0.5475336771D-02
      0.6499666000D+01  0.2797731080D-01
      0.1843654000D+01  0.1074041990D+00
      0.5987830000D+00  0.2991562050D+00
      0.2139610000D+00  0.4740174051D+00
      0.8032200000D-01  0.2294115550D+00
 S   1 1.00       0.000000000000
      0.2905840000D-01  0.1000000000D+01
 S   1 1.00       0.000000000000
      0.1158000000D-01  0.1000000000D+01
 S   1 1.00       0.000000000000
      0.8017240000D+00  0.1000000000D+01
 S   1 1.00       0.000000000000
      0.2597140000D+00  0.1000000000D+01
 S   1 1.00       0.000000000000
      0.9337500000D-01  0.1000000000D+01
 P   1 1.00       0.000000000000
      0.2791527000D+01  0.1000000000D+01
 P   1 1.00       0.000000000000
      0.8745530000D+00  0.1000000000D+01
 P   1 1.00       0.000000000000
      0.3003000000D+00  0.1000000000D+01
 D   1 1.00       0.000000000000
      0.2023425000D+01  0.1000000000D+01
 D   1 1.00       0.000000000000
      0.6748480000D+00  0.1000000000D+01
 F   1 1.00       0.000000000000
      0.1367042037D+01  0.1000000000D+01
 ****

 There are    53 symmetry adapted basis functions of A   symmetry.
 There are    49 symmetry adapted basis functions of B1  symmetry.
 There are    49 symmetry adapted basis functions of B2  symmetry.
 There are    49 symmetry adapted basis functions of B3  symmetry.
 Integral buffers will be    131072 words long.
 Raffenetti 2 integral format.
 Two-electron integral symmetry is turned on.
   200 basis functions,   427 primitive gaussians,   236 cartesian basis functions
    18 alpha electrons       18 beta electrons
       nuclear repulsion energy        46.4526692776 Hartrees.
 NAtoms=    5 NActive=    5 NUniq=    2 SFac= 3.00D+00 NAtFMM=   80 NAOKFM=F Big=F
 One-electron integrals computed using PRISM.
 NBasis=   200 RedAO= F  NBF=    53    49    49    49
 NBsUse=   200 1.00D-04 NBFU=    53    49    49    49
 Harris functional with IExCor=  205 diagonalized for initial guess.
 ExpMin= 1.16D-02 ExpMax= 7.28D+06 ExpMxC= 8.64D+03 IAcc=3 IRadAn=         5 AccDes= 0.00D+00
 HarFok:  IExCor=  205 AccDes= 0.00D+00 IRadAn=         5 IDoV= 1
 ScaDFX=  1.000000  1.000000  1.000000  1.000000
 FoFCou: FMM=F IPFlag=           0 FMFlag=      100000 FMFlg1=           0
         NFxFlg=           0 DoJE=T BraDBF=F KetDBF=T FulRan=T
         Omega=  0.000000  0.000000  1.000000  0.000000  0.000000 ICntrl=     500 IOpCl=  0
         NMat0=    1 NMatS0=    1 NMatT0=    0 NMatD0=    1 NMtDS0=    0 NMtDT0=    0
         I1Cent=           4 NGrid=           0.
 Petite list used in FoFCou.
 Initial guess orbital symmetries:
       Occupied  (A1) (A1) (T2) (T2) (T2) (A1) (T2) (T2) (T2) (T2)
                 (T2) (T2) (E) (E) (A1) (T2) (T2) (T2)
       Virtual   (A1) (T2) (T2) (T2) (T2) (T2) (T2) (A1) (T2) (T2)
                 (T2) (T2) (T2) (T2) (E) (E) (A1) (A1) (T2) (T2)
                 (T2) (T2) (T2) (T2) (A1) (T2) (T2) (T2) (T1) (T1)
                 (T1) (A1) (E) (E) (T2) (T2) (T2) (T2) (T2) (T2)
                 (E) (E) (A1) (T1) (T1) (T1) (T2) (T2) (T2) (T2)
                 (T2) (T2) (A1) (T2) (T2) (T2) (T2) (T2) (T2) (A1)
                 (T1) (T1) (T1) (E) (E) (E) (E) (A1) (T2) (T2)
                 (T2) (A1) (T2) (T2) (T2) (T1) (T1) (T1) (T1) (T1)
                 (T1) (T2) (T2) (T2) (E) (E) (T2) (T2) (T2) (T1)
                 (T1) (T1) (A1) (T2) (T2) (T2) (E) (E) (E) (E)
                 (T2) (T2) (T2) (T2) (T2) (T2) (A1) (T1) (T1) (T1)
                 (T2) (T2) (T2) (A1) (T2) (T2) (T2) (A2) (T1) (T1)
                 (T1) (T2) (T2) (T2) (A1) (T2) (T2) (T2) (T1) (T1)
                 (T1) (E) (E) (A1) (T2) (T2) (T2) (E) (E) (T2)
                 (T2) (T2) (T1) (T1) (T1) (A1) (T2) (T2) (T2) (T1)
                 (T1) (T1) (E) (E) (A1) (T2) (T2) (T2) (T1) (T1)
                 (T1) (T2) (T2) (T2) (E) (E) (T2) (T2) (T2) (E)
                 (E) (T2) (T2) (T2) (A1) (T1) (T1) (T1) (T2) (T2)
                 (T2) (A1)
 The electronic state of the initial guess is 1-A1.
 Requested convergence on RMS density matrix=1.00D-10 within 128 cycles.
 Requested convergence on MAX density matrix=1.00D-08.
 Requested convergence on             energy=1.00D-08.
 No special actions if energy rises.
 Keep R1 and R2 ints in memory in canonical form, NReq=788972079.
 SCF Done:  E(ROHF) =  -2077.72029906     A.U. after   11 cycles
             Convg  =    0.4007D-10             -V/T =  1.9999
 <Sx>= 0.0000 <Sy>= 0.0000 <Sz>= 0.0000 <S**2>= 0.0000 S= 0.0000
 <L.S>= 0.000000000000E+00
 Annihilation of the first spin contaminant:
 S**2 before annihilation     0.0000,   after     0.0000
 GenMOA:  NOpAll= 24 NOp2=4 NOpUse= 24 JSym2X=1
 <Sx>= 0.0000 <Sy>= 0.0000 <Sz>= 0.0000 <S**2>= 0.0000 S= 0.0000
 Range of M.O.s used for correlation:    15   200
 NBasis=   200 NAE=    18 NBE=    18 NFC=    14 NFV=     0
 NROrb=    186 NOA=     4 NOB=     4 NVA=   182 NVB=   182

 **** Warning!!: The largest alpha MO coefficient is  0.30221215D+02


 **** Warning!!: The largest beta MO coefficient is  0.30221215D+02

 Singles contribution to E2=   -0.2016242008D-18
 Semi-Direct transformation.
 ModeAB=           4 MOrb=             4 LenV=    1609246719
 LASXX=      3156159 LTotXX=     3156159 LenRXX=     6364941
 LTotAB=     3208782 MaxLAS=     7883424 LenRXY=           0
 NonZer=     9521100 LenScr=    15032320 LnRSAI=     7883424
 LnScr1=    12574720 LExtra=     2205033 Total=     44060438
 MaxDsk= 17179869184 SrtSym=           T ITran=            4
 JobTyp=1 Pass  1:  I=   1 to   4.
 (rs|ai) integrals will be sorted in core.
 ModeAB=           4 MOrb=             4 LenV=    1609246719
 LASXX=      3156159 LTotXX=     3156159 LenRXX=     6228777
 LTotAB=     3072618 MaxLAS=     7883424 LenRXY=           0
 NonZer=     9384936 LenScr=    14854656 LnRSAI=     7883424
 LnScr1=    12574720 LExtra=     8569974 Total=     50111551
 MaxDsk= 17179869184 SrtSym=           T ITran=            4
 JobTyp=2 Pass  1:  I=   1 to   4.
 (rs|ai) integrals will be sorted in core.
 Spin components of T(2) and E(2):
     alpha-alpha T2 =       0.3567039900D-02 E2=     -0.7523413159D-02
     alpha-beta  T2 =       0.5034334757D-01 E2=     -0.1327151555D+00
     beta-beta   T2 =       0.3567039900D-02 E2=     -0.7523413159D-02
 ANorm=    0.1028337215D+01
 E2 =    -0.1477619819D+00 EUMP2 =    -0.20778680610413D+04
 (S**2,0)=  0.00000D+00           (S**2,1)=  0.00000D+00
 E(PUHF)=      -0.20777202991D+04        E(PMP2)=      -0.20778680610D+04
 R2 and R3 integrals will be kept in memory, NReq=   788781030.
 Symmetry not used in FoFDir.
 MinBra= 0 MaxBra= 4 Meth= 1.
 IRaf=       0 NMat=   1 IRICut=       1 DoRegI=T DoRafI=F ISym2E= 0 JSym2E=0.
 PrsmSu:  NPrtUS=   8 ThrOK=T IAlg=1
 PRISM was handed   103423577 working-precision words and  2485 shell-pairs
 PRISM was handed   103423577 working-precision words and  2485 shell-pairs
 PRISM was handed   103423577 working-precision words and  2485 shell-pairs
 PRISM was handed   103423577 working-precision words and  2485 shell-pairs
 PRISM was handed   103423577 working-precision words and  2485 shell-pairs
 PRISM was handed   103423577 working-precision words and  2485 shell-pairs
 PRISM was handed   103423577 working-precision words and  2485 shell-pairs
 PRISM was handed   103423577 working-precision words and  2485 shell-pairs
 IPart=  7 NShTot=      381430 NBatch=        5184 AvBLen=        73.6
 IPart=  6 NShTot=      381879 NBatch=        5192 AvBLen=        73.6
 IPart=  4 NShTot=      383780 NBatch=        5645 AvBLen=        68.0
 IPart=  5 NShTot=      382094 NBatch=        5632 AvBLen=        67.8
 IPart=  3 NShTot=      384001 NBatch=        6043 AvBLen=        63.5
 IPart=  2 NShTot=      384449 NBatch=        6050 AvBLen=        63.5
 IPart=  1 NShTot=      386435 NBatch=        6064 AvBLen=        63.7
 IPart=  0 NShTot=      386357 NBatch=        7101 AvBLen=        54.4
 Iterations=  50 Convergence= 0.100D-06
 A(0)= 0.10000E+01      ANORM= 0.10283E+01      W(0)=-0.14776198E+00
 Singles contributions to ROMP2 energy
Alpha= -0.1008121623166E-18
Beta=  -0.1008121623166E-18
 Iteration Nr.   1
 **********************
 DD1Dir will call FoFMem   1 times, MxPair=        44
 NAB=    16 NAA=     6 NBB=     6.
 DD1Dir:  Pass   1 NRAB=    16 NRAA=     6 NRBB=     6 NR=    44.
 DD1Dir will call FoFMem   1 times, MxPair=        44
 NAB=    16 NAA=     6 NBB=     6.
 DD1Dir:  Pass   1 NRAB=    16 NRAA=     6 NRBB=     6 NR=    44.
 TestDE:  II= 99 I=2 DE=    0.434629848345D-01
 TestDE:  II= 99 I=1 DE=    0.148544008069D-02
 TestDE:  II= 99 I=3 DE=    0.148544008069D-02
 TestDE:  II= 19 I=1 DE=    0.263241358636D-14
 TestDE:  II= 19 I=2 DE=    0.467231675480D-13
 TestDE:  II= 19 I=3 DE=    0.263241358636D-14
 Contribution from DD1=    0.51987995D-13
 ExpSMa:  Full in-core algorithm.
 ExpSMa:  Full in-core algorithm.
 ExpSMa:  Full in-core algorithm.
 ExpSMa:  Full in-core algorithm.
 ExpSMa:  Full in-core algorithm.
 ExpSMa:  Full in-core algorithm.
 TestDE:  II= 70 I=2 DE=   -0.608888648653D-13
 TestDE:  II= 50 I=1 DE=   -0.271447026557D-16
 TestDE:  II= 90 I=3 DE=   -0.271447026557D-16
 Contribution from DD2=   -0.11293115D-12
 TestDE:  II=  5 I=1 DE=   -0.329274525365D-02
 TestDE:  II=  5 I=1 DE=    0.100556067025D-13
 TestDE:  II=  7 I=2 DE=   -0.608888648653D-13
 TestDE:  II=  7 I=2 DE=    0.305206715917D-14
 TestDE:  II=  8 I=2 DE=   -0.514782421734D-01
 TestDE:  II=  8 I=2 DE=    0.671278978143D-13
 TestDE:  II=  9 I=3 DE=   -0.329274525365D-02
 TestDE:  II=  9 I=3 DE=    0.100556067025D-13
 Contribution from DD3=    0.15118004D-12
 Singles added:  Sum=    0.90236889D-13
 Entering DoROCS
 GetDE: DE=      0.00000000D+00
 MP3 Singles =        0.20246586412D-12 Doubles=       -0.21263277344D-01
 Linear MP4 energy terms:
 Singles =       -0.49423144416D-03
 Doubles =       -0.62951691179D-02
 Mixed  =        0.21264718042D-13
 Total MP4L =       -0.67894005620D-02
 TestDE:  II= 99 I=2 DE=   -0.122143877000D-02
 TestDE:  II= 99 I=1 DE=   -0.504427318215D-05
 TestDE:  II= 99 I=3 DE=   -0.504427318215D-05
 TestDE:  II= 99 I=1 DE=    0.521491995829D-04
 TestDE:  II= 11 I=2 DE=   -0.122143877000D-02
 TestDE:  II= 99 I=2 DE=   -0.800989205921D-03
 TestDE:  II= 98 I=2 DE=   -0.380539641845D-03
 TestDE:  II= 98 I=3 DE=    0.521491995829D-04
 TestDE:  II= 89 I=1 DE=    0.321308786930D-03
 TestDE:  II= 89 I=2 DE=    0.150120216811D-02
 TestDE:  II= 88 I=3 DE=    0.321308786930D-03
 TestDE:  II= 88 I=2 DE=    0.338294397806D-02
 TestDE:  II= 85 I=1 DE=    0.231656992783D-03
 TestDE:  II= 85 I=2 DE=    0.254639853718D-02
 TestDE:  II= 85 I=3 DE=    0.231656992783D-03
 UMP4Q scratch file information:
   i      file        len
 ---     ------    ------
   1      19997    132496
   2      19998    132496
   3      19996    132496
   4      19995    132496
   5      19994    132496
   6      19993     33124
 total scratch length=      695604
 UMP4(Q)=  0.242729899D-01
 MP4(R+Q)=  0.24272990D-01
 TestDE:  II= 71 I=2 DE=   -0.193794146648D-22
 TestDE:  II= 70 I=2 DE=    0.000000000000D+00
 TestDE:  II= 72 I=2 DE=   -0.145356449882D-22
 TestDE:  II= 75 I=2 DE=    0.254639853718D-02
 TestDE:  II= 75 I=1 DE=    0.231656992783D-03
 TestDE:  II= 75 I=3 DE=    0.231656992783D-03
 MP4 NL singles =        0.37908218473D-20
 MP4 NL doubles =        0.30097125228D-02
 MP4 L =       -0.67894005620D-02
 MP4 NL =        0.30097125228D-02
 MP4 Mixed =       -0.46156659663D-13
 RO-SDQ-MP4 Energy =       -0.37796880393D-02
 GetDE: DE=      0.00000000D+00
 TestDE:  II= 65 I=1 DE=    0.344216413228D-02
 TestDE:  II= 65 I=2 DE=    0.491367302301D-01
 TestDE:  II= 65 I=3 DE=    0.344216413228D-02
 Singles A-vector converged to   6.8591761D-12
 Singles A-vector converged to   1.3718352D-11
 The Euclidean norm of the A-vectors is   5.0159674D-03
 The Euclidean norm of the A-vectors is   1.0031935D-02
 The Euclidean norm of the A-vectors is   3.2890521D-02
 A(0)= 0.10000E+01      ANORM= 0.10270E+01      W(0)=-0.14481235E+00
 E3=       -0.21263277D-01        EROMP3=      -0.20778893243D+04
 E4(SDQ)=  -0.37796880D-02        ROMP4(SDQ)=  -0.20778931040D+04
 DE(Corr)= -0.14475227     E(Corr)=     -2077.8650513    
 NORM(A)=   0.10269693D+01
 Iteration Nr.   2
 **********************
 DD1Dir will call FoFMem   1 times, MxPair=        44
 NAB=    16 NAA=     6 NBB=     6.
 DD1Dir:  Pass   1 NRAB=    16 NRAA=     6 NRBB=     6 NR=    44.
 TestDE:  II= 99 I=2 DE=    0.418786087558D-01
 TestDE:  II= 99 I=1 DE=    0.139642293445D-02
 TestDE:  II= 99 I=3 DE=    0.139642293445D-02
 TestDE:  II= 19 I=1 DE=    0.139642293437D-02
 TestDE:  II= 19 I=2 DE=    0.418786087553D-01
 TestDE:  II= 19 I=3 DE=    0.139642293437D-02
 Contribution from DD1=    0.44671455D-01
 ExpSMa:  Full in-core algorithm.
 ExpSMa:  Full in-core algorithm.
 ExpSMa:  Full in-core algorithm.
 ExpSMa:  Full in-core algorithm.
 ExpSMa:  Full in-core algorithm.
 ExpSMa:  Full in-core algorithm.
 TestDE:  II=419 I=1 DE=    0.225413858501D-02
 TestDE:  II=419 I=2 DE=    0.654575665418D-01
 TestDE:  II=419 I=3 DE=    0.225413858501D-02
 Contribution from DD2=    0.25294389D-01
 Contribution from DD3=    0.00000000D+00
 Singles added:  Sum=    0.69965844D-01
 Entering DoROCS
 TestDE:  II= 99 I=2 DE=    0.654575665418D-01
 TestDE:  II= 99 I=1 DE=    0.225413858501D-02
 TestDE:  II= 99 I=3 DE=    0.225413858501D-02
 TestDE:  II= 99 I=1 DE=    0.230597646166D-02
 TestDE:  II= 11 I=2 DE=    0.654575665418D-01
 TestDE:  II= 99 I=2 DE=    0.658472878349D-01
 TestDE:  II= 98 I=2 DE=    0.662370091279D-01
 TestDE:  II= 98 I=3 DE=    0.230597646166D-02
 TestDE:  II= 89 I=1 DE=    0.255174063937D-02
 TestDE:  II= 89 I=2 DE=    0.679944719143D-01
 TestDE:  II= 88 I=3 DE=    0.255174063937D-02
 TestDE:  II= 88 I=2 DE=    0.697519347006D-01
 TestDE:  II=  5 I=1 DE=   -0.315718732233D-02
 TestDE:  II=  7 I=2 DE=    0.334031777974D-01
 TestDE:  II=  8 I=2 DE=   -0.495762174076D-01
 TestDE:  II=  9 I=3 DE=   -0.315718732233D-02
 TestDE:  II= 50 I=1 DE=   -0.605446682967D-03
 TestDE:  II= 70 I=2 DE=   -0.161730396102D-01
 TestDE:  II= 90 I=3 DE=   -0.605446682967D-03
 UMP4Q scratch file information:
   i      file        len
 ---     ------    ------
   1      19997    132496
   2      19998    132496
   3      19996    132496
   4      19995    132496
   5      19994    132496
   6      19993     33124
 total scratch length=      695604
 TestDE:  II= 71 I=2 DE=   -0.182248779262D-22
 TestDE:  II= 70 I=2 DE=    0.000000000000D+00
 TestDE:  II= 72 I=2 DE=   -0.137274678260D-22
 TestDE:  II= 75 I=2 DE=   -0.161730396102D-01
 TestDE:  II= 75 I=1 DE=   -0.605446682967D-03
 TestDE:  II= 75 I=3 DE=   -0.605446682967D-03
 GetDE: DE=      0.00000000D+00
 TestDE:  II= 65 I=1 DE=    0.378182068174D-02
 TestDE:  II= 65 I=2 DE=    0.571467514736D-01
 TestDE:  II= 65 I=3 DE=    0.378182068174D-02
 Singles A-vector converged to   1.5827655D-02
 Singles A-vector converged to   3.1655311D-02
 The Euclidean norm of the A-vectors is   5.3393361D-02
 The Euclidean norm of the A-vectors is   7.5131412D-02
 The Euclidean norm of the A-vectors is   2.7030869D-01
 A(0)= 0.10000E+01      ANORM= 0.10283E+01      W(0)=-0.14761904E+00
 DE(Corr)= -0.16559552     E(CORR)=     -2077.8858946     Delta=-2.08D-02
 NORM(A)=   0.10283172D+01
 Iteration Nr.   3
 **********************
 DD1Dir will call FoFMem   1 times, MxPair=        44
 NAB=    16 NAA=     6 NBB=     6.
 DD1Dir:  Pass   1 NRAB=    16 NRAA=     6 NRBB=     6 NR=    44.
 TestDE:  II= 99 I=2 DE=    0.433849310797D-01
 TestDE:  II= 99 I=1 DE=    0.142413305493D-02
 TestDE:  II= 99 I=3 DE=    0.142413305493D-02
 TestDE:  II= 19 I=1 DE=    0.142487814572D-02
 TestDE:  II= 19 I=2 DE=    0.433835893476D-01
 TestDE:  II= 19 I=3 DE=    0.142487814572D-02
 Contribution from DD1=    0.46233346D-01
 ExpSMa:  Full in-core algorithm.
 ExpSMa:  Full in-core algorithm.
 ExpSMa:  Full in-core algorithm.
 ExpSMa:  Full in-core algorithm.
 ExpSMa:  Full in-core algorithm.
 ExpSMa:  Full in-core algorithm.
 TestDE:  II=419 I=1 DE=    0.231425591324D-02
 TestDE:  II=419 I=2 DE=    0.681820038864D-01
 TestDE:  II=419 I=3 DE=    0.231425591324D-02
 Contribution from DD2=    0.26577170D-01
 Contribution from DD3=    0.00000000D+00
 Singles added:  Sum=    0.72744057D-01
 Entering DoROCS
 TestDE:  II= 99 I=2 DE=    0.681820038864D-01
 TestDE:  II= 99 I=1 DE=    0.231425591324D-02
 TestDE:  II= 99 I=3 DE=    0.231425591324D-02
 TestDE:  II= 99 I=1 DE=    0.237110366640D-02
 TestDE:  II= 11 I=2 DE=    0.681820038864D-01
 TestDE:  II= 99 I=2 DE=    0.686174850196D-01
 TestDE:  II= 98 I=2 DE=    0.690529661529D-01
 TestDE:  II= 98 I=3 DE=    0.237110366640D-02
 TestDE:  II= 89 I=1 DE=    0.262938831521D-02
 TestDE:  II= 89 I=2 DE=    0.709278132990D-01
 TestDE:  II= 88 I=3 DE=    0.262938831521D-02
 TestDE:  II= 88 I=2 DE=    0.728026604451D-01
 TestDE:  II=  5 I=1 DE=   -0.326914612108D-02
 TestDE:  II=  7 I=2 DE=    0.345686783316D-01
 TestDE:  II=  8 I=2 DE=   -0.521923225751D-01
 TestDE:  II=  9 I=3 DE=   -0.326914612108D-02
 TestDE:  II= 50 I=1 DE=   -0.639757805876D-03
 TestDE:  II= 70 I=2 DE=   -0.176236442436D-01
 TestDE:  II= 90 I=3 DE=   -0.639757805876D-03
 UMP4Q scratch file information:
   i      file        len
 ---     ------    ------
   1      19997    132496
   2      19998    132496
   3      19996    132496
   4      19995    132496
   5      19994    132496
   6      19993     33124
 total scratch length=      695604
 TestDE:  II= 71 I=2 DE=   -0.510496660931D-07
 TestDE:  II= 70 I=2 DE=   -0.174317478126D-07
 TestDE:  II= 72 I=2 DE=   -0.510496660931D-07
 TestDE:  II= 75 I=2 DE=   -0.176235072807D-01
 TestDE:  II= 75 I=1 DE=   -0.639768092168D-03
 TestDE:  II= 75 I=3 DE=   -0.639768092168D-03
 GetDE: DE=      0.00000000D+00
 TestDE:  II= 65 I=1 DE=    0.386419613955D-02
 TestDE:  II= 65 I=2 DE=    0.590982170366D-01
 TestDE:  II= 65 I=3 DE=    0.386419613955D-02
 Singles A-vector converged to   1.4498110D-02
 Singles A-vector converged to   2.8996220D-02
 The Euclidean norm of the A-vectors is   4.8454184D-02
 The Euclidean norm of the A-vectors is   6.7912149D-02
 The Euclidean norm of the A-vectors is   2.4486252D-01
 A(0)= 0.10000E+01      ANORM= 0.10373E+01      W(0)=-0.16367773E+00
 DE(Corr)= -0.16636022     E(CORR)=     -2077.8866593     Delta=-7.65D-04
 NORM(A)=   0.10373472D+01
 Iteration Nr.   4
 **********************
 DD1Dir will call FoFMem   1 times, MxPair=        44
 NAB=    16 NAA=     6 NBB=     6.
 DD1Dir:  Pass   1 NRAB=    16 NRAA=     6 NRBB=     6 NR=    44.
 TestDE:  II= 99 I=2 DE=    0.531612647989D-01
 TestDE:  II= 99 I=1 DE=    0.156269691738D-02
 TestDE:  II= 99 I=3 DE=    0.156269691738D-02
 TestDE:  II= 19 I=1 DE=    0.155747045796D-02
 TestDE:  II= 19 I=2 DE=    0.530459237813D-01
 TestDE:  II= 19 I=3 DE=    0.155747045796D-02
 Contribution from DD1=    0.56160865D-01
 ExpSMa:  Full in-core algorithm.
 ExpSMa:  Full in-core algorithm.
 ExpSMa:  Full in-core algorithm.
 ExpSMa:  Full in-core algorithm.
 ExpSMa:  Full in-core algorithm.
 ExpSMa:  Full in-core algorithm.
 TestDE:  II=419 I=1 DE=    0.262419250386D-02
 TestDE:  II=419 I=2 DE=    0.859182973355D-01
 TestDE:  II=419 I=3 DE=    0.262419250386D-02
 Contribution from DD2=    0.35005818D-01
 Contribution from DD3=    0.00000000D+00
 Singles added:  Sum=    0.90490551D-01
 Entering DoROCS
 TestDE:  II= 99 I=2 DE=    0.859182973355D-01
 TestDE:  II= 99 I=1 DE=    0.262419250386D-02
 TestDE:  II= 99 I=3 DE=    0.262419250386D-02
 TestDE:  II= 99 I=1 DE=    0.271308998222D-02
 TestDE:  II= 11 I=2 DE=    0.859182973355D-01
 TestDE:  II= 99 I=2 DE=    0.866922889961D-01
 TestDE:  II= 98 I=2 DE=    0.874662806567D-01
 TestDE:  II= 98 I=3 DE=    0.271308998222D-02
 TestDE:  II= 89 I=1 DE=    0.304742938135D-02
 TestDE:  II= 89 I=2 DE=    0.901645926890D-01
 TestDE:  II= 88 I=3 DE=    0.304742938135D-02
 TestDE:  II= 88 I=2 DE=    0.928629047213D-01
 TestDE:  II=  5 I=1 DE=   -0.388949014774D-02
 TestDE:  II=  7 I=2 DE=    0.421095356349D-01
 TestDE:  II=  8 I=2 DE=   -0.695306694421D-01
 TestDE:  II=  9 I=3 DE=   -0.388949014774D-02
 TestDE:  II= 50 I=1 DE=   -0.842060766393D-03
 TestDE:  II= 70 I=2 DE=   -0.274211338072D-01
 TestDE:  II= 90 I=3 DE=   -0.842060766393D-03
 UMP4Q scratch file information:
   i      file        len
 ---     ------    ------
   1      19997    132496
   2      19998    132496
   3      19996    132496
   4      19995    132496
   5      19994    132496
   6      19993     33124
 total scratch length=      695604
 TestDE:  II= 71 I=2 DE=   -0.323196409019D-05
 TestDE:  II= 70 I=2 DE=   -0.128493116073D-05
 TestDE:  II= 72 I=2 DE=   -0.323196409020D-05
 TestDE:  II= 75 I=2 DE=   -0.274121000167D-01
 TestDE:  II= 75 I=1 DE=   -0.843301583958D-03
 TestDE:  II= 75 I=3 DE=   -0.843301583958D-03
 GetDE: DE=      0.00000000D+00
 TestDE:  II= 65 I=1 DE=    0.430644093404D-02
 TestDE:  II= 65 I=2 DE=    0.713234498469D-01
 TestDE:  II= 65 I=3 DE=    0.430644093404D-02
 Singles A-vector converged to   6.8109139D-03
 Singles A-vector converged to   1.3621828D-02
 The Euclidean norm of the A-vectors is   2.1086008D-02
 The Euclidean norm of the A-vectors is   2.8550188D-02
 The Euclidean norm of the A-vectors is   9.8614583D-02
 A(0)= 0.10000E+01      ANORM= 0.10430E+01      W(0)=-0.17176635E+00
 DE(Corr)= -0.17076529     E(CORR)=     -2077.8910643     Delta=-4.41D-03
 NORM(A)=   0.10429860D+01
 Iteration Nr.   5
 **********************
 DD1Dir will call FoFMem   1 times, MxPair=        44
 NAB=    16 NAA=     6 NBB=     6.
 DD1Dir:  Pass   1 NRAB=    16 NRAA=     6 NRBB=     6 NR=    44.
 TestDE:  II= 99 I=2 DE=    0.587360559509D-01
 TestDE:  II= 99 I=1 DE=    0.162209400546D-02
 TestDE:  II= 99 I=3 DE=    0.162209400546D-02
 TestDE:  II= 19 I=1 DE=    0.160463251608D-02
 TestDE:  II= 19 I=2 DE=    0.584700842034D-01
 TestDE:  II= 19 I=3 DE=    0.160463251608D-02
 Contribution from DD1=    0.61679349D-01
 ExpSMa:  Full in-core algorithm.
 ExpSMa:  Full in-core algorithm.
 ExpSMa:  Full in-core algorithm.
 ExpSMa:  Full in-core algorithm.
 ExpSMa:  Full in-core algorithm.
 ExpSMa:  Full in-core algorithm.
 TestDE:  II=419 I=1 DE=    0.276766258823D-02
 TestDE:  II=419 I=2 DE=    0.961785163300D-01
 TestDE:  II=419 I=3 DE=    0.276766258823D-02
 Contribution from DD2=    0.40034492D-01
 Contribution from DD3=    0.00000000D+00
 Singles added:  Sum=    0.10043983D+00
 Entering DoROCS
 TestDE:  II= 99 I=2 DE=    0.961785163300D-01
 TestDE:  II= 99 I=1 DE=    0.276766258823D-02
 TestDE:  II= 99 I=3 DE=    0.276766258823D-02
 TestDE:  II= 99 I=1 DE=    0.287672341568D-02
 TestDE:  II= 11 I=2 DE=    0.961785163300D-01
 TestDE:  II= 99 I=2 DE=    0.971913367355D-01
 TestDE:  II= 98 I=2 DE=    0.982041571411D-01
 TestDE:  II= 98 I=3 DE=    0.287672341568D-02
 TestDE:  II= 89 I=1 DE=    0.325371910563D-02
 TestDE:  II= 89 I=2 DE=    0.101422152478D+00
 TestDE:  II= 88 I=3 DE=    0.325371910563D-02
 TestDE:  II= 88 I=2 DE=    0.104640147816D+00
 TestDE:  II=  5 I=1 DE=   -0.422410071329D-02
 TestDE:  II=  7 I=2 DE=    0.463281285190D-01
 TestDE:  II=  8 I=2 DE=   -0.799843547105D-01
 TestDE:  II=  9 I=3 DE=   -0.422410071329D-02
 TestDE:  II= 50 I=1 DE=   -0.970381607662D-03
 TestDE:  II= 70 I=2 DE=   -0.336562261916D-01
 TestDE:  II= 90 I=3 DE=   -0.970381607662D-03
 UMP4Q scratch file information:
   i      file        len
 ---     ------    ------
   1      19997    132496
   2      19998    132496
   3      19996    132496
   4      19995    132496
   5      19994    132496
   6      19993     33124
 total scratch length=      695604
 TestDE:  II= 71 I=2 DE=   -0.865651495315D-05
 TestDE:  II= 70 I=2 DE=   -0.361912208684D-05
 TestDE:  II= 72 I=2 DE=   -0.865651495315D-05
 TestDE:  II= 75 I=2 DE=   -0.336316749175D-01
 TestDE:  II= 75 I=1 DE=   -0.974329387246D-03
 TestDE:  II= 75 I=3 DE=   -0.974329387246D-03
 GetDE: DE=      0.00000000D+00
 TestDE:  II= 65 I=1 DE=    0.453850261554D-02
 TestDE:  II= 65 I=2 DE=    0.783126859105D-01
 TestDE:  II= 65 I=3 DE=    0.453850261554D-02
 Singles A-vector converged to   1.5226130D-03
 Singles A-vector converged to   3.0452261D-03
 The Euclidean norm of the A-vectors is   4.6945959D-03
 The Euclidean norm of the A-vectors is   6.3439656D-03
 The Euclidean norm of the A-vectors is   1.9425987D-02
 A(0)= 0.10000E+01      ANORM= 0.10430E+01      W(0)=-0.17172430E+00
 DE(Corr)= -0.17311530     E(CORR)=     -2077.8934144     Delta=-2.35D-03
 NORM(A)=   0.10430436D+01
 Iteration Nr.   6
 **********************
 DD1Dir will call FoFMem   1 times, MxPair=        44
 NAB=    16 NAA=     6 NBB=     6.
 DD1Dir:  Pass   1 NRAB=    16 NRAA=     6 NRBB=     6 NR=    44.
 TestDE:  II= 99 I=2 DE=    0.587118798236D-01
 TestDE:  II= 99 I=1 DE=    0.162259204800D-02
 TestDE:  II= 99 I=3 DE=    0.162259204800D-02
 TestDE:  II= 19 I=1 DE=    0.160305092539D-02
 TestDE:  II= 19 I=2 DE=    0.584253890436D-01
 TestDE:  II= 19 I=3 DE=    0.160305092539D-02
 Contribution from DD1=    0.61631491D-01
 ExpSMa:  Full in-core algorithm.
 ExpSMa:  Full in-core algorithm.
 ExpSMa:  Full in-core algorithm.
 ExpSMa:  Full in-core algorithm.
 ExpSMa:  Full in-core algorithm.
 ExpSMa:  Full in-core algorithm.
 TestDE:  II=419 I=1 DE=    0.276880114398D-02
 TestDE:  II=419 I=2 DE=    0.961246798579D-01
 TestDE:  II=419 I=3 DE=    0.276880114398D-02
 Contribution from DD2=    0.40030791D-01
 Contribution from DD3=    0.00000000D+00
 Singles added:  Sum=    0.10033768D+00
 Entering DoROCS
 TestDE:  II= 99 I=2 DE=    0.961246798579D-01
 TestDE:  II= 99 I=1 DE=    0.276880114398D-02
 TestDE:  II= 99 I=3 DE=    0.276880114398D-02
 TestDE:  II= 99 I=1 DE=    0.287827844028D-02
 TestDE:  II= 11 I=2 DE=    0.961246798579D-01
 TestDE:  II= 99 I=2 DE=    0.971393051873D-01
 TestDE:  II= 98 I=2 DE=    0.981539305166D-01
 TestDE:  II= 98 I=3 DE=    0.287827844028D-02
 TestDE:  II= 89 I=1 DE=    0.325589339347D-02
 TestDE:  II= 89 I=2 DE=    0.101371294976D+00
 TestDE:  II= 88 I=3 DE=    0.325589339347D-02
 TestDE:  II= 88 I=2 DE=    0.104588659435D+00
 TestDE:  II=  5 I=1 DE=   -0.423392225734D-02
 TestDE:  II=  7 I=2 DE=    0.463156289350D-01
 TestDE:  II=  8 I=2 DE=   -0.799581470115D-01
 TestDE:  II=  9 I=3 DE=   -0.423392225734D-02
 TestDE:  II= 50 I=1 DE=   -0.978028863868D-03
 TestDE:  II= 70 I=2 DE=   -0.336425180765D-01
 TestDE:  II= 90 I=3 DE=   -0.978028863868D-03
 UMP4Q scratch file information:
   i      file        len
 ---     ------    ------
   1      19997    132496
   2      19998    132496
   3      19996    132496
   4      19995    132496
   5      19994    132496
   6      19993     33124
 total scratch length=      695604
 TestDE:  II= 71 I=2 DE=   -0.912957175551D-05
 TestDE:  II= 70 I=2 DE=   -0.385268140092D-05
 TestDE:  II= 72 I=2 DE=   -0.912957175551D-05
 TestDE:  II= 75 I=2 DE=   -0.336165535702D-01
 TestDE:  II= 75 I=1 DE=   -0.982315102403D-03
 TestDE:  II= 75 I=3 DE=   -0.982315102403D-03
 GetDE: DE=      0.00000000D+00
 TestDE:  II= 65 I=1 DE=    0.454682238585D-02
 TestDE:  II= 65 I=2 DE=    0.783373274587D-01
 TestDE:  II= 65 I=3 DE=    0.454682238585D-02
 Singles A-vector converged to   1.2615208D-03
 Singles A-vector converged to   2.5230417D-03
 The Euclidean norm of the A-vectors is   4.0973734D-03
 The Euclidean norm of the A-vectors is   5.6717052D-03
 The Euclidean norm of the A-vectors is   1.8758412D-02
 A(0)= 0.10000E+01      ANORM= 0.10445E+01      W(0)=-0.17367600E+00
 DE(Corr)= -0.17311181     E(CORR)=     -2077.8934109     Delta= 3.50D-06
 NORM(A)=   0.10444675D+01
 Iteration Nr.   7
 **********************
 DD1Dir will call FoFMem   1 times, MxPair=        44
 NAB=    16 NAA=     6 NBB=     6.
 DD1Dir:  Pass   1 NRAB=    16 NRAA=     6 NRBB=     6 NR=    44.
 TestDE:  II= 99 I=2 DE=    0.600891563057D-01
 TestDE:  II= 99 I=1 DE=    0.164249563381D-02
 TestDE:  II= 99 I=3 DE=    0.164249563381D-02
 TestDE:  II= 19 I=1 DE=    0.161939215571D-02
 TestDE:  II= 19 I=2 DE=    0.597612281011D-01
 TestDE:  II= 19 I=3 DE=    0.161939215571D-02
 Contribution from DD1=    0.63000012D-01
 ExpSMa:  Full in-core algorithm.
 ExpSMa:  Full in-core algorithm.
 ExpSMa:  Full in-core algorithm.
 ExpSMa:  Full in-core algorithm.
 ExpSMa:  Full in-core algorithm.
 ExpSMa:  Full in-core algorithm.
 TestDE:  II=419 I=1 DE=    0.281290431305D-02
 TestDE:  II=419 I=2 DE=    0.986375503330D-01
 TestDE:  II=419 I=3 DE=    0.281290431305D-02
 Contribution from DD2=    0.41263347D-01
 Contribution from DD3=    0.00000000D+00
 Singles added:  Sum=    0.10277140D+00
 Entering DoROCS
 TestDE:  II= 99 I=2 DE=    0.986375503330D-01
 TestDE:  II= 99 I=1 DE=    0.281290431305D-02
 TestDE:  II= 99 I=3 DE=    0.281290431305D-02
 TestDE:  II= 99 I=1 DE=    0.292794638994D-02
 TestDE:  II= 11 I=2 DE=    0.986375503330D-01
 TestDE:  II= 99 I=2 DE=    0.997141309410D-01
 TestDE:  II= 98 I=2 DE=    0.100790711549D+00
 TestDE:  II= 98 I=3 DE=    0.292794638994D-02
 TestDE:  II= 89 I=1 DE=    0.331761370593D-02
 TestDE:  II= 89 I=2 DE=    0.104139839401D+00
 TestDE:  II= 88 I=3 DE=    0.331761370593D-02
 TestDE:  II= 88 I=2 DE=    0.107488967253D+00
 TestDE:  II=  5 I=1 DE=   -0.433195730056D-02
 TestDE:  II=  7 I=2 DE=    0.473650878985D-01
 TestDE:  II=  8 I=2 DE=   -0.825230496521D-01
 TestDE:  II=  9 I=3 DE=   -0.433195730056D-02
 TestDE:  II= 50 I=1 DE=   -0.101434359463D-02
 TestDE:  II= 70 I=2 DE=   -0.351579617535D-01
 TestDE:  II= 90 I=3 DE=   -0.101434359463D-02
 UMP4Q scratch file information:
   i      file        len
 ---     ------    ------
   1      19997    132496
   2      19998    132496
   3      19996    132496
   4      19995    132496
   5      19994    132496
   6      19993     33124
 total scratch length=      695604
 TestDE:  II= 71 I=2 DE=   -0.109560527922D-04
 TestDE:  II= 70 I=2 DE=   -0.464974360462D-05
 TestDE:  II= 72 I=2 DE=   -0.109560527922D-04
 TestDE:  II= 75 I=2 DE=   -0.351267501607D-01
 TestDE:  II= 75 I=1 DE=   -0.101958951479D-02
 TestDE:  II= 75 I=3 DE=   -0.101958951479D-02
 GetDE: DE=      0.00000000D+00
 TestDE:  II= 65 I=1 DE=    0.461183641035D-02
 TestDE:  II= 65 I=2 DE=    0.799954013951D-01
 TestDE:  II= 65 I=3 DE=    0.461183641035D-02
 Singles A-vector converged to   1.9283908D-05
 Singles A-vector converged to   3.8567815D-05
 The Euclidean norm of the A-vectors is   6.2807857D-05
 The Euclidean norm of the A-vectors is   8.7047900D-05
 The Euclidean norm of the A-vectors is   3.5047091D-04
 A(0)= 0.10000E+01      ANORM= 0.10445E+01      W(0)=-0.17365800E+00
 DE(Corr)= -0.17364786     E(CORR)=     -2077.8939469     Delta=-5.36D-04
 NORM(A)=   0.10444550D+01
 Iteration Nr.   8
 **********************
 DD1Dir will call FoFMem   1 times, MxPair=        44
 NAB=    16 NAA=     6 NBB=     6.
 DD1Dir:  Pass   1 NRAB=    16 NRAA=     6 NRBB=     6 NR=    44.
 TestDE:  II= 99 I=2 DE=    0.600719501526D-01
 TestDE:  II= 99 I=1 DE=    0.164271781381D-02
 TestDE:  II= 99 I=3 DE=    0.164271781381D-02
 TestDE:  II= 19 I=1 DE=    0.161955816200D-02
 TestDE:  II= 19 I=2 DE=    0.597438584779D-01
 TestDE:  II= 19 I=3 DE=    0.161955816200D-02
 Contribution from DD1=    0.62982975D-01
 ExpSMa:  Full in-core algorithm.
 ExpSMa:  Full in-core algorithm.
 ExpSMa:  Full in-core algorithm.
 ExpSMa:  Full in-core algorithm.
 ExpSMa:  Full in-core algorithm.
 ExpSMa:  Full in-core algorithm.
 TestDE:  II=419 I=1 DE=    0.281334431551D-02
 TestDE:  II=419 I=2 DE=    0.986052450619D-01
 TestDE:  II=419 I=3 DE=    0.281334431551D-02
 Contribution from DD2=    0.41248959D-01
 Contribution from DD3=    0.00000000D+00
 Singles added:  Sum=    0.10273946D+00
 Entering DoROCS
 TestDE:  II= 99 I=2 DE=    0.986052450619D-01
 TestDE:  II= 99 I=1 DE=    0.281334431551D-02
 TestDE:  II= 99 I=3 DE=    0.281334431551D-02
 TestDE:  II= 99 I=1 DE=    0.292839665997D-02
 TestDE:  II= 11 I=2 DE=    0.986052450619D-01
 TestDE:  II= 99 I=2 DE=    0.996811157336D-01
 TestDE:  II= 98 I=2 DE=    0.100756986405D+00
 TestDE:  II= 98 I=3 DE=    0.292839665997D-02
 TestDE:  II= 89 I=1 DE=    0.331811143096D-02
 TestDE:  II= 89 I=2 DE=    0.104104505083D+00
 TestDE:  II= 88 I=3 DE=    0.331811143096D-02
 TestDE:  II= 88 I=2 DE=    0.107452023762D+00
 TestDE:  II=  5 I=1 DE=   -0.433306472763D-02
 TestDE:  II=  7 I=2 DE=    0.473517220386D-01
 TestDE:  II=  8 I=2 DE=   -0.824924083918D-01
 TestDE:  II=  9 I=3 DE=   -0.433306472763D-02
 TestDE:  II= 50 I=1 DE=   -0.101495329667D-02
 TestDE:  II= 70 I=2 DE=   -0.351406863532D-01
 TestDE:  II= 90 I=3 DE=   -0.101495329667D-02
 UMP4Q scratch file information:
   i      file        len
 ---     ------    ------
   1      19997    132496
   2      19998    132496
   3      19996    132496
   4      19995    132496
   5      19994    132496
   6      19993     33124
 total scratch length=      695604
 TestDE:  II= 71 I=2 DE=   -0.109584091833D-04
 TestDE:  II= 70 I=2 DE=   -0.465345645599D-05
 TestDE:  II= 72 I=2 DE=   -0.109584091833D-04
 TestDE:  II= 75 I=2 DE=   -0.351094626219D-01
 TestDE:  II= 75 I=1 DE=   -0.102020710854D-02
 TestDE:  II= 75 I=3 DE=   -0.102020710854D-02
 GetDE: DE=      0.00000000D+00
 TestDE:  II= 65 I=1 DE=    0.461265431198D-02
 TestDE:  II= 65 I=2 DE=    0.799756745398D-01
 TestDE:  II= 65 I=3 DE=    0.461265431198D-02
 Singles A-vector converged to   9.6053842D-06
 Singles A-vector converged to   1.9210768D-05
 The Euclidean norm of the A-vectors is   2.6907002D-05
 The Euclidean norm of the A-vectors is   3.4603236D-05
 The Euclidean norm of the A-vectors is   8.4743092D-05
 A(0)= 0.10000E+01      ANORM= 0.10445E+01      W(0)=-0.17366016E+00
 DE(Corr)= -0.17364314     E(CORR)=     -2077.8939422     Delta= 4.71D-06
 NORM(A)=   0.10444567D+01
 Iteration Nr.   9
 **********************
 DD1Dir will call FoFMem   1 times, MxPair=        44
 NAB=    16 NAA=     6 NBB=     6.
 DD1Dir:  Pass   1 NRAB=    16 NRAA=     6 NRBB=     6 NR=    44.
 TestDE:  II= 99 I=2 DE=    0.600732192023D-01
 TestDE:  II= 99 I=1 DE=    0.164278914861D-02
 TestDE:  II= 99 I=3 DE=    0.164278914861D-02
 TestDE:  II= 19 I=1 DE=    0.161958815702D-02
 TestDE:  II= 19 I=2 DE=    0.597448925760D-01
 TestDE:  II= 19 I=3 DE=    0.161958815702D-02
 Contribution from DD1=    0.62984069D-01
 ExpSMa:  Full in-core algorithm.
 ExpSMa:  Full in-core algorithm.
 ExpSMa:  Full in-core algorithm.
 ExpSMa:  Full in-core algorithm.
 ExpSMa:  Full in-core algorithm.
 ExpSMa:  Full in-core algorithm.
 TestDE:  II=419 I=1 DE=    0.281347193111D-02
 TestDE:  II=419 I=2 DE=    0.986070324077D-01
 TestDE:  II=419 I=3 DE=    0.281347193111D-02
 Contribution from DD2=    0.41249907D-01
 Contribution from DD3=    0.00000000D+00
 Singles added:  Sum=    0.10274106D+00
 Entering DoROCS
 TestDE:  II= 99 I=2 DE=    0.986070324077D-01
 TestDE:  II= 99 I=1 DE=    0.281347193111D-02
 TestDE:  II= 99 I=3 DE=    0.281347193111D-02
 TestDE:  II= 99 I=1 DE=    0.292853393535D-02
 TestDE:  II= 11 I=2 DE=    0.986070324077D-01
 TestDE:  II= 99 I=2 DE=    0.996829053643D-01
 TestDE:  II= 98 I=2 DE=    0.100758778321D+00
 TestDE:  II= 98 I=3 DE=    0.292853393535D-02
 TestDE:  II= 89 I=1 DE=    0.331828751405D-02
 TestDE:  II= 89 I=2 DE=    0.104106425680D+00
 TestDE:  II= 88 I=3 DE=    0.331828751405D-02
 TestDE:  II= 88 I=2 DE=    0.107454073038D+00
 TestDE:  II=  5 I=1 DE=   -0.433341862639D-02
 TestDE:  II=  7 I=2 DE=    0.473526044790D-01
 TestDE:  II=  8 I=2 DE=   -0.824943047008D-01
 TestDE:  II=  9 I=3 DE=   -0.433341862639D-02
 TestDE:  II= 50 I=1 DE=   -0.101513111233D-02
 TestDE:  II= 70 I=2 DE=   -0.351417002218D-01
 TestDE:  II= 90 I=3 DE=   -0.101513111233D-02
 UMP4Q scratch file information:
   i      file        len
 ---     ------    ------
   1      19997    132496
   2      19998    132496
   3      19996    132496
   4      19995    132496
   5      19994    132496
   6      19993     33124
 total scratch length=      695604
 TestDE:  II= 71 I=2 DE=   -0.109629637208D-04
 TestDE:  II= 70 I=2 DE=   -0.465664646411D-05
 TestDE:  II= 72 I=2 DE=   -0.109629637208D-04
 TestDE:  II= 75 I=2 DE=   -0.351104610014D-01
 TestDE:  II= 75 I=1 DE=   -0.102039040209D-02
 TestDE:  II= 75 I=3 DE=   -0.102039040209D-02
 GetDE: DE=      0.00000000D+00
 TestDE:  II= 65 I=1 DE=    0.461292373654D-02
 TestDE:  II= 65 I=2 DE=    0.799767638181D-01
 TestDE:  II= 65 I=3 DE=    0.461292373654D-02
 Singles A-vector converged to   1.8846684D-06
 Singles A-vector converged to   3.7693368D-06
 The Euclidean norm of the A-vectors is   6.0688997D-06
 The Euclidean norm of the A-vectors is   8.3684626D-06
 The Euclidean norm of the A-vectors is   2.7103491D-05
 A(0)= 0.10000E+01      ANORM= 0.10445E+01      W(0)=-0.17365997E+00
 DE(Corr)= -0.17364363     E(CORR)=     -2077.8939427     Delta=-4.83D-07
 NORM(A)=   0.10444567D+01
 Iteration Nr.  10
 **********************
 DD1Dir will call FoFMem   1 times, MxPair=        44
 NAB=    16 NAA=     6 NBB=     6.
 DD1Dir:  Pass   1 NRAB=    16 NRAA=     6 NRBB=     6 NR=    44.
 TestDE:  II= 99 I=2 DE=    0.600730218322D-01
 TestDE:  II= 99 I=1 DE=    0.164280065421D-02
 TestDE:  II= 99 I=3 DE=    0.164280065421D-02
 TestDE:  II= 19 I=1 DE=    0.161958881088D-02
 TestDE:  II= 19 I=2 DE=    0.597446331601D-01
 TestDE:  II= 19 I=3 DE=    0.161958881088D-02
 Contribution from DD1=    0.62983811D-01
 ExpSMa:  Full in-core algorithm.
 ExpSMa:  Full in-core algorithm.
 ExpSMa:  Full in-core algorithm.
 ExpSMa:  Full in-core algorithm.
 ExpSMa:  Full in-core algorithm.
 ExpSMa:  Full in-core algorithm.
 TestDE:  II=419 I=1 DE=    0.281349184798D-02
 TestDE:  II=419 I=2 DE=    0.986066881976D-01
 TestDE:  II=419 I=3 DE=    0.281349184798D-02
 Contribution from DD2=    0.41249861D-01
 Contribution from DD3=    0.00000000D+00
 Singles added:  Sum=    0.10274065D+00
 Entering DoROCS
 TestDE:  II= 99 I=2 DE=    0.986066881976D-01
 TestDE:  II= 99 I=1 DE=    0.281349184798D-02
 TestDE:  II= 99 I=3 DE=    0.281349184798D-02
 TestDE:  II= 99 I=1 DE=    0.292855489918D-02
 TestDE:  II= 11 I=2 DE=    0.986066881976D-01
 TestDE:  II= 99 I=2 DE=    0.996825442077D-01
 TestDE:  II= 98 I=2 DE=    0.100758400218D+00
 TestDE:  II= 98 I=3 DE=    0.292855489918D-02
 TestDE:  II= 89 I=1 DE=    0.331831521145D-02
 TestDE:  II= 89 I=2 DE=    0.104106040890D+00
 TestDE:  II= 88 I=3 DE=    0.331831521145D-02
 TestDE:  II= 88 I=2 DE=    0.107453681563D+00
 TestDE:  II=  5 I=1 DE=   -0.433348639791D-02
 TestDE:  II=  7 I=2 DE=    0.473524552933D-01
 TestDE:  II=  8 I=2 DE=   -0.824940558508D-01
 TestDE:  II=  9 I=3 DE=   -0.433348639791D-02
 TestDE:  II= 50 I=1 DE=   -0.101517118646D-02
 TestDE:  II= 70 I=2 DE=   -0.351416005576D-01
 TestDE:  II= 90 I=3 DE=   -0.101517118646D-02
 UMP4Q scratch file information:
   i      file        len
 ---     ------    ------
   1      19997    132496
   2      19998    132496
   3      19996    132496
   4      19995    132496
   5      19994    132496
   6      19993     33124
 total scratch length=      695604
 TestDE:  II= 71 I=2 DE=   -0.109638001473D-04
 TestDE:  II= 70 I=2 DE=   -0.465734392480D-05
 TestDE:  II= 72 I=2 DE=   -0.109638001473D-04
 TestDE:  II= 75 I=2 DE=   -0.351103582694D-01
 TestDE:  II= 75 I=1 DE=   -0.102043187707D-02
 TestDE:  II= 75 I=3 DE=   -0.102043187707D-02
 GetDE: DE=      0.00000000D+00
 TestDE:  II= 65 I=1 DE=    0.461298063334D-02
 TestDE:  II= 65 I=2 DE=    0.799766424944D-01
 TestDE:  II= 65 I=3 DE=    0.461298063334D-02
 Singles A-vector converged to   6.4271661D-07
 Singles A-vector converged to   1.2854332D-06
 The Euclidean norm of the A-vectors is   1.8736095D-06
 The Euclidean norm of the A-vectors is   2.4617857D-06
 The Euclidean norm of the A-vectors is   8.1316239D-06
 A(0)= 0.10000E+01      ANORM= 0.10445E+01      W(0)=-0.17365999E+00
 DE(Corr)= -0.17364363     E(CORR)=     -2077.8939427     Delta= 4.86D-10
 NORM(A)=   0.10444568D+01
 Largest amplitude= 1.95D-02
    T4(aaa)= -0.50610158D-04
    T5(aaa)=  0.89132281D-06
    T4(aab)= -0.19797231D-02
    T5(aab)=  0.39369162D-04
    T4(abb)= -0.19797231D-02
    T5(abb)=  0.39369162D-04
    T4(bbb)= -0.50610158D-04
    T5(bbb)=  0.89132281D-06
 Time for triples=      507.13 seconds.
 T4(CCSD)= -0.40606664D-02
 T5(CCSD)=  0.80520969D-04
 CCSD(T)= -0.20778979228D+04

 **********************************************************************

            Population analysis using the SCF density.

 **********************************************************************

 Orbital symmetries:
       Occupied  (A1) (A1) (T2) (T2) (T2) (A1) (T2) (T2) (T2) (T2)
                 (T2) (T2) (E) (E) (A1) (T2) (T2) (T2)
       Virtual   (A1) (T2) (T2) (T2) (T2) (T2) (T2) (A1) (T2) (T2)
                 (T2) (A1) (T2) (T2) (T2) (E) (E) (A1) (T2) (T2)
                 (T2) (T2) (T2) (T2) (A1) (T2) (T2) (T2) (T1) (T1)
                 (T1) (A1) (E) (E) (T2) (T2) (T2) (T2) (T2) (T2)
                 (A1) (E) (E) (T1) (T1) (T1) (T2) (T2) (T2) (T2)
                 (T2) (T2) (A1) (T2) (T2) (T2) (T2) (T2) (T2) (A1)
                 (T1) (T1) (T1) (E) (E) (A1) (E) (E) (T2) (T2)
                 (T2) (A1) (T2) (T2) (T2) (T1) (T1) (T1) (T1) (T1)
                 (T1) (T2) (T2) (T2) (T2) (T2) (T2) (E) (E) (T1)
                 (T1) (T1) (A1) (T2) (T2) (T2) (E) (E) (E) (E)
                 (T2) (T2) (T2) (T2) (T2) (T2) (A1) (T1) (T1) (T1)
                 (T2) (T2) (T2) (A1) (T2) (T2) (T2) (A2) (T1) (T1)
                 (T1) (T2) (T2) (T2) (A1) (T2) (T2) (T2) (T1) (T1)
                 (T1) (E) (E) (A1) (T2) (T2) (T2) (E) (E) (T2)
                 (T2) (T2) (T1) (T1) (T1) (A1) (T2) (T2) (T2) (T1)
                 (T1) (T1) (E) (E) (A1) (T2) (T2) (T2) (T1) (T1)
                 (T1) (T2) (T2) (T2) (E) (E) (T2) (T2) (T2) (E)
                 (E) (T2) (T2) (T2) (A1) (T1) (T1) (T1) (T2) (T2)
                 (T2) (A1)
 The electronic state is 1-A1.
 Alpha  occ. eigenvalues -- -405.21800 -52.12672 -46.21391 -46.21391 -46.21391
 Alpha  occ. eigenvalues --   -7.17151  -5.14682  -5.14682  -5.14682  -1.62244
 Alpha  occ. eigenvalues --   -1.62244  -1.62244  -1.61829  -1.61829  -0.74534
 Alpha  occ. eigenvalues --   -0.47691  -0.47691  -0.47691
 Alpha virt. eigenvalues --    0.01598   0.02508   0.02508   0.02508   0.07070
 Alpha virt. eigenvalues --    0.07070   0.07070   0.07512   0.10871   0.10871
 Alpha virt. eigenvalues --    0.10871   0.17278   0.19163   0.19163   0.19163
 Alpha virt. eigenvalues --    0.25542   0.25542   0.25742   0.37847   0.37847
 Alpha virt. eigenvalues --    0.37847   0.44551   0.44551   0.44551   0.49748
 Alpha virt. eigenvalues --    0.57054   0.57054   0.57054   0.68210   0.68210
 Alpha virt. eigenvalues --    0.68210   0.74339   0.77393   0.77393   0.87578
 Alpha virt. eigenvalues --    0.87578   0.87578   0.97305   0.97305   0.97305
 Alpha virt. eigenvalues --    1.10114   1.11364   1.11364   1.11437   1.11437
 Alpha virt. eigenvalues --    1.11437   1.20948   1.20948   1.20948   1.33608
 Alpha virt. eigenvalues --    1.33608   1.33608   1.52363   1.76548   1.76548
 Alpha virt. eigenvalues --    1.76548   1.77647   1.77647   1.77647   1.81289
 Alpha virt. eigenvalues --    1.99320   1.99320   1.99320   2.02056   2.02056
 Alpha virt. eigenvalues --    2.19589   2.20845   2.20845   2.29480   2.29480
 Alpha virt. eigenvalues --    2.29480   2.32720   2.35257   2.35257   2.35257
 Alpha virt. eigenvalues --    2.35328   2.35328   2.35328   2.55829   2.55829
 Alpha virt. eigenvalues --    2.55829   2.56612   2.56612   2.56612   2.68316
 Alpha virt. eigenvalues --    2.68316   2.68316   2.68826   2.68826   2.88127
 Alpha virt. eigenvalues --    2.88127   2.88127   2.91608   3.01312   3.01312
 Alpha virt. eigenvalues --    3.01312   3.20991   3.20991   3.39506   3.39506
 Alpha virt. eigenvalues --    3.41413   3.41413   3.41413   3.57793   3.57793
 Alpha virt. eigenvalues --    3.57793   3.68441   3.86265   3.86265   3.86265
 Alpha virt. eigenvalues --    4.07555   4.07555   4.07555   4.33052   5.73598
 Alpha virt. eigenvalues --    5.73598   5.73598   5.94029   5.94703   5.94703
 Alpha virt. eigenvalues --    5.94703   6.03332   6.03332   6.03332   6.10817
 Alpha virt. eigenvalues --    6.28265   6.28265   6.28265   6.30752   6.30752
 Alpha virt. eigenvalues --    6.30752   6.47696   6.47696   6.51592   6.55295
 Alpha virt. eigenvalues --    6.55295   6.55295   6.84489   6.84489   7.02356
 Alpha virt. eigenvalues --    7.02356   7.02356   7.03341   7.03341   7.03341
 Alpha virt. eigenvalues --    7.34340   8.11499   8.11499   8.11499   8.24488
 Alpha virt. eigenvalues --    8.24488   8.24488   8.34324   8.34324   8.44085
 Alpha virt. eigenvalues --    8.45422   8.45422   8.45422   8.77056   8.77056
 Alpha virt. eigenvalues --    8.77056   8.97651   8.97651   8.97651   9.04306
 Alpha virt. eigenvalues --    9.04306   9.22965   9.22965   9.22965   9.26483
 Alpha virt. eigenvalues --    9.26483   9.33561   9.33561   9.33561   9.47026
 Alpha virt. eigenvalues --    9.56874   9.56874   9.56874  10.40599  10.40599
 Alpha virt. eigenvalues --   10.40599  10.98948
          Condensed to atoms (all electrons):
              1          2          3          4          5
     1  Ge  29.887185   0.407758   0.407758   0.407758   0.407758
     2  H    0.407758   0.760938  -0.016083  -0.016083  -0.016083
     3  H    0.407758  -0.016083   0.760938  -0.016083  -0.016083
     4  H    0.407758  -0.016083  -0.016083   0.760938  -0.016083
     5  H    0.407758  -0.016083  -0.016083  -0.016083   0.760938
 Mulliken atomic charges:
              1
     1  Ge   0.481782
     2  H   -0.120446
     3  H   -0.120446
     4  H   -0.120446
     5  H   -0.120446
 Sum of Mulliken atomic charges =   0.00000
 Mulliken charges with hydrogens summed into heavy atoms:
              1
     1  Ge   0.000000
 Sum of Mulliken charges with hydrogens summed into heavy atoms =   0.00000
          Atomic-Atomic Spin Densities.
              1          2          3          4          5
     1  Ge   0.000000   0.000000   0.000000   0.000000   0.000000
     2  H    0.000000   0.000000   0.000000   0.000000   0.000000
     3  H    0.000000   0.000000   0.000000   0.000000   0.000000
     4  H    0.000000   0.000000   0.000000   0.000000   0.000000
     5  H    0.000000   0.000000   0.000000   0.000000   0.000000
 Mulliken atomic spin densities:
              1
     1  Ge   0.000000
     2  H    0.000000
     3  H    0.000000
     4  H    0.000000
     5  H    0.000000
 Sum of Mulliken atomic spin densities =   0.00000
 Electronic spatial extent (au):  <R**2>=             78.9980
 Charge=              0.0000 electrons
 Dipole moment (field-independent basis, Debye):
    X=              0.0000    Y=              0.0000    Z=              0.0000  Tot=              0.0000
 Quadrupole moment (field-independent basis, Debye-Ang):
   XX=            -21.0087   YY=            -21.0087   ZZ=            -21.0087
   XY=              0.0000   XZ=              0.0000   YZ=              0.0000
 Traceless Quadrupole moment (field-independent basis, Debye-Ang):
   XX=              0.0000   YY=              0.0000   ZZ=              0.0000
   XY=              0.0000   XZ=              0.0000   YZ=              0.0000
 Octapole moment (field-independent basis, Debye-Ang**2):
  XXX=              0.0000  YYY=              0.0000  ZZZ=              0.0000  XYY=              0.0000
  XXY=              0.0000  XXZ=              0.0000  XZZ=              0.0000  YZZ=              0.0000
  YYZ=              0.0000  XYZ=             -1.5090
 Hexadecapole moment (field-independent basis, Debye-Ang**3):
 XXXX=            -46.9010 YYYY=            -46.9010 ZZZZ=            -46.9010 XXXY=              0.0000
 XXXZ=              0.0000 YYYX=              0.0000 YYYZ=              0.0000 ZZZX=              0.0000
 ZZZY=              0.0000 XXYY=            -15.5585 XXZZ=            -15.5585 YYZZ=            -15.5585
 XXYZ=              0.0000 YYXZ=              0.0000 ZZXY=              0.0000
 N-N= 4.645266927757D+01 E-N=-7.602730900912D+03  KE= 3.116847146737D+03
                          Isotropic Fermi Contact Couplings
        Atom                 a.u.       MegaHertz       Gauss      10(-4) cm-1
     1  Ge(73)             0.00000       0.00000       0.00000       0.00000
     2  H(1)               0.00000       0.00000       0.00000       0.00000
     3  H(1)               0.00000       0.00000       0.00000       0.00000
     4  H(1)               0.00000       0.00000       0.00000       0.00000
     5  H(1)               0.00000       0.00000       0.00000       0.00000
 --------------------------------------------------------
       Center         ----  Spin Dipole Couplings  ----
                      3XX-RR        3YY-RR        3ZZ-RR
 --------------------------------------------------------
     1   Atom        0.000000      0.000000      0.000000
     2   Atom        0.000000      0.000000      0.000000
     3   Atom        0.000000      0.000000      0.000000
     4   Atom        0.000000      0.000000      0.000000
     5   Atom        0.000000      0.000000      0.000000
 --------------------------------------------------------
                        XY            XZ            YZ
 --------------------------------------------------------
     1   Atom        0.000000      0.000000      0.000000
     2   Atom        0.000000      0.000000      0.000000
     3   Atom        0.000000      0.000000      0.000000
     4   Atom        0.000000      0.000000      0.000000
     5   Atom        0.000000      0.000000      0.000000
 --------------------------------------------------------


 ---------------------------------------------------------------------------------
              Anisotropic Spin Dipole Couplings in Principal Axis System
 ---------------------------------------------------------------------------------

       Atom             a.u.   MegaHertz   Gauss  10(-4) cm-1        Axes

              Baa     0.0000     0.000     0.000     0.000  1.0000  0.0000  0.0000
     1 Ge(73) Bbb     0.0000     0.000     0.000     0.000  0.0000  1.0000  0.0000
              Bcc     0.0000     0.000     0.000     0.000  0.0000  0.0000  1.0000
 
              Baa     0.0000     0.000     0.000     0.000  1.0000  0.0000  0.0000
     2 H(1)   Bbb     0.0000     0.000     0.000     0.000  0.0000  1.0000  0.0000
              Bcc     0.0000     0.000     0.000     0.000  0.0000  0.0000  1.0000
 
              Baa     0.0000     0.000     0.000     0.000  1.0000  0.0000  0.0000
     3 H(1)   Bbb     0.0000     0.000     0.000     0.000  0.0000  1.0000  0.0000
              Bcc     0.0000     0.000     0.000     0.000  0.0000  0.0000  1.0000
 
              Baa     0.0000     0.000     0.000     0.000  1.0000  0.0000  0.0000
     4 H(1)   Bbb     0.0000     0.000     0.000     0.000  0.0000  1.0000  0.0000
              Bcc     0.0000     0.000     0.000     0.000  0.0000  0.0000  1.0000
 
              Baa     0.0000     0.000     0.000     0.000  1.0000  0.0000  0.0000
     5 H(1)   Bbb     0.0000     0.000     0.000     0.000  0.0000  1.0000  0.0000
              Bcc     0.0000     0.000     0.000     0.000  0.0000  0.0000  1.0000
 

 ---------------------------------------------------------------------------------


 NEF-NEF-NEF-NEF-NEF-NEF-NEF-NEF-NEF-NEF-NEF-NEF-NEF-NEF-NEF-NEF-NEF-NEF-
 NUMERICAL EIGENVECTOR FOLLOWING MINIMUM SEARCH
 NUMERICALLY ESTIMATING GRADIENTS
 ITERATION   0 VARIABLE  1 STEP  1

 NEF-NEF-NEF-NEF-NEF-NEF-NEF-NEF-NEF-NEF-NEF-NEF-NEF-NEF-NEF-NEF-NEF-NEF-
 ---------------------------------------------------------------------------------------------------
                            Z-MATRIX (ANGSTROMS AND DEGREES)
   CD    Cent   Atom    N1       Length/X        N2       Alpha/Y        N3        Beta/Z          J
 ---------------------------------------------------------------------------------------------------
      1      1  Ge
      2      2  H        1   1.500073(     1)
      3      3  H        1   1.500073(     2)      2  109.471(     5)
      4      4  H        1   1.500073(     3)      2  109.471(     6)      3  120.000(     8)      0
      5      5  H        1   1.500073(     4)      2  109.471(     7)      3  240.000(     9)      0
 ---------------------------------------------------------------------------------------------------
                         Z-Matrix orientation:                         
 ---------------------------------------------------------------------
 Center     Atomic      Atomic             Coordinates (Angstroms)
 Number     Number       Type             X           Y           Z
 ---------------------------------------------------------------------
      1         32           0        0.000000    0.000000    0.000000
      2          1           0        0.000000    0.000000    1.500073
      3          1           0        1.414283    0.000000   -0.500024
      4          1           0       -0.707141   -1.224805   -0.500024
      5          1           0       -0.707141    1.224805   -0.500024
 ---------------------------------------------------------------------
                    Distance matrix (angstroms):
                    1          2          3          4          5
     1  Ge   0.000000
     2  H    1.500073   0.000000
     3  H    1.500073   2.449610   0.000000
     4  H    1.500073   2.449610   2.449610   0.000000
     5  H    1.500073   2.449610   2.449610   2.449610   0.000000
 Stoichiometry    GeH4
 Framework group  TD[O(Ge),4C3(H)]
 Deg. of freedom     1
 Full point group                 TD      NOp  24
 Largest Abelian subgroup         D2      NOp   4
 Largest concise Abelian subgroup D2      NOp   4
                         Standard orientation:                         
 ---------------------------------------------------------------------
 Center     Atomic      Atomic             Coordinates (Angstroms)
 Number     Number       Type             X           Y           Z
 ---------------------------------------------------------------------
      1         32           0        0.000000    0.000000    0.000000
      2          1           0        0.866068    0.866068    0.866068
      3          1           0       -0.866068   -0.866068    0.866068
      4          1           0       -0.866068    0.866068   -0.866068
      5          1           0        0.866068   -0.866068   -0.866068
 ---------------------------------------------------------------------
 Rotational constants (GHZ):     83.5676710     83.5676710     83.5676710
 Basis read from rwf:  (5D, 7F)
 There are    53 symmetry adapted basis functions of A   symmetry.
 There are    49 symmetry adapted basis functions of B1  symmetry.
 There are    49 symmetry adapted basis functions of B2  symmetry.
 There are    49 symmetry adapted basis functions of B3  symmetry.
 Integral buffers will be    131072 words long.
 Raffenetti 2 integral format.
 Two-electron integral symmetry is turned on.
   200 basis functions,   427 primitive gaussians,   236 cartesian basis functions
    18 alpha electrons       18 beta electrons
       nuclear repulsion energy        46.4503962081 Hartrees.
 NAtoms=    5 NActive=    5 NUniq=    2 SFac= 3.00D+00 NAtFMM=   80 NAOKFM=F Big=F
 One-electron integrals computed using PRISM.
 NBasis=   200 RedAO= F  NBF=    53    49    49    49
 NBsUse=   200 1.00D-04 NBFU=    53    49    49    49
 Initial guess read from the read-write file.
 B after Tr=     0.000000    0.000000    0.000000
         Rot=    1.000000    0.000000    0.000000    0.000000 Ang=   0.00 deg.
 Initial guess orbital symmetries:
       Occupied  (A1) (A1) (T2) (T2) (T2) (A1) (T2) (T2) (T2) (T2)
                 (T2) (T2) (E) (E) (A1) (T2) (T2) (T2)
       Virtual   (A1) (T2) (T2) (T2) (T2) (T2) (T2) (A1) (T2) (T2)
                 (T2) (A1) (T2) (T2) (T2) (E) (E) (A1) (T2) (T2)
                 (T2) (T2) (T2) (T2) (A1) (T2) (T2) (T2) (T1) (T1)
                 (T1) (A1) (E) (E) (T2) (T2) (T2) (T2) (T2) (T2)
                 (A1) (E) (E) (T1) (T1) (T1) (T2) (T2) (T2) (T2)
                 (T2) (T2) (A1) (T2) (T2) (T2) (T2) (T2) (T2) (A1)
                 (T1) (T1) (T1) (E) (E) (A1) (E) (E) (T2) (T2)
                 (T2) (A1) (T2) (T2) (T2) (T1) (T1) (T1) (T1) (T1)
                 (T1) (T2) (T2) (T2) (T2) (T2) (T2) (E) (E) (T1)
                 (T1) (T1) (A1) (T2) (T2) (T2) (E) (E) (E) (E)
                 (T2) (T2) (T2) (T2) (T2) (T2) (A1) (T1) (T1) (T1)
                 (T2) (T2) (T2) (A1) (T2) (T2) (T2) (A2) (T1) (T1)
                 (T1) (T2) (T2) (T2) (A1) (T2) (T2) (T2) (T1) (T1)
                 (T1) (E) (E) (A1) (T2) (T2) (T2) (E) (E) (T2)
                 (T2) (T2) (T1) (T1) (T1) (A1) (T2) (T2) (T2) (T1)
                 (T1) (T1) (E) (E) (A1) (T2) (T2) (T2) (T1) (T1)
                 (T1) (T2) (T2) (T2) (E) (E) (T2) (T2) (T2) (E)
                 (E) (T2) (T2) (T2) (A1) (T1) (T1) (T1) (T2) (T2)
                 (T2) (A1)
 Harris functional with IExCor=  205 diagonalized for initial guess.
 ExpMin= 1.16D-02 ExpMax= 7.28D+06 ExpMxC= 8.64D+03 IAcc=3 IRadAn=         5 AccDes= 0.00D+00
 HarFok:  IExCor=  205 AccDes= 0.00D+00 IRadAn=         5 IDoV= 1
 ScaDFX=  1.000000  1.000000  1.000000  1.000000
 FoFCou: FMM=F IPFlag=           0 FMFlag=      100000 FMFlg1=           0
         NFxFlg=           0 DoJE=T BraDBF=F KetDBF=T FulRan=T
         Omega=  0.000000  0.000000  1.000000  0.000000  0.000000 ICntrl=     500 IOpCl=  0
         NMat0=    1 NMatS0=    1 NMatT0=    0 NMatD0=    1 NMtDS0=    0 NMtDT0=    0
         I1Cent=           4 NGrid=           0.
 Petite list used in FoFCou.
 Requested convergence on RMS density matrix=1.00D-10 within 128 cycles.
 Requested convergence on MAX density matrix=1.00D-08.
 Requested convergence on             energy=1.00D-08.
 No special actions if energy rises.
 Keep R1 and R2 ints in memory in canonical form, NReq=788972079.
 SCF Done:  E(ROHF) =  -2077.72030615     A.U. after    7 cycles
             Convg  =    0.2222D-10             -V/T =  1.9999
 <Sx>= 0.0000 <Sy>= 0.0000 <Sz>= 0.0000 <S**2>= 0.0000 S= 0.0000
 <L.S>= 0.000000000000E+00
 Annihilation of the first spin contaminant:
 S**2 before annihilation     0.0000,   after     0.0000
 GenMOA:  NOpAll= 24 NOp2=4 NOpUse= 24 JSym2X=1
 <Sx>= 0.0000 <Sy>= 0.0000 <Sz>= 0.0000 <S**2>= 0.0000 S= 0.0000
 Range of M.O.s used for correlation:    15   200
 NBasis=   200 NAE=    18 NBE=    18 NFC=    14 NFV=     0
 NROrb=    186 NOA=     4 NOB=     4 NVA=   182 NVB=   182

 **** Warning!!: The largest alpha MO coefficient is  0.30225216D+02


 **** Warning!!: The largest beta MO coefficient is  0.30225216D+02

 Singles contribution to E2=   -0.2819386783D-18
 Semi-Direct transformation.
 ModeAB=           4 MOrb=             4 LenV=    1609246719
 LASXX=      3156159 LTotXX=     3156159 LenRXX=     6364941
 LTotAB=     3208782 MaxLAS=     7883424 LenRXY=           0
 NonZer=     9521100 LenScr=    15032320 LnRSAI=     7883424
 LnScr1=    12574720 LExtra=     2204913 Total=     44060318
 MaxDsk= 17179869184 SrtSym=           T ITran=            4
 JobTyp=1 Pass  1:  I=   1 to   4.
 (rs|ai) integrals will be sorted in core.
 ModeAB=           4 MOrb=             4 LenV=    1609246719
 LASXX=      3156159 LTotXX=     3156159 LenRXX=     6228777
 LTotAB=     3072618 MaxLAS=     7883424 LenRXY=           0
 NonZer=     9384936 LenScr=    14854656 LnRSAI=     7883424
 LnScr1=    12574720 LExtra=     8569854 Total=     50111431
 MaxDsk= 17179869184 SrtSym=           T ITran=            4
 JobTyp=2 Pass  1:  I=   1 to   4.
 (rs|ai) integrals will be sorted in core.
 Spin components of T(2) and E(2):
     alpha-alpha T2 =       0.3567066957D-02 E2=     -0.7523227030D-02
     alpha-beta  T2 =       0.5034593510D-01 E2=     -0.1327156281D+00
     beta-beta   T2 =       0.3567066957D-02 E2=     -0.7523227030D-02
 ANorm=    0.1028338499D+01
 E2 =    -0.1477620822D+00 EUMP2 =    -0.20778680682326D+04
 (S**2,0)=  0.00000D+00           (S**2,1)=  0.00000D+00
 E(PUHF)=      -0.20777203062D+04        E(PMP2)=      -0.20778680682D+04
 R2 and R3 integrals will be kept in memory, NReq=   788781030.
 Symmetry not used in FoFDir.
 MinBra= 0 MaxBra= 4 Meth= 1.
 IRaf=       0 NMat=   1 IRICut=       1 DoRegI=T DoRafI=F ISym2E= 0 JSym2E=0.
 PrsmSu:  NPrtUS=   8 ThrOK=T IAlg=1
 PRISM was handed   103423577 working-precision words and  2485 shell-pairs
 PRISM was handed   103423577 working-precision words and  2485 shell-pairs
 PRISM was handed   103423577 working-precision words and  2485 shell-pairs
 PRISM was handed   103423577 working-precision words and  2485 shell-pairs
 PRISM was handed   103423577 working-precision words and  2485 shell-pairs
 PRISM was handed   103423577 working-precision words and  2485 shell-pairs
 PRISM was handed   103423577 working-precision words and  2485 shell-pairs
 PRISM was handed   103423577 working-precision words and  2485 shell-pairs
 IPart=  6 NShTot=      381879 NBatch=        5192 AvBLen=        73.6
 IPart=  7 NShTot=      381430 NBatch=        5184 AvBLen=        73.6
 IPart=  5 NShTot=      382094 NBatch=        5632 AvBLen=        67.8
 IPart=  4 NShTot=      383780 NBatch=        5645 AvBLen=        68.0
 IPart=  3 NShTot=      384001 NBatch=        6043 AvBLen=        63.5
 IPart=  2 NShTot=      384449 NBatch=        6050 AvBLen=        63.5
 IPart=  1 NShTot=      386435 NBatch=        6064 AvBLen=        63.7
 IPart=  0 NShTot=      386357 NBatch=        7101 AvBLen=        54.4
 Iterations=  50 Convergence= 0.100D-06
 A(0)= 0.10000E+01      ANORM= 0.10283E+01      W(0)=-0.14776208E+00
 Singles contributions to ROMP2 energy
Alpha= -0.1409692806143E-18
Beta=  -0.1409692806143E-18
 Iteration Nr.   1
 **********************
 DD1Dir will call FoFMem   1 times, MxPair=        44
 NAB=    16 NAA=     6 NBB=     6.
 DD1Dir:  Pass   1 NRAB=    16 NRAA=     6 NRBB=     6 NR=    44.
 DD1Dir will call FoFMem   1 times, MxPair=        44
 NAB=    16 NAA=     6 NBB=     6.
 DD1Dir:  Pass   1 NRAB=    16 NRAA=     6 NRBB=     6 NR=    44.
 TestDE:  II= 99 I=2 DE=    0.434642997779D-01
 TestDE:  II= 99 I=1 DE=    0.148542041709D-02
 TestDE:  II= 99 I=3 DE=    0.148542041709D-02
 TestDE:  II= 19 I=1 DE=    0.147755273034D-13
 TestDE:  II= 19 I=2 DE=    0.184011607008D-12
 TestDE:  II= 19 I=3 DE=    0.147755273034D-13
 Contribution from DD1=    0.21356266D-12
 ExpSMa:  Full in-core algorithm.
 ExpSMa:  Full in-core algorithm.
 ExpSMa:  Full in-core algorithm.
 ExpSMa:  Full in-core algorithm.
 ExpSMa:  Full in-core algorithm.
 ExpSMa:  Full in-core algorithm.
 TestDE:  II= 70 I=2 DE=   -0.281991470443D-12
 TestDE:  II= 50 I=1 DE=    0.282395035290D-13
 TestDE:  II= 90 I=3 DE=    0.282395035290D-13
[...]
 TestDE:  II= 99 I=2 DE=    0.616641230368D-01
 TestDE:  II= 99 I=1 DE=    0.161911965068D-02
 TestDE:  II= 99 I=3 DE=    0.161911965068D-02
 TestDE:  II= 19 I=1 DE=    0.160106134989D-02
 TestDE:  II= 19 I=2 DE=    0.613412817168D-01
 TestDE:  II= 19 I=3 DE=    0.160106134989D-02
 Contribution from DD1=    0.64543404D-01
 ExpSMa:  Full in-core algorithm.
 ExpSMa:  Full in-core algorithm.
 ExpSMa:  Full in-core algorithm.
 ExpSMa:  Full in-core algorithm.
 ExpSMa:  Full in-core algorithm.
 ExpSMa:  Full in-core algorithm.
 TestDE:  II=419 I=1 DE=    0.277561270107D-02
 TestDE:  II=419 I=2 DE=    0.101339742133D+00
 TestDE:  II=419 I=3 DE=    0.277561270107D-02
 Contribution from DD2=    0.42347563D-01
 Contribution from DD3=    0.00000000D+00
 Singles added:  Sum=    0.10532200D+00
 Entering DoROCS
 TestDE:  II= 99 I=2 DE=    0.101339742133D+00
 TestDE:  II= 99 I=1 DE=    0.277561270107D-02
 TestDE:  II= 99 I=3 DE=    0.277561270107D-02
 TestDE:  II= 99 I=1 DE=    0.289274987559D-02
 TestDE:  II= 11 I=2 DE=    0.101339742133D+00
 TestDE:  II= 99 I=2 DE=    0.102509703871D+00
 TestDE:  II= 98 I=2 DE=    0.103679665609D+00
 TestDE:  II= 98 I=3 DE=    0.289274987559D-02
 TestDE:  II= 89 I=1 DE=    0.328287103745D-02
 TestDE:  II= 89 I=2 DE=    0.107174847209D+00
 TestDE:  II= 88 I=3 DE=    0.328287103745D-02
 TestDE:  II= 88 I=2 DE=    0.110670028808D+00
 TestDE:  II=  5 I=1 DE=   -0.427149027546D-02
 TestDE:  II=  7 I=2 DE=    0.486743339938D-01
 TestDE:  II=  8 I=2 DE=   -0.851327161483D-01
 TestDE:  II=  9 I=3 DE=   -0.427149027546D-02
 TestDE:  II= 50 I=1 DE=   -0.988619238017D-03
 TestDE:  II= 70 I=2 DE=   -0.364583821545D-01
 TestDE:  II= 90 I=3 DE=   -0.988619238017D-03
 UMP4Q scratch file information:
   i      file        len
 ---     ------    ------
   1      19997    132496
   2      19998    132496
   3      19996    132496
   4      19995    132496
   5      19994    132496
   6      19993     33124
 total scratch length=      695604
 TestDE:  II= 71 I=2 DE=   -0.120028012359D-04
 TestDE:  II= 70 I=2 DE=   -0.483137715275D-05
 TestDE:  II= 72 I=2 DE=   -0.120028012359D-04
 TestDE:  II= 75 I=2 DE=   -0.364247137977D-01
 TestDE:  II= 75 I=1 DE=   -0.993599653134D-03
 TestDE:  II= 75 I=3 DE=   -0.993599653134D-03
 GetDE: DE=      0.00000000D+00
 TestDE:  II= 65 I=1 DE=    0.461959754473D-02
 TestDE:  II= 65 I=2 DE=    0.834384496133D-01
 TestDE:  II= 65 I=3 DE=    0.461959754473D-02
 Singles A-vector converged to   7.5127249D-07
 Singles A-vector converged to   1.5025450D-06
 The Euclidean norm of the A-vectors is   2.1848308D-06
 The Euclidean norm of the A-vectors is   2.8671166D-06
 The Euclidean norm of the A-vectors is   9.2492128D-06
 A(0)= 0.10000E+01      ANORM= 0.10462E+01      W(0)=-0.17438652E+00
 DE(Corr)= -0.17436496     E(CORR)=     -2077.8961152     Delta=-7.68D-10
 NORM(A)=   0.10461609D+01
 Largest amplitude= 2.11D-02
    T4(aaa)= -0.50479685D-04
    T5(aaa)=  0.10798243D-05
    T4(aab)= -0.20390135D-02
    T5(aab)=  0.41744217D-04
    T4(abb)= -0.20390135D-02
    T5(abb)=  0.41744217D-04
    T4(bbb)= -0.50479685D-04
    T5(bbb)=  0.10798243D-05
 Time for triples=      508.93 seconds.
 T4(CCSD)= -0.41789864D-02
 T5(CCSD)=  0.85648083D-04
 CCSD(T)= -0.20779002086D+04

 NEF-NEF-NEF-NEF-NEF-NEF-NEF-NEF-NEF-NEF-NEF-NEF-NEF-NEF-NEF-NEF-NEF-NEF-
 NUMERICAL EIGENVECTOR FOLLOWING MINIMUM SEARCH
 GRADIENT ESTIMATION COMPLETE
 Hessian updated using Powell update
 ITERATION   4
 HESSIAN EIGENVECTORS AND EIGENVALUES
                           1
     Eigenvalues --     0.53249
   1         Rgeh       1.00000
 MINIMUM SEARCH. TAKING SIMPLE RFO STEP
 SEARCHING FOR LAMDA THAT MINIMIZES ALONG ALL MODES
 VALUE TAKEN    LAMDA=   0.00000000
 STEP TAKEN. STEPSIZE IS  0.000009
 CURRENT PARAMETER VALUES (INTERNAL COORDINATES)
    I        X         GRADIENT    DISPLACEMENT       NEWX
    1    2.912013      0.000005     -0.000009      2.912004
         ITEM               VALUE     THRESHOLD  CONVERGED?
 MAXIMUM FORCE            0.000005     0.000015     YES
 RMS     FORCE            0.000005     0.000010     YES
 MAXIMUM DISPLACEMENT     0.000009     0.000060     YES
 RMS     DISPLACEMENT     0.000009     0.000040     YES


 *************************************************
 **  CONVERGENCE CRITERIA APPARENTLY SATISFIED  **
 *************************************************


                       ----------------------------
                       !   Optimized Parameters   !
                       ! (Angstroms and Degrees)  !
 ----------------------                            ----------------------
 !      Name          Value   Derivative information (Atomic Units)     !
 ------------------------------------------------------------------------
 !      Rgeh         1.541    -DE/DX =    0.0                           !
 ------------------------------------------------------------------------
 PREDICTED CHANGE IN ENERGY   0.000000

 NEF-NEF-NEF-NEF-NEF-NEF-NEF-NEF-NEF-NEF-NEF-NEF-NEF-NEF-NEF-NEF-NEF-NEF-
 ---------------------------------------------------------------------------------------------------
                            Z-MATRIX (ANGSTROMS AND DEGREES)
   CD    Cent   Atom    N1       Length/X        N2       Alpha/Y        N3        Beta/Z          J
 ---------------------------------------------------------------------------------------------------
      1      1  Ge
      2      2  H        1   1.540971(     1)
      3      3  H        1   1.540971(     2)      2  109.471(     5)
      4      4  H        1   1.540971(     3)      2  109.471(     6)      3  120.000(     8)      0
      5      5  H        1   1.540971(     4)      2  109.471(     7)      3  240.000(     9)      0
 ---------------------------------------------------------------------------------------------------
                         Z-Matrix orientation:                         
 ---------------------------------------------------------------------
 Center     Atomic      Atomic             Coordinates (Angstroms)
 Number     Number       Type             X           Y           Z
 ---------------------------------------------------------------------
      1         32           0        0.000000    0.000000    0.000000
      2          1           0        0.000000    0.000000    1.540971
      3          1           0        1.452841    0.000000   -0.513657
      4          1           0       -0.726421   -1.258197   -0.513657
      5          1           0       -0.726421    1.258197   -0.513657
 ---------------------------------------------------------------------
                    Distance matrix (angstroms):
                    1          2          3          4          5
     1  Ge   0.000000
     2  H    1.540971   0.000000
     3  H    1.540971   2.516395   0.000000
     4  H    1.540971   2.516395   2.516395   0.000000
     5  H    1.540971   2.516395   2.516395   2.516395   0.000000
 Stoichiometry    GeH4
 Framework group  TD[O(Ge),4C3(H)]
 Deg. of freedom     1
 Full point group                 TD      NOp  24
 Largest Abelian subgroup         D2      NOp   4
 Largest concise Abelian subgroup D2      NOp   4
                         Standard orientation:                         
 ---------------------------------------------------------------------
 Center     Atomic      Atomic             Coordinates (Angstroms)
 Number     Number       Type             X           Y           Z
 ---------------------------------------------------------------------
      1         32           0        0.000000    0.000000    0.000000
      2          1           0        0.889680    0.889680    0.889680
      3          1           0       -0.889680   -0.889680    0.889680
      4          1           0       -0.889680    0.889680   -0.889680
      5          1           0        0.889680   -0.889680   -0.889680
 ---------------------------------------------------------------------
 Rotational constants (GHZ):     79.1907559     79.1907559     79.1907559

 **********************************************************************

            Population analysis using the SCF density.

 **********************************************************************

 Orbital symmetries:
       Occupied  (A1) (A1) (T2) (T2) (T2) (A1) (T2) (T2) (T2) (T2)
                 (T2) (T2) (E) (E) (A1) (T2) (T2) (T2)
       Virtual   (A1) (T2) (T2) (T2) (T2) (T2) (T2) (A1) (T2) (T2)
                 (T2) (A1) (T2) (T2) (T2) (A1) (E) (E) (T2) (T2)
                 (T2) (T2) (T2) (T2) (A1) (T2) (T2) (T2) (T1) (T1)
                 (T1) (A1) (E) (E) (T2) (T2) (T2) (T2) (T2) (T2)
                 (E) (E) (A1) (T1) (T1) (T1) (T2) (T2) (T2) (T2)
                 (T2) (T2) (A1) (T2) (T2) (T2) (T2) (T2) (T2) (A1)
                 (T1) (T1) (T1) (E) (E) (A1) (E) (E) (T2) (T2)
                 (T2) (A1) (T2) (T2) (T2) (T1) (T1) (T1) (T2) (T2)
                 (T2) (T1) (T1) (T1) (T2) (T2) (T2) (E) (E) (T1)
                 (T1) (T1) (A1) (T2) (T2) (T2) (E) (E) (E) (E)
                 (T2) (T2) (T2) (T2) (T2) (T2) (A1) (T1) (T1) (T1)
                 (T2) (T2) (T2) (A1) (T2) (T2) (T2) (A2) (T1) (T1)
                 (T1) (T2) (T2) (T2) (A1) (T2) (T2) (T2) (T1) (T1)
                 (T1) (E) (E) (A1) (T2) (T2) (T2) (E) (E) (T2)
                 (T2) (T2) (T1) (T1) (T1) (A1) (T2) (T2) (T2) (T1)
                 (T1) (T1) (E) (E) (A1) (T2) (T2) (T2) (T1) (T1)
                 (T1) (T2) (T2) (T2) (E) (E) (T2) (T2) (T2) (E)
                 (E) (T2) (T2) (T2) (A1) (T1) (T1) (T1) (T2) (T2)
                 (T2) (A1)
 The electronic state is 1-A1.
 Alpha  occ. eigenvalues -- -405.22672 -52.13401 -46.22137 -46.22137 -46.22137
 Alpha  occ. eigenvalues --   -7.17778  -5.15306  -5.15306  -5.15306  -1.62837
 Alpha  occ. eigenvalues --   -1.62837  -1.62837  -1.62474  -1.62474  -0.73553
 Alpha  occ. eigenvalues --   -0.47189  -0.47189  -0.47189
 Alpha virt. eigenvalues --    0.01585   0.02509   0.02509   0.02509   0.07025
 Alpha virt. eigenvalues --    0.07025   0.07025   0.07411   0.10851   0.10851
 Alpha virt. eigenvalues --    0.10851   0.17272   0.18748   0.18748   0.18748
 Alpha virt. eigenvalues --    0.24302   0.25428   0.25428   0.37717   0.37717
 Alpha virt. eigenvalues --    0.37717   0.44642   0.44642   0.44642   0.48895
 Alpha virt. eigenvalues --    0.56391   0.56391   0.56391   0.67177   0.67177
 Alpha virt. eigenvalues --    0.67177   0.72961   0.77574   0.77574   0.85929
 Alpha virt. eigenvalues --    0.85929   0.85929   0.96747   0.96747   0.96747
 Alpha virt. eigenvalues --    1.09620   1.09620   1.09856   1.11483   1.11483
 Alpha virt. eigenvalues --    1.11483   1.19975   1.19975   1.19975   1.32064
 Alpha virt. eigenvalues --    1.32064   1.32064   1.50793   1.74889   1.74889
 Alpha virt. eigenvalues --    1.74889   1.78784   1.78784   1.78784   1.80737
 Alpha virt. eigenvalues --    1.98082   1.98082   1.98082   2.00735   2.00735
 Alpha virt. eigenvalues --    2.16223   2.20614   2.20614   2.28884   2.28884
 Alpha virt. eigenvalues --    2.28884   2.29848   2.34216   2.34216   2.34216
 Alpha virt. eigenvalues --    2.34365   2.34365   2.34365   2.53477   2.53477
 Alpha virt. eigenvalues --    2.53477   2.54909   2.54909   2.54909   2.64829
 Alpha virt. eigenvalues --    2.64829   2.64829   2.66394   2.66394   2.84770
 Alpha virt. eigenvalues --    2.84770   2.84770   2.87715   2.97533   2.97533
 Alpha virt. eigenvalues --    2.97533   3.15773   3.15773   3.32977   3.32977
 Alpha virt. eigenvalues --    3.35895   3.35895   3.35895   3.57086   3.57086
 Alpha virt. eigenvalues --    3.57086   3.64633   3.78664   3.78664   3.78664
 Alpha virt. eigenvalues --    4.01249   4.01249   4.01249   4.30394   5.73682
 Alpha virt. eigenvalues --    5.73682   5.73682   5.94399   5.95062   5.95062
 Alpha virt. eigenvalues --    5.95062   6.00152   6.00152   6.00152   6.08343
 Alpha virt. eigenvalues --    6.23042   6.23042   6.23042   6.25432   6.25432
 Alpha virt. eigenvalues --    6.25432   6.38089   6.38089   6.39851   6.59841
 Alpha virt. eigenvalues --    6.59841   6.59841   6.75774   6.75774   6.94835
 Alpha virt. eigenvalues --    6.94835   6.94835   6.96843   6.96843   6.96843
 Alpha virt. eigenvalues --    7.43729   8.04793   8.04793   8.04793   8.22908
 Alpha virt. eigenvalues --    8.22908   8.22908   8.32109   8.32109   8.35870
 Alpha virt. eigenvalues --    8.42134   8.42134   8.42134   8.77528   8.77528
 Alpha virt. eigenvalues --    8.77528   8.93534   8.93534   8.93534   8.96635
 Alpha virt. eigenvalues --    8.96635   9.18322   9.18322   9.18322   9.24638
 Alpha virt. eigenvalues --    9.24638   9.31744   9.31744   9.31744   9.41149
 Alpha virt. eigenvalues --    9.45168   9.45168   9.45168  10.27977  10.27977
 Alpha virt. eigenvalues --   10.27977  10.79601
          Condensed to atoms (all electrons):
              1          2          3          4          5
     1  Ge  29.882141   0.403144   0.403144   0.403144   0.403144
     2  H    0.403144   0.770098  -0.015640  -0.015640  -0.015640
     3  H    0.403144  -0.015640   0.770098  -0.015640  -0.015640
     4  H    0.403144  -0.015640  -0.015640   0.770098  -0.015640
     5  H    0.403144  -0.015640  -0.015640  -0.015640   0.770098
 Mulliken atomic charges:
              1
     1  Ge   0.505283
     2  H   -0.126321
     3  H   -0.126321
     4  H   -0.126321
     5  H   -0.126321
 Sum of Mulliken atomic charges =   0.00000
 Mulliken charges with hydrogens summed into heavy atoms:
              1
     1  Ge   0.000000
 Sum of Mulliken charges with hydrogens summed into heavy atoms =   0.00000
          Atomic-Atomic Spin Densities.
              1          2          3          4          5
     1  Ge   0.000000   0.000000   0.000000   0.000000   0.000000
     2  H    0.000000   0.000000   0.000000   0.000000   0.000000
     3  H    0.000000   0.000000   0.000000   0.000000   0.000000
     4  H    0.000000   0.000000   0.000000   0.000000   0.000000
     5  H    0.000000   0.000000   0.000000   0.000000   0.000000
 Mulliken atomic spin densities:
              1
     1  Ge   0.000000
     2  H    0.000000
     3  H    0.000000
     4  H    0.000000
     5  H    0.000000
 Sum of Mulliken atomic spin densities =   0.00000
 Electronic spatial extent (au):  <R**2>=             81.2290
 Charge=              0.0000 electrons
 Dipole moment (field-independent basis, Debye):
    X=              0.0000    Y=              0.0000    Z=              0.0000  Tot=              0.0000
 Quadrupole moment (field-independent basis, Debye-Ang):
   XX=            -21.2111   YY=            -21.2111   ZZ=            -21.2111
   XY=              0.0000   XZ=              0.0000   YZ=              0.0000
 Traceless Quadrupole moment (field-independent basis, Debye-Ang):
   XX=              0.0000   YY=              0.0000   ZZ=              0.0000
   XY=              0.0000   XZ=              0.0000   YZ=              0.0000
 Octapole moment (field-independent basis, Debye-Ang**2):
  XXX=              0.0000  YYY=              0.0000  ZZZ=              0.0000  XYY=              0.0000
  XXY=              0.0000  XXZ=              0.0000  XZZ=              0.0000  YZZ=              0.0000
  YYZ=              0.0000  XYZ=             -1.4650
 Hexadecapole moment (field-independent basis, Debye-Ang**3):
 XXXX=            -49.0505 YYYY=            -49.0505 ZZZZ=            -49.0505 XXXY=              0.0000
 XXXZ=              0.0000 YYYX=              0.0000 YYYZ=              0.0000 ZZZX=              0.0000
 ZZZY=              0.0000 XXYY=            -16.1881 XXZZ=            -16.1881 YYZZ=            -16.1881
 XXYZ=              0.0000 YYXZ=              0.0000 ZZXY=              0.0000
 N-N= 4.521760102819D+01 E-N=-7.598551833111D+03  KE= 3.116569996809D+03
                          Isotropic Fermi Contact Couplings
        Atom                 a.u.       MegaHertz       Gauss      10(-4) cm-1
     1  Ge(73)             0.00000       0.00000       0.00000       0.00000
     2  H(1)               0.00000       0.00000       0.00000       0.00000
     3  H(1)               0.00000       0.00000       0.00000       0.00000
     4  H(1)               0.00000       0.00000       0.00000       0.00000
     5  H(1)               0.00000       0.00000       0.00000       0.00000
 --------------------------------------------------------
       Center         ----  Spin Dipole Couplings  ----
                      3XX-RR        3YY-RR        3ZZ-RR
 --------------------------------------------------------
     1   Atom        0.000000      0.000000      0.000000
     2   Atom        0.000000      0.000000      0.000000
     3   Atom        0.000000      0.000000      0.000000
     4   Atom        0.000000      0.000000      0.000000
     5   Atom        0.000000      0.000000      0.000000
 --------------------------------------------------------
                        XY            XZ            YZ
 --------------------------------------------------------
     1   Atom        0.000000      0.000000      0.000000
     2   Atom        0.000000      0.000000      0.000000
     3   Atom        0.000000      0.000000      0.000000
     4   Atom        0.000000      0.000000      0.000000
     5   Atom        0.000000      0.000000      0.000000
 --------------------------------------------------------


 ---------------------------------------------------------------------------------
              Anisotropic Spin Dipole Couplings in Principal Axis System
 ---------------------------------------------------------------------------------

       Atom             a.u.   MegaHertz   Gauss  10(-4) cm-1        Axes

              Baa     0.0000     0.000     0.000     0.000  1.0000  0.0000  0.0000
     1 Ge(73) Bbb     0.0000     0.000     0.000     0.000  0.0000  1.0000  0.0000
              Bcc     0.0000     0.000     0.000     0.000  0.0000  0.0000  1.0000
 
              Baa     0.0000     0.000     0.000     0.000  1.0000  0.0000  0.0000
     2 H(1)   Bbb     0.0000     0.000     0.000     0.000  0.0000  1.0000  0.0000
              Bcc     0.0000     0.000     0.000     0.000  0.0000  0.0000  1.0000
 
              Baa     0.0000     0.000     0.000     0.000  1.0000  0.0000  0.0000
     3 H(1)   Bbb     0.0000     0.000     0.000     0.000  0.0000  1.0000  0.0000
              Bcc     0.0000     0.000     0.000     0.000  0.0000  0.0000  1.0000
 
              Baa     0.0000     0.000     0.000     0.000  1.0000  0.0000  0.0000
     4 H(1)   Bbb     0.0000     0.000     0.000     0.000  0.0000  1.0000  0.0000
              Bcc     0.0000     0.000     0.000     0.000  0.0000  0.0000  1.0000
 
              Baa     0.0000     0.000     0.000     0.000  1.0000  0.0000  0.0000
     5 H(1)   Bbb     0.0000     0.000     0.000     0.000  0.0000  1.0000  0.0000
              Bcc     0.0000     0.000     0.000     0.000  0.0000  0.0000  1.0000
 

 ---------------------------------------------------------------------------------


 Test job not archived.
 1\1\GINC-C31\FOpt\ROCCSD(T)-RW\Gen\Ge1H4\GPETERSSON\23-Aug-2012\1\\# R
 OCCSD(T,RW) Gen GFinput Int=NoBasisTransform Int(Grid=Ultrafine) IOp(3
 /32=2,5/6=10,8/11=1,9/33=1) Maxdisk=128GB Opt=(Tight,Z-Matrix)\\GeH4\\
 0,1\Ge\H,1,Rgeh\H,1,Rgeh,2,109.47122063\H,1,Rgeh,2,109.47122063,3,120.
 ,0\H,1,Rgeh,2,109.47122063,3,240.,0\\Rgeh=1.54097082\\Version=EM64L-G0
 9RevA.02\State=1-A1\HF=-2077.7217486\MP2=-2077.8696229\MP3=-2077.89122
 62\PUHF=-2077.7217486\PMP2-0=-2077.8696229\MP4SDQ=-2077.8951908\CCSD=-
 2077.896115\CCSD(T)=-2077.9002086\RMSD=2.418e-11\RMSF=4.807e-06\PG=TD 
 [O(Ge1),4C3(H1)]\\@


 ARTHROPOD AXIOM: A COMPUTER SYSTEM IS LIKE A SPIDER'S WEB.
 YOU CANNOT PULL ON ONE END WITHOUT MAKING THE OTHER END MOVE.
     -- GREG WETTSTEIN
 Job cpu time:  0 days  7 hours 15 minutes 29.4 seconds.
 File lengths (MBytes):  RWF=    438 Int=      0 D2E=      0 Chk=      5 Scr=      1
 Normal termination of Gaussian 09 at Thu Aug 23 00:18:32 2012.
