 Entering Gaussian System, Link 0=g09
 AtFile(1): 7ZaP-NR.gbs
 Initial command:
 /share/apps/gaussian/g09root/g09/l1.exe /localscratch/737881/Gau-1387.inp -scrdir=/localscratch/737881/
 Entering Link 1 = /share/apps/gaussian/g09root/g09/l1.exe PID=      1388.
  
 Copyright (c) 1988,1990,1992,1993,1995,1998,2003,2009, Gaussian, Inc.
                  All Rights Reserved.
  
 This is part of the Gaussian(R) 09 program.  It is based on
 the Gaussian(R) 03 system (copyright 2003, Gaussian, Inc.),
 the Gaussian(R) 98 system (copyright 1998, Gaussian, Inc.),
 the Gaussian(R) 94 system (copyright 1995, Gaussian, Inc.),
 the Gaussian 92(TM) system (copyright 1992, Gaussian, Inc.),
 the Gaussian 90(TM) system (copyright 1990, Gaussian, Inc.),
 the Gaussian 88(TM) system (copyright 1988, Gaussian, Inc.),
 the Gaussian 86(TM) system (copyright 1986, Carnegie Mellon
 University), and the Gaussian 82(TM) system (copyright 1983,
 Carnegie Mellon University). Gaussian is a federally registered
 trademark of Gaussian, Inc.
  
 This software contains proprietary and confidential information,
 including trade secrets, belonging to Gaussian, Inc.
  
 This software is provided under written license and may be
 used, copied, transmitted, or stored only in accord with that
 written license.
  
 The following legend is applicable only to US Government
 contracts under FAR:
  
                    RESTRICTED RIGHTS LEGEND
  
 Use, reproduction and disclosure by the US Government is
 subject to restrictions as set forth in subparagraphs (a)
 and (c) of the Commercial Computer Software - Restricted
 Rights clause in FAR 52.227-19.
  
 Gaussian, Inc.
 340 Quinnipiac St., Bldg. 40, Wallingford CT 06492
  
  
 ---------------------------------------------------------------
 Warning -- This program may not be used in any manner that
 competes with the business of Gaussian, Inc. or will provide
 assistance to any competitor of Gaussian, Inc.  The licensee
 of this program is prohibited from giving any competitor of
 Gaussian, Inc. access to this program.  By using this program,
 the user acknowledges that Gaussian, Inc. is engaged in the
 business of creating and licensing software in the field of
 computational chemistry and represents and warrants to the
 licensee that it is not a competitor of Gaussian, Inc. and that
 it will not use this program in any manner prohibited above.
 ---------------------------------------------------------------
  

 Cite this work as:
 Gaussian 09, Revision A.02,
 M. J. Frisch, G. W. Trucks, H. B. Schlegel, G. E. Scuseria, 
 M. A. Robb, J. R. Cheeseman, G. Scalmani, V. Barone, B. Mennucci, 
 G. A. Petersson, H. Nakatsuji, M. Caricato, X. Li, H. P. Hratchian, 
 A. F. Izmaylov, J. Bloino, G. Zheng, J. L. Sonnenberg, M. Hada, 
 M. Ehara, K. Toyota, R. Fukuda, J. Hasegawa, M. Ishida, T. Nakajima, 
 Y. Honda, O. Kitao, H. Nakai, T. Vreven, J. A. Montgomery, Jr., 
 J. E. Peralta, F. Ogliaro, M. Bearpark, J. J. Heyd, E. Brothers, 
 K. N. Kudin, V. N. Staroverov, R. Kobayashi, J. Normand, 
 K. Raghavachari, A. Rendell, J. C. Burant, S. S. Iyengar, J. Tomasi, 
 M. Cossi, N. Rega, J. M. Millam, M. Klene, J. E. Knox, J. B. Cross, 
 V. Bakken, C. Adamo, J. Jaramillo, R. Gomperts, R. E. Stratmann, 
 O. Yazyev, A. J. Austin, R. Cammi, C. Pomelli, J. W. Ochterski, 
 R. L. Martin, K. Morokuma, V. G. Zakrzewski, G. A. Voth, 
 P. Salvador, J. J. Dannenberg, S. Dapprich, A. D. Daniels, 
 O. Farkas, J. B. Foresman, J. V. Ortiz, J. Cioslowski, 
 and D. J. Fox, Gaussian, Inc., Wallingford CT, 2009.
 
 ******************************************
 Gaussian 09:  EM64L-G09RevA.02 11-Jun-2009
                23-Aug-2012 
 ******************************************
 % Mem=12GB
 % Nproc=8
 Will use up to    8 processors via shared memory.
 ----------------------------------------------------------------------
 # ROMP2(RW) Gen GFinput Int=NoBasisTransform Int(Grid=Ultrafine) IOp(3
 /32=2,5/6=10,8/11=1,9/33=1) Maxdisk=128GB CBSextrapolate(Nmin=25,MinPo
 p)
 ----------------------------------------------------------------------
 1/38=1/1;
 2/12=2,17=6,18=5,40=1/2;
 3/5=7,11=2,16=1,24=10,25=1,30=1,32=2,60=-1,75=-5,116=101/1,2,3;
 4//1;
 5/5=2,6=10,38=5/2;
 8/5=-1,10=91,11=1/1;
 9/16=-3,33=1,75=2,81=25,83=4/6,4;
 6/7=2,8=2,9=2,10=2/1;
 99/5=1,9=1/99;
 ----
 GeH4
 ----
 Symbolic Z-matrix:
 Charge =  0 Multiplicity = 1
 Ge
 H                    1    Rgeh
 H                    1    Rgeh     2    Ahgeh
 H                    1    Rgeh     2    Ahgeh    3     120.     0
 H                    1    Rgeh     2    Ahgeh    3     240.     0
       Variables:
  Rgeh                  1.54097                  
  Ahgeh               109.47122                  
 
     3 tetrahedral angles replaced.
    3 tetrahedral angles replaced.
                          Input orientation:                          
 ---------------------------------------------------------------------
 Center     Atomic      Atomic             Coordinates (Angstroms)
 Number     Number       Type             X           Y           Z
 ---------------------------------------------------------------------
      1         32           0        0.000000    0.000000    0.000000
      2          1           0        0.000000    0.000000    1.540971
      3          1           0        1.452841    0.000000   -0.513657
      4          1           0       -0.726421   -1.258197   -0.513657
      5          1           0       -0.726421    1.258197   -0.513657
 ---------------------------------------------------------------------
                    Distance matrix (angstroms):
                    1          2          3          4          5
     1  Ge   0.000000
     2  H    1.540971   0.000000
     3  H    1.540971   2.516395   0.000000
     4  H    1.540971   2.516395   2.516395   0.000000
     5  H    1.540971   2.516395   2.516395   2.516395   0.000000
 Stoichiometry    GeH4
 Framework group  TD[O(Ge),4C3(H)]
 Deg. of freedom     1
 Full point group                 TD      NOp  24
 Largest Abelian subgroup         D2      NOp   4
 Largest concise Abelian subgroup D2      NOp   4
                         Standard orientation:                         
 ---------------------------------------------------------------------
 Center     Atomic      Atomic             Coordinates (Angstroms)
 Number     Number       Type             X           Y           Z
 ---------------------------------------------------------------------
      1         32           0        0.000000    0.000000    0.000000
      2          1           0        0.889680    0.889680    0.889680
      3          1           0       -0.889680   -0.889680    0.889680
      4          1           0       -0.889680    0.889680   -0.889680
      5          1           0        0.889680   -0.889680   -0.889680
 ---------------------------------------------------------------------
 Rotational constants (GHZ):     79.1907563     79.1907563     79.1907563
 General basis read from cards:  (5D, 7F)
 AO basis set in the form of general basis input (Overlap normalization):
      1 0
 S  19 1.00       0.000000000000
      0.8707191310D+08  0.3005073544D-06
      0.1669825550D+08  0.1818533280D-05
      0.3859525630D+07  0.1031028591D-04
      0.1045593670D+07  0.4698281939D-04
      0.3239183580D+06  0.1831549625D-03
      0.1122827040D+06  0.6240716948D-03
      0.4273091860D+05  0.1905561269D-02
      0.1756143400D+05  0.5309661789D-02
      0.7684117190D+04  0.1367281523D-01
      0.3536440080D+04  0.3269316489D-01
      0.1694321570D+04  0.7202760736D-01
      0.8377239370D+03  0.1425396431D+00
      0.4243282900D+03  0.2396440051D+00
      0.2188387180D+03  0.3063686411D+00
      0.1143141340D+03  0.2417026980D+00
      0.6021043300D+02  0.8411702340D-01
      0.3184891800D+02  0.7645424842D-02
      0.1685539800D+02  0.9104348067D-03
      0.8891866000D+01  0.1016434407D-04
 S  16 1.00       0.000000000000
      0.4273091860D+05 -0.1234497702D-05
      0.1756143400D+05 -0.9672319890D-05
      0.7684117190D+04 -0.5721849199D-04
      0.3536440080D+04 -0.3191324047D-03
      0.1694321570D+04 -0.1454621765D-02
      0.8377239370D+03 -0.6059369774D-02
      0.4243282900D+03 -0.2080360669D-01
      0.2188387180D+03 -0.5661095074D-01
      0.1143141340D+03 -0.8913728599D-01
      0.6021043300D+02 -0.1414558729D-02
      0.3184891800D+02  0.3098914220D+00
      0.1685539800D+02  0.5146477470D+00
      0.8891866000D+01  0.2594108454D+00
      0.4657631000D+01  0.3298678549D-01
      0.2412055000D+01  0.1428561979D-02
      0.1228901000D+01 -0.7601803025D-03
 P  17 1.00       0.000000000000
      0.1174430380D+06  0.2929071931D-05
      0.3211270170D+05  0.2220745741D-04
      0.1035622780D+05  0.1421432019D-03
      0.3829502370D+04  0.7050720845D-03
      0.1583398750D+04  0.2866935361D-02
      0.7159708880D+03  0.9757952798D-02
      0.3471957940D+03  0.2832181501D-01
      0.1775087620D+03  0.7059822516D-01
      0.9427731900D+02  0.1477216584D+00
      0.5135757400D+02  0.2483888844D+00
      0.2838439400D+02  0.3145594241D+00
      0.1576918100D+02  0.2500337918D+00
      0.8737484000D+01  0.9835996145D-01
      0.4796560000D+01  0.1532905896D-01
      0.2594129000D+01  0.1274961251D-02
      0.1375515000D+01  0.1810616098D-03
      0.7120240000D+00  0.1661202951D-04
 S  12 1.00       0.000000000000
      0.4243282900D+03  0.1389016522D-03
      0.2188387180D+03  0.7331101976D-03
      0.1143141340D+03  0.2981475222D-02
      0.6021043300D+02  0.1618845131D-02
      0.3184891800D+02 -0.3615745898D-01
      0.1685539800D+02 -0.1749707854D+00
      0.8891866000D+01 -0.1335354204D+00
      0.4657631000D+01  0.2842452682D+00
      0.2412055000D+01  0.5827476232D+00
      0.1228901000D+01  0.3278288075D+00
      0.6124070000D+00  0.3366884550D-01
      0.2964650000D+00  0.1474906874D-02
 P  15 1.00       0.000000000000
      0.1583398750D+04 -0.4468798821D-05
      0.7159708880D+03 -0.3649351329D-04
      0.3471957940D+03 -0.2426978284D-03
      0.1775087620D+03 -0.1198011430D-02
      0.9427731900D+02 -0.4469180820D-02
      0.5135757400D+02 -0.1165375033D-01
      0.2838439400D+02 -0.2173662396D-01
      0.1576918100D+02  0.1089098614D-02
      0.8737484000D+01  0.1303270680D+00
      0.4796560000D+01  0.3100348416D+00
      0.2594129000D+01  0.3789054945D+00
      0.1375515000D+01  0.2418316939D+00
      0.7120240000D+00  0.5869325143D-01
      0.3584120000D+00  0.4075599652D-02
      0.1747820000D+00  0.5644374887D-03
 D  16 1.00       0.000000000000
      0.3716671100D+04  0.6098143612D-05
      0.1173615130D+04  0.6126497374D-04
      0.4533829740D+03  0.4079668873D-03
      0.2020128610D+03  0.1937407484D-02
      0.9921297400D+02  0.7211822196D-02
      0.5192319600D+02  0.2130058403D-01
      0.2826466300D+02  0.5196325926D-01
      0.1573951100D+02  0.1083962960D+00
      0.8867485000D+01  0.1818506138D+00
      0.5016733000D+01  0.2392712193D+00
      0.2833262000D+01  0.2570432510D+00
      0.1587258000D+01  0.2269919798D+00
      0.8743800000D+00  0.1516835634D+00
      0.4674350000D+00  0.6547945659D-01
      0.2377920000D+00  0.1347483821D-01
      0.1119320000D+00  0.1024501099D-02
 S  11 1.00       0.000000000000
      0.6021043300D+02 -0.3974529326D-04
      0.3184891800D+02  0.3878706927D-03
      0.1685539800D+02  0.3170552426D-02
      0.8891866000D+01  0.2826985418D-02
      0.4657631000D+01 -0.1262358019D-01
      0.2412055000D+01 -0.6431246080D-01
      0.1228901000D+01 -0.1725622668D+00
      0.6124070000D+00  0.6664773304D-02
      0.2964650000D+00  0.4219025727D+00
      0.1382830000D+00  0.5484238637D+00
      0.6154800000D-01  0.1787391193D+00
 S   1 1.00       0.000000000000
      0.3012465152D-01  0.1000000000D+01
 P  10 1.00       0.000000000000
      0.1576918100D+02 -0.1846393577D-03
      0.8737484000D+01 -0.2104947974D-02
      0.4796560000D+01 -0.5120162132D-02
      0.2594129000D+01 -0.1186971009D-01
      0.1375515000D+01 -0.2083042828D-01
      0.7120240000D+00  0.4547833522D-01
      0.3584120000D+00  0.2291199505D+00
      0.1747820000D+00  0.4050340853D+00
      0.8225900000D-01  0.3623290207D+00
      0.3721000000D-01  0.1025823700D+00
 P   1 1.00       0.000000000000
      0.2107680843D-01  0.1000000000D+01
 S   1 1.00       0.000000000000
      0.3155223000D+01  0.1000000000D+01
 S   1 1.00       0.000000000000
      0.1758949000D+01  0.1000000000D+01
 S   1 1.00       0.000000000000
      0.9805650000D+00  0.1000000000D+01
 S   1 1.00       0.000000000000
      0.5466370000D+00  0.1000000000D+01
 S   1 1.00       0.000000000000
      0.3047350000D+00  0.1000000000D+01
 S   1 1.00       0.000000000000
      0.1698810000D+00  0.1000000000D+01
 P   1 1.00       0.000000000000
      0.1625443000D+01  0.1000000000D+01
 P   1 1.00       0.000000000000
      0.9900980000D+00  0.1000000000D+01
 P   1 1.00       0.000000000000
      0.6030930000D+00  0.1000000000D+01
 P   1 1.00       0.000000000000
      0.3673590000D+00  0.1000000000D+01
 P   1 1.00       0.000000000000
      0.2237670000D+00  0.1000000000D+01
 P   1 1.00       0.000000000000
      0.1363020000D+00  0.1000000000D+01
 D   1 1.00       0.000000000000
      0.1728789000D+01  0.1000000000D+01
 D   1 1.00       0.000000000000
      0.9563500000D+00  0.1000000000D+01
 D   1 1.00       0.000000000000
      0.5290440000D+00  0.1000000000D+01
 D   1 1.00       0.000000000000
      0.2926630000D+00  0.1000000000D+01
 D   1 1.00       0.000000000000
      0.1618980000D+00  0.1000000000D+01
 D   1 1.00       0.000000000000
      0.8956100000D-01  0.1000000000D+01
 F   1 1.00       0.000000000000
      0.1912526000D+01  0.1000000000D+01
 F   1 1.00       0.000000000000
      0.1021803000D+01  0.1000000000D+01
 F   1 1.00       0.000000000000
      0.5459180000D+00  0.1000000000D+01
 F   1 1.00       0.000000000000
      0.2916670000D+00  0.1000000000D+01
 F   1 1.00       0.000000000000
      0.1558280000D+00  0.1000000000D+01
 G   1 1.00       0.000000000000
      0.1494392000D+01  0.1000000000D+01
 G   1 1.00       0.000000000000
      0.8215300000D+00  0.1000000000D+01
 G   1 1.00       0.000000000000
      0.4516290000D+00  0.1000000000D+01
 G   1 1.00       0.000000000000
      0.2482790000D+00  0.1000000000D+01
 H   1 1.00       0.000000000000
      0.9176190000D+00  0.1000000000D+01
 H   1 1.00       0.000000000000
      0.5455350000D+00  0.1000000000D+01
 H   1 1.00       0.000000000000
      0.3243270000D+00  0.1000000000D+01
 I   1 1.00       0.000000000000
      0.9041630000D+00  0.1000000000D+01
 I   1 1.00       0.000000000000
      0.4871810000D+00  0.1000000000D+01
 J   1 1.00       0.000000000000
      0.7559568828D+00  0.1000000000D+01
 ****
      2 0
 S  12 1.00       0.000000000000
      0.5381780160D+04  0.1012686299D-04
      0.9139887390D+03  0.7169476206D-04
      0.2020220330D+03  0.4090344007D-03
      0.5529293400D+02  0.1775146749D-02
      0.1792053700D+02  0.6303908266D-02
      0.6611010000D+01  0.1916649659D-01
      0.2682085000D+01  0.5121491647D-01
      0.1162104000D+01  0.1213171629D+00
      0.5249190000D+00  0.2420085149D+00
      0.2425210000D+00  0.3592427208D+00
      0.1130260000D+00  0.2831494728D+00
      0.5267100000D-01  0.6030267546D-01
 S   1 1.00       0.000000000000
      0.2553700000D-01  0.1000000000D+01
 S   1 1.00       0.000000000000
      0.9448000000D-02  0.1000000000D+01
 S   1 1.00       0.000000000000
      0.3873663000D+01  0.1000000000D+01
 S   1 1.00       0.000000000000
      0.1681599000D+01  0.1000000000D+01
 S   1 1.00       0.000000000000
      0.7300000000D+00  0.1000000000D+01
 S   1 1.00       0.000000000000
      0.3169010000D+00  0.1000000000D+01
 S   1 1.00       0.000000000000
      0.1375700000D+00  0.1000000000D+01
 S   1 1.00       0.000000000000
      0.5972100000D-01  0.1000000000D+01
 P   1 1.00       0.000000000000
      0.7901081000D+01  0.1000000000D+01
 P   1 1.00       0.000000000000
      0.3743343000D+01  0.1000000000D+01
 P   1 1.00       0.000000000000
      0.1773506000D+01  0.1000000000D+01
 P   1 1.00       0.000000000000
      0.8402450000D+00  0.1000000000D+01
 P   1 1.00       0.000000000000
      0.3980880000D+00  0.1000000000D+01
 P   1 1.00       0.000000000000
      0.1886040000D+00  0.1000000000D+01
 D   1 1.00       0.000000000000
      0.6793936000D+01  0.1000000000D+01
 D   1 1.00       0.000000000000
      0.3278394000D+01  0.1000000000D+01
 D   1 1.00       0.000000000000
      0.1581979000D+01  0.1000000000D+01
 D   1 1.00       0.000000000000
      0.7633790000D+00  0.1000000000D+01
 D   1 1.00       0.000000000000
      0.3683670000D+00  0.1000000000D+01
 F   1 1.00       0.000000000000
      0.5541324000D+01  0.1000000000D+01
 F   1 1.00       0.000000000000
      0.2486224000D+01  0.1000000000D+01
 F   1 1.00       0.000000000000
      0.1115494000D+01  0.1000000000D+01
 F   1 1.00       0.000000000000
      0.5004880000D+00  0.1000000000D+01
 G   1 1.00       0.000000000000
      0.5708716000D+01  0.1000000000D+01
 G   1 1.00       0.000000000000
      0.2571411000D+01  0.1000000000D+01
 G   1 1.00       0.000000000000
      0.1158256000D+01  0.1000000000D+01
 H   1 1.00       0.000000000000
      0.3367163000D+01  0.1000000000D+01
 H   1 1.00       0.000000000000
      0.1196260000D+01  0.1000000000D+01
 I   1 1.00       0.000000000000
      0.3091020597D+01  0.1000000000D+01
 ****
      3 0
 S  12 1.00       0.000000000000
      0.5381780160D+04  0.1012686299D-04
      0.9139887390D+03  0.7169476206D-04
      0.2020220330D+03  0.4090344007D-03
      0.5529293400D+02  0.1775146749D-02
      0.1792053700D+02  0.6303908266D-02
      0.6611010000D+01  0.1916649659D-01
      0.2682085000D+01  0.5121491647D-01
      0.1162104000D+01  0.1213171629D+00
      0.5249190000D+00  0.2420085149D+00
      0.2425210000D+00  0.3592427208D+00
      0.1130260000D+00  0.2831494728D+00
      0.5267100000D-01  0.6030267546D-01
 S   1 1.00       0.000000000000
      0.2553700000D-01  0.1000000000D+01
 S   1 1.00       0.000000000000
      0.9448000000D-02  0.1000000000D+01
 S   1 1.00       0.000000000000
      0.3873663000D+01  0.1000000000D+01
 S   1 1.00       0.000000000000
      0.1681599000D+01  0.1000000000D+01
 S   1 1.00       0.000000000000
      0.7300000000D+00  0.1000000000D+01
 S   1 1.00       0.000000000000
      0.3169010000D+00  0.1000000000D+01
 S   1 1.00       0.000000000000
      0.1375700000D+00  0.1000000000D+01
 S   1 1.00       0.000000000000
      0.5972100000D-01  0.1000000000D+01
 P   1 1.00       0.000000000000
      0.7901081000D+01  0.1000000000D+01
 P   1 1.00       0.000000000000
      0.3743343000D+01  0.1000000000D+01
 P   1 1.00       0.000000000000
      0.1773506000D+01  0.1000000000D+01
 P   1 1.00       0.000000000000
      0.8402450000D+00  0.1000000000D+01
 P   1 1.00       0.000000000000
      0.3980880000D+00  0.1000000000D+01
 P   1 1.00       0.000000000000
      0.1886040000D+00  0.1000000000D+01
 D   1 1.00       0.000000000000
      0.6793936000D+01  0.1000000000D+01
 D   1 1.00       0.000000000000
      0.3278394000D+01  0.1000000000D+01
 D   1 1.00       0.000000000000
      0.1581979000D+01  0.1000000000D+01
 D   1 1.00       0.000000000000
      0.7633790000D+00  0.1000000000D+01
 D   1 1.00       0.000000000000
      0.3683670000D+00  0.1000000000D+01
 F   1 1.00       0.000000000000
      0.5541324000D+01  0.1000000000D+01
 F   1 1.00       0.000000000000
      0.2486224000D+01  0.1000000000D+01
 F   1 1.00       0.000000000000
      0.1115494000D+01  0.1000000000D+01
 F   1 1.00       0.000000000000
      0.5004880000D+00  0.1000000000D+01
 G   1 1.00       0.000000000000
      0.5708716000D+01  0.1000000000D+01
 G   1 1.00       0.000000000000
      0.2571411000D+01  0.1000000000D+01
 G   1 1.00       0.000000000000
      0.1158256000D+01  0.1000000000D+01
 H   1 1.00       0.000000000000
      0.3367163000D+01  0.1000000000D+01
 H   1 1.00       0.000000000000
      0.1196260000D+01  0.1000000000D+01
 I   1 1.00       0.000000000000
      0.3091020597D+01  0.1000000000D+01
 ****
      4 0
 S  12 1.00       0.000000000000
      0.5381780160D+04  0.1012686299D-04
      0.9139887390D+03  0.7169476206D-04
      0.2020220330D+03  0.4090344007D-03
      0.5529293400D+02  0.1775146749D-02
      0.1792053700D+02  0.6303908266D-02
      0.6611010000D+01  0.1916649659D-01
      0.2682085000D+01  0.5121491647D-01
      0.1162104000D+01  0.1213171629D+00
      0.5249190000D+00  0.2420085149D+00
      0.2425210000D+00  0.3592427208D+00
      0.1130260000D+00  0.2831494728D+00
      0.5267100000D-01  0.6030267546D-01
 S   1 1.00       0.000000000000
      0.2553700000D-01  0.1000000000D+01
 S   1 1.00       0.000000000000
      0.9448000000D-02  0.1000000000D+01
 S   1 1.00       0.000000000000
      0.3873663000D+01  0.1000000000D+01
 S   1 1.00       0.000000000000
      0.1681599000D+01  0.1000000000D+01
 S   1 1.00       0.000000000000
      0.7300000000D+00  0.1000000000D+01
 S   1 1.00       0.000000000000
      0.3169010000D+00  0.1000000000D+01
 S   1 1.00       0.000000000000
      0.1375700000D+00  0.1000000000D+01
 S   1 1.00       0.000000000000
      0.5972100000D-01  0.1000000000D+01
 P   1 1.00       0.000000000000
      0.7901081000D+01  0.1000000000D+01
 P   1 1.00       0.000000000000
      0.3743343000D+01  0.1000000000D+01
 P   1 1.00       0.000000000000
      0.1773506000D+01  0.1000000000D+01
 P   1 1.00       0.000000000000
      0.8402450000D+00  0.1000000000D+01
 P   1 1.00       0.000000000000
      0.3980880000D+00  0.1000000000D+01
 P   1 1.00       0.000000000000
      0.1886040000D+00  0.1000000000D+01
 D   1 1.00       0.000000000000
      0.6793936000D+01  0.1000000000D+01
 D   1 1.00       0.000000000000
      0.3278394000D+01  0.1000000000D+01
 D   1 1.00       0.000000000000
      0.1581979000D+01  0.1000000000D+01
 D   1 1.00       0.000000000000
      0.7633790000D+00  0.1000000000D+01
 D   1 1.00       0.000000000000
      0.3683670000D+00  0.1000000000D+01
 F   1 1.00       0.000000000000
      0.5541324000D+01  0.1000000000D+01
 F   1 1.00       0.000000000000
      0.2486224000D+01  0.1000000000D+01
 F   1 1.00       0.000000000000
      0.1115494000D+01  0.1000000000D+01
 F   1 1.00       0.000000000000
      0.5004880000D+00  0.1000000000D+01
 G   1 1.00       0.000000000000
      0.5708716000D+01  0.1000000000D+01
 G   1 1.00       0.000000000000
      0.2571411000D+01  0.1000000000D+01
 G   1 1.00       0.000000000000
      0.1158256000D+01  0.1000000000D+01
 H   1 1.00       0.000000000000
      0.3367163000D+01  0.1000000000D+01
 H   1 1.00       0.000000000000
      0.1196260000D+01  0.1000000000D+01
 I   1 1.00       0.000000000000
      0.3091020597D+01  0.1000000000D+01
 ****
      5 0
 S  12 1.00       0.000000000000
      0.5381780160D+04  0.1012686299D-04
      0.9139887390D+03  0.7169476206D-04
      0.2020220330D+03  0.4090344007D-03
      0.5529293400D+02  0.1775146749D-02
      0.1792053700D+02  0.6303908266D-02
      0.6611010000D+01  0.1916649659D-01
      0.2682085000D+01  0.5121491647D-01
      0.1162104000D+01  0.1213171629D+00
      0.5249190000D+00  0.2420085149D+00
      0.2425210000D+00  0.3592427208D+00
      0.1130260000D+00  0.2831494728D+00
      0.5267100000D-01  0.6030267546D-01
 S   1 1.00       0.000000000000
      0.2553700000D-01  0.1000000000D+01
 S   1 1.00       0.000000000000
      0.9448000000D-02  0.1000000000D+01
 S   1 1.00       0.000000000000
      0.3873663000D+01  0.1000000000D+01
 S   1 1.00       0.000000000000
      0.1681599000D+01  0.1000000000D+01
 S   1 1.00       0.000000000000
      0.7300000000D+00  0.1000000000D+01
 S   1 1.00       0.000000000000
      0.3169010000D+00  0.1000000000D+01
 S   1 1.00       0.000000000000
      0.1375700000D+00  0.1000000000D+01
 S   1 1.00       0.000000000000
      0.5972100000D-01  0.1000000000D+01
 P   1 1.00       0.000000000000
      0.7901081000D+01  0.1000000000D+01
 P   1 1.00       0.000000000000
      0.3743343000D+01  0.1000000000D+01
 P   1 1.00       0.000000000000
      0.1773506000D+01  0.1000000000D+01
 P   1 1.00       0.000000000000
      0.8402450000D+00  0.1000000000D+01
 P   1 1.00       0.000000000000
      0.3980880000D+00  0.1000000000D+01
 P   1 1.00       0.000000000000
      0.1886040000D+00  0.1000000000D+01
 D   1 1.00       0.000000000000
      0.6793936000D+01  0.1000000000D+01
 D   1 1.00       0.000000000000
      0.3278394000D+01  0.1000000000D+01
 D   1 1.00       0.000000000000
      0.1581979000D+01  0.1000000000D+01
 D   1 1.00       0.000000000000
      0.7633790000D+00  0.1000000000D+01
 D   1 1.00       0.000000000000
      0.3683670000D+00  0.1000000000D+01
 F   1 1.00       0.000000000000
      0.5541324000D+01  0.1000000000D+01
 F   1 1.00       0.000000000000
      0.2486224000D+01  0.1000000000D+01
 F   1 1.00       0.000000000000
      0.1115494000D+01  0.1000000000D+01
 F   1 1.00       0.000000000000
      0.5004880000D+00  0.1000000000D+01
 G   1 1.00       0.000000000000
      0.5708716000D+01  0.1000000000D+01
 G   1 1.00       0.000000000000
      0.2571411000D+01  0.1000000000D+01
 G   1 1.00       0.000000000000
      0.1158256000D+01  0.1000000000D+01
 H   1 1.00       0.000000000000
      0.3367163000D+01  0.1000000000D+01
 H   1 1.00       0.000000000000
      0.1196260000D+01  0.1000000000D+01
 I   1 1.00       0.000000000000
      0.3091020597D+01  0.1000000000D+01
 ****

 There are   201 symmetry adapted basis functions of A   symmetry.
 There are   196 symmetry adapted basis functions of B1  symmetry.
 There are   196 symmetry adapted basis functions of B2  symmetry.
 There are   196 symmetry adapted basis functions of B3  symmetry.
 Integral buffers will be    131072 words long.
 Raffenetti 2 integral format.
 Two-electron integral symmetry is turned on.
   789 basis functions,  1501 primitive gaussians,  1196 cartesian basis functions
    18 alpha electrons       18 beta electrons
       nuclear repulsion energy        45.2176011460 Hartrees.
 NAtoms=    5 NActive=    5 NUniq=    2 SFac= 3.00D+00 NAtFMM=   80 NAOKFM=F Big=F
 One-electron integrals computed using PRISM.
 NBasis=   789 RedAO= F  NBF=   201   196   196   196
 NBsUse=   789 1.00D-04 NBFU=   201   196   196   196
 Harris functional with IExCor=  205 diagonalized for initial guess.
 ExpMin= 9.45D-03 ExpMax= 8.71D+07 ExpMxC= 7.68D+03 IAcc=3 IRadAn=         5 AccDes= 0.00D+00
 HarFok:  IExCor=  205 AccDes= 0.00D+00 IRadAn=         5 IDoV= 1
 ScaDFX=  1.000000  1.000000  1.000000  1.000000
 FoFCou: FMM=F IPFlag=           0 FMFlag=      100000 FMFlg1=           0
         NFxFlg=           0 DoJE=T BraDBF=F KetDBF=T FulRan=T
         Omega=  0.000000  0.000000  1.000000  0.000000  0.000000 ICntrl=     500 IOpCl=  0
         NMat0=    1 NMatS0=    1 NMatT0=    0 NMatD0=    1 NMtDS0=    0 NMtDT0=    0
         I1Cent=           4 NGrid=           0.
 Petite list used in FoFCou.
 Initial guess orbital symmetries:
       Occupied  (A1) (A1) (T2) (T2) (T2) (A1) (T2) (T2) (T2) (T2)
                 (T2) (T2) (E) (E) (A1) (T2) (T2) (T2)
       Virtual   (A1) (T2) (T2) (T2) (T2) (T2) (T2) (A1) (T2) (T2)
                 (T2) (E) (E) (T2) (T2) (T2) (A1) (A1) (T2) (T2)
                 (T2) (A1) (T2) (T2) (T2) (T2) (T2) (T2) (T1) (T1)
                 (T1) (A1) (E) (E) (T2) (T2) (T2) (T2) (T2) (T2)
                 (A1) (E) (E) (T1) (T1) (T1) (T2) (T2) (T2) (A1)
                 (T2) (T2) (T2) (T2) (T2) (T2) (A1) (T1) (T1) (T1)
                 (T2) (T2) (T2) (E) (E) (E) (E) (T2) (T2) (T2)
                 (A1) (T2) (T2) (T2) (T1) (T1) (T1) (A1) (T1) (T1)
                 (T1) (E) (E) (T2) (T2) (T2) (T2) (T2) (T2) (T2)
                 (T2) (T2) (T1) (T1) (T1) (T2) (T2) (T2) (A1) (A1)
                 (E) (E) (T2) (T2) (T2) (T2) (T2) (T2) (T1) (T1)
                 (T1) (A1) (E) (E) (T2) (T2) (T2) (A2) (T2) (T2)
                 (T2) (E) (E) (T1) (T1) (T1) (T1) (T1) (T1) (A1)
                 (T2) (T2) (T2) (E) (E) (T2) (T2) (T2) (A1) (T2)
                 (T2) (T2) (T1) (T1) (T1) (E) (E) (T2) (T2) (T2)
                 (T1) (T1) (T1) (A1) (T2) (T2) (T2) (T2) (T2) (T2)
                 (E) (E) (T2) (T2) (T2) (A1) (T1) (T1) (T1) (A1)
                 (T1) (T1) (T1) (T2) (T2) (T2) (E) (E) (T2) (T2)
                 (T2) (T2) (T2) (T2) (A1) (T1) (T1) (T1) (E) (E)
                 (T2) (T2) (T2) (T2) (T2) (T2) (T1) (T1) (T1) (E)
                 (E) (A2) (T2) (T2) (T2) (A1) (T1) (T1) (T1) (T2)
                 (T2) (T2) (E) (E) (A1) (T1) (T1) (T1) (T2) (T2)
                 (T2) (T2) (T2) (T2) (E) (E) (T1) (T1) (T1) (T2)
                 (T2) (T2) (T2) (T2) (T2) (A1) (E) (E) (T2) (T2)
                 (T2) (T1) (T1) (T1) (E) (E) (T2) (T2) (T2) (A1)
                 (T1) (T1) (T1) (A1) (T2) (T2) (T2) (E) (E) (A2)
                 (T1) (T1) (T1) (T2) (T2) (T2) (E) (E) (T2) (T2)
                 (T2) (A1) (T1) (T1) (T1) (T2) (T2) (T2) (E) (E)
                 (A1) (T2) (T2) (T2) (T2) (T2) (T2) (T1) (T1) (T1)
                 (T1) (T1) (T1) (T2) (T2) (T2) (T1) (T1) (T1) (T2)
                 (T2) (T2) (A1) (E) (E) (T2) (T2) (T2) (T1) (T1)
                 (T1) (A2) (A1) (E) (E) (T2) (T2) (T2) (A1) (E)
                 (E) (T1) (T1) (T1) (T2) (T2) (T2) (T1) (T1) (T1)
                 (A1) (T2) (T2) (T2) (T1) (T1) (T1) (T2) (T2) (T2)
                 (A2) (T2) (T2) (T2) (E) (E) (T1) (T1) (T1) (T2)
                 (T2) (T2) (E) (E) (T2) (T2) (T2) (T1) (T1) (T1)
                 (E) (E) (A1) (T1) (T1) (T1) (T2) (T2) (T2) (E)
                 (E) (E) (E) (T2) (T2) (T2) (T2) (T2) (T2) (T1)
                 (T1) (T1) (T2) (T2) (T2) (T1) (T1) (T1) (T2) (T2)
                 (T2) (T1) (T1) (T1) (E) (E) (A1) (T2) (T2) (T2)
                 (E) (E) (T2) (T2) (T2) (A1) (A1) (T2) (T2) (T2)
                 (T1) (T1) (T1) (E) (E) (T2) (T2) (T2) (A1) (T1)
                 (T1) (T1) (E) (E) (A2) (T2) (T2) (T2) (T1) (T1)
                 (T1) (T2) (T2) (T2) (A1) (T2) (T2) (T2) (T1) (T1)
                 (T1) (T2) (T2) (T2) (E) (E) (T2) (T2) (T2) (E)
                 (E) (T1) (T1) (T1) (T2) (T2) (T2) (A1) (T2) (T2)
                 (T2) (T1) (T1) (T1) (E) (E) (A1) (T2) (T2) (T2)
                 (A2) (A1) (T1) (T1) (T1) (T2) (T2) (T2) (T2) (T2)
                 (T2) (E) (E) (T1) (T1) (T1) (T2) (T2) (T2) (A1)
                 (E) (E) (T2) (T2) (T2) (A1) (T1) (T1) (T1) (T2)
                 (T2) (T2) (T1) (T1) (T1) (E) (E) (T2) (T2) (T2)
                 (T2) (T2) (T2) (A1) (T1) (T1) (T1) (T1) (T1) (T1)
                 (T2) (T2) (T2) (E) (E) (A1) (T2) (T2) (T2) (A2)
                 (T1) (T1) (T1) (E) (E) (T2) (T2) (T2) (E) (E)
                 (T2) (T2) (T2) (T1) (T1) (T1) (A1) (T2) (T2) (T2)
                 (E) (E) (T2) (T2) (T2) (T1) (T1) (T1) (T1) (T1)
                 (T1) (T2) (T2) (T2) (E) (E) (A1) (T2) (T2) (T2)
                 (T2) (T2) (T2) (A1) (E) (E) (T1) (T1) (T1) (T1)
                 (T1) (T1) (T2) (T2) (T2) (A2) (T2) (T2) (T2) (E)
                 (E) (A1) (T1) (T1) (T1) (T2) (T2) (T2) (T1) (T1)
                 (T1) (A1) (A2) (T1) (T1) (T1) (T2) (T2) (T2) (E)
                 (E) (T2) (T2) (T2) (T1) (T1) (T1) (T2) (T2) (T2)
                 (E) (E) (T2) (T2) (T2) (E) (E) (T1) (T1) (T1)
                 (A1) (T1) (T1) (T1) (T2) (T2) (T2) (E) (E) (T2)
                 (T2) (T2) (A1) (A2) (T1) (T1) (T1) (E) (E) (T2)
                 (T2) (T2) (T1) (T1) (T1) (E) (E) (T2) (T2) (T2)
                 (T1) (T1) (T1) (T2) (T2) (T2) (A1) (T2) (T2) (T2)
                 (A2) (A1) (T1) (T1) (T1) (T2) (T2) (T2) (E) (E)
                 (T1) (T1) (T1) (T2) (T2) (T2) (T2) (T2) (T2) (E)
                 (E) (T2) (T2) (T2) (A1) (T1) (T1) (T1) (T1) (T1)
                 (T1) (E) (E) (T2) (T2) (T2) (A1) (T1) (T1) (T1)
                 (E) (E) (T2) (T2) (T2) (T2) (T2) (T2) (T1) (T1)
                 (T1) (E) (E) (T2) (T2) (T2) (T1) (T1) (T1) (T2)
                 (T2) (T2) (E) (E) (T1) (T1) (T1) (A1) (T2) (T2)
                 (T2) (A2) (T2) (T2) (T2) (A1) (E) (E) (T1) (T1)
                 (T1) (T2) (T2) (T2) (T1) (T1) (T1) (T2) (T2) (T2)
                 (E) (E) (T2) (T2) (T2) (A1) (A1) (T2) (T2) (T2)
                 (A1)
 The electronic state of the initial guess is 1-A1.
 Requested convergence on RMS density matrix=1.00D-10 within 128 cycles.
 Requested convergence on MAX density matrix=1.00D-08.
 Requested convergence on             energy=1.00D-08.
 No special actions if energy rises.
 Initial convergence to 1.0D-05 achieved.  Increase integral accuracy.
 SCF Done:  E(ROHF) =  -2077.72273692     A.U. after   13 cycles
             Convg  =    0.1456D-11             -V/T =  2.0000
 <Sx>= 0.0000 <Sy>= 0.0000 <Sz>= 0.0000 <S**2>= 0.0000 S= 0.0000
 <L.S>= 0.000000000000E+00
 Annihilation of the first spin contaminant:
 S**2 before annihilation     0.0000,   after     0.0000
 DiagDN has N=   789 LTot=  2399 but NE2=     3 cannot use DSYEVD.
 GenMOA:  NOpAll= 24 NOp2=4 NOpUse= 24 JSym2X=1
 <Sx>= 0.0000 <Sy>= 0.0000 <Sz>= 0.0000 <S**2>= 0.0000 S= 0.0000
 Range of M.O.s used for correlation:    15   789
 NBasis=   789 NAE=    18 NBE=    18 NFC=    14 NFV=     0
 NROrb=    775 NOA=     4 NOB=     4 NVA=   771 NVB=   771

 **** Warning!!: The largest alpha MO coefficient is  0.22661298D+03


 **** Warning!!: The largest beta MO coefficient is  0.22661298D+03

 Singles contribution to E2=   -0.1625655692D-15
 Disk-based method using OVN memory for  4 occupieds at a time.
 Permanent disk used for amplitudes and <ij||ab> integrals=    26146152 words.
 Estimated scratch disk usage=  1753770384 words.
 IUseRI=2 ITolRI= 6 IR12RI=0
 Actual    scratch disk usage=  1752464784 words.
 GetIJB would need an additional  1709553957 words of memory to use all   8 processors.
 JobTyp=2 Pass  1:  I=   1 to   4 NPSUse=  1 ParTrn=F ParDer=F DoDerP=F.
 (rs|ai) integrals will be sorted in core.
 T,EIJ(AA): I=   1 J=   2      0.3678167E-03     -0.9030840E-03
 T,EIJ(AA): I=   1 J=   3      0.3678167E-03     -0.9030840E-03
 T,EIJ(AA): I=   1 J=   4      0.3678167E-03     -0.9030840E-03
 T,EIJ(AA): I=   2 J=   3      0.8355381E-03     -0.1612880E-02
 T,EIJ(AA): I=   2 J=   4      0.8355381E-03     -0.1612880E-02
 T,EIJ(AA): I=   3 J=   4      0.8355381E-03     -0.1612880E-02
 T,EIJ(AB): I=   1 J=   1      0.2891027E-02     -0.8625582E-02
 T,EIJ(AB): I=   1 J=   2      0.2412986E-02     -0.7173212E-02
 T,EIJ(AB): I=   1 J=   3      0.2412986E-02     -0.7173212E-02
 T,EIJ(AB): I=   1 J=   4      0.2412986E-02     -0.7173212E-02
 T,EIJ(AB): I=   2 J=   1      0.2412986E-02     -0.7173212E-02
 T,EIJ(AB): I=   2 J=   2      0.4947652E-02     -0.1153785E-01
 T,EIJ(AB): I=   2 J=   3      0.3386059E-02     -0.8726169E-02
 T,EIJ(AB): I=   2 J=   4      0.3386059E-02     -0.8726169E-02
 T,EIJ(AB): I=   3 J=   1      0.2412986E-02     -0.7173212E-02
 T,EIJ(AB): I=   3 J=   2      0.3386059E-02     -0.8726169E-02
 T,EIJ(AB): I=   3 J=   3      0.4947652E-02     -0.1153785E-01
 T,EIJ(AB): I=   3 J=   4      0.3386059E-02     -0.8726169E-02
 T,EIJ(AB): I=   4 J=   1      0.2412986E-02     -0.7173212E-02
 T,EIJ(AB): I=   4 J=   2      0.3386059E-02     -0.8726169E-02
 T,EIJ(AB): I=   4 J=   3      0.3386059E-02     -0.8726169E-02
 T,EIJ(AB): I=   4 J=   4      0.4947652E-02     -0.1153785E-01
 Actual    scratch disk usage=  1752464784 words.
 GetIJB would need an additional  1709553957 words of memory to use all   8 processors.
 JobTyp=3 Pass  1:  I=   1 to   4 NPSUse=  1 ParTrn=F ParDer=F DoDerP=F.
 (rs|ai) integrals will be sorted in core.
 T,EIJ(BB): I=   1 J=   2      0.3678167E-03     -0.9030840E-03
 T,EIJ(BB): I=   1 J=   3      0.3678167E-03     -0.9030840E-03
 T,EIJ(BB): I=   1 J=   4      0.3678167E-03     -0.9030840E-03
 T,EIJ(BB): I=   2 J=   3      0.8355381E-03     -0.1612880E-02
 T,EIJ(BB): I=   2 J=   4      0.8355381E-03     -0.1612880E-02
 T,EIJ(BB): I=   3 J=   4      0.8355381E-03     -0.1612880E-02
 Spin components of T(2) and E(2):
     alpha-alpha T2 =       0.3610064155D-02 E2=     -0.7547891104D-02
     alpha-beta  T2 =       0.5252825240D-01 E2=     -0.1386354323D+00
     beta-beta   T2 =       0.3610064155D-02 E2=     -0.7547891104D-02
 ANorm=    0.1029440810D+01
 E2 =    -0.1537312145D+00 EUMP2 =    -0.20778764681317D+04

 Complete Basis Set (CBS) Extrapolation:
 M. R. Nyden and G. A. Petersson, JCP 75, 1843 (1981)
 G. A. Petersson and M. A. Al-Laham, JCP 94, 6081 (1991)
 G. A. Petersson, T. Tensfeldt, and J. A. Montgomery, JCP 94, 6091 (1991)
 J. A. Montgomery, J. W. Ochterski, and G. A. Petersson, JCP 101, 5900 (1994)
 
 Minimum Number of PNO for Extrapolation =  25
 Absolute Overlaps: IRadAn =         5
 LocTrn: ILocal=3 LocCor=F DoCore=F.
 Entering OneElI...
 Overlap between basis sets.
 Requested accuracy = 0.1000D-12
 PrsmSu:  NPrtUS=   1 ThrOK=F IAlg=1
 PRISM was handed  1607917998 working-precision words and   100 shell-pairs
 IPart=  0 NShTot=         100 NBatch=          10 AvBLen=        10.0
 CnvPC2: ToCart=F DoDens=F IPureD=0 IPureF=0.
 Transformed matrix in CnvPC2: 
                 1             2             3             4             5 
      1   0.100000D+01  0.402055D+00  0.000000D+00  0.000000D+00  0.000000D+00
      2   0.402055D+00  0.100000D+01  0.000000D+00  0.000000D+00  0.000000D+00
      3   0.000000D+00  0.000000D+00  0.100000D+01  0.000000D+00  0.000000D+00
      4   0.000000D+00  0.000000D+00  0.000000D+00  0.100000D+01  0.000000D+00
      5   0.000000D+00  0.000000D+00  0.000000D+00  0.000000D+00  0.100000D+01
      6   0.277653D-01  0.326539D+00  0.000000D+00  0.000000D+00  0.000000D+00
      7   0.000000D+00  0.000000D+00  0.339478D+00  0.000000D+00  0.000000D+00
      8   0.000000D+00  0.000000D+00  0.000000D+00  0.339478D+00  0.000000D+00
      9   0.000000D+00  0.000000D+00  0.000000D+00  0.000000D+00  0.339478D+00
     10   0.000000D+00  0.000000D+00  0.000000D+00  0.000000D+00  0.000000D+00
     11   0.000000D+00  0.000000D+00  0.000000D+00  0.000000D+00  0.000000D+00
     12   0.000000D+00  0.000000D+00  0.000000D+00  0.000000D+00  0.000000D+00
     13   0.000000D+00  0.000000D+00  0.000000D+00  0.000000D+00  0.000000D+00
     14   0.000000D+00  0.000000D+00  0.000000D+00  0.000000D+00  0.000000D+00
     15  -0.375498D-03  0.437680D-02  0.000000D+00  0.000000D+00  0.000000D+00
     16   0.000000D+00  0.000000D+00  0.122886D-01  0.000000D+00  0.000000D+00
     17   0.000000D+00  0.000000D+00  0.000000D+00  0.122886D-01  0.000000D+00
     18   0.000000D+00  0.000000D+00  0.000000D+00  0.000000D+00  0.122886D-01
     19   0.000000D+00  0.000000D+00  0.000000D+00  0.000000D+00  0.000000D+00
     20   0.000000D+00  0.000000D+00  0.000000D+00  0.000000D+00  0.000000D+00
     21   0.000000D+00  0.000000D+00  0.000000D+00  0.000000D+00  0.000000D+00
     22   0.000000D+00  0.000000D+00  0.000000D+00  0.000000D+00  0.000000D+00
     23   0.000000D+00  0.000000D+00  0.000000D+00  0.000000D+00  0.000000D+00
     24   0.166697D-02  0.103077D-01  0.118762D-02  0.118762D-02  0.118762D-02
     25   0.166697D-02  0.103077D-01 -0.118762D-02 -0.118762D-02  0.118762D-02
     26   0.166697D-02  0.103077D-01 -0.118762D-02  0.118762D-02 -0.118762D-02
     27   0.166697D-02  0.103077D-01  0.118762D-02 -0.118762D-02 -0.118762D-02
                 6             7             8             9            10 
      1   0.277653D-01  0.000000D+00  0.000000D+00  0.000000D+00  0.000000D+00
      2   0.326539D+00  0.000000D+00  0.000000D+00  0.000000D+00  0.000000D+00
      3   0.000000D+00  0.339478D+00  0.000000D+00  0.000000D+00  0.000000D+00
      4   0.000000D+00  0.000000D+00  0.339478D+00  0.000000D+00  0.000000D+00
      5   0.000000D+00  0.000000D+00  0.000000D+00  0.339478D+00  0.000000D+00
      6   0.100000D+01  0.000000D+00  0.000000D+00  0.000000D+00  0.000000D+00
      7   0.000000D+00  0.100000D+01  0.000000D+00  0.000000D+00  0.000000D+00
      8   0.000000D+00  0.000000D+00  0.100000D+01  0.000000D+00  0.000000D+00
      9   0.000000D+00  0.000000D+00  0.000000D+00  0.100000D+01  0.000000D+00
     10   0.000000D+00  0.000000D+00  0.000000D+00  0.000000D+00  0.100000D+01
     11   0.000000D+00  0.000000D+00  0.000000D+00  0.000000D+00  0.000000D+00
     12   0.000000D+00  0.000000D+00  0.000000D+00  0.000000D+00  0.000000D+00
     13   0.000000D+00  0.000000D+00  0.000000D+00  0.000000D+00  0.000000D+00
     14   0.000000D+00  0.000000D+00  0.000000D+00  0.000000D+00  0.000000D+00
     15   0.194461D+00  0.000000D+00  0.000000D+00  0.000000D+00  0.000000D+00
     16   0.000000D+00  0.211028D+00  0.000000D+00  0.000000D+00  0.000000D+00
     17   0.000000D+00  0.000000D+00  0.211028D+00  0.000000D+00  0.000000D+00
     18   0.000000D+00  0.000000D+00  0.000000D+00  0.211028D+00  0.000000D+00
     19   0.000000D+00  0.000000D+00  0.000000D+00  0.000000D+00  0.658109D-01
     20   0.000000D+00  0.000000D+00  0.000000D+00  0.000000D+00  0.000000D+00
     21   0.000000D+00  0.000000D+00  0.000000D+00  0.000000D+00  0.000000D+00
     22   0.000000D+00  0.000000D+00  0.000000D+00  0.000000D+00  0.000000D+00
     23   0.000000D+00  0.000000D+00  0.000000D+00  0.000000D+00  0.000000D+00
     24   0.611503D-01  0.211954D-01  0.211954D-01  0.211954D-01  0.000000D+00
     25   0.611503D-01 -0.211954D-01 -0.211954D-01  0.211954D-01  0.000000D+00
     26   0.611503D-01 -0.211954D-01  0.211954D-01 -0.211954D-01  0.000000D+00
     27   0.611503D-01  0.211954D-01 -0.211954D-01 -0.211954D-01  0.000000D+00
                11            12            13            14            15 
      1   0.000000D+00  0.000000D+00  0.000000D+00  0.000000D+00 -0.375498D-03
      2   0.000000D+00  0.000000D+00  0.000000D+00  0.000000D+00  0.437680D-02
      3   0.000000D+00  0.000000D+00  0.000000D+00  0.000000D+00  0.000000D+00
      4   0.000000D+00  0.000000D+00  0.000000D+00  0.000000D+00  0.000000D+00
      5   0.000000D+00  0.000000D+00  0.000000D+00  0.000000D+00  0.000000D+00
      6   0.000000D+00  0.000000D+00  0.000000D+00  0.000000D+00  0.194461D+00
      7   0.000000D+00  0.000000D+00  0.000000D+00  0.000000D+00  0.000000D+00
      8   0.000000D+00  0.000000D+00  0.000000D+00  0.000000D+00  0.000000D+00
      9   0.000000D+00  0.000000D+00  0.000000D+00  0.000000D+00  0.000000D+00
     10   0.000000D+00  0.000000D+00  0.000000D+00  0.000000D+00  0.000000D+00
     11   0.100000D+01  0.000000D+00  0.000000D+00  0.000000D+00  0.000000D+00
     12   0.000000D+00  0.100000D+01  0.000000D+00  0.000000D+00  0.000000D+00
     13   0.000000D+00  0.000000D+00  0.100000D+01  0.000000D+00  0.000000D+00
     14   0.000000D+00  0.000000D+00  0.000000D+00  0.100000D+01  0.000000D+00
     15   0.000000D+00  0.000000D+00  0.000000D+00  0.000000D+00  0.100000D+01
     16   0.000000D+00  0.000000D+00  0.000000D+00  0.000000D+00  0.000000D+00
     17   0.000000D+00  0.000000D+00  0.000000D+00  0.000000D+00  0.000000D+00
     18   0.000000D+00  0.000000D+00  0.000000D+00  0.000000D+00  0.000000D+00
     19   0.000000D+00  0.000000D+00  0.000000D+00  0.000000D+00  0.000000D+00
     20   0.658109D-01  0.000000D+00  0.000000D+00  0.000000D+00  0.000000D+00
     21   0.000000D+00  0.658109D-01  0.000000D+00  0.000000D+00  0.000000D+00
     22   0.000000D+00  0.000000D+00  0.658109D-01  0.000000D+00  0.000000D+00
     23   0.000000D+00  0.000000D+00  0.000000D+00  0.658109D-01  0.000000D+00
     24   0.900617D-02  0.900617D-02  0.000000D+00  0.900617D-02  0.385429D+00
     25  -0.900617D-02 -0.900617D-02  0.000000D+00  0.900617D-02  0.385429D+00
     26   0.900617D-02 -0.900617D-02  0.000000D+00 -0.900617D-02  0.385429D+00
     27  -0.900617D-02  0.900617D-02  0.000000D+00 -0.900617D-02  0.385429D+00
                16            17            18            19            20 
      1   0.000000D+00  0.000000D+00  0.000000D+00  0.000000D+00  0.000000D+00
      2   0.000000D+00  0.000000D+00  0.000000D+00  0.000000D+00  0.000000D+00
      3   0.122886D-01  0.000000D+00  0.000000D+00  0.000000D+00  0.000000D+00
      4   0.000000D+00  0.122886D-01  0.000000D+00  0.000000D+00  0.000000D+00
      5   0.000000D+00  0.000000D+00  0.122886D-01  0.000000D+00  0.000000D+00
      6   0.000000D+00  0.000000D+00  0.000000D+00  0.000000D+00  0.000000D+00
      7   0.211028D+00  0.000000D+00  0.000000D+00  0.000000D+00  0.000000D+00
      8   0.000000D+00  0.211028D+00  0.000000D+00  0.000000D+00  0.000000D+00
      9   0.000000D+00  0.000000D+00  0.211028D+00  0.000000D+00  0.000000D+00
     10   0.000000D+00  0.000000D+00  0.000000D+00  0.658109D-01  0.000000D+00
     11   0.000000D+00  0.000000D+00  0.000000D+00  0.000000D+00  0.658109D-01
     12   0.000000D+00  0.000000D+00  0.000000D+00  0.000000D+00  0.000000D+00
     13   0.000000D+00  0.000000D+00  0.000000D+00  0.000000D+00  0.000000D+00
     14   0.000000D+00  0.000000D+00  0.000000D+00  0.000000D+00  0.000000D+00
     15   0.000000D+00  0.000000D+00  0.000000D+00  0.000000D+00  0.000000D+00
     16   0.100000D+01  0.000000D+00  0.000000D+00  0.000000D+00  0.000000D+00
     17   0.000000D+00  0.100000D+01  0.000000D+00  0.000000D+00  0.000000D+00
     18   0.000000D+00  0.000000D+00  0.100000D+01  0.000000D+00  0.000000D+00
     19   0.000000D+00  0.000000D+00  0.000000D+00  0.100000D+01  0.000000D+00
     20   0.000000D+00  0.000000D+00  0.000000D+00  0.000000D+00  0.100000D+01
     21   0.000000D+00  0.000000D+00  0.000000D+00  0.000000D+00  0.000000D+00
     22   0.000000D+00  0.000000D+00  0.000000D+00  0.000000D+00  0.000000D+00
     23   0.000000D+00  0.000000D+00  0.000000D+00  0.000000D+00  0.000000D+00
     24   0.274022D+00  0.274022D+00  0.274022D+00  0.000000D+00  0.274433D+00
     25  -0.274022D+00 -0.274022D+00  0.274022D+00  0.000000D+00 -0.274433D+00
     26  -0.274022D+00  0.274022D+00 -0.274022D+00  0.000000D+00  0.274433D+00
     27   0.274022D+00 -0.274022D+00 -0.274022D+00  0.000000D+00 -0.274433D+00
                21            22            23            24            25 
      1   0.000000D+00  0.000000D+00  0.000000D+00  0.166697D-02  0.166697D-02
      2   0.000000D+00  0.000000D+00  0.000000D+00  0.103077D-01  0.103077D-01
      3   0.000000D+00  0.000000D+00  0.000000D+00  0.118762D-02 -0.118762D-02
      4   0.000000D+00  0.000000D+00  0.000000D+00  0.118762D-02 -0.118762D-02
      5   0.000000D+00  0.000000D+00  0.000000D+00  0.118762D-02  0.118762D-02
      6   0.000000D+00  0.000000D+00  0.000000D+00  0.611503D-01  0.611503D-01
      7   0.000000D+00  0.000000D+00  0.000000D+00  0.211954D-01 -0.211954D-01
      8   0.000000D+00  0.000000D+00  0.000000D+00  0.211954D-01 -0.211954D-01
      9   0.000000D+00  0.000000D+00  0.000000D+00  0.211954D-01  0.211954D-01
     10   0.000000D+00  0.000000D+00  0.000000D+00  0.000000D+00  0.000000D+00
     11   0.000000D+00  0.000000D+00  0.000000D+00  0.900617D-02 -0.900617D-02
     12   0.658109D-01  0.000000D+00  0.000000D+00  0.900617D-02 -0.900617D-02
     13   0.000000D+00  0.658109D-01  0.000000D+00  0.000000D+00  0.000000D+00
     14   0.000000D+00  0.000000D+00  0.658109D-01  0.900617D-02  0.900617D-02
     15   0.000000D+00  0.000000D+00  0.000000D+00  0.385429D+00  0.385429D+00
     16   0.000000D+00  0.000000D+00  0.000000D+00  0.274022D+00 -0.274022D+00
     17   0.000000D+00  0.000000D+00  0.000000D+00  0.274022D+00 -0.274022D+00
     18   0.000000D+00  0.000000D+00  0.000000D+00  0.274022D+00  0.274022D+00
     19   0.000000D+00  0.000000D+00  0.000000D+00  0.000000D+00  0.000000D+00
     20   0.000000D+00  0.000000D+00  0.000000D+00  0.274433D+00 -0.274433D+00
     21   0.100000D+01  0.000000D+00  0.000000D+00  0.274433D+00 -0.274433D+00
     22   0.000000D+00  0.100000D+01  0.000000D+00  0.000000D+00  0.000000D+00
     23   0.000000D+00  0.000000D+00  0.100000D+01  0.274433D+00  0.274433D+00
     24   0.274433D+00  0.000000D+00  0.274433D+00  0.100000D+01  0.480155D-01
     25  -0.274433D+00  0.000000D+00  0.274433D+00  0.480155D-01  0.100000D+01
     26  -0.274433D+00  0.000000D+00 -0.274433D+00  0.480155D-01  0.480155D-01
     27   0.274433D+00  0.000000D+00 -0.274433D+00  0.480155D-01  0.480155D-01
                26            27 
      1   0.166697D-02  0.166697D-02
      2   0.103077D-01  0.103077D-01
      3  -0.118762D-02  0.118762D-02
      4   0.118762D-02 -0.118762D-02
      5  -0.118762D-02 -0.118762D-02
      6   0.611503D-01  0.611503D-01
      7  -0.211954D-01  0.211954D-01
      8   0.211954D-01 -0.211954D-01
      9  -0.211954D-01 -0.211954D-01
     10   0.000000D+00  0.000000D+00
     11   0.900617D-02 -0.900617D-02
     12  -0.900617D-02  0.900617D-02
     13   0.000000D+00  0.000000D+00
     14  -0.900617D-02 -0.900617D-02
     15   0.385429D+00  0.385429D+00
     16  -0.274022D+00  0.274022D+00
     17   0.274022D+00 -0.274022D+00
     18  -0.274022D+00 -0.274022D+00
     19   0.000000D+00  0.000000D+00
     20   0.274433D+00 -0.274433D+00
     21  -0.274433D+00  0.274433D+00
     22   0.000000D+00  0.000000D+00
     23  -0.274433D+00 -0.274433D+00
     24   0.480155D-01  0.480155D-01
     25   0.480155D-01  0.480155D-01
     26   0.100000D+01  0.480155D-01
     27   0.480155D-01  0.100000D+01
 Entering OneElI...
 Overlap between basis sets.
 Requested accuracy = 0.1000D-12
 PrsmSu:  NPrtUS=   1 ThrOK=F IAlg=1
 PRISM was handed  1606175572 working-precision words and  1622 shell-pairs
 IPart=  0 NShTot=        1622 NBatch=          75 AvBLen=        21.6
 CnvPC2: ToCart=F DoDens=F IPureD=0 IPureF=0.
 Transformed matrix in CnvPC2: 
                 1             2             3             4             5 
      1   0.999793D+00  0.410396D+00  0.000000D+00  0.000000D+00  0.000000D+00
      2   0.288767D+00  0.988641D+00  0.000000D+00  0.000000D+00  0.000000D+00
      3   0.000000D+00  0.000000D+00  0.999238D+00  0.000000D+00  0.000000D+00
      4   0.000000D+00  0.000000D+00  0.000000D+00  0.999238D+00  0.000000D+00
      5   0.000000D+00  0.000000D+00  0.000000D+00  0.000000D+00  0.999238D+00
      6   0.119645D-01  0.318206D+00  0.000000D+00  0.000000D+00  0.000000D+00
      7   0.000000D+00  0.000000D+00  0.342796D+00  0.000000D+00  0.000000D+00
      8   0.000000D+00  0.000000D+00  0.000000D+00  0.342796D+00  0.000000D+00
      9   0.000000D+00  0.000000D+00  0.000000D+00  0.000000D+00  0.342796D+00
     10   0.000000D+00  0.000000D+00  0.000000D+00  0.000000D+00  0.000000D+00
     11   0.000000D+00  0.000000D+00  0.000000D+00  0.000000D+00  0.000000D+00
     12   0.000000D+00  0.000000D+00  0.000000D+00  0.000000D+00  0.000000D+00
     13   0.000000D+00  0.000000D+00  0.000000D+00  0.000000D+00  0.000000D+00
     14   0.000000D+00  0.000000D+00  0.000000D+00  0.000000D+00  0.000000D+00
     15   0.289427D-04  0.823684D-02  0.000000D+00  0.000000D+00  0.000000D+00
     16   0.403023D-02  0.246542D-01  0.000000D+00  0.000000D+00  0.000000D+00
     17   0.000000D+00  0.000000D+00  0.733925D-02  0.000000D+00  0.000000D+00
     18   0.000000D+00  0.000000D+00  0.000000D+00  0.733925D-02  0.000000D+00
     19   0.000000D+00  0.000000D+00  0.000000D+00  0.000000D+00  0.733925D-02
     20   0.000000D+00  0.000000D+00  0.946296D-03  0.000000D+00  0.000000D+00
     21   0.000000D+00  0.000000D+00  0.000000D+00  0.946296D-03  0.000000D+00
     22   0.000000D+00  0.000000D+00  0.000000D+00  0.000000D+00  0.946296D-03
     23   0.127775D+00  0.615912D+00  0.000000D+00  0.000000D+00  0.000000D+00
     24   0.836172D-01  0.445201D+00  0.000000D+00  0.000000D+00  0.000000D+00
     25   0.543812D-01  0.307485D+00  0.000000D+00  0.000000D+00  0.000000D+00
     26   0.352429D-01  0.206406D+00  0.000000D+00  0.000000D+00  0.000000D+00
     27   0.227947D-01  0.136219D+00  0.000000D+00  0.000000D+00  0.000000D+00
     28   0.147269D-01  0.890174D-01  0.000000D+00  0.000000D+00  0.000000D+00
     29   0.000000D+00  0.000000D+00  0.173394D+00  0.000000D+00  0.000000D+00
     30   0.000000D+00  0.000000D+00  0.000000D+00  0.173394D+00  0.000000D+00
     31   0.000000D+00  0.000000D+00  0.000000D+00  0.000000D+00  0.173394D+00
     32   0.000000D+00  0.000000D+00  0.101478D+00  0.000000D+00  0.000000D+00
     33   0.000000D+00  0.000000D+00  0.000000D+00  0.101478D+00  0.000000D+00
     34   0.000000D+00  0.000000D+00  0.000000D+00  0.000000D+00  0.101478D+00
     35   0.000000D+00  0.000000D+00  0.576001D-01  0.000000D+00  0.000000D+00
     36   0.000000D+00  0.000000D+00  0.000000D+00  0.576001D-01  0.000000D+00
     37   0.000000D+00  0.000000D+00  0.000000D+00  0.000000D+00  0.576001D-01
     38   0.000000D+00  0.000000D+00  0.320477D-01  0.000000D+00  0.000000D+00
     39   0.000000D+00  0.000000D+00  0.000000D+00  0.320477D-01  0.000000D+00
     40   0.000000D+00  0.000000D+00  0.000000D+00  0.000000D+00  0.320477D-01
     41   0.000000D+00  0.000000D+00  0.176057D-01  0.000000D+00  0.000000D+00
     42   0.000000D+00  0.000000D+00  0.000000D+00  0.176057D-01  0.000000D+00
     43   0.000000D+00  0.000000D+00  0.000000D+00  0.000000D+00  0.176057D-01
     44   0.000000D+00  0.000000D+00  0.959529D-02  0.000000D+00  0.000000D+00
     45   0.000000D+00  0.000000D+00  0.000000D+00  0.959529D-02  0.000000D+00
     46   0.000000D+00  0.000000D+00  0.000000D+00  0.000000D+00  0.959529D-02
     47   0.000000D+00  0.000000D+00  0.000000D+00  0.000000D+00  0.000000D+00
     48   0.000000D+00  0.000000D+00  0.000000D+00  0.000000D+00  0.000000D+00
     49   0.000000D+00  0.000000D+00  0.000000D+00  0.000000D+00  0.000000D+00
     50   0.000000D+00  0.000000D+00  0.000000D+00  0.000000D+00  0.000000D+00
     51   0.000000D+00  0.000000D+00  0.000000D+00  0.000000D+00  0.000000D+00
     52   0.000000D+00  0.000000D+00  0.000000D+00  0.000000D+00  0.000000D+00
     53   0.000000D+00  0.000000D+00  0.000000D+00  0.000000D+00  0.000000D+00
     54   0.000000D+00  0.000000D+00  0.000000D+00  0.000000D+00  0.000000D+00
     55   0.000000D+00  0.000000D+00  0.000000D+00  0.000000D+00  0.000000D+00
     56   0.000000D+00  0.000000D+00  0.000000D+00  0.000000D+00  0.000000D+00
     57   0.000000D+00  0.000000D+00  0.000000D+00  0.000000D+00  0.000000D+00
     58   0.000000D+00  0.000000D+00  0.000000D+00  0.000000D+00  0.000000D+00
     59   0.000000D+00  0.000000D+00  0.000000D+00  0.000000D+00  0.000000D+00
     60   0.000000D+00  0.000000D+00  0.000000D+00  0.000000D+00  0.000000D+00
     61   0.000000D+00  0.000000D+00  0.000000D+00  0.000000D+00  0.000000D+00
     62   0.000000D+00  0.000000D+00  0.000000D+00  0.000000D+00  0.000000D+00
     63   0.000000D+00  0.000000D+00  0.000000D+00  0.000000D+00  0.000000D+00
     64   0.000000D+00  0.000000D+00  0.000000D+00  0.000000D+00  0.000000D+00
     65   0.000000D+00  0.000000D+00  0.000000D+00  0.000000D+00  0.000000D+00
     66   0.000000D+00  0.000000D+00  0.000000D+00  0.000000D+00  0.000000D+00
     67   0.000000D+00  0.000000D+00  0.000000D+00  0.000000D+00  0.000000D+00
     68   0.000000D+00  0.000000D+00  0.000000D+00  0.000000D+00  0.000000D+00
     69   0.000000D+00  0.000000D+00  0.000000D+00  0.000000D+00  0.000000D+00
     70   0.000000D+00  0.000000D+00  0.000000D+00  0.000000D+00  0.000000D+00
     71   0.000000D+00  0.000000D+00  0.000000D+00  0.000000D+00  0.000000D+00
     72   0.000000D+00  0.000000D+00  0.000000D+00  0.000000D+00  0.000000D+00
     73   0.000000D+00  0.000000D+00  0.000000D+00  0.000000D+00  0.000000D+00
     74   0.000000D+00  0.000000D+00  0.000000D+00  0.000000D+00  0.000000D+00
     75   0.000000D+00  0.000000D+00  0.000000D+00  0.000000D+00  0.000000D+00
     76   0.000000D+00  0.000000D+00  0.000000D+00  0.000000D+00  0.000000D+00
     77   0.000000D+00  0.000000D+00  0.000000D+00  0.000000D+00  0.000000D+00
     78   0.000000D+00  0.000000D+00  0.000000D+00  0.000000D+00  0.000000D+00
     79   0.000000D+00  0.000000D+00  0.000000D+00  0.000000D+00  0.000000D+00
     80   0.000000D+00  0.000000D+00  0.000000D+00  0.000000D+00  0.000000D+00
     81   0.000000D+00  0.000000D+00  0.000000D+00  0.000000D+00  0.000000D+00
     82   0.000000D+00  0.000000D+00  0.000000D+00  0.000000D+00  0.000000D+00
     83   0.000000D+00  0.000000D+00  0.000000D+00  0.000000D+00  0.000000D+00
     84   0.000000D+00  0.000000D+00  0.000000D+00  0.000000D+00  0.000000D+00
     85   0.000000D+00  0.000000D+00  0.000000D+00  0.000000D+00  0.000000D+00
     86   0.000000D+00  0.000000D+00  0.000000D+00  0.000000D+00  0.000000D+00
     87   0.000000D+00  0.000000D+00  0.000000D+00  0.000000D+00  0.000000D+00
     88   0.000000D+00  0.000000D+00  0.000000D+00  0.000000D+00  0.000000D+00
     89   0.000000D+00  0.000000D+00  0.000000D+00  0.000000D+00  0.000000D+00
     90   0.000000D+00  0.000000D+00  0.000000D+00  0.000000D+00  0.000000D+00
     91   0.000000D+00  0.000000D+00  0.000000D+00  0.000000D+00  0.000000D+00
     92   0.000000D+00  0.000000D+00  0.000000D+00  0.000000D+00  0.000000D+00
     93   0.000000D+00  0.000000D+00  0.000000D+00  0.000000D+00  0.000000D+00
     94   0.000000D+00  0.000000D+00  0.000000D+00  0.000000D+00  0.000000D+00
     95   0.000000D+00  0.000000D+00  0.000000D+00  0.000000D+00  0.000000D+00
     96   0.000000D+00  0.000000D+00  0.000000D+00  0.000000D+00  0.000000D+00
     97   0.000000D+00  0.000000D+00  0.000000D+00  0.000000D+00  0.000000D+00
     98   0.000000D+00  0.000000D+00  0.000000D+00  0.000000D+00  0.000000D+00
     99   0.000000D+00  0.000000D+00  0.000000D+00  0.000000D+00  0.000000D+00
    100   0.000000D+00  0.000000D+00  0.000000D+00  0.000000D+00  0.000000D+00
    101   0.000000D+00  0.000000D+00  0.000000D+00  0.000000D+00  0.000000D+00
    102   0.000000D+00  0.000000D+00  0.000000D+00  0.000000D+00  0.000000D+00
    103   0.000000D+00  0.000000D+00  0.000000D+00  0.000000D+00  0.000000D+00
    104   0.000000D+00  0.000000D+00  0.000000D+00  0.000000D+00  0.000000D+00
    105   0.000000D+00  0.000000D+00  0.000000D+00  0.000000D+00  0.000000D+00
    106   0.000000D+00  0.000000D+00  0.000000D+00  0.000000D+00  0.000000D+00
    107   0.000000D+00  0.000000D+00  0.000000D+00  0.000000D+00  0.000000D+00
    108   0.000000D+00  0.000000D+00  0.000000D+00  0.000000D+00  0.000000D+00
    109   0.000000D+00  0.000000D+00  0.000000D+00  0.000000D+00  0.000000D+00
    110   0.000000D+00  0.000000D+00  0.000000D+00  0.000000D+00  0.000000D+00
    111   0.000000D+00  0.000000D+00  0.000000D+00  0.000000D+00  0.000000D+00
    112   0.000000D+00  0.000000D+00  0.000000D+00  0.000000D+00  0.000000D+00
    113   0.000000D+00  0.000000D+00  0.000000D+00  0.000000D+00  0.000000D+00
    114   0.000000D+00  0.000000D+00  0.000000D+00  0.000000D+00  0.000000D+00
    115   0.000000D+00  0.000000D+00  0.000000D+00  0.000000D+00  0.000000D+00
    116   0.000000D+00  0.000000D+00  0.000000D+00  0.000000D+00  0.000000D+00
    117   0.000000D+00  0.000000D+00  0.000000D+00  0.000000D+00  0.000000D+00
    118   0.000000D+00  0.000000D+00  0.000000D+00  0.000000D+00  0.000000D+00
    119   0.000000D+00  0.000000D+00  0.000000D+00  0.000000D+00  0.000000D+00
    120   0.000000D+00  0.000000D+00  0.000000D+00  0.000000D+00  0.000000D+00
    121   0.000000D+00  0.000000D+00  0.000000D+00  0.000000D+00  0.000000D+00
    122   0.000000D+00  0.000000D+00  0.000000D+00  0.000000D+00  0.000000D+00
    123   0.000000D+00  0.000000D+00  0.000000D+00  0.000000D+00  0.000000D+00
    124   0.000000D+00  0.000000D+00  0.000000D+00  0.000000D+00  0.000000D+00
    125   0.000000D+00  0.000000D+00  0.000000D+00  0.000000D+00  0.000000D+00
    126   0.000000D+00  0.000000D+00  0.000000D+00  0.000000D+00  0.000000D+00
    127   0.000000D+00  0.000000D+00  0.000000D+00  0.000000D+00  0.000000D+00
    128   0.000000D+00  0.000000D+00  0.000000D+00  0.000000D+00  0.000000D+00
    129   0.000000D+00  0.000000D+00  0.000000D+00  0.000000D+00  0.000000D+00
    130   0.000000D+00  0.000000D+00  0.000000D+00  0.000000D+00  0.000000D+00
    131   0.000000D+00  0.000000D+00  0.000000D+00  0.000000D+00  0.000000D+00
    132   0.000000D+00  0.000000D+00  0.000000D+00  0.000000D+00  0.000000D+00
    133   0.000000D+00  0.000000D+00  0.000000D+00  0.000000D+00  0.000000D+00
    134   0.000000D+00  0.000000D+00  0.000000D+00  0.000000D+00  0.000000D+00
    135   0.000000D+00  0.000000D+00  0.000000D+00  0.000000D+00  0.000000D+00
    136   0.000000D+00  0.000000D+00  0.000000D+00  0.000000D+00  0.000000D+00
    137   0.000000D+00  0.000000D+00  0.000000D+00  0.000000D+00  0.000000D+00
    138   0.000000D+00  0.000000D+00  0.000000D+00  0.000000D+00  0.000000D+00
    139   0.000000D+00  0.000000D+00  0.000000D+00  0.000000D+00  0.000000D+00
    140   0.000000D+00  0.000000D+00  0.000000D+00  0.000000D+00  0.000000D+00
    141   0.000000D+00  0.000000D+00  0.000000D+00  0.000000D+00  0.000000D+00
    142   0.000000D+00  0.000000D+00  0.000000D+00  0.000000D+00  0.000000D+00
    143   0.000000D+00  0.000000D+00  0.000000D+00  0.000000D+00  0.000000D+00
    144   0.000000D+00  0.000000D+00  0.000000D+00  0.000000D+00  0.000000D+00
    145   0.000000D+00  0.000000D+00  0.000000D+00  0.000000D+00  0.000000D+00
    146   0.000000D+00  0.000000D+00  0.000000D+00  0.000000D+00  0.000000D+00
    147   0.000000D+00  0.000000D+00  0.000000D+00  0.000000D+00  0.000000D+00
    148   0.000000D+00  0.000000D+00  0.000000D+00  0.000000D+00  0.000000D+00
    149   0.000000D+00  0.000000D+00  0.000000D+00  0.000000D+00  0.000000D+00
    150   0.000000D+00  0.000000D+00  0.000000D+00  0.000000D+00  0.000000D+00
    151   0.000000D+00  0.000000D+00  0.000000D+00  0.000000D+00  0.000000D+00
    152   0.000000D+00  0.000000D+00  0.000000D+00  0.000000D+00  0.000000D+00
    153   0.000000D+00  0.000000D+00  0.000000D+00  0.000000D+00  0.000000D+00
    154   0.000000D+00  0.000000D+00  0.000000D+00  0.000000D+00  0.000000D+00
    155   0.000000D+00  0.000000D+00  0.000000D+00  0.000000D+00  0.000000D+00
    156   0.000000D+00  0.000000D+00  0.000000D+00  0.000000D+00  0.000000D+00
    157   0.000000D+00  0.000000D+00  0.000000D+00  0.000000D+00  0.000000D+00
    158   0.000000D+00  0.000000D+00  0.000000D+00  0.000000D+00  0.000000D+00
    159   0.000000D+00  0.000000D+00  0.000000D+00  0.000000D+00  0.000000D+00
    160   0.000000D+00  0.000000D+00  0.000000D+00  0.000000D+00  0.000000D+00
    161   0.000000D+00  0.000000D+00  0.000000D+00  0.000000D+00  0.000000D+00
    162   0.000000D+00  0.000000D+00  0.000000D+00  0.000000D+00  0.000000D+00
    163   0.000000D+00  0.000000D+00  0.000000D+00  0.000000D+00  0.000000D+00
    164   0.000000D+00  0.000000D+00  0.000000D+00  0.000000D+00  0.000000D+00
    165   0.000000D+00  0.000000D+00  0.000000D+00  0.000000D+00  0.000000D+00
    166   0.000000D+00  0.000000D+00  0.000000D+00  0.000000D+00  0.000000D+00
    167   0.000000D+00  0.000000D+00  0.000000D+00  0.000000D+00  0.000000D+00
    168   0.000000D+00  0.000000D+00  0.000000D+00  0.000000D+00  0.000000D+00
    169   0.000000D+00  0.000000D+00  0.000000D+00  0.000000D+00  0.000000D+00
    170   0.000000D+00  0.000000D+00  0.000000D+00  0.000000D+00  0.000000D+00
    171   0.000000D+00  0.000000D+00  0.000000D+00  0.000000D+00  0.000000D+00
    172   0.000000D+00  0.000000D+00  0.000000D+00  0.000000D+00  0.000000D+00
    173   0.000000D+00  0.000000D+00  0.000000D+00  0.000000D+00  0.000000D+00
    174   0.000000D+00  0.000000D+00  0.000000D+00  0.000000D+00  0.000000D+00
    175   0.000000D+00  0.000000D+00  0.000000D+00  0.000000D+00  0.000000D+00
    176   0.000000D+00  0.000000D+00  0.000000D+00  0.000000D+00  0.000000D+00
    177   0.000000D+00  0.000000D+00  0.000000D+00  0.000000D+00  0.000000D+00
    178   0.000000D+00  0.000000D+00  0.000000D+00  0.000000D+00  0.000000D+00
    179   0.000000D+00  0.000000D+00  0.000000D+00  0.000000D+00  0.000000D+00
    180   0.000000D+00  0.000000D+00  0.000000D+00  0.000000D+00  0.000000D+00
    181   0.000000D+00  0.000000D+00  0.000000D+00  0.000000D+00  0.000000D+00
    182   0.000000D+00  0.000000D+00  0.000000D+00  0.000000D+00  0.000000D+00
    183   0.000000D+00  0.000000D+00  0.000000D+00  0.000000D+00  0.000000D+00
    184   0.000000D+00  0.000000D+00  0.000000D+00  0.000000D+00  0.000000D+00
    185   0.000000D+00  0.000000D+00  0.000000D+00  0.000000D+00  0.000000D+00
    186   0.000000D+00  0.000000D+00  0.000000D+00  0.000000D+00  0.000000D+00
    187   0.000000D+00  0.000000D+00  0.000000D+00  0.000000D+00  0.000000D+00
    188   0.000000D+00  0.000000D+00  0.000000D+00  0.000000D+00  0.000000D+00
    189   0.000000D+00  0.000000D+00  0.000000D+00  0.000000D+00  0.000000D+00
    190   0.000000D+00  0.000000D+00  0.000000D+00  0.000000D+00  0.000000D+00
    191   0.000000D+00  0.000000D+00  0.000000D+00  0.000000D+00  0.000000D+00
    192   0.000000D+00  0.000000D+00  0.000000D+00  0.000000D+00  0.000000D+00
    193   0.000000D+00  0.000000D+00  0.000000D+00  0.000000D+00  0.000000D+00
    194   0.000000D+00  0.000000D+00  0.000000D+00  0.000000D+00  0.000000D+00
    195   0.000000D+00  0.000000D+00  0.000000D+00  0.000000D+00  0.000000D+00
    196   0.000000D+00  0.000000D+00  0.000000D+00  0.000000D+00  0.000000D+00
    197   0.000000D+00  0.000000D+00  0.000000D+00  0.000000D+00  0.000000D+00
    198   0.000000D+00  0.000000D+00  0.000000D+00  0.000000D+00  0.000000D+00
    199   0.000000D+00  0.000000D+00  0.000000D+00  0.000000D+00  0.000000D+00
    200   0.000000D+00  0.000000D+00  0.000000D+00  0.000000D+00  0.000000D+00
    201   0.000000D+00  0.000000D+00  0.000000D+00  0.000000D+00  0.000000D+00
    202   0.000000D+00  0.000000D+00  0.000000D+00  0.000000D+00  0.000000D+00
    203   0.000000D+00  0.000000D+00  0.000000D+00  0.000000D+00  0.000000D+00
    204   0.000000D+00  0.000000D+00  0.000000D+00  0.000000D+00  0.000000D+00
    205   0.000000D+00  0.000000D+00  0.000000D+00  0.000000D+00  0.000000D+00
    206   0.000000D+00  0.000000D+00  0.000000D+00  0.000000D+00  0.000000D+00
    207   0.000000D+00  0.000000D+00  0.000000D+00  0.000000D+00  0.000000D+00
    208   0.000000D+00  0.000000D+00  0.000000D+00  0.000000D+00  0.000000D+00
    209   0.000000D+00  0.000000D+00  0.000000D+00  0.000000D+00  0.000000D+00
    210   0.000000D+00  0.000000D+00  0.000000D+00  0.000000D+00  0.000000D+00
    211   0.000000D+00  0.000000D+00  0.000000D+00  0.000000D+00  0.000000D+00
    212   0.000000D+00  0.000000D+00  0.000000D+00  0.000000D+00  0.000000D+00
    213   0.000000D+00  0.000000D+00  0.000000D+00  0.000000D+00  0.000000D+00
    214   0.000000D+00  0.000000D+00  0.000000D+00  0.000000D+00  0.000000D+00
    215   0.000000D+00  0.000000D+00  0.000000D+00  0.000000D+00  0.000000D+00
    216   0.000000D+00  0.000000D+00  0.000000D+00  0.000000D+00  0.000000D+00
    217   0.000000D+00  0.000000D+00  0.000000D+00  0.000000D+00  0.000000D+00
    218   0.000000D+00  0.000000D+00  0.000000D+00  0.000000D+00  0.000000D+00
    219   0.000000D+00  0.000000D+00  0.000000D+00  0.000000D+00  0.000000D+00
    220   0.000000D+00  0.000000D+00  0.000000D+00  0.000000D+00  0.000000D+00
    221   0.000000D+00  0.000000D+00  0.000000D+00  0.000000D+00  0.000000D+00
    222   0.240067D-02  0.147896D-01  0.146994D-02  0.146994D-02  0.146994D-02
    223   0.286752D-02  0.175540D-01  0.260172D-03  0.260172D-03  0.260172D-03
    224   0.155935D-02  0.955649D-02  0.524467D-04  0.524467D-04  0.524467D-04
    225   0.000000D+00  0.000000D+00  0.000000D+00  0.000000D+00  0.000000D+00
    226   0.000000D+00  0.116268D-05  0.000000D+00  0.000000D+00  0.000000D+00
    227   0.924047D-04  0.682946D-03  0.272979D-03  0.272979D-03  0.272979D-03
    228   0.160709D-02  0.100642D-01  0.181588D-02  0.181588D-02  0.181588D-02
    229   0.392098D-02  0.239840D-01  0.190255D-02  0.190255D-02  0.190255D-02
    230   0.405745D-02  0.248005D-01  0.858007D-03  0.858007D-03  0.858007D-03
    231   0.000000D+00  0.000000D+00  0.000000D+00  0.000000D+00  0.000000D+00
    232   0.000000D+00  0.000000D+00  0.000000D+00  0.000000D+00  0.000000D+00
    233   0.000000D+00  0.000000D+00  0.000000D+00  0.000000D+00  0.000000D+00
    234   0.000000D+00  0.000000D+00  0.000000D+00  0.000000D+00  0.000000D+00
    235   0.000000D+00  0.000000D+00  0.000000D+00  0.000000D+00  0.000000D+00
    236   0.000000D+00  0.000000D+00  0.000000D+00  0.000000D+00  0.000000D+00
    237   0.000000D+00 -0.256796D-05 -0.195450D-05 -0.219961D-05 -0.219961D-05
    238   0.000000D+00 -0.256796D-05 -0.219961D-05 -0.195450D-05 -0.219961D-05
    239   0.000000D+00 -0.256796D-05 -0.219961D-05 -0.219961D-05 -0.195450D-05
    240  -0.124665D-03 -0.941762D-03 -0.334677D-03 -0.429742D-03 -0.429742D-03
    241  -0.124665D-03 -0.941762D-03 -0.429742D-03 -0.334677D-03 -0.429742D-03
    242  -0.124665D-03 -0.941762D-03 -0.429742D-03 -0.429742D-03 -0.334677D-03
    243  -0.203191D-02 -0.126967D-01 -0.156198D-02 -0.286494D-02 -0.286494D-02
    244  -0.203191D-02 -0.126967D-01 -0.286494D-02 -0.156198D-02 -0.286494D-02
    245  -0.203191D-02 -0.126967D-01 -0.286494D-02 -0.286494D-02 -0.156198D-02
    246  -0.470199D-02 -0.285563D-01 -0.160150D-03 -0.309851D-02 -0.309851D-02
    247  -0.470199D-02 -0.285563D-01 -0.309851D-02 -0.160150D-03 -0.309851D-02
    248  -0.470199D-02 -0.285563D-01 -0.309851D-02 -0.309851D-02 -0.160150D-03
    249   0.000000D+00  0.000000D+00  0.000000D+00  0.000000D+00  0.000000D+00
    250   0.000000D+00  0.000000D+00  0.000000D+00  0.000000D+00  0.000000D+00
    251   0.000000D+00  0.000000D+00  0.000000D+00  0.000000D+00  0.000000D+00
    252   0.000000D+00  0.000000D+00  0.000000D+00  0.000000D+00  0.000000D+00
    253   0.000000D+00  0.000000D+00  0.000000D+00  0.000000D+00  0.000000D+00
    254   0.000000D+00  0.000000D+00  0.000000D+00  0.000000D+00  0.000000D+00
    255   0.000000D+00  0.000000D+00  0.000000D+00  0.000000D+00  0.000000D+00
    256   0.000000D+00  0.000000D+00  0.000000D+00  0.000000D+00  0.000000D+00
    257   0.000000D+00  0.000000D+00  0.000000D+00  0.000000D+00  0.000000D+00
    258   0.000000D+00  0.000000D+00  0.000000D+00  0.000000D+00  0.000000D+00
    259   0.000000D+00  0.000000D+00  0.181119D-05  0.181119D-05 -0.362237D-05
    260   0.234155D-05  0.323374D-04  0.223277D-04  0.254647D-04  0.223277D-04
    261   0.234155D-05  0.323374D-04  0.254647D-04  0.223277D-04  0.223277D-04
    262   0.000000D+00  0.000000D+00 -0.313707D-05  0.313707D-05  0.000000D+00
    263   0.234155D-05  0.323374D-04  0.223277D-04  0.223277D-04  0.254647D-04
    264   0.000000D+00  0.000000D+00  0.250253D-03  0.250253D-03 -0.500506D-03
    265   0.616437D-03  0.426206D-02  0.135553D-02  0.178899D-02  0.135553D-02
    266   0.616437D-03  0.426206D-02  0.178899D-02  0.135553D-02  0.135553D-02
    267   0.000000D+00  0.000000D+00 -0.433451D-03  0.433451D-03  0.000000D+00
    268   0.616437D-03  0.426206D-02  0.135553D-02  0.135553D-02  0.178899D-02
    269   0.000000D+00  0.000000D+00  0.174280D-02  0.174280D-02 -0.348561D-02
    270   0.482578D-02  0.293390D-01  0.313421D-02  0.615284D-02  0.313421D-02
    271   0.482578D-02  0.293390D-01  0.615284D-02  0.313421D-02  0.313421D-02
    272   0.000000D+00  0.000000D+00 -0.301862D-02  0.301862D-02  0.000000D+00
    273   0.482578D-02  0.293390D-01  0.313421D-02  0.313421D-02  0.615284D-02
    274   0.000000D+00  0.000000D+00  0.000000D+00  0.000000D+00  0.000000D+00
    275   0.000000D+00  0.000000D+00  0.000000D+00  0.000000D+00  0.000000D+00
    276   0.000000D+00  0.000000D+00  0.000000D+00  0.000000D+00  0.000000D+00
    277   0.000000D+00  0.000000D+00  0.000000D+00  0.000000D+00  0.000000D+00
    278   0.000000D+00  0.000000D+00  0.000000D+00  0.000000D+00  0.000000D+00
    279   0.000000D+00  0.000000D+00  0.000000D+00  0.000000D+00  0.000000D+00
    280   0.000000D+00  0.000000D+00  0.000000D+00  0.000000D+00  0.000000D+00
    281   0.000000D+00  0.000000D+00  0.000000D+00  0.000000D+00  0.000000D+00
    282   0.000000D+00  0.000000D+00  0.000000D+00  0.000000D+00  0.000000D+00
    283   0.000000D+00  0.000000D+00  0.000000D+00  0.000000D+00  0.000000D+00
    284   0.000000D+00  0.000000D+00  0.000000D+00  0.000000D+00  0.000000D+00
    285   0.000000D+00  0.000000D+00  0.000000D+00  0.000000D+00  0.000000D+00
    286   0.000000D+00  0.000000D+00  0.000000D+00  0.000000D+00  0.000000D+00
    287   0.000000D+00  0.000000D+00  0.000000D+00  0.000000D+00  0.000000D+00
    288   0.113390D-03  0.925144D-03  0.408928D-03  0.408928D-03  0.548180D-03
    289  -0.694370D-04 -0.566533D-03 -0.335690D-03 -0.392540D-03 -0.108292D-03
    290  -0.694370D-04 -0.566533D-03 -0.392540D-03 -0.335690D-03 -0.108292D-03
    291   0.000000D+00  0.000000D+00  0.179774D-03 -0.179774D-03  0.000000D+00
    292  -0.219579D-03 -0.179153D-02 -0.881772D-03 -0.881772D-03 -0.881772D-03
    293   0.896428D-04  0.731391D-03  0.433374D-03  0.213197D-03  0.433374D-03
    294  -0.896428D-04 -0.731391D-03 -0.213197D-03 -0.433374D-03 -0.433374D-03
    295   0.330610D-02  0.200856D-01  0.258045D-02  0.258045D-02  0.568058D-02
    296  -0.202456D-02 -0.122999D-01 -0.347863D-02 -0.474425D-02  0.158386D-02
    297  -0.202456D-02 -0.122999D-01 -0.474425D-02 -0.347863D-02  0.158386D-02
    298   0.000000D+00  0.000000D+00  0.400225D-02 -0.400225D-02  0.000000D+00
    299  -0.640223D-02 -0.388957D-01 -0.699815D-02 -0.699815D-02 -0.699815D-02
    300   0.261370D-02  0.158791D-01  0.449089D-02 -0.410840D-03  0.449089D-02
    301  -0.261370D-02 -0.158791D-01  0.410840D-03 -0.449089D-02 -0.449089D-02
    302   0.000000D+00  0.000000D+00  0.000000D+00  0.000000D+00  0.000000D+00
    303   0.000000D+00  0.000000D+00  0.000000D+00  0.000000D+00  0.000000D+00
    304   0.000000D+00  0.000000D+00  0.000000D+00  0.000000D+00  0.000000D+00
    305   0.000000D+00  0.000000D+00  0.000000D+00  0.000000D+00  0.000000D+00
    306   0.000000D+00  0.000000D+00  0.000000D+00  0.000000D+00  0.000000D+00
    307   0.000000D+00  0.000000D+00  0.000000D+00  0.000000D+00  0.000000D+00
    308   0.000000D+00  0.000000D+00  0.000000D+00  0.000000D+00  0.000000D+00
    309   0.000000D+00  0.000000D+00  0.000000D+00  0.000000D+00  0.000000D+00
    310   0.000000D+00  0.000000D+00  0.000000D+00  0.000000D+00  0.000000D+00
    311   0.000000D+00  0.000000D+00  0.000000D+00  0.000000D+00  0.000000D+00
    312   0.000000D+00  0.000000D+00  0.000000D+00  0.000000D+00  0.000000D+00
    313   0.000000D+00  0.000000D+00  0.000000D+00  0.000000D+00  0.000000D+00
    314   0.000000D+00  0.000000D+00  0.000000D+00  0.000000D+00  0.000000D+00
    315   0.000000D+00  0.000000D+00  0.100574D-05  0.100574D-05  0.000000D+00
    316   0.000000D+00  0.000000D+00  0.000000D+00  0.000000D+00  0.000000D+00
    317   0.000000D+00  0.000000D+00  0.000000D+00  0.000000D+00  0.000000D+00
    318   0.000000D+00  0.000000D+00  0.000000D+00  0.000000D+00  0.000000D+00
    319   0.000000D+00  0.000000D+00  0.000000D+00  0.000000D+00  0.000000D+00
    320  -0.204780D-03 -0.161660D-02 -0.855716D-03 -0.855716D-03 -0.623359D-03
    321  -0.925102D-04 -0.730305D-03 -0.155643D-03 -0.229121D-03 -0.669987D-03
    322  -0.925102D-04 -0.730305D-03 -0.229121D-03 -0.155643D-03 -0.669987D-03
    323   0.000000D+00  0.000000D+00 -0.207826D-03  0.207826D-03  0.000000D+00
    324   0.261658D-03  0.206562D-02  0.116762D-02  0.116762D-02  0.648052D-03
    325  -0.244759D-03 -0.193221D-02 -0.118941D-02 -0.606197D-03 -0.995004D-03
    326   0.244759D-03  0.193221D-02  0.606197D-03  0.118941D-02  0.995004D-03
    327  -0.173071D-03 -0.136628D-02 -0.566110D-03 -0.566110D-03 -0.841038D-03
    328   0.000000D+00  0.000000D+00 -0.274928D-03  0.274928D-03  0.000000D+00
    329   0.000000D+00  0.000000D+00  0.000000D+00  0.000000D+00  0.000000D+00
    330   0.000000D+00  0.000000D+00  0.000000D+00  0.000000D+00  0.000000D+00
    331   0.000000D+00  0.000000D+00  0.000000D+00  0.000000D+00  0.000000D+00
    332   0.000000D+00  0.000000D+00  0.000000D+00  0.000000D+00  0.000000D+00
    333   0.000000D+00  0.000000D+00  0.000000D+00  0.000000D+00  0.000000D+00
    334   0.000000D+00  0.000000D+00  0.000000D+00  0.000000D+00  0.000000D+00
    335   0.000000D+00  0.000000D+00  0.000000D+00  0.000000D+00  0.000000D+00
    336   0.000000D+00  0.000000D+00  0.000000D+00  0.000000D+00  0.000000D+00
    337   0.000000D+00  0.000000D+00  0.000000D+00  0.000000D+00  0.000000D+00
    338   0.000000D+00  0.000000D+00  0.000000D+00  0.000000D+00  0.000000D+00
    339   0.000000D+00  0.000000D+00  0.000000D+00  0.000000D+00  0.000000D+00
    340   0.847973D-04  0.643591D-03  0.626311D-03  0.626311D-03 -0.348122D-03
    341   0.328419D-03  0.249262D-02  0.999972D-03  0.125157D-02  0.125157D-02
    342   0.328419D-03  0.249262D-02  0.125157D-02  0.999972D-03  0.125157D-02
    343   0.000000D+00  0.000000D+00  0.000000D+00  0.000000D+00  0.000000D+00
    344   0.000000D+00  0.000000D+00 -0.443777D-03 -0.443777D-03  0.887553D-03
    345   0.354733D-03  0.269234D-02  0.180478D-02  0.989508D-03  0.989508D-03
    346  -0.354733D-03 -0.269234D-02 -0.989508D-03 -0.180478D-02 -0.989508D-03
    347   0.501668D-03  0.380754D-02  0.165559D-02  0.165559D-02  0.203991D-02
    348   0.000000D+00  0.000000D+00  0.768643D-03 -0.768643D-03  0.000000D+00
    349   0.158641D-03  0.120405D-02  0.158944D-03  0.766610D-03  0.766610D-03
    350   0.158641D-03  0.120405D-02  0.766610D-03  0.158944D-03  0.766610D-03
    351   0.000000D+00  0.000000D+00  0.000000D+00  0.000000D+00  0.000000D+00
    352   0.000000D+00  0.000000D+00  0.000000D+00  0.000000D+00  0.000000D+00
    353   0.000000D+00  0.000000D+00  0.000000D+00  0.000000D+00  0.000000D+00
    354   0.000000D+00  0.000000D+00  0.000000D+00  0.000000D+00  0.000000D+00
    355   0.000000D+00  0.000000D+00  0.000000D+00  0.000000D+00  0.000000D+00
    356   0.000000D+00  0.000000D+00  0.000000D+00  0.000000D+00  0.000000D+00
    357   0.000000D+00  0.000000D+00  0.000000D+00  0.000000D+00  0.000000D+00
    358   0.000000D+00  0.000000D+00  0.000000D+00  0.000000D+00  0.000000D+00
    359   0.000000D+00  0.000000D+00  0.000000D+00  0.000000D+00  0.000000D+00
    360   0.000000D+00  0.000000D+00  0.000000D+00  0.000000D+00  0.000000D+00
    361   0.000000D+00  0.000000D+00  0.000000D+00  0.000000D+00  0.000000D+00
    362   0.000000D+00  0.000000D+00  0.000000D+00  0.000000D+00  0.000000D+00
    363   0.000000D+00  0.000000D+00  0.000000D+00  0.000000D+00  0.000000D+00
    364   0.240067D-02  0.147896D-01 -0.146994D-02 -0.146994D-02  0.146994D-02
    365   0.286752D-02  0.175540D-01 -0.260172D-03 -0.260172D-03  0.260172D-03
    366   0.155935D-02  0.955649D-02 -0.524467D-04 -0.524467D-04  0.524467D-04
    367   0.000000D+00  0.000000D+00  0.000000D+00  0.000000D+00  0.000000D+00
    368   0.000000D+00  0.116268D-05  0.000000D+00  0.000000D+00  0.000000D+00
    369   0.924047D-04  0.682946D-03 -0.272979D-03 -0.272979D-03  0.272979D-03
    370   0.160709D-02  0.100642D-01 -0.181588D-02 -0.181588D-02  0.181588D-02
    371   0.392098D-02  0.239840D-01 -0.190255D-02 -0.190255D-02  0.190255D-02
    372   0.405745D-02  0.248005D-01 -0.858007D-03 -0.858007D-03  0.858007D-03
    373   0.000000D+00  0.000000D+00  0.000000D+00  0.000000D+00  0.000000D+00
    374   0.000000D+00  0.000000D+00  0.000000D+00  0.000000D+00  0.000000D+00
    375   0.000000D+00  0.000000D+00  0.000000D+00  0.000000D+00  0.000000D+00
    376   0.000000D+00  0.000000D+00  0.000000D+00  0.000000D+00  0.000000D+00
    377   0.000000D+00  0.000000D+00  0.000000D+00  0.000000D+00  0.000000D+00
    378   0.000000D+00  0.000000D+00  0.000000D+00  0.000000D+00  0.000000D+00
    379   0.000000D+00  0.256796D-05 -0.195450D-05 -0.219961D-05  0.219961D-05
    380   0.000000D+00  0.256796D-05 -0.219961D-05 -0.195450D-05  0.219961D-05
    381   0.000000D+00 -0.256796D-05  0.219961D-05  0.219961D-05 -0.195450D-05
    382   0.124665D-03  0.941762D-03 -0.334677D-03 -0.429742D-03  0.429742D-03
    383   0.124665D-03  0.941762D-03 -0.429742D-03 -0.334677D-03  0.429742D-03
    384  -0.124665D-03 -0.941762D-03  0.429742D-03  0.429742D-03 -0.334677D-03
    385   0.203191D-02  0.126967D-01 -0.156198D-02 -0.286494D-02  0.286494D-02
    386   0.203191D-02  0.126967D-01 -0.286494D-02 -0.156198D-02  0.286494D-02
[...]
                 (E) (E) (T2) (T2) (T2) (T2) (T2) (T2) (T1) (T1)
                 (T1) (E) (E) (T2) (T2) (T2) (T1) (T1) (T1) (T2)
                 (T2) (T2) (E) (E) (T1) (T1) (T1) (A1) (T2) (T2)
                 (T2) (A2) (T2) (T2) (T2) (A1) (E) (E) (T1) (T1)
                 (T1) (T2) (T2) (T2) (T1) (T1) (T1) (T2) (T2) (T2)
                 (E) (E) (T2) (T2) (T2) (A1) (A1) (T2) (T2) (T2)
                 (A1)
 The electronic state is 1-A1.
 Alpha  occ. eigenvalues -- -405.22708 -52.13415 -46.22157 -46.22157 -46.22157
 Alpha  occ. eigenvalues --   -7.17755  -5.15286  -5.15286  -5.15286  -1.62815
 Alpha  occ. eigenvalues --   -1.62815  -1.62815  -1.62449  -1.62449  -0.73544
 Alpha  occ. eigenvalues --   -0.47186  -0.47186  -0.47186
 Alpha virt. eigenvalues --    0.01247   0.02005   0.02005   0.02005   0.05882
 Alpha virt. eigenvalues --    0.06142   0.06142   0.06142   0.08162   0.08162
 Alpha virt. eigenvalues --    0.08162   0.14480   0.15562   0.15562   0.15562
 Alpha virt. eigenvalues --    0.18132   0.19331   0.19331   0.23601   0.23601
 Alpha virt. eigenvalues --    0.23601   0.30580   0.30580   0.30580   0.33659
 Alpha virt. eigenvalues --    0.35623   0.35623   0.35623   0.41340   0.42378
 Alpha virt. eigenvalues --    0.42378   0.42378   0.50285   0.50285   0.53923
 Alpha virt. eigenvalues --    0.53923   0.53923   0.58998   0.58998   0.58998
 Alpha virt. eigenvalues --    0.61603   0.66063   0.66063   0.67085   0.67085
 Alpha virt. eigenvalues --    0.67085   0.69289   0.70472   0.70472   0.70472
 Alpha virt. eigenvalues --    0.74829   0.74829   0.74829   0.81273   0.81273
 Alpha virt. eigenvalues --    0.81273   0.88748   0.99523   0.99523   0.99523
 Alpha virt. eigenvalues --    1.10921   1.10921   1.10921   1.12601   1.12601
 Alpha virt. eigenvalues --    1.14055   1.14055   1.14055   1.16007   1.18001
 Alpha virt. eigenvalues --    1.18001   1.26634   1.26634   1.26634   1.33458
 Alpha virt. eigenvalues --    1.33458   1.33458   1.34516   1.38224   1.38224
 Alpha virt. eigenvalues --    1.38224   1.38918   1.38918   1.39698   1.39698
 Alpha virt. eigenvalues --    1.39698   1.49709   1.49709   1.49709   1.56832
 Alpha virt. eigenvalues --    1.56832   1.56832   1.59702   1.59702   1.59702
 Alpha virt. eigenvalues --    1.65719   1.65719   1.65719   1.67952   1.74212
 Alpha virt. eigenvalues --    1.83118   1.83118   1.91429   1.91429   1.91429
 Alpha virt. eigenvalues --    1.92755   1.92755   1.92755   2.04064   2.04064
 Alpha virt. eigenvalues --    2.04064   2.05998   2.06164   2.06164   2.08849
 Alpha virt. eigenvalues --    2.08849   2.08849   2.11567   2.18900   2.18900
 Alpha virt. eigenvalues --    2.21707   2.21707   2.21707   2.26412   2.26412
 Alpha virt. eigenvalues --    2.26412   2.38331   2.38331   2.38331   2.38773
 Alpha virt. eigenvalues --    2.38773   2.38773   2.42444   2.44665   2.44665
 Alpha virt. eigenvalues --    2.45420   2.45420   2.45420   2.48678   2.61672
 Alpha virt. eigenvalues --    2.61672   2.61672   2.66542   2.66542   2.66542
 Alpha virt. eigenvalues --    2.76324   2.76324   2.79043   2.79043   2.79043
 Alpha virt. eigenvalues --    2.83021   2.83021   2.83021   2.87209   2.87209
 Alpha virt. eigenvalues --    2.87209   2.89195   3.01835   3.01835   3.01835
 Alpha virt. eigenvalues --    3.03626   3.03626   3.12298   3.12298   3.12298
 Alpha virt. eigenvalues --    3.16373   3.17405   3.17405   3.17405   3.22590
 Alpha virt. eigenvalues --    3.25786   3.25786   3.25786   3.28437   3.28437
 Alpha virt. eigenvalues --    3.28437   3.41297   3.41297   3.45912   3.45912
 Alpha virt. eigenvalues --    3.45912   3.52806   3.52806   3.52806   3.64916
 Alpha virt. eigenvalues --    3.64916   3.64916   3.66236   3.66236   3.67664
 Alpha virt. eigenvalues --    3.78171   3.78171   3.78171   3.83422   3.83422
 Alpha virt. eigenvalues --    3.83422   3.83544   3.83544   3.83544   3.85034
 Alpha virt. eigenvalues --    3.85034   3.86703   3.97853   3.97853   3.97853
 Alpha virt. eigenvalues --    4.01775   4.10609   4.10609   4.10609   4.16068
 Alpha virt. eigenvalues --    4.16068   4.16068   4.17893   4.17893   4.24729
 Alpha virt. eigenvalues --    4.33085   4.33085   4.33085   4.34934   4.34934
 Alpha virt. eigenvalues --    4.34934   4.37716   4.37716   4.37716   4.44622
 Alpha virt. eigenvalues --    4.44622   4.47969   4.47969   4.47969   4.66853
 Alpha virt. eigenvalues --    4.66853   4.66853   4.96609   4.98442   4.98442
 Alpha virt. eigenvalues --    4.98442   5.15998   5.15998   5.18543   5.18543
 Alpha virt. eigenvalues --    5.18543   5.24902   5.24902   5.24902   5.29912
 Alpha virt. eigenvalues --    5.29912   5.36413   5.36413   5.36413   5.45322
 Alpha virt. eigenvalues --    5.62680   5.62680   5.62680   5.72943   5.75246
 Alpha virt. eigenvalues --    5.75246   5.75246   5.81968   5.85948   5.85948
 Alpha virt. eigenvalues --    5.92027   5.92027   5.92027   5.93894   5.93894
 Alpha virt. eigenvalues --    5.93894   5.98015   5.98015   6.03764   6.05646
 Alpha virt. eigenvalues --    6.05646   6.05646   6.05661   6.05661   6.05661
 Alpha virt. eigenvalues --    6.22445   6.22445   6.22445   6.23604   6.23604
 Alpha virt. eigenvalues --    6.29973   6.35599   6.35599   6.35599   6.42756
 Alpha virt. eigenvalues --    6.42756   6.42756   6.47053   6.47053   6.47053
 Alpha virt. eigenvalues --    6.63696   6.63696   6.63696   6.64464   6.64464
 Alpha virt. eigenvalues --    6.64464   6.66374   6.66374   6.66374   6.93471
 Alpha virt. eigenvalues --    6.93471   6.93471   6.94871   7.00260   7.00260
 Alpha virt. eigenvalues --    7.00260   7.00827   7.00827   7.13438   7.13438
 Alpha virt. eigenvalues --    7.13438   7.13674   7.14238   7.22364   7.22364
 Alpha virt. eigenvalues --    7.24842   7.24842   7.25240   7.25240   7.25240
 Alpha virt. eigenvalues --    7.26592   7.26592   7.26592   7.29245   7.36319
 Alpha virt. eigenvalues --    7.36319   7.36319   7.39314   7.39314   7.39314
 Alpha virt. eigenvalues --    7.44561   7.46822   7.46822   7.46822   7.56996
 Alpha virt. eigenvalues --    7.56996   7.56996   7.61383   7.66793   7.66793
 Alpha virt. eigenvalues --    7.66793   7.68007   7.68007   7.70065   7.70065
 Alpha virt. eigenvalues --    7.70065   7.70905   7.70905   7.70905   7.75737
 Alpha virt. eigenvalues --    7.75737   7.75737   7.81744   7.81744   7.81744
 Alpha virt. eigenvalues --    7.86054   7.86054   7.90992   7.90992   7.90992
 Alpha virt. eigenvalues --    7.95098   7.95098   8.01356   8.01633   8.01633
 Alpha virt. eigenvalues --    8.01633   8.06038   8.06038   8.08798   8.08798
 Alpha virt. eigenvalues --    8.08798   8.17982   8.17982   8.17982   8.28276
 Alpha virt. eigenvalues --    8.28276   8.29515   8.29515   8.29515   8.42164
 Alpha virt. eigenvalues --    8.42164   8.42164   8.45893   8.45893   8.45893
 Alpha virt. eigenvalues --    8.49353   8.49353   8.49353   8.73741   8.73741
 Alpha virt. eigenvalues --    8.73741   8.78571   8.78571   8.78571   8.87393
 Alpha virt. eigenvalues --    8.87393   8.88105   8.92119   8.92119   8.92119
 Alpha virt. eigenvalues --    9.03946   9.03946   9.09518   9.09518   9.09518
 Alpha virt. eigenvalues --    9.24258   9.34050   9.38850   9.38850   9.38850
 Alpha virt. eigenvalues --    9.40076   9.40076   9.40076   9.48753   9.48753
 Alpha virt. eigenvalues --    9.50996   9.50996   9.50996   9.62676   9.68302
 Alpha virt. eigenvalues --    9.68302   9.68302   9.70540   9.70540   9.90041
 Alpha virt. eigenvalues --    9.93092   9.93092   9.93092   9.98537   9.98537
 Alpha virt. eigenvalues --    9.98537  10.11738  10.11738  10.11738  10.47998
 Alpha virt. eigenvalues --   10.57630  10.57630  10.57630  10.77657  10.77657
 Alpha virt. eigenvalues --   10.77657  10.95235  10.95235  10.95235  11.03423
 Alpha virt. eigenvalues --   11.03423  11.22814  11.22814  11.22814  11.26132
 Alpha virt. eigenvalues --   11.26132  11.32055  11.32055  11.32055  11.69415
 Alpha virt. eigenvalues --   11.69415  11.69415  11.72239  11.81706  11.81706
 Alpha virt. eigenvalues --   11.81706  12.17416  12.17416  12.17416  12.61045
 Alpha virt. eigenvalues --   12.75715  12.75715  13.24659  13.24659  13.24659
 Alpha virt. eigenvalues --   13.88827  13.99784  14.08497  14.08497  14.08497
 Alpha virt. eigenvalues --   14.20786  14.20786  14.20786  14.89643  14.89643
 Alpha virt. eigenvalues --   14.89845  14.89845  14.89845  15.02153  15.02153
 Alpha virt. eigenvalues --   15.02153  15.15422  15.15422  15.15422  15.31978
 Alpha virt. eigenvalues --   15.37844  15.37844  15.56685  15.56685  15.56685
 Alpha virt. eigenvalues --   15.71865  15.71865  15.71865  15.73528  15.82550
 Alpha virt. eigenvalues --   15.82550  15.82550  15.84044  15.84044  15.84044
 Alpha virt. eigenvalues --   15.91865  15.91865  16.02675  16.02675  16.02675
 Alpha virt. eigenvalues --   16.24892  16.24892  16.24892  16.51764  16.51764
 Alpha virt. eigenvalues --   16.51764  16.60161  16.72150  16.72150  16.72150
 Alpha virt. eigenvalues --   16.72927  16.72927  16.72927  16.85550  16.85550
 Alpha virt. eigenvalues --   16.91982  16.91982  16.91982  16.98362  17.05844
 Alpha virt. eigenvalues --   17.10971  17.10971  17.10971  17.20247  17.20247
 Alpha virt. eigenvalues --   17.50197  17.50197  17.50197  17.52675  17.52675
 Alpha virt. eigenvalues --   17.60011  17.60011  17.60011  17.62986  17.62986
 Alpha virt. eigenvalues --   17.62986  17.67473  17.70885  17.70885  17.70885
 Alpha virt. eigenvalues --   17.78285  17.78285  17.96236  17.96236  17.96236
 Alpha virt. eigenvalues --   18.01155  18.01155  18.01155  18.52585  18.52585
 Alpha virt. eigenvalues --   18.52585  18.64440  18.64440  18.64440  18.86936
 Alpha virt. eigenvalues --   18.86936  18.95381  18.96023  18.96023  18.96023
 Alpha virt. eigenvalues --   19.84275  19.84275  19.84275  20.11773  22.93248
 Alpha virt. eigenvalues --   22.93248  22.93883  22.93883  22.93883  22.95101
 Alpha virt. eigenvalues --   22.95101  22.95101  22.95116  22.95121  22.95121
 Alpha virt. eigenvalues --   22.95121  22.95303  22.96023  22.96023  22.96023
 Alpha virt. eigenvalues --   22.97152  22.97152  22.97497  22.97497  22.97497
 Alpha virt. eigenvalues --   23.01386  23.01386  23.01386  23.05691  23.06475
 Alpha virt. eigenvalues --   23.06475  23.06475  23.08707  23.12639  23.12639
 Alpha virt. eigenvalues --   23.12639  23.13864  23.13864  23.13864  23.20101
 Alpha virt. eigenvalues --   23.20101  23.31757  23.31757  23.31757  23.35410
 Alpha virt. eigenvalues --   23.35410  23.35410  23.40757  23.40757  23.40901
 Alpha virt. eigenvalues --   23.40901  23.40901  23.42997  23.42997  23.42997
 Alpha virt. eigenvalues --   23.50492  23.50492  23.58255  23.58255  23.58255
 Alpha virt. eigenvalues --   23.60522  23.63076  23.63076  23.63076  23.64627
 Alpha virt. eigenvalues --   23.64627  23.64627  23.69066  23.69066  23.81606
 Alpha virt. eigenvalues --   23.81606  23.81606  23.91571  23.91631  24.01309
 Alpha virt. eigenvalues --   24.01309  24.01309  24.04203  24.04203  24.06400
 Alpha virt. eigenvalues --   24.06400  24.06400  24.14201  24.14201  24.14201
 Alpha virt. eigenvalues --   24.18029  24.18029  24.18029  24.18053  24.18053
 Alpha virt. eigenvalues --   24.21688  24.21688  24.21688  24.37051  24.37051
 Alpha virt. eigenvalues --   24.37051  24.44705  24.71397  24.71397  24.71397
 Alpha virt. eigenvalues --   33.11938  33.21472  33.24804  33.24804  33.24804
 Alpha virt. eigenvalues --   33.34354  33.34354  33.34354  33.88898  33.88898
 Alpha virt. eigenvalues --   33.90140  33.90140  33.90140  33.99425  33.99425
 Alpha virt. eigenvalues --   33.99425  34.50879  34.50879  34.50879  34.54064
 Alpha virt. eigenvalues --   34.54064  34.60277  34.60277  34.60277  34.60450
 Alpha virt. eigenvalues --   34.78740  34.78740  34.78740  37.76049  37.76049
 Alpha virt. eigenvalues --   37.76049  37.81348  37.81348  37.82406  37.82406
 Alpha virt. eigenvalues --   37.82406  38.04943  38.08293  38.08293  38.08293
 Alpha virt. eigenvalues --   38.09920  38.09920  38.18083  38.18083  38.18083
 Alpha virt. eigenvalues --   38.20091  38.20091  38.20091  38.34724  38.34724
 Alpha virt. eigenvalues --   38.34724  38.40453  38.40453  38.45811  38.45811
 Alpha virt. eigenvalues --   38.45811  38.53160  38.53160  38.53160  38.67500
 Alpha virt. eigenvalues --   38.67500  38.67500  38.72206  38.72206  38.94982
 Alpha virt. eigenvalues --   38.94982  38.94982  38.97665  39.16770  39.16770
 Alpha virt. eigenvalues --   39.16770  39.27766  39.34994  39.34994  39.34994
 Alpha virt. eigenvalues --   39.35906  39.62361  39.62361  39.68797  39.68797
 Alpha virt. eigenvalues --   39.68797  39.69188  39.69188  39.69188  39.88060
 Alpha virt. eigenvalues --   39.88060  39.88060  39.93154  39.93154  39.93154
 Alpha virt. eigenvalues --   39.96025  39.96025  40.11555  40.11555  40.11555
 Alpha virt. eigenvalues --   40.28707  49.30194  49.49107  49.49107  49.49107
 Alpha virt. eigenvalues --  493.05586
          Condensed to atoms (all electrons):
              1          2          3          4          5
     1  Ge  29.999937   0.416445   0.416445   0.416445   0.416445
     2  H    0.416445   0.722614  -0.018496  -0.018496  -0.018496
     3  H    0.416445  -0.018496   0.722614  -0.018496  -0.018496
     4  H    0.416445  -0.018496  -0.018496   0.722614  -0.018496
     5  H    0.416445  -0.018496  -0.018496  -0.018496   0.722614
 Mulliken atomic charges:
              1
     1  Ge   0.334283
     2  H   -0.083571
     3  H   -0.083571
     4  H   -0.083571
     5  H   -0.083571
 Sum of Mulliken atomic charges =   0.00000
 Mulliken charges with hydrogens summed into heavy atoms:
              1
     1  Ge   0.000000
 Sum of Mulliken charges with hydrogens summed into heavy atoms =   0.00000
          Atomic-Atomic Spin Densities.
              1          2          3          4          5
     1  Ge   0.000000   0.000000   0.000000   0.000000   0.000000
     2  H    0.000000   0.000000   0.000000   0.000000   0.000000
     3  H    0.000000   0.000000   0.000000   0.000000   0.000000
     4  H    0.000000   0.000000   0.000000   0.000000   0.000000
     5  H    0.000000   0.000000   0.000000   0.000000   0.000000
 Mulliken atomic spin densities:
              1
     1  Ge   0.000000
     2  H    0.000000
     3  H    0.000000
     4  H    0.000000
     5  H    0.000000
 Sum of Mulliken atomic spin densities =   0.00000
 Electronic spatial extent (au):  <R**2>=             81.1974
 Charge=              0.0000 electrons
 Dipole moment (field-independent basis, Debye):
    X=              0.0000    Y=              0.0000    Z=              0.0000  Tot=              0.0000
 Quadrupole moment (field-independent basis, Debye-Ang):
   XX=            -21.1969   YY=            -21.1969   ZZ=            -21.1969
   XY=              0.0000   XZ=              0.0000   YZ=              0.0000
 Traceless Quadrupole moment (field-independent basis, Debye-Ang):
   XX=              0.0000   YY=              0.0000   ZZ=              0.0000
   XY=              0.0000   XZ=              0.0000   YZ=              0.0000
 Octapole moment (field-independent basis, Debye-Ang**2):
  XXX=              0.0000  YYY=              0.0000  ZZZ=              0.0000  XYY=              0.0000
  XXY=              0.0000  XXZ=              0.0000  XZZ=              0.0000  YZZ=              0.0000
  YYZ=              0.0000  XYZ=             -1.4499
 Hexadecapole moment (field-independent basis, Debye-Ang**3):
 XXXX=            -48.7930 YYYY=            -48.7930 ZZZZ=            -48.7930 XXXY=              0.0000
 XXXZ=              0.0000 YYYX=              0.0000 YYYZ=              0.0000 ZZZX=              0.0000
 ZZZY=              0.0000 XXYY=            -16.0964 XXZZ=            -16.0964 YYZZ=            -16.0964
 XXYZ=              0.0000 YYXZ=              0.0000 ZZXY=              0.0000
 N-N= 4.521760114598D+01 E-N=-7.598529583890D+03  KE= 3.116548170828D+03
                          Isotropic Fermi Contact Couplings
        Atom                 a.u.       MegaHertz       Gauss      10(-4) cm-1
     1  Ge(73)             0.00000       0.00000       0.00000       0.00000
     2  H(1)               0.00000       0.00000       0.00000       0.00000
     3  H(1)               0.00000       0.00000       0.00000       0.00000
     4  H(1)               0.00000       0.00000       0.00000       0.00000
     5  H(1)               0.00000       0.00000       0.00000       0.00000
 --------------------------------------------------------
       Center         ----  Spin Dipole Couplings  ----
                      3XX-RR        3YY-RR        3ZZ-RR
 --------------------------------------------------------
     1   Atom        0.000000      0.000000      0.000000
     2   Atom        0.000000      0.000000      0.000000
     3   Atom        0.000000      0.000000      0.000000
     4   Atom        0.000000      0.000000      0.000000
     5   Atom        0.000000      0.000000      0.000000
 --------------------------------------------------------
                        XY            XZ            YZ
 --------------------------------------------------------
     1   Atom        0.000000      0.000000      0.000000
     2   Atom        0.000000      0.000000      0.000000
     3   Atom        0.000000      0.000000      0.000000
     4   Atom        0.000000      0.000000      0.000000
     5   Atom        0.000000      0.000000      0.000000
 --------------------------------------------------------


 ---------------------------------------------------------------------------------
              Anisotropic Spin Dipole Couplings in Principal Axis System
 ---------------------------------------------------------------------------------

       Atom             a.u.   MegaHertz   Gauss  10(-4) cm-1        Axes

              Baa     0.0000     0.000     0.000     0.000  1.0000  0.0000  0.0000
     1 Ge(73) Bbb     0.0000     0.000     0.000     0.000  0.0000  1.0000  0.0000
              Bcc     0.0000     0.000     0.000     0.000  0.0000  0.0000  1.0000
 
              Baa     0.0000     0.000     0.000     0.000  1.0000  0.0000  0.0000
     2 H(1)   Bbb     0.0000     0.000     0.000     0.000  0.0000  1.0000  0.0000
              Bcc     0.0000     0.000     0.000     0.000  0.0000  0.0000  1.0000
 
              Baa     0.0000     0.000     0.000     0.000  1.0000  0.0000  0.0000
     3 H(1)   Bbb     0.0000     0.000     0.000     0.000  0.0000  1.0000  0.0000
              Bcc     0.0000     0.000     0.000     0.000  0.0000  0.0000  1.0000
 
              Baa     0.0000     0.000     0.000     0.000  1.0000  0.0000  0.0000
     4 H(1)   Bbb     0.0000     0.000     0.000     0.000  0.0000  1.0000  0.0000
              Bcc     0.0000     0.000     0.000     0.000  0.0000  0.0000  1.0000
 
              Baa     0.0000     0.000     0.000     0.000  1.0000  0.0000  0.0000
     5 H(1)   Bbb     0.0000     0.000     0.000     0.000  0.0000  1.0000  0.0000
              Bcc     0.0000     0.000     0.000     0.000  0.0000  0.0000  1.0000
 

 ---------------------------------------------------------------------------------


 Test job not archived.
 1\1\GINC-C31\SP\ROMP2-RW\Gen\Ge1H4\GPETERSSON\23-Aug-2012\0\\# ROMP2(R
 W) Gen GFinput Int=NoBasisTransform Int(Grid=Ultrafine) IOp(3/32=2,5/6
 =10,8/11=1,9/33=1) Maxdisk=128GB CBSextrapolate(Nmin=25,MinPop)\\GeH4\
 \0,1\Ge\H,1,1.54097082\H,1,1.54097082,2,109.47122063\H,1,1.54097082,2,
 109.47122063,3,120.,0\H,1,1.54097082,2,109.47122063,3,240.,0\\Version=
 EM64L-G09RevA.02\State=1-A1\HF=-2077.7227369\MP2=-2077.8764681\E2(CBS)
 =-0.1559874\CBS-Int=-0.1547055\OIii=1.2053258\RMSD=1.456e-12\PG=TD [O(
 Ge1),4C3(H1)]\\@


 GOD DOES NOT PLAY WITH DICE.
               -- A. EINSTEIN
 Job cpu time:  3 days  6 hours 41 minutes 16.4 seconds.
 File lengths (MBytes):  RWF=  13831 Int=      0 D2E=      0 Chk=     49 Scr=      1
 Normal termination of Gaussian 09 at Thu Aug 23 11:33:24 2012.
