 Entering Gaussian System, Link 0=g09
 AtFile(1): 7ZaPa-NR.gbs
 Initial command:
 /share/apps/gaussian/g09root/g09/l1.exe /localscratch/933550/Gau-30135.inp -scrdir=/localscratch/933550/
 Entering Link 1 = /share/apps/gaussian/g09root/g09/l1.exe PID=     30136.
  
 Copyright (c) 1988,1990,1992,1993,1995,1998,2003,2009, Gaussian, Inc.
                  All Rights Reserved.
  
 This is part of the Gaussian(R) 09 program.  It is based on
 the Gaussian(R) 03 system (copyright 2003, Gaussian, Inc.),
 the Gaussian(R) 98 system (copyright 1998, Gaussian, Inc.),
 the Gaussian(R) 94 system (copyright 1995, Gaussian, Inc.),
 the Gaussian 92(TM) system (copyright 1992, Gaussian, Inc.),
 the Gaussian 90(TM) system (copyright 1990, Gaussian, Inc.),
 the Gaussian 88(TM) system (copyright 1988, Gaussian, Inc.),
 the Gaussian 86(TM) system (copyright 1986, Carnegie Mellon
 University), and the Gaussian 82(TM) system (copyright 1983,
 Carnegie Mellon University). Gaussian is a federally registered
 trademark of Gaussian, Inc.
  
 This software contains proprietary and confidential information,
 including trade secrets, belonging to Gaussian, Inc.
  
 This software is provided under written license and may be
 used, copied, transmitted, or stored only in accord with that
 written license.
  
 The following legend is applicable only to US Government
 contracts under FAR:
  
                    RESTRICTED RIGHTS LEGEND
  
 Use, reproduction and disclosure by the US Government is
 subject to restrictions as set forth in subparagraphs (a)
 and (c) of the Commercial Computer Software - Restricted
 Rights clause in FAR 52.227-19.
  
 Gaussian, Inc.
 340 Quinnipiac St., Bldg. 40, Wallingford CT 06492
  
  
 ---------------------------------------------------------------
 Warning -- This program may not be used in any manner that
 competes with the business of Gaussian, Inc. or will provide
 assistance to any competitor of Gaussian, Inc.  The licensee
 of this program is prohibited from giving any competitor of
 Gaussian, Inc. access to this program.  By using this program,
 the user acknowledges that Gaussian, Inc. is engaged in the
 business of creating and licensing software in the field of
 computational chemistry and represents and warrants to the
 licensee that it is not a competitor of Gaussian, Inc. and that
 it will not use this program in any manner prohibited above.
 ---------------------------------------------------------------
  

 Cite this work as:
 Gaussian 09, Revision A.02,
 M. J. Frisch, G. W. Trucks, H. B. Schlegel, G. E. Scuseria, 
 M. A. Robb, J. R. Cheeseman, G. Scalmani, V. Barone, B. Mennucci, 
 G. A. Petersson, H. Nakatsuji, M. Caricato, X. Li, H. P. Hratchian, 
 A. F. Izmaylov, J. Bloino, G. Zheng, J. L. Sonnenberg, M. Hada, 
 M. Ehara, K. Toyota, R. Fukuda, J. Hasegawa, M. Ishida, T. Nakajima, 
 Y. Honda, O. Kitao, H. Nakai, T. Vreven, J. A. Montgomery, Jr., 
 J. E. Peralta, F. Ogliaro, M. Bearpark, J. J. Heyd, E. Brothers, 
 K. N. Kudin, V. N. Staroverov, R. Kobayashi, J. Normand, 
 K. Raghavachari, A. Rendell, J. C. Burant, S. S. Iyengar, J. Tomasi, 
 M. Cossi, N. Rega, J. M. Millam, M. Klene, J. E. Knox, J. B. Cross, 
 V. Bakken, C. Adamo, J. Jaramillo, R. Gomperts, R. E. Stratmann, 
 O. Yazyev, A. J. Austin, R. Cammi, C. Pomelli, J. W. Ochterski, 
 R. L. Martin, K. Morokuma, V. G. Zakrzewski, G. A. Voth, 
 P. Salvador, J. J. Dannenberg, S. Dapprich, A. D. Daniels, 
 O. Farkas, J. B. Foresman, J. V. Ortiz, J. Cioslowski, 
 and D. J. Fox, Gaussian, Inc., Wallingford CT, 2009.
 
 ******************************************
 Gaussian 09:  EM64L-G09RevA.02 11-Jun-2009
                 2-May-2013 
 ******************************************
 % Mem=6GB
 % Nproc=8
 Will use up to    8 processors via shared memory.
 ----------------------------------------------------------------------
 # ROMP2(RW) Gen GFinput Int=NoBasisTransform Int(Grid=Ultrafine) IOp(3
 /32=2,5/6=10,8/11=1,9/33=1) Maxdisk=128GB CBSextrapolate(Nmin=25,MinPo
 p)
 ----------------------------------------------------------------------
 1/38=1/1;
 2/12=2,17=6,18=5,40=1/2;
 3/5=7,11=2,16=1,24=10,25=1,30=1,32=2,60=-1,75=-5,116=101/1,2,3;
 4//1;
 5/5=2,6=10,38=5/2;
 8/5=-1,10=91,11=1/1;
 9/16=-3,33=1,75=2,81=25,83=4/6,4;
 6/7=2,8=2,9=2,10=2/1;
 99/5=1,9=1/99;
 --------
 GeO 1Sg+
 --------
 Symbolic Z-matrix:
 Charge =  0 Multiplicity = 1
 Ge
 O                    1     1.62465 
 
                          Input orientation:                          
 ---------------------------------------------------------------------
 Center     Atomic      Atomic             Coordinates (Angstroms)
 Number     Number       Type             X           Y           Z
 ---------------------------------------------------------------------
      1         32           0        0.000000    0.000000    0.000000
      2          8           0        0.000000    0.000000    1.624650
 ---------------------------------------------------------------------
 Stoichiometry    GeO
 Framework group  C*V[C*(OGe)]
 Deg. of freedom     1
 Full point group                 C*V     NOp   4
 Largest Abelian subgroup         C2V     NOp   4
 Largest concise Abelian subgroup C1      NOp   1
                         Standard orientation:                         
 ---------------------------------------------------------------------
 Center     Atomic      Atomic             Coordinates (Angstroms)
 Number     Number       Type             X           Y           Z
 ---------------------------------------------------------------------
      1         32           0        0.000000    0.000000    0.324930
      2          8           0        0.000000    0.000000   -1.299720
 ---------------------------------------------------------------------
 Rotational constants (GHZ):      0.0000000     14.5607648     14.5607648
 General basis read from cards:  (5D, 7F)
 AO basis set in the form of general basis input (Overlap normalization):
      1 0
 S  19 1.00       0.000000000000
      0.8707191310D+08  0.3005073544D-06
      0.1669825550D+08  0.1818533280D-05
      0.3859525630D+07  0.1031028591D-04
      0.1045593670D+07  0.4698281939D-04
      0.3239183580D+06  0.1831549625D-03
      0.1122827040D+06  0.6240716948D-03
      0.4273091860D+05  0.1905561269D-02
      0.1756143400D+05  0.5309661789D-02
      0.7684117190D+04  0.1367281523D-01
      0.3536440080D+04  0.3269316489D-01
      0.1694321570D+04  0.7202760736D-01
      0.8377239370D+03  0.1425396431D+00
      0.4243282900D+03  0.2396440051D+00
      0.2188387180D+03  0.3063686411D+00
      0.1143141340D+03  0.2417026980D+00
      0.6021043300D+02  0.8411702340D-01
      0.3184891800D+02  0.7645424842D-02
      0.1685539800D+02  0.9104348067D-03
      0.8891866000D+01  0.1016434407D-04
 S  16 1.00       0.000000000000
      0.4273091860D+05 -0.1234497702D-05
      0.1756143400D+05 -0.9672319890D-05
      0.7684117190D+04 -0.5721849199D-04
      0.3536440080D+04 -0.3191324047D-03
      0.1694321570D+04 -0.1454621765D-02
      0.8377239370D+03 -0.6059369774D-02
      0.4243282900D+03 -0.2080360669D-01
      0.2188387180D+03 -0.5661095074D-01
      0.1143141340D+03 -0.8913728599D-01
      0.6021043300D+02 -0.1414558729D-02
      0.3184891800D+02  0.3098914220D+00
      0.1685539800D+02  0.5146477470D+00
      0.8891866000D+01  0.2594108454D+00
      0.4657631000D+01  0.3298678549D-01
      0.2412055000D+01  0.1428561979D-02
      0.1228901000D+01 -0.7601803025D-03
 P  17 1.00       0.000000000000
      0.1174430380D+06  0.2929071931D-05
      0.3211270170D+05  0.2220745741D-04
      0.1035622780D+05  0.1421432019D-03
      0.3829502370D+04  0.7050720845D-03
      0.1583398750D+04  0.2866935361D-02
      0.7159708880D+03  0.9757952798D-02
      0.3471957940D+03  0.2832181501D-01
      0.1775087620D+03  0.7059822516D-01
      0.9427731900D+02  0.1477216584D+00
      0.5135757400D+02  0.2483888844D+00
      0.2838439400D+02  0.3145594241D+00
      0.1576918100D+02  0.2500337918D+00
      0.8737484000D+01  0.9835996145D-01
      0.4796560000D+01  0.1532905896D-01
      0.2594129000D+01  0.1274961251D-02
      0.1375515000D+01  0.1810616098D-03
      0.7120240000D+00  0.1661202951D-04
 S  12 1.00       0.000000000000
      0.4243282900D+03  0.1389016522D-03
      0.2188387180D+03  0.7331101976D-03
      0.1143141340D+03  0.2981475222D-02
      0.6021043300D+02  0.1618845131D-02
      0.3184891800D+02 -0.3615745898D-01
      0.1685539800D+02 -0.1749707854D+00
      0.8891866000D+01 -0.1335354204D+00
      0.4657631000D+01  0.2842452682D+00
      0.2412055000D+01  0.5827476232D+00
      0.1228901000D+01  0.3278288075D+00
      0.6124070000D+00  0.3366884550D-01
      0.2964650000D+00  0.1474906874D-02
 P  15 1.00       0.000000000000
      0.1583398750D+04 -0.4468798821D-05
      0.7159708880D+03 -0.3649351329D-04
      0.3471957940D+03 -0.2426978284D-03
      0.1775087620D+03 -0.1198011430D-02
      0.9427731900D+02 -0.4469180820D-02
      0.5135757400D+02 -0.1165375033D-01
      0.2838439400D+02 -0.2173662396D-01
      0.1576918100D+02  0.1089098614D-02
      0.8737484000D+01  0.1303270680D+00
      0.4796560000D+01  0.3100348416D+00
      0.2594129000D+01  0.3789054945D+00
      0.1375515000D+01  0.2418316939D+00
      0.7120240000D+00  0.5869325143D-01
      0.3584120000D+00  0.4075599652D-02
      0.1747820000D+00  0.5644374887D-03
 D  16 1.00       0.000000000000
      0.3716671100D+04  0.6098143612D-05
      0.1173615130D+04  0.6126497374D-04
      0.4533829740D+03  0.4079668873D-03
      0.2020128610D+03  0.1937407484D-02
      0.9921297400D+02  0.7211822196D-02
      0.5192319600D+02  0.2130058403D-01
      0.2826466300D+02  0.5196325926D-01
      0.1573951100D+02  0.1083962960D+00
      0.8867485000D+01  0.1818506138D+00
      0.5016733000D+01  0.2392712193D+00
      0.2833262000D+01  0.2570432510D+00
      0.1587258000D+01  0.2269919798D+00
      0.8743800000D+00  0.1516835634D+00
      0.4674350000D+00  0.6547945659D-01
      0.2377920000D+00  0.1347483821D-01
      0.1119320000D+00  0.1024501099D-02
 S  11 1.00       0.000000000000
      0.6021043300D+02 -0.3974529326D-04
      0.3184891800D+02  0.3878706927D-03
      0.1685539800D+02  0.3170552426D-02
      0.8891866000D+01  0.2826985418D-02
      0.4657631000D+01 -0.1262358019D-01
      0.2412055000D+01 -0.6431246080D-01
      0.1228901000D+01 -0.1725622668D+00
      0.6124070000D+00  0.6664773304D-02
      0.2964650000D+00  0.4219025727D+00
      0.1382830000D+00  0.5484238637D+00
      0.6154800000D-01  0.1787391193D+00
 S   1 1.00       0.000000000000
      0.3012465152D-01  0.1000000000D+01
 P  10 1.00       0.000000000000
      0.1576918100D+02 -0.1846393577D-03
      0.8737484000D+01 -0.2104947974D-02
      0.4796560000D+01 -0.5120162132D-02
      0.2594129000D+01 -0.1186971009D-01
      0.1375515000D+01 -0.2083042828D-01
      0.7120240000D+00  0.4547833522D-01
      0.3584120000D+00  0.2291199505D+00
      0.1747820000D+00  0.4050340853D+00
      0.8225900000D-01  0.3623290207D+00
      0.3721000000D-01  0.1025823700D+00
 P   1 1.00       0.000000000000
      0.2107680843D-01  0.1000000000D+01
 S   1 1.00       0.000000000000
      0.3155223000D+01  0.1000000000D+01
 S   1 1.00       0.000000000000
      0.1758949000D+01  0.1000000000D+01
 S   1 1.00       0.000000000000
      0.9805650000D+00  0.1000000000D+01
 S   1 1.00       0.000000000000
      0.5466370000D+00  0.1000000000D+01
 S   1 1.00       0.000000000000
      0.3047350000D+00  0.1000000000D+01
 S   1 1.00       0.000000000000
      0.1698810000D+00  0.1000000000D+01
 P   1 1.00       0.000000000000
      0.1625443000D+01  0.1000000000D+01
 P   1 1.00       0.000000000000
      0.9900980000D+00  0.1000000000D+01
 P   1 1.00       0.000000000000
      0.6030930000D+00  0.1000000000D+01
 P   1 1.00       0.000000000000
      0.3673590000D+00  0.1000000000D+01
 P   1 1.00       0.000000000000
      0.2237670000D+00  0.1000000000D+01
 P   1 1.00       0.000000000000
      0.1363020000D+00  0.1000000000D+01
 D   1 1.00       0.000000000000
      0.1728789000D+01  0.1000000000D+01
 D   1 1.00       0.000000000000
      0.9563500000D+00  0.1000000000D+01
 D   1 1.00       0.000000000000
      0.5290440000D+00  0.1000000000D+01
 D   1 1.00       0.000000000000
      0.2926630000D+00  0.1000000000D+01
 D   1 1.00       0.000000000000
      0.1618980000D+00  0.1000000000D+01
 D   1 1.00       0.000000000000
      0.8956100000D-01  0.1000000000D+01
 D   1 1.00       0.000000000000
      0.4954500000D-01  0.1000000000D+01
 F   1 1.00       0.000000000000
      0.1912526000D+01  0.1000000000D+01
 F   1 1.00       0.000000000000
      0.1021803000D+01  0.1000000000D+01
 F   1 1.00       0.000000000000
      0.5459180000D+00  0.1000000000D+01
 F   1 1.00       0.000000000000
      0.2916670000D+00  0.1000000000D+01
 F   1 1.00       0.000000000000
      0.1558280000D+00  0.1000000000D+01
 F   1 1.00       0.000000000000
      0.8325370000D-01  0.1000000000D+01
 G   1 1.00       0.000000000000
      0.1494392000D+01  0.1000000000D+01
 G   1 1.00       0.000000000000
      0.8215300000D+00  0.1000000000D+01
 G   1 1.00       0.000000000000
      0.4516290000D+00  0.1000000000D+01
 G   1 1.00       0.000000000000
      0.2482790000D+00  0.1000000000D+01
 G   1 1.00       0.000000000000
      0.1364890000D+00  0.1000000000D+01
 H   1 1.00       0.000000000000
      0.9176190000D+00  0.1000000000D+01
 H   1 1.00       0.000000000000
      0.5455350000D+00  0.1000000000D+01
 H   1 1.00       0.000000000000
      0.3243270000D+00  0.1000000000D+01
 H   1 1.00       0.000000000000
      0.1928160000D+00  0.1000000000D+01
 I   1 1.00       0.000000000000
      0.9041630000D+00  0.1000000000D+01
 I   1 1.00       0.000000000000
      0.4871810000D+00  0.1000000000D+01
 I   1 1.00       0.000000000000
      0.2625030000D+00  0.1000000000D+01
 J   1 1.00       0.000000000000
      0.7559568828D+00  0.1000000000D+01
 ****
      2 0
 S  16 1.00       0.000000000000
      0.1411246410D+07  0.1627429822D-05
      0.2499102240D+06  0.1092621996D-04
      0.5603410580D+05  0.6238741867D-04
      0.1521153640D+05  0.2783303491D-03
      0.4812287750D+04  0.1040541872D-02
      0.1717755460D+04  0.3380392793D-02
      0.6733958240D+03  0.9828484765D-02
      0.2835101840D+03  0.2605310129D-01
      0.1258620070D+03  0.6280818057D-01
      0.5804472200D+02  0.1348202075D+00
      0.2747198500D+02  0.2435563460D+00
      0.1321062900D+02  0.3323287378D+00
      0.6399806000D+01  0.2607930483D+00
      0.3099614000D+01  0.7430834326D-01
      0.1489856000D+01  0.4189538074D-02
      0.7052010000D+00  0.8706455725D-03
 S  11 1.00       0.000000000000
      0.2835101840D+03 -0.1122588094D-03
      0.1258620070D+03 -0.5559335617D-03
      0.5804472200D+02 -0.2851687904D-02
      0.2747198500D+02 -0.1133494995D-01
      0.1321062900D+02 -0.3657977704D-01
      0.6399806000D+01 -0.7288994197D-01
      0.3099614000D+01 -0.1062032356D-01
      0.1489856000D+01  0.2196705572D+00
      0.7052010000D+00  0.4294832072D+00
      0.3258480000D+00  0.3775832849D+00
      0.1454600000D+00  0.9640261255D-01
 S   1 1.00       0.000000000000
      0.5814297870D-01  0.1000000000D+01
 P  13 1.00       0.000000000000
      0.2085279200D+04  0.1447911740D-04
      0.5101470830D+03  0.1283233588D-03
      0.1616811510D+03  0.7792790007D-03
      0.6114945200D+02  0.3400506049D-02
      0.2597660200D+02  0.1157685214D-01
      0.1187542600D+02  0.3269740339D-01
      0.5677133000D+01  0.8011404242D-01
      0.2786475000D+01  0.1605265057D+00
      0.1387844000D+01  0.2460495026D+00
      0.6952810000D+00  0.2898982926D+00
      0.3470020000D+00  0.2606799382D+00
      0.1700990000D+00  0.1479363112D+00
      0.8008000000D-01  0.2980261453D-01
 P   1 1.00       0.000000000000
      0.4261436033D-01  0.1000000000D+01
 S   1 1.00       0.000000000000
      0.4249866000D+01  0.1000000000D+01
 S   1 1.00       0.000000000000
      0.2167470000D+01  0.1000000000D+01
 S   1 1.00       0.000000000000
      0.1105429000D+01  0.1000000000D+01
 S   1 1.00       0.000000000000
      0.5637790000D+00  0.1000000000D+01
 S   1 1.00       0.000000000000
      0.2875320000D+00  0.1000000000D+01
 S   1 1.00       0.000000000000
      0.1466440000D+00  0.1000000000D+01
 P   1 1.00       0.000000000000
      0.5659724000D+01  0.1000000000D+01
 P   1 1.00       0.000000000000
      0.2575878000D+01  0.1000000000D+01
 P   1 1.00       0.000000000000
      0.1172344000D+01  0.1000000000D+01
 P   1 1.00       0.000000000000
      0.5335620000D+00  0.1000000000D+01
 P   1 1.00       0.000000000000
      0.2428370000D+00  0.1000000000D+01
 P   1 1.00       0.000000000000
      0.1105210000D+00  0.1000000000D+01
 D   1 1.00       0.000000000000
      0.9464211000D+01  0.1000000000D+01
 D   1 1.00       0.000000000000
      0.4752286000D+01  0.1000000000D+01
 D   1 1.00       0.000000000000
      0.2386276000D+01  0.1000000000D+01
 D   1 1.00       0.000000000000
      0.1198226000D+01  0.1000000000D+01
 D   1 1.00       0.000000000000
      0.6016680000D+00  0.1000000000D+01
 D   1 1.00       0.000000000000
      0.3021170000D+00  0.1000000000D+01
 D   1 1.00       0.000000000000
      0.1517020000D+00  0.1000000000D+01
 F   1 1.00       0.000000000000
      0.7001836000D+01  0.1000000000D+01
 F   1 1.00       0.000000000000
      0.3552509000D+01  0.1000000000D+01
 F   1 1.00       0.000000000000
      0.1802430000D+01  0.1000000000D+01
 F   1 1.00       0.000000000000
      0.9144960000D+00  0.1000000000D+01
 F   1 1.00       0.000000000000
      0.4639860000D+00  0.1000000000D+01
 F   1 1.00       0.000000000000
      0.2354110000D+00  0.1000000000D+01
 G   1 1.00       0.000000000000
      0.6472481000D+01  0.1000000000D+01
 G   1 1.00       0.000000000000
      0.3119071000D+01  0.1000000000D+01
 G   1 1.00       0.000000000000
      0.1503072000D+01  0.1000000000D+01
 G   1 1.00       0.000000000000
      0.7243260000D+00  0.1000000000D+01
 G   1 1.00       0.000000000000
      0.3490500000D+00  0.1000000000D+01
 H   1 1.00       0.000000000000
      0.5355083000D+01  0.1000000000D+01
 H   1 1.00       0.000000000000
      0.2414696000D+01  0.1000000000D+01
 H   1 1.00       0.000000000000
      0.1088827000D+01  0.1000000000D+01
 H   1 1.00       0.000000000000
      0.4909703000D+00  0.1000000000D+01
 I   1 1.00       0.000000000000
      0.4322113000D+01  0.1000000000D+01
 I   1 1.00       0.000000000000
      0.1716263000D+01  0.1000000000D+01
 I   1 1.00       0.000000000000
      0.6815089000D+00  0.1000000000D+01
 J   1 1.00       0.000000000000
      0.3060973723D+01  0.1000000000D+01
 ****

 There are   178 symmetry adapted basis functions of A1  symmetry.
 There are    87 symmetry adapted basis functions of A2  symmetry.
 There are   127 symmetry adapted basis functions of B1  symmetry.
 There are   127 symmetry adapted basis functions of B2  symmetry.
 Integral buffers will be    131072 words long.
 Raffenetti 2 integral format.
 Two-electron integral symmetry is turned on.
   519 basis functions,  1164 primitive gaussians,   842 cartesian basis functions
    20 alpha electrons       20 beta electrons
       nuclear repulsion energy        83.3837228936 Hartrees.
 NAtoms=    2 NActive=    2 NUniq=    2 SFac= 7.50D-01 NAtFMM=   80 NAOKFM=F Big=F
 One-electron integrals computed using PRISM.
 PrsmSu:  requested number of processors reduced to:   6 ShMem   1 Linda.
 NBasis=   519 RedAO= F  NBF=   178    87   127   127
 NBsUse=   519 1.00D-04 NBFU=   178    87   127   127
 Harris functional with IExCor=  205 diagonalized for initial guess.
 ExpMin= 2.11D-02 ExpMax= 8.71D+07 ExpMxC= 7.68D+03 IAcc=3 IRadAn=         5 AccDes= 0.00D+00
 HarFok:  IExCor=  205 AccDes= 0.00D+00 IRadAn=         5 IDoV= 1
 ScaDFX=  1.000000  1.000000  1.000000  1.000000
 FoFCou: FMM=F IPFlag=           0 FMFlag=      100000 FMFlg1=           0
         NFxFlg=           0 DoJE=T BraDBF=F KetDBF=T FulRan=T
         Omega=  0.000000  0.000000  1.000000  0.000000  0.000000 ICntrl=     500 IOpCl=  0
         NMat0=    1 NMatS0=    1 NMatT0=    0 NMatD0=    1 NMtDS0=    0 NMtDT0=    0
         I1Cent=           4 NGrid=           0.
 Petite list used in FoFCou.
 CoulSu:  requested number of processors reduced to:   6 ShMem   1 Linda.
 CoulSu:  requested number of processors reduced to:   6 ShMem   1 Linda.
 CoulSu:  requested number of processors reduced to:   6 ShMem   1 Linda.
 CoulSu:  requested number of processors reduced to:   6 ShMem   1 Linda.
 Initial guess orbital symmetries:
       Occupied  (SG) (SG) (SG) (PI) (PI) (SG) (SG) (SG) (PI) (PI)
                 (SG) (PI) (PI) (DLTA) (DLTA) (SG) (SG) (PI) (PI)
                 (SG)
       Virtual   (PI) (PI) (SG) (SG) (PI) (PI) (SG) (DLTA) (DLTA)
                 (PI) (PI) (SG) (PI) (PI) (SG) (SG) (PI) (PI) (SG)
                 (DLTA) (DLTA) (PHI) (PHI) (DLTA) (DLTA) (PI) (PI)
                 (SG) (SG) (PI) (PI) (PI) (PI) (SG) (SG) (DLTA)
                 (DLTA) (SG) (PI) (PI) (PHI) (PHI) (?A) (?A) (DLTA)
                 (DLTA) (PI) (PI) (DLTA) (DLTA) (SG) (PI) (PI)
                 (PHI) (PHI) (DLTA) (DLTA) (SG) (PI) (PI) (SG)
                 (PI) (PI) (SG) (PHI) (PHI) (?A) (?A) (?B) (?B)
                 (SG) (DLTA) (DLTA) (SG) (PI) (PI) (SG) (DLTA)
                 (DLTA) (PI) (PI) (PI) (PI) (PHI) (PHI) (SG) (DLTA)
                 (DLTA) (DLTA) (DLTA) (PI) (PI) (SG) (PHI) (PHI)
                 (?A) (?A) (PHI) (PHI) (DLTA) (DLTA) (PI) (PI)
                 (SG) (SG) (PI) (PI) (SG) (PI) (PI) (?A) (?A) (DLTA)
                 (DLTA) (?B) (?B) (SG) (SG) (SG) (PHI) (PHI) (PI)
                 (PI) (SG) (PI) (PI) (DLTA) (DLTA) (?A) (?A) (PHI)
                 (PHI) (SG) (DLTA) (DLTA) (SG) (?A) (?A) (?B) (?B)
                 (PI) (PI) (DLTA) (DLTA) (SG) (PHI) (PHI) (PI)
                 (PI) (DLTA) (DLTA) (SG) (PHI) (PHI) (DLTA) (DLTA)
                 (SG) (PI) (PI) (PI) (PI) (SG) (PHI) (PHI) (?A)
                 (?A) (DLTA) (DLTA) (PHI) (PHI) (PI) (PI) (SG)
                 (DLTA) (DLTA) (?B) (?B) (PI) (PI) (SG) (PI) (PI)
                 (SG) (?A) (?A) (SG) (DLTA) (DLTA) (PI) (PI) (PHI)
                 (PHI) (SG) (?B) (?B) (SG) (SG) (DLTA) (DLTA) (?A)
                 (?A) (SG) (PHI) (PHI) (PI) (PI) (PI) (PI) (DLTA)
                 (DLTA) (?A) (?A) (?B) (?B) (SG) (DLTA) (DLTA)
                 (PI) (PI) (PHI) (PHI) (SG) (?A) (?A) (PI) (PI)
                 (SG) (PI) (PI) (SG) (SG) (DLTA) (DLTA) (PHI) (PHI)
                 (PHI) (PHI) (?B) (?B) (SG) (DLTA) (DLTA) (PHI)
                 (PHI) (DLTA) (DLTA) (?A) (?A) (SG) (PI) (PI) (SG)
                 (PHI) (PHI) (DLTA) (DLTA) (PI) (PI) (SG) (?A)
                 (?A) (PI) (PI) (SG) (DLTA) (DLTA) (?C) (?C) (SG)
                 (SG) (SG) (PI) (PI) (PHI) (PHI) (DLTA) (DLTA)
                 (PI) (PI) (?B) (?B) (SG) (SG) (DLTA) (DLTA) (PI)
                 (PI) (PI) (PI) (?A) (?A) (SG) (PHI) (PHI) (DLTA)
                 (DLTA) (?B) (?B) (?A) (?A) (SG) (?B) (?B) (PI)
                 (PI) (?A) (?A) (PI) (PI) (PHI) (PHI) (SG) (SG)
                 (?B) (?B) (DLTA) (DLTA) (PHI) (PHI) (?A) (?A)
                 (SG) (DLTA) (DLTA) (PI) (PI) (SG) (PI) (PI) (SG)
                 (PHI) (PHI) (DLTA) (DLTA) (?A) (?A) (PHI) (PHI)
                 (SG) (PI) (PI) (DLTA) (DLTA) (?A) (?A) (SG) (PHI)
                 (PHI) (PHI) (PHI) (DLTA) (DLTA) (PI) (PI) (SG)
                 (PHI) (PHI) (PI) (PI) (SG) (DLTA) (DLTA) (SG)
                 (DLTA) (DLTA) (PI) (PI) (DLTA) (DLTA) (SG) (PI)
                 (PI) (DLTA) (DLTA) (SG) (PI) (PI) (PI) (PI) (SG)
                 (SG) (?B) (?B) (?A) (?A) (SG) (PHI) (PHI) (SG)
                 (DLTA) (DLTA) (PI) (PI) (SG) (PI) (PI) (SG) (?B)
                 (?B) (?A) (?A) (PHI) (PHI) (SG) (PI) (PI) (DLTA)
                 (DLTA) (SG) (PI) (PI) (?A) (?A) (PHI) (PHI) (SG)
                 (PHI) (PHI) (DLTA) (DLTA) (PI) (PI) (SG) (DLTA)
                 (DLTA) (PI) (PI) (SG) (DLTA) (DLTA) (PI) (PI)
                 (SG) (?B) (?B) (SG) (SG) (?C) (?C) (?A) (?A) (PHI)
                 (PHI) (DLTA) (DLTA) (PI) (PI) (SG) (SG) (SG) (SG)
                 (?B) (?B) (?A) (?A) (PHI) (PHI) (DLTA) (DLTA)
                 (PI) (PI) (SG) (?B) (?B) (?A) (?A) (PHI) (PHI)
                 (DLTA) (DLTA) (PI) (PI) (SG) (PHI) (PHI) (DLTA)
                 (DLTA) (PI) (PI) (SG) (?A) (?A) (PHI) (PHI) (DLTA)
                 (DLTA) (SG) (PI) (PI) (DLTA) (DLTA) (PI) (PI)
                 (SG) (PI) (PI) (SG) (SG) (SG)
 The electronic state of the initial guess is 1-SG.
 Requested convergence on RMS density matrix=1.00D-10 within 128 cycles.
 Requested convergence on MAX density matrix=1.00D-08.
 Requested convergence on             energy=1.00D-08.
 No special actions if energy rises.
 CoulSu:  requested number of processors reduced to:   6 ShMem   1 Linda.
 CoulSu:  requested number of processors reduced to:   6 ShMem   1 Linda.
 CoulSu:  requested number of processors reduced to:   6 ShMem   1 Linda.
 CoulSu:  requested number of processors reduced to:   6 ShMem   1 Linda.
 CoulSu:  requested number of processors reduced to:   6 ShMem   1 Linda.
 CoulSu:  requested number of processors reduced to:   6 ShMem   1 Linda.
 CoulSu:  requested number of processors reduced to:   6 ShMem   1 Linda.
 CoulSu:  requested number of processors reduced to:   6 ShMem   1 Linda.
 Initial convergence to 1.0D-05 achieved.  Increase integral accuracy.
 CoulSu:  requested number of processors reduced to:   6 ShMem   1 Linda.
 CoulSu:  requested number of processors reduced to:   6 ShMem   1 Linda.
 CoulSu:  requested number of processors reduced to:   6 ShMem   1 Linda.
 CoulSu:  requested number of processors reduced to:   6 ShMem   1 Linda.
 CoulSu:  requested number of processors reduced to:   6 ShMem   1 Linda.
 CoulSu:  requested number of processors reduced to:   6 ShMem   1 Linda.
 CoulSu:  requested number of processors reduced to:   6 ShMem   1 Linda.
 CoulSu:  requested number of processors reduced to:   6 ShMem   1 Linda.
 CoulSu:  requested number of processors reduced to:   6 ShMem   1 Linda.
 SCF Done:  E(ROHF) =  -2150.30011031     A.U. after   17 cycles
             Convg  =    0.2548D-10             -V/T =  2.0001
 <Sx>= 0.0000 <Sy>= 0.0000 <Sz>= 0.0000 <S**2>= 0.0000 S= 0.0000
 <L.S>= 0.000000000000E+00
 Annihilation of the first spin contaminant:
 S**2 before annihilation     0.0000,   after     0.0000
 DiagDN has N=   519 LTot=  1589 but NE2=     3 cannot use DSYEVD.
 GenMOA:  NOpAll=  4 NOp2=4 NOpUse=  4 JSym2X=1
 CoulSu:  requested number of processors reduced to:   6 ShMem   1 Linda.
 <Sx>= 0.0000 <Sy>= 0.0000 <Sz>= 0.0000 <S**2>= 0.0000 S= 0.0000
 Range of M.O.s used for correlation:    16   519
 NBasis=   519 NAE=    20 NBE=    20 NFC=    15 NFV=     0
 NROrb=    504 NOA=     5 NOB=     5 NVA=   499 NVB=   499

 **** Warning!!: The largest alpha MO coefficient is  0.55121260D+03


 **** Warning!!: The largest beta MO coefficient is  0.55121260D+03

 Singles contribution to E2=   -0.4403945426D-14
 Disk-based method using OVN memory for  5 occupieds at a time.
 Permanent disk used for amplitudes and <ij||ab> integrals=    17420090 words.
 Estimated scratch disk usage=  2263877542 words.
 IUseRI=2 ITolRI= 6 IR12RI=0
 Actual    scratch disk usage=  2262951846 words.
 GetIJB would need an additional  1074474134 words of memory to use all   8 processors.
 JobTyp=2 Pass  1:  I=   1 to   5 NPSUse=  1 ParTrn=F ParDer=F DoDerP=F.
 T,EIJ(AA): I=   1 J=   2      0.3726323E-03     -0.1786510E-02
 T,EIJ(AA): I=   1 J=   3      0.8061477E-03     -0.3376368E-02
 T,EIJ(AA): I=   1 J=   4      0.8061477E-03     -0.3376368E-02
 T,EIJ(AA): I=   1 J=   5      0.2885246E-03     -0.1389114E-02
 T,EIJ(AA): I=   2 J=   3      0.1849134E-02     -0.5595006E-02
 T,EIJ(AA): I=   2 J=   4      0.1849134E-02     -0.5595006E-02
 T,EIJ(AA): I=   2 J=   5      0.4862806E-03     -0.1189361E-02
 T,EIJ(AA): I=   3 J=   4      0.5616425E-02     -0.1194636E-01
 T,EIJ(AA): I=   3 J=   5      0.2786820E-02     -0.6301032E-02
 T,EIJ(AA): I=   4 J=   5      0.2786820E-02     -0.6301032E-02
 T,EIJ(AB): I=   1 J=   1      0.1869565E-02     -0.1213833E-01
 T,EIJ(AB): I=   1 J=   2      0.1008319E-02     -0.5909372E-02
 T,EIJ(AB): I=   1 J=   3      0.2195367E-02     -0.1106857E-01
 T,EIJ(AB): I=   1 J=   4      0.2195367E-02     -0.1106857E-01
 T,EIJ(AB): I=   1 J=   5      0.1053920E-02     -0.5588131E-02
 T,EIJ(AB): I=   2 J=   1      0.1008319E-02     -0.5909372E-02
 T,EIJ(AB): I=   2 J=   2      0.5098276E-02     -0.1444934E-01
 T,EIJ(AB): I=   2 J=   3      0.2889890E-02     -0.8862571E-02
 T,EIJ(AB): I=   2 J=   4      0.2889890E-02     -0.8862571E-02
 T,EIJ(AB): I=   2 J=   5      0.4281130E-02     -0.1125344E-01
 T,EIJ(AB): I=   3 J=   1      0.2195367E-02     -0.1106857E-01
 T,EIJ(AB): I=   3 J=   2      0.2889890E-02     -0.8862571E-02
 T,EIJ(AB): I=   3 J=   3      0.1184673E-01     -0.2865929E-01
 T,EIJ(AB): I=   3 J=   4      0.7272969E-02     -0.1614688E-01
 T,EIJ(AB): I=   3 J=   5      0.3046662E-02     -0.7856519E-02
 T,EIJ(AB): I=   4 J=   1      0.2195367E-02     -0.1106857E-01
 T,EIJ(AB): I=   4 J=   2      0.2889890E-02     -0.8862571E-02
 T,EIJ(AB): I=   4 J=   3      0.7272969E-02     -0.1614688E-01
 T,EIJ(AB): I=   4 J=   4      0.1184673E-01     -0.2865929E-01
 T,EIJ(AB): I=   4 J=   5      0.3046662E-02     -0.7856519E-02
 T,EIJ(AB): I=   5 J=   1      0.1053920E-02     -0.5588131E-02
 T,EIJ(AB): I=   5 J=   2      0.4281130E-02     -0.1125344E-01
 T,EIJ(AB): I=   5 J=   3      0.3046662E-02     -0.7856519E-02
 T,EIJ(AB): I=   5 J=   4      0.3046662E-02     -0.7856519E-02
 T,EIJ(AB): I=   5 J=   5      0.9820377E-02     -0.1874547E-01
 Actual    scratch disk usage=  2262951846 words.
 GetIJB would need an additional  1074474134 words of memory to use all   8 processors.
 JobTyp=3 Pass  1:  I=   1 to   5 NPSUse=  1 ParTrn=F ParDer=F DoDerP=F.
 T,EIJ(BB): I=   1 J=   2      0.3726323E-03     -0.1786510E-02
 T,EIJ(BB): I=   1 J=   3      0.8061477E-03     -0.3376368E-02
 T,EIJ(BB): I=   1 J=   4      0.8061477E-03     -0.3376368E-02
 T,EIJ(BB): I=   1 J=   5      0.2885246E-03     -0.1389114E-02
 T,EIJ(BB): I=   2 J=   3      0.1849134E-02     -0.5595006E-02
 T,EIJ(BB): I=   2 J=   4      0.1849134E-02     -0.5595006E-02
 T,EIJ(BB): I=   2 J=   5      0.4862806E-03     -0.1189361E-02
 T,EIJ(BB): I=   3 J=   4      0.5616425E-02     -0.1194636E-01
 T,EIJ(BB): I=   3 J=   5      0.2786820E-02     -0.6301032E-02
 T,EIJ(BB): I=   4 J=   5      0.2786820E-02     -0.6301032E-02
 Spin components of T(2) and E(2):
     alpha-alpha T2 =       0.1764806629D-01 E2=     -0.4685615485D-01
     alpha-beta  T2 =       0.1002420319D+00 E2=     -0.2915980170D+00
     beta-beta   T2 =       0.1764806629D-01 E2=     -0.4685615485D-01
 ANorm=    0.1065616331D+01
 E2 =    -0.3853103267D+00 EUMP2 =    -0.21506854206402D+04

 Complete Basis Set (CBS) Extrapolation:
 M. R. Nyden and G. A. Petersson, JCP 75, 1843 (1981)
 G. A. Petersson and M. A. Al-Laham, JCP 94, 6081 (1991)
 G. A. Petersson, T. Tensfeldt, and J. A. Montgomery, JCP 94, 6091 (1991)
 J. A. Montgomery, J. W. Ochterski, and G. A. Petersson, JCP 101, 5900 (1994)
 
 Minimum Number of PNO for Extrapolation =  25
 Absolute Overlaps: IRadAn =         5
 LocTrn: ILocal=3 LocCor=F DoCore=F.
 Entering OneElI...
 Overlap between basis sets.
 Requested accuracy = 0.1000D-12
 PrsmSu:  NPrtUS=   1 ThrOK=F IAlg=1
 PRISM was handed   804044586 working-precision words and    62 shell-pairs
 IPart=  0 NShTot=          62 NBatch=          14 AvBLen=         4.4
 CnvPC2: ToCart=F DoDens=F IPureD=0 IPureF=0.
 Transformed matrix in CnvPC2: 
                 1             2             3             4             5 
      1   0.100000D+01  0.402055D+00  0.000000D+00  0.000000D+00  0.000000D+00
      2   0.402055D+00  0.100000D+01  0.000000D+00  0.000000D+00  0.000000D+00
      3   0.000000D+00  0.000000D+00  0.100000D+01  0.000000D+00  0.000000D+00
      4   0.000000D+00  0.000000D+00  0.000000D+00  0.100000D+01  0.000000D+00
      5   0.000000D+00  0.000000D+00  0.000000D+00  0.000000D+00  0.100000D+01
      6   0.277653D-01  0.326539D+00  0.000000D+00  0.000000D+00  0.000000D+00
      7   0.000000D+00  0.000000D+00  0.339478D+00  0.000000D+00  0.000000D+00
      8   0.000000D+00  0.000000D+00  0.000000D+00  0.339478D+00  0.000000D+00
      9   0.000000D+00  0.000000D+00  0.000000D+00  0.000000D+00  0.339478D+00
     10   0.000000D+00  0.000000D+00  0.000000D+00  0.000000D+00  0.000000D+00
     11   0.000000D+00  0.000000D+00  0.000000D+00  0.000000D+00  0.000000D+00
     12   0.000000D+00  0.000000D+00  0.000000D+00  0.000000D+00  0.000000D+00
     13   0.000000D+00  0.000000D+00  0.000000D+00  0.000000D+00  0.000000D+00
     14   0.000000D+00  0.000000D+00  0.000000D+00  0.000000D+00  0.000000D+00
     15  -0.375498D-03  0.437680D-02  0.000000D+00  0.000000D+00  0.000000D+00
     16   0.000000D+00  0.000000D+00  0.122886D-01  0.000000D+00  0.000000D+00
     17   0.000000D+00  0.000000D+00  0.000000D+00  0.122886D-01  0.000000D+00
     18   0.000000D+00  0.000000D+00  0.000000D+00  0.000000D+00  0.122886D-01
     19   0.000000D+00  0.000000D+00  0.000000D+00  0.000000D+00  0.000000D+00
     20   0.000000D+00  0.000000D+00  0.000000D+00  0.000000D+00  0.000000D+00
     21   0.000000D+00  0.000000D+00  0.000000D+00  0.000000D+00  0.000000D+00
     22   0.000000D+00  0.000000D+00  0.000000D+00  0.000000D+00  0.000000D+00
     23   0.000000D+00  0.000000D+00  0.000000D+00  0.000000D+00  0.000000D+00
     24   0.000000D+00  0.000000D+00  0.000000D+00  0.000000D+00  0.000000D+00
     25   0.527505D-03  0.338294D-02  0.000000D+00  0.000000D+00 -0.133358D-02
     26   0.000000D+00  0.000000D+00  0.395171D-03  0.000000D+00  0.000000D+00
     27   0.000000D+00  0.000000D+00  0.000000D+00  0.395171D-03  0.000000D+00
     28   0.111893D-02  0.703610D-02  0.000000D+00  0.000000D+00 -0.240995D-02
                 6             7             8             9            10 
      1   0.277653D-01  0.000000D+00  0.000000D+00  0.000000D+00  0.000000D+00
      2   0.326539D+00  0.000000D+00  0.000000D+00  0.000000D+00  0.000000D+00
      3   0.000000D+00  0.339478D+00  0.000000D+00  0.000000D+00  0.000000D+00
      4   0.000000D+00  0.000000D+00  0.339478D+00  0.000000D+00  0.000000D+00
      5   0.000000D+00  0.000000D+00  0.000000D+00  0.339478D+00  0.000000D+00
      6   0.100000D+01  0.000000D+00  0.000000D+00  0.000000D+00  0.000000D+00
      7   0.000000D+00  0.100000D+01  0.000000D+00  0.000000D+00  0.000000D+00
      8   0.000000D+00  0.000000D+00  0.100000D+01  0.000000D+00  0.000000D+00
      9   0.000000D+00  0.000000D+00  0.000000D+00  0.100000D+01  0.000000D+00
     10   0.000000D+00  0.000000D+00  0.000000D+00  0.000000D+00  0.100000D+01
     11   0.000000D+00  0.000000D+00  0.000000D+00  0.000000D+00  0.000000D+00
     12   0.000000D+00  0.000000D+00  0.000000D+00  0.000000D+00  0.000000D+00
     13   0.000000D+00  0.000000D+00  0.000000D+00  0.000000D+00  0.000000D+00
     14   0.000000D+00  0.000000D+00  0.000000D+00  0.000000D+00  0.000000D+00
     15   0.194461D+00  0.000000D+00  0.000000D+00  0.000000D+00  0.000000D+00
     16   0.000000D+00  0.211028D+00  0.000000D+00  0.000000D+00  0.000000D+00
     17   0.000000D+00  0.000000D+00  0.211028D+00  0.000000D+00  0.000000D+00
     18   0.000000D+00  0.000000D+00  0.000000D+00  0.211028D+00  0.000000D+00
     19   0.000000D+00  0.000000D+00  0.000000D+00  0.000000D+00  0.658109D-01
     20   0.000000D+00  0.000000D+00  0.000000D+00  0.000000D+00  0.000000D+00
     21   0.000000D+00  0.000000D+00  0.000000D+00  0.000000D+00  0.000000D+00
     22   0.000000D+00  0.000000D+00  0.000000D+00  0.000000D+00  0.000000D+00
     23   0.000000D+00  0.000000D+00  0.000000D+00  0.000000D+00  0.000000D+00
     24   0.117022D-05  0.000000D+00  0.000000D+00 -0.394249D-05  0.859233D-05
     25   0.256583D-01  0.000000D+00  0.000000D+00 -0.256983D-01  0.148416D-01
     26   0.000000D+00  0.776498D-02  0.000000D+00  0.000000D+00  0.000000D+00
     27   0.000000D+00  0.000000D+00  0.776498D-02  0.000000D+00  0.000000D+00
     28   0.468826D-01  0.000000D+00  0.000000D+00 -0.424789D-01  0.228078D-01
                11            12            13            14            15 
      1   0.000000D+00  0.000000D+00  0.000000D+00  0.000000D+00 -0.375498D-03
      2   0.000000D+00  0.000000D+00  0.000000D+00  0.000000D+00  0.437680D-02
      3   0.000000D+00  0.000000D+00  0.000000D+00  0.000000D+00  0.000000D+00
      4   0.000000D+00  0.000000D+00  0.000000D+00  0.000000D+00  0.000000D+00
      5   0.000000D+00  0.000000D+00  0.000000D+00  0.000000D+00  0.000000D+00
      6   0.000000D+00  0.000000D+00  0.000000D+00  0.000000D+00  0.194461D+00
      7   0.000000D+00  0.000000D+00  0.000000D+00  0.000000D+00  0.000000D+00
      8   0.000000D+00  0.000000D+00  0.000000D+00  0.000000D+00  0.000000D+00
      9   0.000000D+00  0.000000D+00  0.000000D+00  0.000000D+00  0.000000D+00
     10   0.000000D+00  0.000000D+00  0.000000D+00  0.000000D+00  0.000000D+00
     11   0.100000D+01  0.000000D+00  0.000000D+00  0.000000D+00  0.000000D+00
     12   0.000000D+00  0.100000D+01  0.000000D+00  0.000000D+00  0.000000D+00
     13   0.000000D+00  0.000000D+00  0.100000D+01  0.000000D+00  0.000000D+00
     14   0.000000D+00  0.000000D+00  0.000000D+00  0.100000D+01  0.000000D+00
     15   0.000000D+00  0.000000D+00  0.000000D+00  0.000000D+00  0.100000D+01
     16   0.000000D+00  0.000000D+00  0.000000D+00  0.000000D+00  0.000000D+00
     17   0.000000D+00  0.000000D+00  0.000000D+00  0.000000D+00  0.000000D+00
     18   0.000000D+00  0.000000D+00  0.000000D+00  0.000000D+00  0.000000D+00
     19   0.000000D+00  0.000000D+00  0.000000D+00  0.000000D+00  0.000000D+00
     20   0.658109D-01  0.000000D+00  0.000000D+00  0.000000D+00  0.000000D+00
     21   0.000000D+00  0.658109D-01  0.000000D+00  0.000000D+00  0.000000D+00
     22   0.000000D+00  0.000000D+00  0.658109D-01  0.000000D+00  0.000000D+00
     23   0.000000D+00  0.000000D+00  0.000000D+00  0.658109D-01  0.000000D+00
     24   0.000000D+00  0.000000D+00  0.000000D+00  0.000000D+00  0.293276D-01
     25   0.000000D+00  0.000000D+00  0.000000D+00  0.000000D+00  0.284209D+00
     26  -0.793985D-02  0.000000D+00  0.000000D+00  0.000000D+00  0.000000D+00
     27   0.000000D+00 -0.793985D-02  0.000000D+00  0.000000D+00  0.000000D+00
     28   0.000000D+00  0.000000D+00  0.000000D+00  0.000000D+00  0.209072D+00
                16            17            18            19            20 
      1   0.000000D+00  0.000000D+00  0.000000D+00  0.000000D+00  0.000000D+00
      2   0.000000D+00  0.000000D+00  0.000000D+00  0.000000D+00  0.000000D+00
      3   0.122886D-01  0.000000D+00  0.000000D+00  0.000000D+00  0.000000D+00
      4   0.000000D+00  0.122886D-01  0.000000D+00  0.000000D+00  0.000000D+00
      5   0.000000D+00  0.000000D+00  0.122886D-01  0.000000D+00  0.000000D+00
      6   0.000000D+00  0.000000D+00  0.000000D+00  0.000000D+00  0.000000D+00
      7   0.211028D+00  0.000000D+00  0.000000D+00  0.000000D+00  0.000000D+00
      8   0.000000D+00  0.211028D+00  0.000000D+00  0.000000D+00  0.000000D+00
      9   0.000000D+00  0.000000D+00  0.211028D+00  0.000000D+00  0.000000D+00
     10   0.000000D+00  0.000000D+00  0.000000D+00  0.658109D-01  0.000000D+00
     11   0.000000D+00  0.000000D+00  0.000000D+00  0.000000D+00  0.658109D-01
     12   0.000000D+00  0.000000D+00  0.000000D+00  0.000000D+00  0.000000D+00
     13   0.000000D+00  0.000000D+00  0.000000D+00  0.000000D+00  0.000000D+00
     14   0.000000D+00  0.000000D+00  0.000000D+00  0.000000D+00  0.000000D+00
     15   0.000000D+00  0.000000D+00  0.000000D+00  0.000000D+00  0.000000D+00
     16   0.100000D+01  0.000000D+00  0.000000D+00  0.000000D+00  0.000000D+00
     17   0.000000D+00  0.100000D+01  0.000000D+00  0.000000D+00  0.000000D+00
     18   0.000000D+00  0.000000D+00  0.100000D+01  0.000000D+00  0.000000D+00
     19   0.000000D+00  0.000000D+00  0.000000D+00  0.100000D+01  0.000000D+00
     20   0.000000D+00  0.000000D+00  0.000000D+00  0.000000D+00  0.100000D+01
     21   0.000000D+00  0.000000D+00  0.000000D+00  0.000000D+00  0.000000D+00
     22   0.000000D+00  0.000000D+00  0.000000D+00  0.000000D+00  0.000000D+00
     23   0.000000D+00  0.000000D+00  0.000000D+00  0.000000D+00  0.000000D+00
     24   0.000000D+00  0.000000D+00 -0.496480D-01  0.879426D-01  0.000000D+00
     25   0.000000D+00  0.000000D+00 -0.415684D+00  0.498723D+00  0.000000D+00
     26   0.144178D+00  0.000000D+00  0.000000D+00  0.000000D+00 -0.311999D+00
     27   0.000000D+00  0.144178D+00  0.000000D+00  0.000000D+00  0.000000D+00
     28   0.000000D+00  0.000000D+00 -0.276748D+00  0.822010D-01  0.000000D+00
                21            22            23            24            25 
      1   0.000000D+00  0.000000D+00  0.000000D+00  0.000000D+00  0.527505D-03
      2   0.000000D+00  0.000000D+00  0.000000D+00  0.000000D+00  0.338294D-02
      3   0.000000D+00  0.000000D+00  0.000000D+00  0.000000D+00  0.000000D+00
      4   0.000000D+00  0.000000D+00  0.000000D+00  0.000000D+00  0.000000D+00
      5   0.000000D+00  0.000000D+00  0.000000D+00  0.000000D+00 -0.133358D-02
      6   0.000000D+00  0.000000D+00  0.000000D+00  0.117022D-05  0.256583D-01
      7   0.000000D+00  0.000000D+00  0.000000D+00  0.000000D+00  0.000000D+00
      8   0.000000D+00  0.000000D+00  0.000000D+00  0.000000D+00  0.000000D+00
      9   0.000000D+00  0.000000D+00  0.000000D+00 -0.394249D-05 -0.256983D-01
     10   0.000000D+00  0.000000D+00  0.000000D+00  0.859233D-05  0.148416D-01
     11   0.000000D+00  0.000000D+00  0.000000D+00  0.000000D+00  0.000000D+00
     12   0.658109D-01  0.000000D+00  0.000000D+00  0.000000D+00  0.000000D+00
     13   0.000000D+00  0.658109D-01  0.000000D+00  0.000000D+00  0.000000D+00
     14   0.000000D+00  0.000000D+00  0.658109D-01  0.000000D+00  0.000000D+00
     15   0.000000D+00  0.000000D+00  0.000000D+00  0.293276D-01  0.284209D+00
     16   0.000000D+00  0.000000D+00  0.000000D+00  0.000000D+00  0.000000D+00
     17   0.000000D+00  0.000000D+00  0.000000D+00  0.000000D+00  0.000000D+00
     18   0.000000D+00  0.000000D+00  0.000000D+00 -0.496480D-01 -0.415684D+00
     19   0.000000D+00  0.000000D+00  0.000000D+00  0.879426D-01  0.498723D+00
     20   0.000000D+00  0.000000D+00  0.000000D+00  0.000000D+00  0.000000D+00
     21   0.100000D+01  0.000000D+00  0.000000D+00  0.000000D+00  0.000000D+00
     22   0.000000D+00  0.100000D+01  0.000000D+00  0.000000D+00  0.000000D+00
     23   0.000000D+00  0.000000D+00  0.100000D+01  0.000000D+00  0.000000D+00
     24   0.000000D+00  0.000000D+00  0.000000D+00  0.100000D+01  0.236704D+00
     25   0.000000D+00  0.000000D+00  0.000000D+00  0.236704D+00  0.100000D+01
     26   0.000000D+00  0.000000D+00  0.000000D+00  0.000000D+00  0.000000D+00
     27  -0.311999D+00  0.000000D+00  0.000000D+00  0.000000D+00  0.000000D+00
     28   0.000000D+00  0.000000D+00  0.000000D+00  0.000000D+00  0.000000D+00
                26            27            28 
      1   0.000000D+00  0.000000D+00  0.111893D-02
      2   0.000000D+00  0.000000D+00  0.703610D-02
      3   0.395171D-03  0.000000D+00  0.000000D+00
      4   0.000000D+00  0.395171D-03  0.000000D+00
      5   0.000000D+00  0.000000D+00 -0.240995D-02
      6   0.000000D+00  0.000000D+00  0.468826D-01
      7   0.776498D-02  0.000000D+00  0.000000D+00
      8   0.000000D+00  0.776498D-02  0.000000D+00
      9   0.000000D+00  0.000000D+00 -0.424789D-01
     10   0.000000D+00  0.000000D+00  0.228078D-01
     11  -0.793985D-02  0.000000D+00  0.000000D+00
     12   0.000000D+00 -0.793985D-02  0.000000D+00
     13   0.000000D+00  0.000000D+00  0.000000D+00
     14   0.000000D+00  0.000000D+00  0.000000D+00
     15   0.000000D+00  0.000000D+00  0.209072D+00
     16   0.144178D+00  0.000000D+00  0.000000D+00
     17   0.000000D+00  0.144178D+00  0.000000D+00
     18   0.000000D+00  0.000000D+00 -0.276748D+00
     19   0.000000D+00  0.000000D+00  0.822010D-01
     20  -0.311999D+00  0.000000D+00  0.000000D+00
     21   0.000000D+00 -0.311999D+00  0.000000D+00
     22   0.000000D+00  0.000000D+00  0.000000D+00
     23   0.000000D+00  0.000000D+00  0.000000D+00
     24   0.000000D+00  0.000000D+00  0.000000D+00
     25   0.000000D+00  0.000000D+00  0.000000D+00
     26   0.100000D+01  0.000000D+00  0.000000D+00
     27   0.000000D+00  0.100000D+01  0.000000D+00
     28   0.000000D+00  0.000000D+00  0.100000D+01
 Entering OneElI...
 Overlap between basis sets.
 Requested accuracy = 0.1000D-12
 PrsmSu:  NPrtUS=   1 ThrOK=F IAlg=1
 PRISM was handed   803093283 working-precision words and   722 shell-pairs
 IPart=  0 NShTot=         722 NBatch=          96 AvBLen=         7.5
 CnvPC2: ToCart=F DoDens=F IPureD=0 IPureF=0.
 Transformed matrix in CnvPC2: 
                 1             2             3             4             5 
      1   0.999793D+00  0.410396D+00  0.000000D+00  0.000000D+00  0.000000D+00
      2   0.288767D+00  0.988641D+00  0.000000D+00  0.000000D+00  0.000000D+00
      3   0.000000D+00  0.000000D+00  0.999238D+00  0.000000D+00  0.000000D+00
      4   0.000000D+00  0.000000D+00  0.000000D+00  0.999238D+00  0.000000D+00
      5   0.000000D+00  0.000000D+00  0.000000D+00  0.000000D+00  0.999238D+00
      6   0.119645D-01  0.318206D+00  0.000000D+00  0.000000D+00  0.000000D+00
      7   0.000000D+00  0.000000D+00  0.342796D+00  0.000000D+00  0.000000D+00
      8   0.000000D+00  0.000000D+00  0.000000D+00  0.342796D+00  0.000000D+00
      9   0.000000D+00  0.000000D+00  0.000000D+00  0.000000D+00  0.342796D+00
     10   0.000000D+00  0.000000D+00  0.000000D+00  0.000000D+00  0.000000D+00
     11   0.000000D+00  0.000000D+00  0.000000D+00  0.000000D+00  0.000000D+00
     12   0.000000D+00  0.000000D+00  0.000000D+00  0.000000D+00  0.000000D+00
     13   0.000000D+00  0.000000D+00  0.000000D+00  0.000000D+00  0.000000D+00
     14   0.000000D+00  0.000000D+00  0.000000D+00  0.000000D+00  0.000000D+00
     15   0.289427D-04  0.823684D-02  0.000000D+00  0.000000D+00  0.000000D+00
     16   0.403023D-02  0.246542D-01  0.000000D+00  0.000000D+00  0.000000D+00
     17   0.000000D+00  0.000000D+00  0.733925D-02  0.000000D+00  0.000000D+00
     18   0.000000D+00  0.000000D+00  0.000000D+00  0.733925D-02  0.000000D+00
     19   0.000000D+00  0.000000D+00  0.000000D+00  0.000000D+00  0.733925D-02
     20   0.000000D+00  0.000000D+00  0.946296D-03  0.000000D+00  0.000000D+00
     21   0.000000D+00  0.000000D+00  0.000000D+00  0.946296D-03  0.000000D+00
     22   0.000000D+00  0.000000D+00  0.000000D+00  0.000000D+00  0.946296D-03
     23   0.127775D+00  0.615912D+00  0.000000D+00  0.000000D+00  0.000000D+00
     24   0.836172D-01  0.445201D+00  0.000000D+00  0.000000D+00  0.000000D+00
     25   0.543812D-01  0.307485D+00  0.000000D+00  0.000000D+00  0.000000D+00
     26   0.352429D-01  0.206406D+00  0.000000D+00  0.000000D+00  0.000000D+00
     27   0.227947D-01  0.136219D+00  0.000000D+00  0.000000D+00  0.000000D+00
     28   0.147269D-01  0.890174D-01  0.000000D+00  0.000000D+00  0.000000D+00
     29   0.000000D+00  0.000000D+00  0.173394D+00  0.000000D+00  0.000000D+00
     30   0.000000D+00  0.000000D+00  0.000000D+00  0.173394D+00  0.000000D+00
     31   0.000000D+00  0.000000D+00  0.000000D+00  0.000000D+00  0.173394D+00
     32   0.000000D+00  0.000000D+00  0.101478D+00  0.000000D+00  0.000000D+00
     33   0.000000D+00  0.000000D+00  0.000000D+00  0.101478D+00  0.000000D+00
     34   0.000000D+00  0.000000D+00  0.000000D+00  0.000000D+00  0.101478D+00
     35   0.000000D+00  0.000000D+00  0.576001D-01  0.000000D+00  0.000000D+00
     36   0.000000D+00  0.000000D+00  0.000000D+00  0.576001D-01  0.000000D+00
     37   0.000000D+00  0.000000D+00  0.000000D+00  0.000000D+00  0.576001D-01
     38   0.000000D+00  0.000000D+00  0.320477D-01  0.000000D+00  0.000000D+00
     39   0.000000D+00  0.000000D+00  0.000000D+00  0.320477D-01  0.000000D+00
     40   0.000000D+00  0.000000D+00  0.000000D+00  0.000000D+00  0.320477D-01
     41   0.000000D+00  0.000000D+00  0.176057D-01  0.000000D+00  0.000000D+00
     42   0.000000D+00  0.000000D+00  0.000000D+00  0.176057D-01  0.000000D+00
     43   0.000000D+00  0.000000D+00  0.000000D+00  0.000000D+00  0.176057D-01
     44   0.000000D+00  0.000000D+00  0.959529D-02  0.000000D+00  0.000000D+00
     45   0.000000D+00  0.000000D+00  0.000000D+00  0.959529D-02  0.000000D+00
     46   0.000000D+00  0.000000D+00  0.000000D+00  0.000000D+00  0.959529D-02
     47   0.000000D+00  0.000000D+00  0.000000D+00  0.000000D+00  0.000000D+00
     48   0.000000D+00  0.000000D+00  0.000000D+00  0.000000D+00  0.000000D+00
     49   0.000000D+00  0.000000D+00  0.000000D+00  0.000000D+00  0.000000D+00
     50   0.000000D+00  0.000000D+00  0.000000D+00  0.000000D+00  0.000000D+00
     51   0.000000D+00  0.000000D+00  0.000000D+00  0.000000D+00  0.000000D+00
     52   0.000000D+00  0.000000D+00  0.000000D+00  0.000000D+00  0.000000D+00
     53   0.000000D+00  0.000000D+00  0.000000D+00  0.000000D+00  0.000000D+00
     54   0.000000D+00  0.000000D+00  0.000000D+00  0.000000D+00  0.000000D+00
     55   0.000000D+00  0.000000D+00  0.000000D+00  0.000000D+00  0.000000D+00
     56   0.000000D+00  0.000000D+00  0.000000D+00  0.000000D+00  0.000000D+00
     57   0.000000D+00  0.000000D+00  0.000000D+00  0.000000D+00  0.000000D+00
     58   0.000000D+00  0.000000D+00  0.000000D+00  0.000000D+00  0.000000D+00
     59   0.000000D+00  0.000000D+00  0.000000D+00  0.000000D+00  0.000000D+00
     60   0.000000D+00  0.000000D+00  0.000000D+00  0.000000D+00  0.000000D+00
     61   0.000000D+00  0.000000D+00  0.000000D+00  0.000000D+00  0.000000D+00
     62   0.000000D+00  0.000000D+00  0.000000D+00  0.000000D+00  0.000000D+00
     63   0.000000D+00  0.000000D+00  0.000000D+00  0.000000D+00  0.000000D+00
     64   0.000000D+00  0.000000D+00  0.000000D+00  0.000000D+00  0.000000D+00
     65   0.000000D+00  0.000000D+00  0.000000D+00  0.000000D+00  0.000000D+00
     66   0.000000D+00  0.000000D+00  0.000000D+00  0.000000D+00  0.000000D+00
     67   0.000000D+00  0.000000D+00  0.000000D+00  0.000000D+00  0.000000D+00
     68   0.000000D+00  0.000000D+00  0.000000D+00  0.000000D+00  0.000000D+00
     69   0.000000D+00  0.000000D+00  0.000000D+00  0.000000D+00  0.000000D+00
     70   0.000000D+00  0.000000D+00  0.000000D+00  0.000000D+00  0.000000D+00
     71   0.000000D+00  0.000000D+00  0.000000D+00  0.000000D+00  0.000000D+00
     72   0.000000D+00  0.000000D+00  0.000000D+00  0.000000D+00  0.000000D+00
     73   0.000000D+00  0.000000D+00  0.000000D+00  0.000000D+00  0.000000D+00
     74   0.000000D+00  0.000000D+00  0.000000D+00  0.000000D+00  0.000000D+00
     75   0.000000D+00  0.000000D+00  0.000000D+00  0.000000D+00  0.000000D+00
     76   0.000000D+00  0.000000D+00  0.000000D+00  0.000000D+00  0.000000D+00
     77   0.000000D+00  0.000000D+00  0.000000D+00  0.000000D+00  0.000000D+00
     78   0.000000D+00  0.000000D+00  0.000000D+00  0.000000D+00  0.000000D+00
     79   0.000000D+00  0.000000D+00  0.000000D+00  0.000000D+00  0.000000D+00
     80   0.000000D+00  0.000000D+00  0.000000D+00  0.000000D+00  0.000000D+00
     81   0.000000D+00  0.000000D+00  0.000000D+00  0.000000D+00  0.000000D+00
     82   0.000000D+00  0.000000D+00  0.000000D+00  0.000000D+00  0.000000D+00
     83   0.000000D+00  0.000000D+00  0.000000D+00  0.000000D+00  0.000000D+00
     84   0.000000D+00  0.000000D+00  0.000000D+00  0.000000D+00  0.000000D+00
     85   0.000000D+00  0.000000D+00  0.000000D+00  0.000000D+00  0.000000D+00
     86   0.000000D+00  0.000000D+00  0.000000D+00  0.000000D+00  0.000000D+00
     87   0.000000D+00  0.000000D+00  0.000000D+00  0.000000D+00  0.000000D+00
     88   0.000000D+00  0.000000D+00  0.000000D+00  0.000000D+00  0.000000D+00
     89   0.000000D+00  0.000000D+00  0.000000D+00  0.000000D+00  0.000000D+00
     90   0.000000D+00  0.000000D+00  0.000000D+00  0.000000D+00  0.000000D+00
     91   0.000000D+00  0.000000D+00  0.000000D+00  0.000000D+00  0.000000D+00
     92   0.000000D+00  0.000000D+00  0.000000D+00  0.000000D+00  0.000000D+00
     93   0.000000D+00  0.000000D+00  0.000000D+00  0.000000D+00  0.000000D+00
     94   0.000000D+00  0.000000D+00  0.000000D+00  0.000000D+00  0.000000D+00
     95   0.000000D+00  0.000000D+00  0.000000D+00  0.000000D+00  0.000000D+00
     96   0.000000D+00  0.000000D+00  0.000000D+00  0.000000D+00  0.000000D+00
     97   0.000000D+00  0.000000D+00  0.000000D+00  0.000000D+00  0.000000D+00
     98   0.000000D+00  0.000000D+00  0.000000D+00  0.000000D+00  0.000000D+00
     99   0.000000D+00  0.000000D+00  0.000000D+00  0.000000D+00  0.000000D+00
    100   0.000000D+00  0.000000D+00  0.000000D+00  0.000000D+00  0.000000D+00
    101   0.000000D+00  0.000000D+00  0.000000D+00  0.000000D+00  0.000000D+00
    102   0.000000D+00  0.000000D+00  0.000000D+00  0.000000D+00  0.000000D+00
    103   0.000000D+00  0.000000D+00  0.000000D+00  0.000000D+00  0.000000D+00
    104   0.000000D+00  0.000000D+00  0.000000D+00  0.000000D+00  0.000000D+00
    105   0.000000D+00  0.000000D+00  0.000000D+00  0.000000D+00  0.000000D+00
    106   0.000000D+00  0.000000D+00  0.000000D+00  0.000000D+00  0.000000D+00
    107   0.000000D+00  0.000000D+00  0.000000D+00  0.000000D+00  0.000000D+00
    108   0.000000D+00  0.000000D+00  0.000000D+00  0.000000D+00  0.000000D+00
    109   0.000000D+00  0.000000D+00  0.000000D+00  0.000000D+00  0.000000D+00
    110   0.000000D+00  0.000000D+00  0.000000D+00  0.000000D+00  0.000000D+00
    111   0.000000D+00  0.000000D+00  0.000000D+00  0.000000D+00  0.000000D+00
    112   0.000000D+00  0.000000D+00  0.000000D+00  0.000000D+00  0.000000D+00
    113   0.000000D+00  0.000000D+00  0.000000D+00  0.000000D+00  0.000000D+00
    114   0.000000D+00  0.000000D+00  0.000000D+00  0.000000D+00  0.000000D+00
    115   0.000000D+00  0.000000D+00  0.000000D+00  0.000000D+00  0.000000D+00
    116   0.000000D+00  0.000000D+00  0.000000D+00  0.000000D+00  0.000000D+00
    117   0.000000D+00  0.000000D+00  0.000000D+00  0.000000D+00  0.000000D+00
    118   0.000000D+00  0.000000D+00  0.000000D+00  0.000000D+00  0.000000D+00
    119   0.000000D+00  0.000000D+00  0.000000D+00  0.000000D+00  0.000000D+00
    120   0.000000D+00  0.000000D+00  0.000000D+00  0.000000D+00  0.000000D+00
    121   0.000000D+00  0.000000D+00  0.000000D+00  0.000000D+00  0.000000D+00
    122   0.000000D+00  0.000000D+00  0.000000D+00  0.000000D+00  0.000000D+00
    123   0.000000D+00  0.000000D+00  0.000000D+00  0.000000D+00  0.000000D+00
    124   0.000000D+00  0.000000D+00  0.000000D+00  0.000000D+00  0.000000D+00
    125   0.000000D+00  0.000000D+00  0.000000D+00  0.000000D+00  0.000000D+00
    126   0.000000D+00  0.000000D+00  0.000000D+00  0.000000D+00  0.000000D+00
    127   0.000000D+00  0.000000D+00  0.000000D+00  0.000000D+00  0.000000D+00
    128   0.000000D+00  0.000000D+00  0.000000D+00  0.000000D+00  0.000000D+00
    129   0.000000D+00  0.000000D+00  0.000000D+00  0.000000D+00  0.000000D+00
    130   0.000000D+00  0.000000D+00  0.000000D+00  0.000000D+00  0.000000D+00
    131   0.000000D+00  0.000000D+00  0.000000D+00  0.000000D+00  0.000000D+00
    132   0.000000D+00  0.000000D+00  0.000000D+00  0.000000D+00  0.000000D+00
    133   0.000000D+00  0.000000D+00  0.000000D+00  0.000000D+00  0.000000D+00
    134   0.000000D+00  0.000000D+00  0.000000D+00  0.000000D+00  0.000000D+00
    135   0.000000D+00  0.000000D+00  0.000000D+00  0.000000D+00  0.000000D+00
    136   0.000000D+00  0.000000D+00  0.000000D+00  0.000000D+00  0.000000D+00
    137   0.000000D+00  0.000000D+00  0.000000D+00  0.000000D+00  0.000000D+00
    138   0.000000D+00  0.000000D+00  0.000000D+00  0.000000D+00  0.000000D+00
    139   0.000000D+00  0.000000D+00  0.000000D+00  0.000000D+00  0.000000D+00
    140   0.000000D+00  0.000000D+00  0.000000D+00  0.000000D+00  0.000000D+00
    141   0.000000D+00  0.000000D+00  0.000000D+00  0.000000D+00  0.000000D+00
    142   0.000000D+00  0.000000D+00  0.000000D+00  0.000000D+00  0.000000D+00
    143   0.000000D+00  0.000000D+00  0.000000D+00  0.000000D+00  0.000000D+00
    144   0.000000D+00  0.000000D+00  0.000000D+00  0.000000D+00  0.000000D+00
    145   0.000000D+00  0.000000D+00  0.000000D+00  0.000000D+00  0.000000D+00
    146   0.000000D+00  0.000000D+00  0.000000D+00  0.000000D+00  0.000000D+00
    147   0.000000D+00  0.000000D+00  0.000000D+00  0.000000D+00  0.000000D+00
    148   0.000000D+00  0.000000D+00  0.000000D+00  0.000000D+00  0.000000D+00
    149   0.000000D+00  0.000000D+00  0.000000D+00  0.000000D+00  0.000000D+00
    150   0.000000D+00  0.000000D+00  0.000000D+00  0.000000D+00  0.000000D+00
    151   0.000000D+00  0.000000D+00  0.000000D+00  0.000000D+00  0.000000D+00
    152   0.000000D+00  0.000000D+00  0.000000D+00  0.000000D+00  0.000000D+00
    153   0.000000D+00  0.000000D+00  0.000000D+00  0.000000D+00  0.000000D+00
    154   0.000000D+00  0.000000D+00  0.000000D+00  0.000000D+00  0.000000D+00
    155   0.000000D+00  0.000000D+00  0.000000D+00  0.000000D+00  0.000000D+00
    156   0.000000D+00  0.000000D+00  0.000000D+00  0.000000D+00  0.000000D+00
    157   0.000000D+00  0.000000D+00  0.000000D+00  0.000000D+00  0.000000D+00
    158   0.000000D+00  0.000000D+00  0.000000D+00  0.000000D+00  0.000000D+00
    159   0.000000D+00  0.000000D+00  0.000000D+00  0.000000D+00  0.000000D+00
    160   0.000000D+00  0.000000D+00  0.000000D+00  0.000000D+00  0.000000D+00
    161   0.000000D+00  0.000000D+00  0.000000D+00  0.000000D+00  0.000000D+00
    162   0.000000D+00  0.000000D+00  0.000000D+00  0.000000D+00  0.000000D+00
    163   0.000000D+00  0.000000D+00  0.000000D+00  0.000000D+00  0.000000D+00
    164   0.000000D+00  0.000000D+00  0.000000D+00  0.000000D+00  0.000000D+00
    165   0.000000D+00  0.000000D+00  0.000000D+00  0.000000D+00  0.000000D+00
    166   0.000000D+00  0.000000D+00  0.000000D+00  0.000000D+00  0.000000D+00
    167   0.000000D+00  0.000000D+00  0.000000D+00  0.000000D+00  0.000000D+00
    168   0.000000D+00  0.000000D+00  0.000000D+00  0.000000D+00  0.000000D+00
    169   0.000000D+00  0.000000D+00  0.000000D+00  0.000000D+00  0.000000D+00
    170   0.000000D+00  0.000000D+00  0.000000D+00  0.000000D+00  0.000000D+00
    171   0.000000D+00  0.000000D+00  0.000000D+00  0.000000D+00  0.000000D+00
    172   0.000000D+00  0.000000D+00  0.000000D+00  0.000000D+00  0.000000D+00
    173   0.000000D+00  0.000000D+00  0.000000D+00  0.000000D+00  0.000000D+00
    174   0.000000D+00  0.000000D+00  0.000000D+00  0.000000D+00  0.000000D+00
    175   0.000000D+00  0.000000D+00  0.000000D+00  0.000000D+00  0.000000D+00
    176   0.000000D+00  0.000000D+00  0.000000D+00  0.000000D+00  0.000000D+00
    177   0.000000D+00  0.000000D+00  0.000000D+00  0.000000D+00  0.000000D+00
    178   0.000000D+00  0.000000D+00  0.000000D+00  0.000000D+00  0.000000D+00
    179   0.000000D+00  0.000000D+00  0.000000D+00  0.000000D+00  0.000000D+00
    180   0.000000D+00  0.000000D+00  0.000000D+00  0.000000D+00  0.000000D+00
    181   0.000000D+00  0.000000D+00  0.000000D+00  0.000000D+00  0.000000D+00
    182   0.000000D+00  0.000000D+00  0.000000D+00  0.000000D+00  0.000000D+00
    183   0.000000D+00  0.000000D+00  0.000000D+00  0.000000D+00  0.000000D+00
    184   0.000000D+00  0.000000D+00  0.000000D+00  0.000000D+00  0.000000D+00
    185   0.000000D+00  0.000000D+00  0.000000D+00  0.000000D+00  0.000000D+00
    186   0.000000D+00  0.000000D+00  0.000000D+00  0.000000D+00  0.000000D+00
    187   0.000000D+00  0.000000D+00  0.000000D+00  0.000000D+00  0.000000D+00
    188   0.000000D+00  0.000000D+00  0.000000D+00  0.000000D+00  0.000000D+00
    189   0.000000D+00  0.000000D+00  0.000000D+00  0.000000D+00  0.000000D+00
    190   0.000000D+00  0.000000D+00  0.000000D+00  0.000000D+00  0.000000D+00
    191   0.000000D+00  0.000000D+00  0.000000D+00  0.000000D+00  0.000000D+00
    192   0.000000D+00  0.000000D+00  0.000000D+00  0.000000D+00  0.000000D+00
    193   0.000000D+00  0.000000D+00  0.000000D+00  0.000000D+00  0.000000D+00
    194   0.000000D+00  0.000000D+00  0.000000D+00  0.000000D+00  0.000000D+00
    195   0.000000D+00  0.000000D+00  0.000000D+00  0.000000D+00  0.000000D+00
    196   0.000000D+00  0.000000D+00  0.000000D+00  0.000000D+00  0.000000D+00
    197   0.000000D+00  0.000000D+00  0.000000D+00  0.000000D+00  0.000000D+00
    198   0.000000D+00  0.000000D+00  0.000000D+00  0.000000D+00  0.000000D+00
    199   0.000000D+00  0.000000D+00  0.000000D+00  0.000000D+00  0.000000D+00
    200   0.000000D+00  0.000000D+00  0.000000D+00  0.000000D+00  0.000000D+00
    201   0.000000D+00  0.000000D+00  0.000000D+00  0.000000D+00  0.000000D+00
    202   0.000000D+00  0.000000D+00  0.000000D+00  0.000000D+00  0.000000D+00
    203   0.000000D+00  0.000000D+00  0.000000D+00  0.000000D+00  0.000000D+00
    204   0.000000D+00  0.000000D+00  0.000000D+00  0.000000D+00  0.000000D+00
    205   0.000000D+00  0.000000D+00  0.000000D+00  0.000000D+00  0.000000D+00
    206   0.000000D+00  0.000000D+00  0.000000D+00  0.000000D+00  0.000000D+00
    207   0.000000D+00  0.000000D+00  0.000000D+00  0.000000D+00  0.000000D+00
    208   0.000000D+00  0.000000D+00  0.000000D+00  0.000000D+00  0.000000D+00
    209   0.000000D+00  0.000000D+00  0.000000D+00  0.000000D+00  0.000000D+00
    210   0.000000D+00  0.000000D+00  0.000000D+00  0.000000D+00  0.000000D+00
    211   0.000000D+00  0.000000D+00  0.000000D+00  0.000000D+00  0.000000D+00
    212   0.000000D+00  0.000000D+00  0.000000D+00  0.000000D+00  0.000000D+00
    213   0.000000D+00  0.000000D+00  0.000000D+00  0.000000D+00  0.000000D+00
    214   0.000000D+00  0.000000D+00  0.000000D+00  0.000000D+00  0.000000D+00
    215   0.000000D+00  0.000000D+00  0.000000D+00  0.000000D+00  0.000000D+00
    216   0.000000D+00  0.000000D+00  0.000000D+00  0.000000D+00  0.000000D+00
    217   0.000000D+00  0.000000D+00  0.000000D+00  0.000000D+00  0.000000D+00
    218   0.000000D+00  0.000000D+00  0.000000D+00  0.000000D+00  0.000000D+00
    219   0.000000D+00  0.000000D+00  0.000000D+00  0.000000D+00  0.000000D+00
    220   0.000000D+00  0.000000D+00  0.000000D+00  0.000000D+00  0.000000D+00
    221   0.000000D+00  0.000000D+00  0.000000D+00  0.000000D+00  0.000000D+00
    222   0.000000D+00  0.000000D+00  0.000000D+00  0.000000D+00  0.000000D+00
    223   0.000000D+00  0.000000D+00  0.000000D+00  0.000000D+00  0.000000D+00
    224   0.000000D+00  0.000000D+00  0.000000D+00  0.000000D+00  0.000000D+00
    225   0.000000D+00  0.000000D+00  0.000000D+00  0.000000D+00  0.000000D+00
    226   0.000000D+00  0.000000D+00  0.000000D+00  0.000000D+00  0.000000D+00
    227   0.000000D+00  0.000000D+00  0.000000D+00  0.000000D+00  0.000000D+00
    228   0.000000D+00  0.000000D+00  0.000000D+00  0.000000D+00  0.000000D+00
    229   0.000000D+00  0.000000D+00  0.000000D+00  0.000000D+00  0.000000D+00
    230   0.000000D+00  0.000000D+00  0.000000D+00  0.000000D+00  0.000000D+00
    231   0.000000D+00  0.000000D+00  0.000000D+00  0.000000D+00  0.000000D+00
    232   0.000000D+00  0.000000D+00  0.000000D+00  0.000000D+00  0.000000D+00
    233   0.000000D+00  0.000000D+00  0.000000D+00  0.000000D+00  0.000000D+00
    234   0.000000D+00  0.000000D+00  0.000000D+00  0.000000D+00  0.000000D+00
    235   0.000000D+00  0.000000D+00  0.000000D+00  0.000000D+00  0.000000D+00
    236   0.000000D+00  0.000000D+00  0.000000D+00  0.000000D+00  0.000000D+00
    237   0.000000D+00  0.000000D+00  0.000000D+00  0.000000D+00  0.000000D+00
    238   0.000000D+00  0.000000D+00  0.000000D+00  0.000000D+00  0.000000D+00
    239   0.000000D+00  0.000000D+00  0.000000D+00  0.000000D+00  0.000000D+00
    240   0.000000D+00  0.000000D+00  0.000000D+00  0.000000D+00  0.000000D+00
    241   0.000000D+00  0.000000D+00  0.000000D+00  0.000000D+00  0.000000D+00
    242   0.000000D+00  0.000000D+00  0.000000D+00  0.000000D+00  0.000000D+00
    243   0.000000D+00  0.000000D+00  0.000000D+00  0.000000D+00  0.000000D+00
    244   0.000000D+00  0.000000D+00  0.000000D+00  0.000000D+00  0.000000D+00
    245   0.000000D+00  0.000000D+00  0.000000D+00  0.000000D+00  0.000000D+00
    246   0.000000D+00  0.000000D+00  0.000000D+00  0.000000D+00  0.000000D+00
    247   0.000000D+00  0.000000D+00  0.000000D+00  0.000000D+00  0.000000D+00
    248   0.000000D+00  0.000000D+00  0.000000D+00  0.000000D+00  0.000000D+00
    249   0.000000D+00  0.000000D+00  0.000000D+00  0.000000D+00  0.000000D+00
    250   0.000000D+00  0.000000D+00  0.000000D+00  0.000000D+00  0.000000D+00
    251   0.000000D+00  0.000000D+00  0.000000D+00  0.000000D+00  0.000000D+00
    252   0.000000D+00  0.000000D+00  0.000000D+00  0.000000D+00  0.000000D+00
    253   0.000000D+00  0.000000D+00  0.000000D+00  0.000000D+00  0.000000D+00
    254   0.000000D+00  0.000000D+00  0.000000D+00  0.000000D+00  0.000000D+00
    255   0.000000D+00  0.000000D+00  0.000000D+00  0.000000D+00  0.000000D+00
    256   0.000000D+00  0.000000D+00  0.000000D+00  0.000000D+00  0.000000D+00
    257   0.000000D+00  0.000000D+00  0.000000D+00  0.000000D+00  0.000000D+00
    258   0.000000D+00  0.000000D+00  0.000000D+00  0.000000D+00  0.000000D+00
    259   0.000000D+00  0.000000D+00  0.000000D+00  0.000000D+00  0.000000D+00
    260   0.000000D+00  0.000000D+00  0.000000D+00  0.000000D+00  0.000000D+00
    261   0.000000D+00  0.000000D+00  0.000000D+00  0.000000D+00  0.000000D+00
    262   0.000000D+00  0.000000D+00  0.000000D+00  0.000000D+00  0.000000D+00
    263   0.000000D+00  0.000000D+00  0.000000D+00  0.000000D+00  0.000000D+00
    264   0.000000D+00  0.000000D+00  0.000000D+00  0.000000D+00  0.000000D+00
    265   0.000000D+00  0.000000D+00  0.000000D+00  0.000000D+00  0.000000D+00
    266   0.000000D+00  0.000000D+00  0.000000D+00  0.000000D+00  0.000000D+00
    267   0.000000D+00  0.000000D+00  0.000000D+00  0.000000D+00  0.000000D+00
    268   0.768234D-03  0.481746D-02  0.000000D+00  0.000000D+00 -0.133290D-02
    269   0.381477D-02  0.233225D-01  0.000000D+00  0.000000D+00 -0.143460D-02
    270   0.000000D+00  0.000000D+00  0.803741D-03  0.000000D+00  0.000000D+00
    271   0.000000D+00  0.000000D+00  0.000000D+00  0.803741D-03  0.000000D+00
    272   0.231238D-02  0.142873D-01  0.000000D+00  0.000000D+00 -0.300045D-02
    273   0.000000D+00  0.000000D+00  0.152346D-02  0.000000D+00  0.000000D+00
    274   0.000000D+00  0.000000D+00  0.000000D+00  0.152346D-02  0.000000D+00
    275   0.443295D-02  0.270489D-01  0.000000D+00  0.000000D+00  0.302663D-03
    276   0.000000D+00  0.000000D+00  0.000000D+00  0.000000D+00  0.000000D+00
    277   0.000000D+00  0.000000D+00  0.000000D+00  0.000000D+00  0.000000D+00
    278   0.192117D-05  0.200319D-04  0.000000D+00  0.000000D+00 -0.210777D-04
    279   0.181229D-03  0.125109D-02  0.000000D+00  0.000000D+00 -0.716399D-03
    280   0.145985D-02  0.912857D-02  0.000000D+00  0.000000D+00 -0.273399D-02
    281   0.331607D-02  0.203168D-01  0.000000D+00  0.000000D+00 -0.313500D-02
    282   0.000000D+00  0.000000D+00  0.000000D+00  0.000000D+00  0.000000D+00
    283   0.000000D+00  0.000000D+00  0.000000D+00  0.000000D+00  0.000000D+00
    284   0.000000D+00  0.000000D+00  0.000000D+00  0.000000D+00  0.000000D+00
    285   0.000000D+00  0.000000D+00  0.000000D+00  0.000000D+00  0.000000D+00
    286   0.000000D+00  0.000000D+00  0.000000D+00  0.000000D+00  0.000000D+00
    287   0.000000D+00  0.000000D+00  0.000000D+00  0.000000D+00  0.000000D+00
    288   0.000000D+00  0.000000D+00  0.401535D-05  0.000000D+00  0.000000D+00
    289   0.000000D+00  0.000000D+00  0.000000D+00  0.401535D-05  0.000000D+00
    290   0.711157D-05  0.743761D-04  0.000000D+00  0.000000D+00 -0.786474D-04
    291   0.000000D+00  0.000000D+00  0.380576D-03  0.000000D+00  0.000000D+00
    292   0.000000D+00  0.000000D+00  0.000000D+00  0.380576D-03  0.000000D+00
    293   0.103119D-02  0.680605D-02  0.000000D+00  0.000000D+00 -0.332972D-02
    294   0.000000D+00  0.000000D+00  0.203600D-02  0.000000D+00  0.000000D+00
    295   0.000000D+00  0.000000D+00  0.000000D+00  0.203600D-02  0.000000D+00
    296   0.591400D-02  0.361554D-01  0.000000D+00  0.000000D+00 -0.715300D-02
    297   0.000000D+00  0.000000D+00  0.263254D-02  0.000000D+00  0.000000D+00
    298   0.000000D+00  0.000000D+00  0.000000D+00  0.263254D-02  0.000000D+00
    299   0.768876D-02  0.467221D-01  0.000000D+00  0.000000D+00 -0.281683D-02
    300   0.000000D+00  0.000000D+00  0.000000D+00  0.000000D+00  0.000000D+00
    301   0.000000D+00  0.000000D+00  0.000000D+00  0.000000D+00  0.000000D+00
    302   0.000000D+00  0.000000D+00  0.000000D+00  0.000000D+00  0.000000D+00
    303   0.000000D+00  0.000000D+00  0.000000D+00  0.000000D+00  0.000000D+00
    304   0.000000D+00  0.000000D+00  0.000000D+00  0.000000D+00  0.000000D+00
    305   0.000000D+00  0.000000D+00  0.000000D+00  0.000000D+00  0.000000D+00
    306   0.000000D+00  0.000000D+00  0.000000D+00  0.000000D+00  0.000000D+00
    307   0.000000D+00  0.000000D+00  0.000000D+00  0.000000D+00  0.000000D+00
    308   0.000000D+00  0.000000D+00  0.000000D+00  0.000000D+00  0.000000D+00
    309   0.000000D+00  0.000000D+00  0.000000D+00  0.000000D+00  0.000000D+00
    310   0.000000D+00  0.000000D+00  0.000000D+00  0.000000D+00  0.000000D+00
    311   0.000000D+00  0.000000D+00  0.000000D+00  0.000000D+00  0.000000D+00
    312   0.000000D+00  0.000000D+00  0.000000D+00  0.000000D+00  0.000000D+00
    313   0.000000D+00  0.000000D+00  0.000000D+00  0.000000D+00  0.000000D+00
    314   0.000000D+00  0.000000D+00  0.000000D+00  0.000000D+00  0.000000D+00
    315   0.221135D-04  0.221788D-03  0.000000D+00  0.000000D+00 -0.228342D-03
    316   0.000000D+00  0.000000D+00  0.207976D-04  0.000000D+00  0.000000D+00
    317   0.000000D+00  0.000000D+00  0.000000D+00  0.207976D-04  0.000000D+00
    318   0.000000D+00  0.000000D+00  0.000000D+00  0.000000D+00  0.000000D+00
    319   0.000000D+00  0.000000D+00  0.000000D+00  0.000000D+00  0.000000D+00
    320   0.173350D-02  0.113965D-01  0.000000D+00  0.000000D+00 -0.570630D-02
    321   0.000000D+00  0.000000D+00  0.110418D-02  0.000000D+00  0.000000D+00
    322   0.000000D+00  0.000000D+00  0.000000D+00  0.110418D-02  0.000000D+00
    323   0.000000D+00  0.000000D+00  0.000000D+00  0.000000D+00  0.000000D+00
    324   0.000000D+00  0.000000D+00  0.000000D+00  0.000000D+00  0.000000D+00
    325   0.865093D-02  0.524372D-01  0.000000D+00  0.000000D+00 -0.106270D-01
    326   0.000000D+00  0.000000D+00  0.511871D-02  0.000000D+00  0.000000D+00
    327   0.000000D+00  0.000000D+00  0.000000D+00  0.511871D-02  0.000000D+00
    328   0.000000D+00  0.000000D+00  0.000000D+00  0.000000D+00  0.000000D+00
    329   0.000000D+00  0.000000D+00  0.000000D+00  0.000000D+00  0.000000D+00
    330   0.106874D-01  0.643769D-01  0.000000D+00  0.000000D+00 -0.302958D-02
    331   0.000000D+00  0.000000D+00  0.628794D-02  0.000000D+00  0.000000D+00
    332   0.000000D+00  0.000000D+00  0.000000D+00  0.628794D-02  0.000000D+00
    333   0.000000D+00  0.000000D+00  0.000000D+00  0.000000D+00  0.000000D+00
    334   0.000000D+00  0.000000D+00  0.000000D+00  0.000000D+00  0.000000D+00
    335   0.000000D+00  0.000000D+00  0.000000D+00  0.000000D+00  0.000000D+00
    336   0.000000D+00  0.000000D+00  0.000000D+00  0.000000D+00  0.000000D+00
    337   0.000000D+00  0.000000D+00  0.000000D+00  0.000000D+00  0.000000D+00
    338   0.000000D+00  0.000000D+00  0.000000D+00  0.000000D+00  0.000000D+00
    339   0.000000D+00  0.000000D+00  0.000000D+00  0.000000D+00  0.000000D+00
    340   0.000000D+00  0.000000D+00  0.000000D+00  0.000000D+00  0.000000D+00
    341   0.000000D+00  0.000000D+00  0.000000D+00  0.000000D+00  0.000000D+00
    342   0.000000D+00  0.000000D+00  0.000000D+00  0.000000D+00  0.000000D+00
    343   0.000000D+00  0.000000D+00  0.000000D+00  0.000000D+00  0.000000D+00
    344   0.000000D+00  0.000000D+00  0.000000D+00  0.000000D+00  0.000000D+00
    345   0.000000D+00  0.000000D+00  0.000000D+00  0.000000D+00  0.000000D+00
    346   0.000000D+00  0.000000D+00  0.000000D+00  0.000000D+00  0.000000D+00
    347   0.000000D+00  0.000000D+00  0.000000D+00  0.000000D+00  0.000000D+00
    348   0.000000D+00  0.000000D+00  0.000000D+00  0.000000D+00  0.000000D+00
    349   0.000000D+00  0.119426D-04  0.000000D+00  0.000000D+00 -0.170842D-04
    350   0.000000D+00  0.000000D+00  0.152934D-05  0.000000D+00  0.000000D+00
    351   0.000000D+00  0.000000D+00  0.000000D+00  0.152934D-05  0.000000D+00
    352   0.000000D+00  0.000000D+00  0.000000D+00  0.000000D+00  0.000000D+00
    353   0.000000D+00  0.000000D+00  0.000000D+00  0.000000D+00  0.000000D+00
    354   0.000000D+00  0.000000D+00  0.000000D+00  0.000000D+00  0.000000D+00
    355   0.000000D+00  0.000000D+00  0.000000D+00  0.000000D+00  0.000000D+00
    356   0.504913D-03  0.376953D-02  0.000000D+00  0.000000D+00 -0.278232D-02
    357   0.000000D+00  0.000000D+00  0.510942D-03  0.000000D+00  0.000000D+00
    358   0.000000D+00  0.000000D+00  0.000000D+00  0.510942D-03  0.000000D+00
    359   0.000000D+00  0.000000D+00  0.000000D+00  0.000000D+00  0.000000D+00
    360   0.000000D+00  0.000000D+00  0.000000D+00  0.000000D+00  0.000000D+00
    361   0.000000D+00  0.000000D+00  0.000000D+00  0.000000D+00  0.000000D+00
    362   0.000000D+00  0.000000D+00  0.000000D+00  0.000000D+00  0.000000D+00
    363   0.746251D-02  0.455263D-01  0.000000D+00  0.000000D+00 -0.141409D-01
    364   0.000000D+00  0.000000D+00  0.628118D-02  0.000000D+00  0.000000D+00
    365   0.000000D+00  0.000000D+00  0.000000D+00  0.628118D-02  0.000000D+00
    366   0.000000D+00  0.000000D+00  0.000000D+00  0.000000D+00  0.000000D+00
    367   0.000000D+00  0.000000D+00  0.000000D+00  0.000000D+00  0.000000D+00
    368   0.000000D+00  0.000000D+00  0.000000D+00  0.000000D+00  0.000000D+00
    369   0.000000D+00  0.000000D+00  0.000000D+00  0.000000D+00  0.000000D+00
    370   0.139351D-01  0.828694D-01  0.000000D+00  0.000000D+00 -0.644475D-02
    371   0.000000D+00  0.000000D+00  0.114611D-01  0.000000D+00  0.000000D+00
    372   0.000000D+00  0.000000D+00  0.000000D+00  0.114611D-01  0.000000D+00
    373   0.000000D+00  0.000000D+00  0.000000D+00  0.000000D+00  0.000000D+00
    374   0.000000D+00  0.000000D+00  0.000000D+00  0.000000D+00  0.000000D+00
    375   0.000000D+00  0.000000D+00  0.000000D+00  0.000000D+00  0.000000D+00
    376   0.000000D+00  0.000000D+00  0.000000D+00  0.000000D+00  0.000000D+00
    377   0.000000D+00  0.000000D+00  0.000000D+00  0.000000D+00  0.000000D+00
    378   0.000000D+00  0.000000D+00  0.000000D+00  0.000000D+00  0.000000D+00
    379   0.000000D+00  0.000000D+00  0.000000D+00  0.000000D+00  0.000000D+00
    380   0.000000D+00  0.000000D+00  0.000000D+00  0.000000D+00  0.000000D+00
    381   0.000000D+00  0.000000D+00  0.000000D+00  0.000000D+00  0.000000D+00
    382   0.000000D+00  0.000000D+00  0.000000D+00  0.000000D+00  0.000000D+00
    383   0.000000D+00  0.000000D+00  0.000000D+00  0.000000D+00  0.000000D+00
    384   0.000000D+00  0.000000D+00  0.000000D+00  0.000000D+00  0.000000D+00
    385   0.000000D+00  0.000000D+00  0.000000D+00  0.000000D+00  0.000000D+00
    386   0.000000D+00  0.000000D+00  0.000000D+00  0.000000D+00  0.000000D+00
    387   0.000000D+00  0.000000D+00  0.000000D+00  0.000000D+00  0.000000D+00
    388   0.000000D+00  0.000000D+00  0.000000D+00  0.000000D+00  0.000000D+00
    389   0.000000D+00  0.000000D+00  0.000000D+00  0.000000D+00  0.000000D+00
    390   0.000000D+00  0.000000D+00  0.000000D+00  0.000000D+00  0.000000D+00
    391   0.000000D+00  0.000000D+00  0.000000D+00  0.000000D+00  0.000000D+00
    392   0.000000D+00  0.000000D+00  0.000000D+00  0.000000D+00  0.000000D+00
    393   0.000000D+00  0.000000D+00  0.000000D+00  0.000000D+00  0.000000D+00
    394   0.000000D+00  0.000000D+00  0.000000D+00  0.000000D+00  0.000000D+00
    395   0.182555D-04  0.217578D-03  0.000000D+00  0.000000D+00 -0.254899D-03
    396   0.000000D+00  0.000000D+00  0.368583D-04  0.000000D+00  0.000000D+00
    397   0.000000D+00  0.000000D+00  0.000000D+00  0.368583D-04  0.000000D+00
    398   0.000000D+00  0.000000D+00  0.000000D+00  0.000000D+00  0.000000D+00
    399   0.000000D+00  0.000000D+00  0.000000D+00  0.000000D+00  0.000000D+00
    400   0.000000D+00  0.000000D+00  0.000000D+00  0.000000D+00  0.000000D+00
    401   0.000000D+00  0.000000D+00  0.000000D+00  0.000000D+00  0.000000D+00
    402   0.000000D+00  0.000000D+00  0.000000D+00  0.000000D+00  0.000000D+00
    403   0.000000D+00  0.000000D+00  0.000000D+00  0.000000D+00  0.000000D+00
    404   0.347567D-02  0.223323D-01  0.000000D+00  0.000000D+00 -0.113848D-01
    405   0.000000D+00  0.000000D+00  0.395890D-02  0.000000D+00  0.000000D+00
    406   0.000000D+00  0.000000D+00  0.000000D+00  0.395890D-02  0.000000D+00
    407   0.000000D+00  0.000000D+00  0.000000D+00  0.000000D+00  0.000000D+00
    408   0.000000D+00  0.000000D+00  0.000000D+00  0.000000D+00  0.000000D+00
    409   0.000000D+00  0.000000D+00  0.000000D+00  0.000000D+00  0.000000D+00
    410   0.000000D+00  0.000000D+00  0.000000D+00  0.000000D+00  0.000000D+00
    411   0.000000D+00  0.000000D+00  0.000000D+00  0.000000D+00  0.000000D+00
    412   0.000000D+00  0.000000D+00  0.000000D+00  0.000000D+00  0.000000D+00
    413   0.158555D-01  0.930042D-01  0.000000D+00  0.000000D+00 -0.128746D-01
    414   0.000000D+00  0.000000D+00  0.166280D-01  0.000000D+00  0.000000D+00
    415   0.000000D+00  0.000000D+00  0.000000D+00  0.166280D-01  0.000000D+00
    416   0.000000D+00  0.000000D+00  0.000000D+00  0.000000D+00  0.000000D+00
    417   0.000000D+00  0.000000D+00  0.000000D+00  0.000000D+00  0.000000D+00
    418   0.000000D+00  0.000000D+00  0.000000D+00  0.000000D+00  0.000000D+00
    419   0.000000D+00  0.000000D+00  0.000000D+00  0.000000D+00  0.000000D+00
    420   0.000000D+00  0.000000D+00  0.000000D+00  0.000000D+00  0.000000D+00
    421   0.000000D+00  0.000000D+00  0.000000D+00  0.000000D+00  0.000000D+00
    422   0.000000D+00  0.000000D+00  0.000000D+00  0.000000D+00  0.000000D+00
    423   0.000000D+00  0.000000D+00  0.000000D+00  0.000000D+00  0.000000D+00
    424   0.000000D+00  0.000000D+00  0.000000D+00  0.000000D+00  0.000000D+00
    425   0.000000D+00  0.000000D+00  0.000000D+00  0.000000D+00  0.000000D+00
    426   0.000000D+00  0.000000D+00  0.000000D+00  0.000000D+00  0.000000D+00
    427   0.000000D+00  0.000000D+00  0.000000D+00  0.000000D+00  0.000000D+00
    428   0.000000D+00  0.000000D+00  0.000000D+00  0.000000D+00  0.000000D+00
    429   0.000000D+00  0.000000D+00  0.000000D+00  0.000000D+00  0.000000D+00
    430   0.000000D+00  0.000000D+00  0.000000D+00  0.000000D+00  0.000000D+00
    431   0.000000D+00  0.000000D+00  0.000000D+00  0.000000D+00  0.000000D+00
    432   0.000000D+00  0.000000D+00  0.000000D+00  0.000000D+00  0.000000D+00
    433   0.000000D+00  0.203249D-05  0.000000D+00  0.000000D+00 -0.352809D-05
    434   0.000000D+00  0.000000D+00  0.000000D+00  0.000000D+00  0.000000D+00
    435   0.000000D+00  0.000000D+00  0.000000D+00  0.000000D+00  0.000000D+00
    436   0.000000D+00  0.000000D+00  0.000000D+00  0.000000D+00  0.000000D+00
    437   0.000000D+00  0.000000D+00  0.000000D+00  0.000000D+00  0.000000D+00
    438   0.000000D+00  0.000000D+00  0.000000D+00  0.000000D+00  0.000000D+00
    439   0.000000D+00  0.000000D+00  0.000000D+00  0.000000D+00  0.000000D+00
    440   0.000000D+00  0.000000D+00  0.000000D+00  0.000000D+00  0.000000D+00
    441   0.000000D+00  0.000000D+00  0.000000D+00  0.000000D+00  0.000000D+00
    442   0.000000D+00  0.000000D+00  0.000000D+00  0.000000D+00  0.000000D+00
    443   0.000000D+00  0.000000D+00  0.000000D+00  0.000000D+00  0.000000D+00
[...]
         |
   19    | -0.000256 -0.002082 -0.002082 -0.025910 -0.001051
   19    | -0.000256 -0.002082 -0.002082  0.000000 -0.001051
         |
   20    | -0.005754 -0.014038 -0.014038 -0.002461 -0.025862
   20    | -0.005754 -0.014038 -0.014038 -0.002461  0.000000
         |

                     Sum of ab pair energies =    -0.214325 A.U.
                     Sum of ba pair energies =    -0.080969 A.U.
                     Sum of aa pair energies =    -0.047079 A.U.
                     Sum of bb pair energies =    -0.047079 A.U.

           Sum of intraorbital pair energies =    -0.133356 A.U.
           Sum of interorbital pair energies =    -0.256094 A.U.
                                                  ----------
                         Total pair energies =    -0.389450 A.U.

                         Single Excitations  =     0.000000 A.U.

                          Total second order =    -0.389450 A.U.



            MP2(CBS) (With Interference Correction) 
            ---------------------------------------

 AB - AA |     16        17        18        19        20
 BA - BB |     16        17        18        19        20
------------------------------------------------------------
   16    | -0.023561 -0.005619 -0.005619 -0.000144 -0.003227
   16    |  0.000000 -0.005619 -0.005619 -0.000144 -0.003227
         |
   17    | -0.011945 -0.028743 -0.011950 -0.001256 -0.008460
   17    | -0.011945  0.000000 -0.011950 -0.001256 -0.008460
         |
   18    | -0.011945 -0.016196 -0.028743 -0.001256 -0.008460
   18    | -0.011945 -0.016196  0.000000 -0.001256 -0.008460
         |
   19    | -0.000255 -0.002069 -0.002069 -0.025499 -0.001047
   19    | -0.000255 -0.002069 -0.002069  0.000000 -0.001047
         |
   20    | -0.005734 -0.013977 -0.013977 -0.002442 -0.025626
   20    | -0.005734 -0.013977 -0.013977 -0.002442  0.000000
         |

                     Sum of ab pair energies =    -0.212780 A.U.
                     Sum of ba pair energies =    -0.080609 A.U.
                     Sum of aa pair energies =    -0.047039 A.U.
                     Sum of bb pair energies =    -0.047039 A.U.

           Sum of intraorbital pair energies =    -0.132171 A.U.
           Sum of interorbital pair energies =    -0.255296 A.U.
                                                  ----------
                         Total pair energies =    -0.387467 A.U.

                         Single Excitations  =     0.000000 A.U.

                          Total second order =    -0.387467 A.U.

                         E2(CBS) - E2(Dir) =      -0.004140 A.U.

 E2(CBS)=      -0.389450 CBS-Int=       0.001983 OIii=       1.845062

 **********************************************************************

            Population analysis using the SCF density.

 **********************************************************************

 Orbital symmetries:
       Occupied  (SG) (SG) (PI) (PI) (SG) (SG) (SG) (PI) (PI) (SG)
                 (DLTA) (DLTA) (SG) (PI) (PI) (SG) (SG) (PI) (PI)
                 (SG)
       Virtual   (PI) (PI) (SG) (SG) (PI) (PI) (SG) (DLTA) (DLTA)
                 (PI) (PI) (SG) (PI) (PI) (SG) (SG) (PI) (PI) (SG)
                 (PHI) (PHI) (DLTA) (DLTA) (DLTA) (DLTA) (SG) (PI)
                 (PI) (PI) (PI) (SG) (PI) (PI) (SG) (SG) (DLTA)
                 (DLTA) (SG) (?A) (?A) (PHI) (PHI) (PI) (PI) (DLTA)
                 (DLTA) (PI) (PI) (DLTA) (DLTA) (SG) (PHI) (PHI)
                 (DLTA) (DLTA) (PI) (PI) (SG) (PI) (PI) (SG) (PI)
                 (PI) (SG) (?B) (?B) (PHI) (PHI) (?A) (?A) (SG)
                 (SG) (PI) (PI) (DLTA) (DLTA) (DLTA) (DLTA) (SG)
                 (PI) (PI) (PHI) (PHI) (SG) (PI) (PI) (DLTA) (DLTA)
                 (DLTA) (DLTA) (?A) (?A) (PHI) (PHI) (PHI) (PHI)
                 (DLTA) (DLTA) (PI) (PI) (SG) (PI) (PI) (SG) (PI)
                 (PI) (SG) (?A) (?A) (SG) (SG) (?B) (?B) (SG) (PI)
                 (PI) (DLTA) (DLTA) (SG) (PHI) (PHI) (PI) (PI)
                 (SG) (?A) (?A) (DLTA) (DLTA) (PI) (PI) (PHI) (PHI)
                 (SG) (?B) (?B) (?A) (?A) (DLTA) (DLTA) (PI) (PI)
                 (SG) (DLTA) (DLTA) (SG) (PHI) (PHI) (PI) (PI)
                 (DLTA) (DLTA) (PHI) (PHI) (SG) (DLTA) (DLTA) (SG)
                 (PI) (PI) (?A) (?A) (PHI) (PHI) (SG) (PI) (PI)
                 (PHI) (PHI) (DLTA) (DLTA) (PI) (PI) (SG) (?B)
                 (?B) (DLTA) (DLTA) (PI) (PI) (SG) (PI) (PI) (SG)
                 (?A) (?A) (SG) (DLTA) (DLTA) (PI) (PI) (SG) (SG)
                 (?B) (?B) (PHI) (PHI) (?A) (?A) (SG) (DLTA) (DLTA)
                 (PHI) (PHI) (PI) (PI) (SG) (?B) (?B) (?A) (?A)
                 (PI) (PI) (DLTA) (DLTA) (SG) (DLTA) (DLTA) (PI)
                 (PI) (PHI) (PHI) (SG) (?A) (?A) (PI) (PI) (SG)
                 (SG) (PI) (PI) (SG) (DLTA) (DLTA) (PHI) (PHI)
                 (?B) (?B) (PHI) (PHI) (DLTA) (DLTA) (?A) (?A)
                 (SG) (PHI) (PHI) (DLTA) (DLTA) (SG) (PHI) (PHI)
                 (PI) (PI) (SG) (DLTA) (DLTA) (?A) (?A) (PI) (PI)
                 (SG) (PI) (PI) (?C) (?C) (SG) (SG) (SG) (DLTA)
                 (DLTA) (SG) (PHI) (PHI) (DLTA) (DLTA) (PI) (PI)
                 (?B) (?B) (PI) (PI) (SG) (SG) (DLTA) (DLTA) (PI)
                 (PI) (?A) (?A) (PI) (PI) (PHI) (PHI) (SG) (DLTA)
                 (DLTA) (?B) (?B) (SG) (?A) (?A) (?B) (?B) (PI)
                 (PI) (SG) (SG) (?A) (?A) (?B) (?B) (PHI) (PHI)
                 (DLTA) (DLTA) (PI) (PI) (PHI) (PHI) (?A) (?A)
                 (SG) (DLTA) (DLTA) (SG) (PI) (PI) (PI) (PI) (SG)
                 (PHI) (PHI) (DLTA) (DLTA) (PHI) (PHI) (?A) (?A)
                 (SG) (PI) (PI) (?A) (?A) (DLTA) (DLTA) (PHI) (PHI)
                 (SG) (DLTA) (DLTA) (PHI) (PHI) (PI) (PI) (SG)
                 (PHI) (PHI) (PI) (PI) (SG) (DLTA) (DLTA) (SG)
                 (PI) (PI) (DLTA) (DLTA) (DLTA) (DLTA) (SG) (PI)
                 (PI) (DLTA) (DLTA) (SG) (PI) (PI) (PI) (PI) (SG)
                 (SG) (?B) (?B) (?A) (?A) (SG) (PHI) (PHI) (SG)
                 (DLTA) (DLTA) (PI) (PI) (PI) (PI) (SG) (SG) (?B)
                 (?B) (?A) (?A) (PHI) (PHI) (SG) (PI) (PI) (DLTA)
                 (DLTA) (SG) (PI) (PI) (?A) (?A) (PHI) (PHI) (PHI)
                 (PHI) (SG) (DLTA) (DLTA) (PI) (PI) (SG) (DLTA)
                 (DLTA) (PI) (PI) (SG) (DLTA) (DLTA) (PI) (PI)
                 (SG) (SG) (SG) (?B) (?B) (?C) (?C) (?A) (?A) (PHI)
                 (PHI) (DLTA) (DLTA) (PI) (PI) (SG) (SG) (SG) (SG)
                 (?B) (?B) (?A) (?A) (PHI) (PHI) (DLTA) (DLTA)
                 (PI) (PI) (SG) (?B) (?B) (?A) (?A) (PHI) (PHI)
                 (DLTA) (DLTA) (PI) (PI) (SG) (PHI) (PHI) (DLTA)
                 (DLTA) (PI) (PI) (SG) (?A) (?A) (PHI) (PHI) (DLTA)
                 (DLTA) (SG) (PI) (PI) (DLTA) (DLTA) (PI) (PI)
                 (SG) (PI) (PI) (SG) (SG) (SG)
 The electronic state is 1-SG.
 Alpha  occ. eigenvalues -- -405.26647 -52.17215 -46.25929 -46.25929 -46.25630
 Alpha  occ. eigenvalues --  -20.52758  -7.21680  -5.19115  -5.19115  -5.18347
 Alpha  occ. eigenvalues --   -1.66861  -1.66861  -1.66762  -1.66000  -1.66000
 Alpha  occ. eigenvalues --   -1.22371  -0.61004  -0.44856  -0.44856  -0.42573
 Alpha virt. eigenvalues --    0.01236   0.01236   0.03205   0.05084   0.06129
 Alpha virt. eigenvalues --    0.06129   0.11397   0.11593   0.11593   0.13247
 Alpha virt. eigenvalues --    0.13247   0.13442   0.16781   0.16781   0.19293
 Alpha virt. eigenvalues --    0.21276   0.24773   0.24773   0.27929   0.28653
 Alpha virt. eigenvalues --    0.28653   0.29001   0.29001   0.30543   0.30543
 Alpha virt. eigenvalues --    0.34495   0.34918   0.34918   0.36650   0.36650
 Alpha virt. eigenvalues --    0.38456   0.41972   0.41972   0.48152   0.54952
 Alpha virt. eigenvalues --    0.55440   0.55440   0.58519   0.59937   0.59937
 Alpha virt. eigenvalues --    0.60807   0.60807   0.65340   0.65340   0.66097
 Alpha virt. eigenvalues --    0.66097   0.67160   0.67160   0.67717   0.67717
 Alpha virt. eigenvalues --    0.68476   0.71269   0.71269   0.71875   0.71875
 Alpha virt. eigenvalues --    0.72657   0.72657   0.76992   0.77974   0.77974
 Alpha virt. eigenvalues --    0.84139   0.89917   0.89917   0.91962   1.00800
 Alpha virt. eigenvalues --    1.00800   1.01060   1.01060   1.01942   1.01942
 Alpha virt. eigenvalues --    1.08959   1.13545   1.15100   1.15100   1.15168
 Alpha virt. eigenvalues --    1.15168   1.18217   1.18217   1.22696   1.23491
 Alpha virt. eigenvalues --    1.23491   1.25237   1.25237   1.26423   1.26800
 Alpha virt. eigenvalues --    1.26800   1.35089   1.35089   1.37499   1.37499
 Alpha virt. eigenvalues --    1.40523   1.40523   1.42687   1.42687   1.45243
 Alpha virt. eigenvalues --    1.45243   1.45919   1.45919   1.46110   1.46110
 Alpha virt. eigenvalues --    1.46260   1.50149   1.50149   1.50351   1.69091
 Alpha virt. eigenvalues --    1.69091   1.69533   1.71669   1.71669   1.71788
 Alpha virt. eigenvalues --    1.71788   1.73058   1.73058   1.73719   1.76957
 Alpha virt. eigenvalues --    1.76957   1.79563   1.79563   1.85671   1.93355
 Alpha virt. eigenvalues --    1.93355   2.05394   2.05394   2.07550   2.13787
 Alpha virt. eigenvalues --    2.13787   2.14502   2.14502   2.15253   2.15253
 Alpha virt. eigenvalues --    2.17815   2.17815   2.20095   2.20141   2.20141
 Alpha virt. eigenvalues --    2.22949   2.22949   2.23536   2.23536   2.27343
 Alpha virt. eigenvalues --    2.27343   2.27695   2.36220   2.36220   2.42457
 Alpha virt. eigenvalues --    2.46407   2.46407   2.55803   2.55803   2.65496
 Alpha virt. eigenvalues --    2.65496   2.71589   2.71589   2.72421   2.72476
 Alpha virt. eigenvalues --    2.72476   2.75389   2.78404   2.78404   2.79286
 Alpha virt. eigenvalues --    2.79286   2.79331   2.79331   2.83688   2.84798
 Alpha virt. eigenvalues --    2.84798   2.87587   2.87587   2.88319   2.88319
 Alpha virt. eigenvalues --    3.07166   3.07166   3.14488   3.15948   3.15948
 Alpha virt. eigenvalues --    3.16397   3.16397   3.24302   3.24302   3.29441
 Alpha virt. eigenvalues --    3.37423   3.37423   3.45147   3.51902   3.51902
 Alpha virt. eigenvalues --    3.63225   3.70494   3.70494   3.75419   3.75419
 Alpha virt. eigenvalues --    3.82239   3.82239   3.83947   3.83947   3.87141
 Alpha virt. eigenvalues --    3.87141   3.94099   3.94099   3.96181   3.99763
 Alpha virt. eigenvalues --    3.99763   4.03584   4.03584   4.12335   4.12335
 Alpha virt. eigenvalues --    4.13341   4.18544   4.18544   4.20107   4.20107
 Alpha virt. eigenvalues --    4.24024   4.24024   4.28028   4.28028   4.33895
 Alpha virt. eigenvalues --    4.33972   4.33972   4.35021   4.35021   4.39722
 Alpha virt. eigenvalues --    4.39722   4.46424   4.65165   4.65165   4.88325
 Alpha virt. eigenvalues --    4.88325   4.97372   4.97372   5.03138   5.03138
 Alpha virt. eigenvalues --    5.03699   5.09000   5.09000   5.10530   5.10530
 Alpha virt. eigenvalues --    5.12866   5.12866   5.20780   5.20780   5.31565
 Alpha virt. eigenvalues --    5.31565   5.31770   5.31770   5.32232   5.33770
 Alpha virt. eigenvalues --    5.33770   5.39628   5.39628   5.45519   5.47790
 Alpha virt. eigenvalues --    5.47790   5.48454   5.48454   5.56891   5.62938
 Alpha virt. eigenvalues --    5.62938   5.71222   5.71222   5.75182   5.75182
 Alpha virt. eigenvalues --    5.82136   5.97983   5.97983   6.06374   6.06374
 Alpha virt. eigenvalues --    6.12675   6.12903   6.12903   6.19410   6.19410
 Alpha virt. eigenvalues --    6.43369   6.44202   6.44202   6.44730   6.44730
 Alpha virt. eigenvalues --    6.46797   6.46797   6.51036   6.51036   6.58600
 Alpha virt. eigenvalues --    6.58600   6.73520   6.94339   6.94918   6.94918
 Alpha virt. eigenvalues --    7.12209   7.12209   7.19181   7.19181   7.24182
 Alpha virt. eigenvalues --    7.24182   7.39250   7.39250   7.41650   7.43410
 Alpha virt. eigenvalues --    7.43410   7.63060   7.63060   7.65189   7.66519
 Alpha virt. eigenvalues --    7.66519   7.66806   7.66806   7.68672   7.68672
 Alpha virt. eigenvalues --    7.76194   7.76194   7.76561   7.76561   7.78987
 Alpha virt. eigenvalues --    7.78987   7.82173   7.82173   7.84534   7.84534
 Alpha virt. eigenvalues --    7.92741   7.92741   7.93558   7.93558   8.03466
 Alpha virt. eigenvalues --    8.03466   8.24393   8.32384   8.32384   8.45100
 Alpha virt. eigenvalues --    8.57177   8.57177   8.62366   8.62366   8.83204
 Alpha virt. eigenvalues --    8.91483   8.91483   9.47379   9.47379   9.55660
 Alpha virt. eigenvalues --    9.55660   9.64636   9.64636   9.66170   9.86070
 Alpha virt. eigenvalues --    9.86070   9.89500   9.89500   9.97397   9.97397
 Alpha virt. eigenvalues --    9.98751   9.98751  10.04208  10.26835  10.26835
 Alpha virt. eigenvalues --   10.29020  10.29020  10.32110  10.32110  10.41139
 Alpha virt. eigenvalues --   10.43020  10.43020  10.66610  10.66610  10.85262
 Alpha virt. eigenvalues --   10.90811  10.90811  10.96760  11.17839  11.17839
 Alpha virt. eigenvalues --   11.18580  11.18580  11.34848  11.34848  11.49149
 Alpha virt. eigenvalues --   11.94756  11.94756  12.03240  12.03240  12.20319
 Alpha virt. eigenvalues --   12.42369  12.42369  13.30894  13.30894  13.33801
 Alpha virt. eigenvalues --   13.33801  13.40493  13.40493  13.57155  13.57155
 Alpha virt. eigenvalues --   13.66402  13.82872  13.82872  13.96282  14.38124
 Alpha virt. eigenvalues --   14.38124  14.65349  14.65349  14.88771  14.88771
 Alpha virt. eigenvalues --   14.89492  16.02381  17.13929  17.13929  17.28797
 Alpha virt. eigenvalues --   17.28797  17.59496  17.59496  17.65142  18.02047
 Alpha virt. eigenvalues --   18.02047  18.08740  18.08740  18.65848  19.56932
 Alpha virt. eigenvalues --   19.56932  19.94923  19.94923  20.27004  20.27004
 Alpha virt. eigenvalues --   20.40311  20.40311  20.47269  20.57025  20.57025
 Alpha virt. eigenvalues --   20.79969  20.79969  20.87970  21.20110  21.20110
 Alpha virt. eigenvalues --   22.38983  22.38983  22.53022  22.62250  22.62250
 Alpha virt. eigenvalues --   23.14701  23.14701  24.14694  25.33488  25.33488
 Alpha virt. eigenvalues --   25.33537  25.33537  25.34260  25.34260  25.38497
 Alpha virt. eigenvalues --   25.38497  25.53837  25.53837  25.71200  25.71200
 Alpha virt. eigenvalues --   25.89947  25.89947  25.92657  27.01899  33.95208
 Alpha virt. eigenvalues --   33.95208  33.98320  33.98320  34.06120  34.06120
 Alpha virt. eigenvalues --   34.17005  34.17005  34.37008  34.37008  34.49696
 Alpha virt. eigenvalues --   34.49696  34.59035  38.94089  38.94089  39.03338
 Alpha virt. eigenvalues --   39.03338  39.21618  39.21618  39.49976  39.49976
 Alpha virt. eigenvalues --   39.56104  39.56104  39.62784  41.74592  41.74592
 Alpha virt. eigenvalues --   42.24846  42.24846  42.76774  42.76774  42.82422
 Alpha virt. eigenvalues --   42.84936  42.84936  43.14060  43.14060  43.50316
 Alpha virt. eigenvalues --   43.50316  43.88599  43.90063  43.90063  47.03838
 Alpha virt. eigenvalues --   47.03838  47.29087  47.29087  48.26277  53.71316
 Alpha virt. eigenvalues --   53.71316  55.36974 109.49514 492.96400
          Condensed to atoms (all electrons):
              1          2
     1  Ge  31.184106   0.333596
     2  O    0.333596   8.148702
 Mulliken atomic charges:
              1
     1  Ge   0.482298
     2  O   -0.482298
 Sum of Mulliken atomic charges =   0.00000
 Mulliken charges with hydrogens summed into heavy atoms:
              1
     1  Ge   0.482298
     2  O   -0.482298
 Sum of Mulliken charges with hydrogens summed into heavy atoms =   0.00000
          Atomic-Atomic Spin Densities.
              1          2
     1  Ge   0.000000   0.000000
     2  O    0.000000   0.000000
 Mulliken atomic spin densities:
              1
     1  Ge   0.000000
     2  O    0.000000
 Sum of Mulliken atomic spin densities =   0.00000
 Electronic spatial extent (au):  <R**2>=            111.3704
 Charge=              0.0000 electrons
 Dipole moment (field-independent basis, Debye):
    X=              0.0000    Y=              0.0000    Z=              4.2143  Tot=              4.2143
 Quadrupole moment (field-independent basis, Debye-Ang):
   XX=            -20.1276   YY=            -20.1276   ZZ=            -28.4027
   XY=              0.0000   XZ=              0.0000   YZ=              0.0000
 Traceless Quadrupole moment (field-independent basis, Debye-Ang):
   XX=              2.7584   YY=              2.7584   ZZ=             -5.5168
   XY=              0.0000   XZ=              0.0000   YZ=              0.0000
 Octapole moment (field-independent basis, Debye-Ang**2):
  XXX=              0.0000  YYY=              0.0000  ZZZ=             13.0959  XYY=              0.0000
  XXY=              0.0000  XXZ=              3.5552  XZZ=              0.0000  YZZ=              0.0000
  YYZ=              3.5552  XYZ=              0.0000
 Hexadecapole moment (field-independent basis, Debye-Ang**3):
 XXXX=            -22.7667 YYYY=            -22.7667 ZZZZ=           -114.4246 XXXY=              0.0000
 XXXZ=              0.0000 YYYX=              0.0000 YYYZ=              0.0000 ZZZX=              0.0000
 ZZZY=              0.0000 XXYY=             -7.5889 XXZZ=            -21.8215 YYZZ=            -21.8215
 XXYZ=              0.0000 YYXZ=              0.0000 ZZXY=              0.0000
 N-N= 8.338372289357D+01 E-N=-7.973309313237D+03  KE= 3.225273076851D+03
                          Isotropic Fermi Contact Couplings
        Atom                 a.u.       MegaHertz       Gauss      10(-4) cm-1
     1  Ge(73)             0.00000       0.00000       0.00000       0.00000
     2  O(17)              0.00000       0.00000       0.00000       0.00000
 --------------------------------------------------------
       Center         ----  Spin Dipole Couplings  ----
                      3XX-RR        3YY-RR        3ZZ-RR
 --------------------------------------------------------
     1   Atom        0.000000      0.000000      0.000000
     2   Atom        0.000000      0.000000      0.000000
 --------------------------------------------------------
                        XY            XZ            YZ
 --------------------------------------------------------
     1   Atom        0.000000      0.000000      0.000000
     2   Atom        0.000000      0.000000      0.000000
 --------------------------------------------------------


 ---------------------------------------------------------------------------------
              Anisotropic Spin Dipole Couplings in Principal Axis System
 ---------------------------------------------------------------------------------

       Atom             a.u.   MegaHertz   Gauss  10(-4) cm-1        Axes

              Baa     0.0000     0.000     0.000     0.000  1.0000  0.0000  0.0000
     1 Ge(73) Bbb     0.0000     0.000     0.000     0.000  0.0000  1.0000  0.0000
              Bcc     0.0000     0.000     0.000     0.000  0.0000  0.0000  1.0000
 
              Baa     0.0000     0.000     0.000     0.000  1.0000  0.0000  0.0000
     2 O(17)  Bbb     0.0000     0.000     0.000     0.000  0.0000  1.0000  0.0000
              Bcc     0.0000     0.000     0.000     0.000  0.0000  0.0000  1.0000
 

 ---------------------------------------------------------------------------------


 Test job not archived.
 1\1\GINC-C26\SP\ROMP2-RW\Gen\Ge1O1\GPETERSSON\03-May-2013\0\\# ROMP2(R
 W) Gen GFinput Int=NoBasisTransform Int(Grid=Ultrafine) IOp(3/32=2,5/6
 =10,8/11=1,9/33=1) Maxdisk=128GB CBSextrapolate(Nmin=25,MinPop)\\GeO 1
 Sg+\\0,1\Ge\O,1,1.62465\\Version=EM64L-G09RevA.02\State=1-SG\HF=-2150.
 3001103\MP2=-2150.6854206\E2(CBS)=-0.3894504\CBS-Int=-0.3874673\OIii=1
 .8450617\RMSD=2.548e-11\PG=C*V [C*(O1Ge1)]\\@


 EVERYTHING'S GOT A MORAL, IF ONLY YOU CAN FIND IT.

                                    -- LEWIS CARROL, ALICE IN WONDERLAND
 Job cpu time:  4 days 23 hours 35 minutes 18.1 seconds.
 File lengths (MBytes):  RWF=  17468 Int=      0 D2E=      0 Chk=     22 Scr=      1
 Normal termination of Gaussian 09 at Fri May  3 15:28:10 2013.
