 Entering Gaussian System, Link 0=gdv
 Initial command:
 /share/apps/gaussian/gdvh12/gdv/l1.exe /localscratch/12834/Gau-19468.inp -scrdir=/localscratch/12834/
 Entering Link 1 = /share/apps/gaussian/gdvh12/gdv/l1.exe PID=     19469.
  
 Copyright (c) 1988,1990,1992,1993,1995,1998,2003,2009,2011,
            Gaussian, Inc.  All Rights Reserved.
  
 This is the private, development version of
 the Gaussian(R) DV system of programs. It is based on
 the Gaussian(R) 09 system (copyright 2009, Gaussian, Inc.),
 the Gaussian(R) 03 system (copyright 2003, Gaussian, Inc.),
 the Gaussian(R) 98 system (copyright 1998, Gaussian, Inc.),
 the Gaussian(R) 94 system (copyright 1995, Gaussian, Inc.),
 the Gaussian 92(TM) system (copyright 1992, Gaussian, Inc.),
 the Gaussian 90(TM) system (copyright 1990, Gaussian, Inc.),
 the Gaussian 88(TM) system (copyright 1988, Gaussian, Inc.),
 the Gaussian 86(TM) system (copyright 1986, Carnegie Mellon
 University), and the Gaussian 82(TM) system (copyright 1983,
 Carnegie Mellon University). Gaussian is a federally registered
 trademark of Gaussian, Inc.
  
 This software contains proprietary and confidential information,
 including trade secrets, belonging to Gaussian, Inc.
  
 This software is provided under written license and may be
 used, copied, transmitted, or stored only in accord with that
 written license.
  
 The following legend is applicable only to US Government
 contracts under FAR:
  
                    RESTRICTED RIGHTS LEGEND
  
 Use, reproduction and disclosure by the US Government is
 subject to restrictions as set forth in subparagraphs (a)
 and (c) of the Commercial Computer Software - Restricted
 Rights clause in FAR 52.227-19.
  
 Gaussian, Inc.
 340 Quinnipiac St., Bldg. 40, Wallingford CT 06492
  
  
 ---------------------------------------------------------------
 Warning -- This program may not be used in any manner that
 competes with the business of Gaussian, Inc. or will provide
 assistance to any competitor of Gaussian, Inc.  The licensee
 of this program is prohibited from giving any competitor of
 Gaussian, Inc. access to this program.  By using this program,
 the user acknowledges that Gaussian, Inc. is engaged in the
 business of creating and licensing software in the field of
 computational chemistry and represents and warrants to the
 licensee that it is not a competitor of Gaussian, Inc. and that
 it will not use this program in any manner prohibited above.
 ---------------------------------------------------------------
  

 Cite this work as:
 Gaussian Development Version, Revision H.12,
 M. J. Frisch, G. W. Trucks, H. B. Schlegel, G. E. Scuseria, 
 M. A. Robb, J. R. Cheeseman, G. Scalmani, V. Barone, B. Mennucci, 
 G. A. Petersson, H. Nakatsuji, M. Caricato, X. Li, H. P. Hratchian, 
 A. F. Izmaylov, J. Bloino, G. Zheng, J. L. Sonnenberg, M. Hada, 
 M. Ehara, K. Toyota, R. Fukuda, J. Hasegawa, M. Ishida, T. Nakajima, 
 Y. Honda, O. Kitao, H. Nakai, T. Vreven, J. A. Montgomery, Jr., 
 J. E. Peralta, F. Ogliaro, M. Bearpark, J. J. Heyd, E. Brothers, 
 K. N. Kudin, V. N. Staroverov, T. Keith, R. Kobayashi, J. Normand, 
 K. Raghavachari, A. Rendell, J. C. Burant, S. S. Iyengar, J. Tomasi, 
 M. Cossi, N. Rega, J. M. Millam, M. Klene, J. E. Knox, J. B. Cross, 
 V. Bakken, C. Adamo, J. Jaramillo, R. Gomperts, R. E. Stratmann, 
 O. Yazyev, A. J. Austin, R. Cammi, C. Pomelli, J. W. Ochterski, 
 R. L. Martin, K. Morokuma, V. G. Zakrzewski, G. A. Voth, 
 P. Salvador, J. J. Dannenberg, S. Dapprich, P. V. Parandekar, 
 N. J. Mayhall, A. D. Daniels, O. Farkas, J. B. Foresman, 
 J. V. Ortiz, J. Cioslowski, and D. J. Fox, 
 Gaussian, Inc., Wallingford CT, 2010.
 
 ******************************************
 Gaussian DV:  EM64L-GDVRevH.12  9-Jun-2011
                27-Jul-2013 
 ******************************************
 %chk=H2CCCCN.chk
 %mem=4gb
 %nproc=2
 Will use up to    2 processors via shared memory.
 ----------------------------------------------------------------------
 #p apfd/ugbs1p opt=tight freq=(vibrot,anharm) int=(acc2e=12,grid=29997
 4) test gfprint gfinput output=pickett
 ----------------------------------------------------------------------
 1/7=10,14=-1,18=20,19=15,26=1,38=1,80=1/1,3;
 2/9=110,12=2,17=6,18=5,40=1/2;
 3/5=23,7=7,11=2,16=1,24=110,25=1,30=1,71=1,74=-44,75=299974/1,2,3;
 4//1;
 5/5=2,38=5,87=12/2;
 6/7=2,8=2,9=2,10=2,28=1/1;
 7/87=12/1,2,3,16;
 1/7=10,14=-1,18=20,19=15,80=1/3(2);
 2/9=110/2;
 99/8=1100,10=1024/99;
 2/9=110/2;
 3/5=23,7=7,11=2,16=1,25=1,30=1,71=1,74=-44,75=299974/1,2,3;
 4/5=5,16=3,69=1/1;
 5/5=2,38=5,87=12/2;
 7/87=12/1,2,3,16;
 1/7=10,14=-1,18=20,19=15,80=1/3(-5);
 2/9=110/2;
 6/7=2,8=2,9=2,10=2,19=2,28=1/1;
 99/8=1100,9=1,10=1024/99;
 Leave Link    1 at Sat Jul 27 13:38:05 2013, MaxMem=  536870912 cpu:       0.2
 (Enter /share/apps/gaussian/gdvh12/gdv/l101.exe)
 -----------------------------------------
 H2CCCCN pre-optimized at apfd/aug-cc-pVTZ
 -----------------------------------------
 Charge =  0 Multiplicity = 2
 Symbolic Z-Matrix:
 H                    -1.01633   0.93096   0. 
 H                    -1.01633  -0.93096   0. 
 C                    -0.46278   0.        0. 
 C                     0.88487   0.        0. 
 C                     2.11595   0.        0. 
 C                     3.46643   0.        0. 
 N                     4.62821   0.        0. 
 
 NAtoms=      7 NQM=        0 NQMF=       0 NMMI=      7 NMMIF=      0
                NMic=       0 NMicF=      0.
                    Isotopes and Nuclear Properties:
 (Nuclear quadrupole moments (NQMom) in fm**2, nuclear magnetic moments (NMagM)
  in nuclear magnetons)

  Atom         1           2           3           4           5           6           7
 IAtWgt=           1           1          12          12          12          12          14
 AtmWgt=   1.0078250   1.0078250  12.0000000  12.0000000  12.0000000  12.0000000  14.0030740
 NucSpn=           1           1           0           0           0           0           2
 AtZEff=   0.0000000   0.0000000   0.0000000   0.0000000   0.0000000   0.0000000   0.0000000
 NQMom=    0.0000000   0.0000000   0.0000000   0.0000000   0.0000000   0.0000000   2.0440000
 NMagM=    2.7928460   2.7928460   0.0000000   0.0000000   0.0000000   0.0000000   0.4037610
 AtZNuc=   1.0000000   1.0000000   6.0000000   6.0000000   6.0000000   6.0000000   7.0000000
 Leave Link  101 at Sat Jul 27 13:38:05 2013, MaxMem=  536870912 cpu:       0.6
 (Enter /share/apps/gaussian/gdvh12/gdv/l103.exe)

 GradGradGradGradGradGradGradGradGradGradGradGradGradGradGradGradGradGrad
 Berny optimization.
 Initialization pass.
                           ----------------------------
                           !    Initial Parameters    !
                           ! (Angstroms and Degrees)  !
 --------------------------                            --------------------------
 ! Name  Definition              Value          Derivative Info.                !
 --------------------------------------------------------------------------------
 ! R1    R(1,3)                  1.0831         estimate D2E/DX2                !
 ! R2    R(2,3)                  1.0831         estimate D2E/DX2                !
 ! R3    R(3,4)                  1.3477         estimate D2E/DX2                !
 ! R4    R(4,5)                  1.2311         estimate D2E/DX2                !
 ! R5    R(5,6)                  1.3505         estimate D2E/DX2                !
 ! R6    R(6,7)                  1.1618         estimate D2E/DX2                !
 ! A1    A(1,3,2)              118.5286         estimate D2E/DX2                !
 ! A2    A(1,3,4)              120.7357         estimate D2E/DX2                !
 ! A3    A(2,3,4)              120.7357         estimate D2E/DX2                !
 ! A4    L(3,4,5,1,-1)         180.0            estimate D2E/DX2                !
 ! A5    L(4,5,6,1,-1)         180.0            estimate D2E/DX2                !
 ! A6    L(5,6,7,1,-1)         180.0            estimate D2E/DX2                !
 ! A7    L(3,4,5,1,-2)         180.0            estimate D2E/DX2                !
 ! A8    L(4,5,6,1,-2)         180.0            estimate D2E/DX2                !
 ! A9    L(5,6,7,1,-2)         180.0            estimate D2E/DX2                !
 ! D1    D(1,3,4,2)            180.0            estimate D2E/DX2                !
 --------------------------------------------------------------------------------
 Trust Radius=3.00D-01 FncErr=1.00D-07 GrdErr=1.00D-07
 Number of steps in this run=     26 maximum allowed number of steps=    100.
 GradGradGradGradGradGradGradGradGradGradGradGradGradGradGradGradGradGrad

 Leave Link  103 at Sat Jul 27 13:38:05 2013, MaxMem=  536870912 cpu:       0.0
 (Enter /share/apps/gaussian/gdvh12/gdv/l202.exe)
                          Input orientation:                          
 ---------------------------------------------------------------------
 Center     Atomic      Atomic             Coordinates (Angstroms)
 Number     Number       Type             X           Y           Z
 ---------------------------------------------------------------------
      1          1           0       -1.016333    0.930960    0.000000
      2          1           0       -1.016333   -0.930960    0.000000
      3          6           0       -0.462785    0.000000    0.000000
      4          6           0        0.884868    0.000000    0.000000
      5          6           0        2.115949    0.000000    0.000000
      6          6           0        3.466426    0.000000    0.000000
      7          7           0        4.628207    0.000000    0.000000
 ---------------------------------------------------------------------
                    Distance matrix (angstroms):
                    1          2          3          4          5
     1  H    0.000000
     2  H    1.861921   0.000000
     3  C    1.083099   1.083099   0.000000
     4  C    2.116897   2.116897   1.347652   0.000000
     5  C    3.267703   3.267703   2.578734   1.231082   0.000000
     6  C    4.578408   4.578408   3.929211   2.581558   1.350477
     7  N    5.720798   5.720798   5.090992   3.743339   2.512258
                    6          7
     6  C    0.000000
     7  N    1.161781   0.000000
 Stoichiometry    C4H2N(2)
 Framework group  C2V[C2(CCCCN),SGV(H2)]
 Deg. of freedom     6
 Full point group                 C2V     NOp   4
 Largest Abelian subgroup         C2V     NOp   4
 Largest concise Abelian subgroup C2      NOp   2
                         Standard orientation:                         
 ---------------------------------------------------------------------
 Center     Atomic      Atomic             Coordinates (Angstroms)
 Number     Number       Type             X           Y           Z
 ---------------------------------------------------------------------
      1          1           0        0.000000    0.930960   -3.028198
      2          1           0        0.000000   -0.930960   -3.028198
      3          6           0        0.000000    0.000000   -2.474649
      4          6           0        0.000000    0.000000   -1.126997
      5          6           0        0.000000    0.000000    0.104085
      6          6           0        0.000000    0.000000    1.454562
      7          7           0        0.000000    0.000000    2.616342
 ---------------------------------------------------------------------
 Rotational constants (GHZ):    289.2940935      2.2163842      2.1995328
 Leave Link  202 at Sat Jul 27 13:38:05 2013, MaxMem=  536870912 cpu:       0.0
 (Enter /share/apps/gaussian/gdvh12/gdv/l301.exe)
 Standard basis: UGBS1P (5D, 7F)
 Ernie: Thresh=  0.10000D-02 Tol=  0.10000D-05 Strict=F.
 AO basis set in the form of general basis input (Overlap normalization):
      1 0
 S   1 1.00       0.000000000000
      0.1373908542D+05  0.1000000000D+01
 S   1 1.00       0.000000000000
      0.7016361094D+04  0.1000000000D+01
 S   1 1.00       0.000000000000
      0.3583158668D+04  0.1000000000D+01
 S   1 1.00       0.000000000000
      0.1829869625D+04  0.1000000000D+01
 S   1 1.00       0.000000000000
      0.9344891347D+03  0.1000000000D+01
 S   1 1.00       0.000000000000
      0.4772306896D+03  0.1000000000D+01
 S   1 1.00       0.000000000000
      0.2437151195D+03  0.1000000000D+01
 S   1 1.00       0.000000000000
      0.1244619442D+03  0.1000000000D+01
 S   1 1.00       0.000000000000
      0.6356099525D+02  0.1000000000D+01
 S   1 1.00       0.000000000000
      0.3245972208D+02  0.1000000000D+01
 S   1 1.00       0.000000000000
      0.1657673158D+02  0.1000000000D+01
 S   1 1.00       0.000000000000
      0.8465507783D+01  0.1000000000D+01
 S   1 1.00       0.000000000000
      0.4323217860D+01  0.1000000000D+01
 S   1 1.00       0.000000000000
      0.2207807629D+01  0.1000000000D+01
 S   1 1.00       0.000000000000
      0.1127496852D+01  0.1000000000D+01
 S   1 1.00       0.000000000000
      0.5757970639D+00  0.1000000000D+01
 S   1 1.00       0.000000000000
      0.2940516050D+00  0.1000000000D+01
 S   1 1.00       0.000000000000
      0.1501680918D+00  0.1000000000D+01
 S   1 1.00       0.000000000000
      0.7668876969D-01  0.1000000000D+01
 S   1 1.00       0.000000000000
      0.3916389510D-01  0.1000000000D+01
 P   1 1.00       0.000000000000
      0.1373908542D+05  0.1000000000D+01
 P   1 1.00       0.000000000000
      0.7016361094D+04  0.1000000000D+01
 P   1 1.00       0.000000000000
      0.3583158668D+04  0.1000000000D+01
 P   1 1.00       0.000000000000
      0.1829869625D+04  0.1000000000D+01
 P   1 1.00       0.000000000000
      0.9344891347D+03  0.1000000000D+01
 P   1 1.00       0.000000000000
      0.4772306896D+03  0.1000000000D+01
 P   1 1.00       0.000000000000
      0.2437151195D+03  0.1000000000D+01
 P   1 1.00       0.000000000000
      0.1244619442D+03  0.1000000000D+01
 P   1 1.00       0.000000000000
      0.6356099525D+02  0.1000000000D+01
 P   1 1.00       0.000000000000
      0.3245972208D+02  0.1000000000D+01
 P   1 1.00       0.000000000000
      0.1657673158D+02  0.1000000000D+01
 P   1 1.00       0.000000000000
      0.8465507783D+01  0.1000000000D+01
 P   1 1.00       0.000000000000
      0.4323217860D+01  0.1000000000D+01
 P   1 1.00       0.000000000000
      0.2207807629D+01  0.1000000000D+01
 P   1 1.00       0.000000000000
      0.1127496852D+01  0.1000000000D+01
 P   1 1.00       0.000000000000
      0.5757970639D+00  0.1000000000D+01
 P   1 1.00       0.000000000000
      0.2940516050D+00  0.1000000000D+01
 P   1 1.00       0.000000000000
      0.1501680918D+00  0.1000000000D+01
 P   1 1.00       0.000000000000
      0.7668876969D-01  0.1000000000D+01
 P   1 1.00       0.000000000000
      0.3916389510D-01  0.1000000000D+01
 ****
      2 0
 S   1 1.00       0.000000000000
      0.1373908542D+05  0.1000000000D+01
 S   1 1.00       0.000000000000
      0.7016361094D+04  0.1000000000D+01
 S   1 1.00       0.000000000000
      0.3583158668D+04  0.1000000000D+01
 S   1 1.00       0.000000000000
      0.1829869625D+04  0.1000000000D+01
 S   1 1.00       0.000000000000
      0.9344891347D+03  0.1000000000D+01
 S   1 1.00       0.000000000000
      0.4772306896D+03  0.1000000000D+01
 S   1 1.00       0.000000000000
      0.2437151195D+03  0.1000000000D+01
 S   1 1.00       0.000000000000
      0.1244619442D+03  0.1000000000D+01
 S   1 1.00       0.000000000000
      0.6356099525D+02  0.1000000000D+01
 S   1 1.00       0.000000000000
      0.3245972208D+02  0.1000000000D+01
 S   1 1.00       0.000000000000
      0.1657673158D+02  0.1000000000D+01
 S   1 1.00       0.000000000000
      0.8465507783D+01  0.1000000000D+01
 S   1 1.00       0.000000000000
      0.4323217860D+01  0.1000000000D+01
 S   1 1.00       0.000000000000
      0.2207807629D+01  0.1000000000D+01
 S   1 1.00       0.000000000000
      0.1127496852D+01  0.1000000000D+01
 S   1 1.00       0.000000000000
      0.5757970639D+00  0.1000000000D+01
 S   1 1.00       0.000000000000
      0.2940516050D+00  0.1000000000D+01
 S   1 1.00       0.000000000000
      0.1501680918D+00  0.1000000000D+01
 S   1 1.00       0.000000000000
      0.7668876969D-01  0.1000000000D+01
 S   1 1.00       0.000000000000
      0.3916389510D-01  0.1000000000D+01
 P   1 1.00       0.000000000000
      0.1373908542D+05  0.1000000000D+01
 P   1 1.00       0.000000000000
      0.7016361094D+04  0.1000000000D+01
 P   1 1.00       0.000000000000
      0.3583158668D+04  0.1000000000D+01
 P   1 1.00       0.000000000000
      0.1829869625D+04  0.1000000000D+01
 P   1 1.00       0.000000000000
      0.9344891347D+03  0.1000000000D+01
 P   1 1.00       0.000000000000
      0.4772306896D+03  0.1000000000D+01
 P   1 1.00       0.000000000000
      0.2437151195D+03  0.1000000000D+01
 P   1 1.00       0.000000000000
      0.1244619442D+03  0.1000000000D+01
 P   1 1.00       0.000000000000
      0.6356099525D+02  0.1000000000D+01
 P   1 1.00       0.000000000000
      0.3245972208D+02  0.1000000000D+01
 P   1 1.00       0.000000000000
      0.1657673158D+02  0.1000000000D+01
 P   1 1.00       0.000000000000
      0.8465507783D+01  0.1000000000D+01
 P   1 1.00       0.000000000000
      0.4323217860D+01  0.1000000000D+01
 P   1 1.00       0.000000000000
      0.2207807629D+01  0.1000000000D+01
 P   1 1.00       0.000000000000
      0.1127496852D+01  0.1000000000D+01
 P   1 1.00       0.000000000000
      0.5757970639D+00  0.1000000000D+01
 P   1 1.00       0.000000000000
      0.2940516050D+00  0.1000000000D+01
 P   1 1.00       0.000000000000
      0.1501680918D+00  0.1000000000D+01
 P   1 1.00       0.000000000000
      0.7668876969D-01  0.1000000000D+01
 P   1 1.00       0.000000000000
      0.3916389510D-01  0.1000000000D+01
 ****
      3 0
 S   1 1.00       0.000000000000
      0.2019953588D+06  0.1000000000D+01
 S   1 1.00       0.000000000000
      0.1031562389D+06  0.1000000000D+01
 S   1 1.00       0.000000000000
      0.5268046591D+05  0.1000000000D+01
 S   1 1.00       0.000000000000
      0.2690318607D+05  0.1000000000D+01
 S   1 1.00       0.000000000000
      0.1373908542D+05  0.1000000000D+01
 S   1 1.00       0.000000000000
      0.7016361094D+04  0.1000000000D+01
 S   1 1.00       0.000000000000
      0.3583158668D+04  0.1000000000D+01
 S   1 1.00       0.000000000000
      0.1829869625D+04  0.1000000000D+01
 S   1 1.00       0.000000000000
      0.9344891347D+03  0.1000000000D+01
 S   1 1.00       0.000000000000
      0.4772306896D+03  0.1000000000D+01
 S   1 1.00       0.000000000000
      0.2437151195D+03  0.1000000000D+01
 S   1 1.00       0.000000000000
      0.1244619442D+03  0.1000000000D+01
 S   1 1.00       0.000000000000
      0.6356099525D+02  0.1000000000D+01
 S   1 1.00       0.000000000000
      0.3245972208D+02  0.1000000000D+01
 S   1 1.00       0.000000000000
      0.1657673158D+02  0.1000000000D+01
 S   1 1.00       0.000000000000
      0.8465507783D+01  0.1000000000D+01
 S   1 1.00       0.000000000000
      0.4323217860D+01  0.1000000000D+01
 S   1 1.00       0.000000000000
      0.2207807629D+01  0.1000000000D+01
 S   1 1.00       0.000000000000
      0.1127496852D+01  0.1000000000D+01
 S   1 1.00       0.000000000000
      0.5757970639D+00  0.1000000000D+01
 S   1 1.00       0.000000000000
      0.2940516050D+00  0.1000000000D+01
 S   1 1.00       0.000000000000
      0.1501680918D+00  0.1000000000D+01
 S   1 1.00       0.000000000000
      0.7668876969D-01  0.1000000000D+01
 P   1 1.00       0.000000000000
      0.2019953588D+06  0.1000000000D+01
 P   1 1.00       0.000000000000
      0.1031562389D+06  0.1000000000D+01
 P   1 1.00       0.000000000000
      0.5268046591D+05  0.1000000000D+01
 P   1 1.00       0.000000000000
      0.2690318607D+05  0.1000000000D+01
 P   1 1.00       0.000000000000
      0.1373908542D+05  0.1000000000D+01
 P   1 1.00       0.000000000000
      0.7016361094D+04  0.1000000000D+01
 P   1 1.00       0.000000000000
      0.3583158668D+04  0.1000000000D+01
 P   1 1.00       0.000000000000
      0.1829869625D+04  0.1000000000D+01
 P   1 1.00       0.000000000000
      0.9344891347D+03  0.1000000000D+01
 P   1 1.00       0.000000000000
      0.4772306896D+03  0.1000000000D+01
 P   1 1.00       0.000000000000
      0.2437151195D+03  0.1000000000D+01
 P   1 1.00       0.000000000000
      0.1244619442D+03  0.1000000000D+01
 P   1 1.00       0.000000000000
      0.6356099525D+02  0.1000000000D+01
 P   1 1.00       0.000000000000
      0.3245972208D+02  0.1000000000D+01
 P   1 1.00       0.000000000000
      0.1657673158D+02  0.1000000000D+01
 P   1 1.00       0.000000000000
      0.8465507783D+01  0.1000000000D+01
 P   1 1.00       0.000000000000
      0.4323217860D+01  0.1000000000D+01
 P   1 1.00       0.000000000000
      0.2207807629D+01  0.1000000000D+01
 P   1 1.00       0.000000000000
      0.1127496852D+01  0.1000000000D+01
 P   1 1.00       0.000000000000
      0.5757970639D+00  0.1000000000D+01
 P   1 1.00       0.000000000000
      0.2940516050D+00  0.1000000000D+01
 P   1 1.00       0.000000000000
      0.1501680918D+00  0.1000000000D+01
 P   1 1.00       0.000000000000
      0.7668876969D-01  0.1000000000D+01
 P   1 1.00       0.000000000000
      0.3916389510D-01  0.1000000000D+01
 D   1 1.00       0.000000000000
      0.4772306896D+03  0.1000000000D+01
 D   1 1.00       0.000000000000
      0.2437151195D+03  0.1000000000D+01
 D   1 1.00       0.000000000000
      0.1244619442D+03  0.1000000000D+01
 D   1 1.00       0.000000000000
      0.6356099525D+02  0.1000000000D+01
 D   1 1.00       0.000000000000
      0.3245972208D+02  0.1000000000D+01
 D   1 1.00       0.000000000000
      0.1657673158D+02  0.1000000000D+01
 D   1 1.00       0.000000000000
      0.8465507783D+01  0.1000000000D+01
 D   1 1.00       0.000000000000
      0.4323217860D+01  0.1000000000D+01
 D   1 1.00       0.000000000000
      0.2207807629D+01  0.1000000000D+01
 D   1 1.00       0.000000000000
      0.1127496852D+01  0.1000000000D+01
 D   1 1.00       0.000000000000
      0.5757970639D+00  0.1000000000D+01
 D   1 1.00       0.000000000000
      0.2940516050D+00  0.1000000000D+01
 D   1 1.00       0.000000000000
      0.1501680918D+00  0.1000000000D+01
 D   1 1.00       0.000000000000
      0.7668876969D-01  0.1000000000D+01
 D   1 1.00       0.000000000000
      0.3916389510D-01  0.1000000000D+01
 ****
      4 0
 S   1 1.00       0.000000000000
      0.2019953588D+06  0.1000000000D+01
 S   1 1.00       0.000000000000
      0.1031562389D+06  0.1000000000D+01
 S   1 1.00       0.000000000000
      0.5268046591D+05  0.1000000000D+01
 S   1 1.00       0.000000000000
      0.2690318607D+05  0.1000000000D+01
 S   1 1.00       0.000000000000
      0.1373908542D+05  0.1000000000D+01
 S   1 1.00       0.000000000000
      0.7016361094D+04  0.1000000000D+01
 S   1 1.00       0.000000000000
      0.3583158668D+04  0.1000000000D+01
 S   1 1.00       0.000000000000
      0.1829869625D+04  0.1000000000D+01
 S   1 1.00       0.000000000000
      0.9344891347D+03  0.1000000000D+01
 S   1 1.00       0.000000000000
      0.4772306896D+03  0.1000000000D+01
 S   1 1.00       0.000000000000
      0.2437151195D+03  0.1000000000D+01
 S   1 1.00       0.000000000000
      0.1244619442D+03  0.1000000000D+01
 S   1 1.00       0.000000000000
      0.6356099525D+02  0.1000000000D+01
 S   1 1.00       0.000000000000
      0.3245972208D+02  0.1000000000D+01
 S   1 1.00       0.000000000000
      0.1657673158D+02  0.1000000000D+01
 S   1 1.00       0.000000000000
      0.8465507783D+01  0.1000000000D+01
 S   1 1.00       0.000000000000
      0.4323217860D+01  0.1000000000D+01
 S   1 1.00       0.000000000000
      0.2207807629D+01  0.1000000000D+01
 S   1 1.00       0.000000000000
      0.1127496852D+01  0.1000000000D+01
 S   1 1.00       0.000000000000
      0.5757970639D+00  0.1000000000D+01
 S   1 1.00       0.000000000000
      0.2940516050D+00  0.1000000000D+01
 S   1 1.00       0.000000000000
      0.1501680918D+00  0.1000000000D+01
 S   1 1.00       0.000000000000
      0.7668876969D-01  0.1000000000D+01
 P   1 1.00       0.000000000000
      0.2019953588D+06  0.1000000000D+01
 P   1 1.00       0.000000000000
      0.1031562389D+06  0.1000000000D+01
 P   1 1.00       0.000000000000
      0.5268046591D+05  0.1000000000D+01
 P   1 1.00       0.000000000000
      0.2690318607D+05  0.1000000000D+01
 P   1 1.00       0.000000000000
      0.1373908542D+05  0.1000000000D+01
 P   1 1.00       0.000000000000
      0.7016361094D+04  0.1000000000D+01
 P   1 1.00       0.000000000000
      0.3583158668D+04  0.1000000000D+01
 P   1 1.00       0.000000000000
      0.1829869625D+04  0.1000000000D+01
 P   1 1.00       0.000000000000
      0.9344891347D+03  0.1000000000D+01
 P   1 1.00       0.000000000000
      0.4772306896D+03  0.1000000000D+01
 P   1 1.00       0.000000000000
      0.2437151195D+03  0.1000000000D+01
 P   1 1.00       0.000000000000
      0.1244619442D+03  0.1000000000D+01
 P   1 1.00       0.000000000000
      0.6356099525D+02  0.1000000000D+01
 P   1 1.00       0.000000000000
      0.3245972208D+02  0.1000000000D+01
 P   1 1.00       0.000000000000
      0.1657673158D+02  0.1000000000D+01
 P   1 1.00       0.000000000000
      0.8465507783D+01  0.1000000000D+01
 P   1 1.00       0.000000000000
      0.4323217860D+01  0.1000000000D+01
 P   1 1.00       0.000000000000
      0.2207807629D+01  0.1000000000D+01
 P   1 1.00       0.000000000000
      0.1127496852D+01  0.1000000000D+01
 P   1 1.00       0.000000000000
      0.5757970639D+00  0.1000000000D+01
 P   1 1.00       0.000000000000
      0.2940516050D+00  0.1000000000D+01
 P   1 1.00       0.000000000000
      0.1501680918D+00  0.1000000000D+01
 P   1 1.00       0.000000000000
      0.7668876969D-01  0.1000000000D+01
 P   1 1.00       0.000000000000
      0.3916389510D-01  0.1000000000D+01
 D   1 1.00       0.000000000000
      0.4772306896D+03  0.1000000000D+01
 D   1 1.00       0.000000000000
      0.2437151195D+03  0.1000000000D+01
 D   1 1.00       0.000000000000
      0.1244619442D+03  0.1000000000D+01
 D   1 1.00       0.000000000000
      0.6356099525D+02  0.1000000000D+01
 D   1 1.00       0.000000000000
      0.3245972208D+02  0.1000000000D+01
 D   1 1.00       0.000000000000
      0.1657673158D+02  0.1000000000D+01
 D   1 1.00       0.000000000000
      0.8465507783D+01  0.1000000000D+01
 D   1 1.00       0.000000000000
      0.4323217860D+01  0.1000000000D+01
 D   1 1.00       0.000000000000
      0.2207807629D+01  0.1000000000D+01
 D   1 1.00       0.000000000000
      0.1127496852D+01  0.1000000000D+01
 D   1 1.00       0.000000000000
      0.5757970639D+00  0.1000000000D+01
 D   1 1.00       0.000000000000
      0.2940516050D+00  0.1000000000D+01
 D   1 1.00       0.000000000000
      0.1501680918D+00  0.1000000000D+01
 D   1 1.00       0.000000000000
      0.7668876969D-01  0.1000000000D+01
 D   1 1.00       0.000000000000
      0.3916389510D-01  0.1000000000D+01
 ****
      5 0
 S   1 1.00       0.000000000000
      0.2019953588D+06  0.1000000000D+01
 S   1 1.00       0.000000000000
      0.1031562389D+06  0.1000000000D+01
 S   1 1.00       0.000000000000
      0.5268046591D+05  0.1000000000D+01
 S   1 1.00       0.000000000000
      0.2690318607D+05  0.1000000000D+01
 S   1 1.00       0.000000000000
      0.1373908542D+05  0.1000000000D+01
 S   1 1.00       0.000000000000
      0.7016361094D+04  0.1000000000D+01
 S   1 1.00       0.000000000000
      0.3583158668D+04  0.1000000000D+01
 S   1 1.00       0.000000000000
      0.1829869625D+04  0.1000000000D+01
 S   1 1.00       0.000000000000
      0.9344891347D+03  0.1000000000D+01
 S   1 1.00       0.000000000000
      0.4772306896D+03  0.1000000000D+01
 S   1 1.00       0.000000000000
      0.2437151195D+03  0.1000000000D+01
 S   1 1.00       0.000000000000
      0.1244619442D+03  0.1000000000D+01
 S   1 1.00       0.000000000000
      0.6356099525D+02  0.1000000000D+01
 S   1 1.00       0.000000000000
      0.3245972208D+02  0.1000000000D+01
 S   1 1.00       0.000000000000
      0.1657673158D+02  0.1000000000D+01
 S   1 1.00       0.000000000000
      0.8465507783D+01  0.1000000000D+01
 S   1 1.00       0.000000000000
      0.4323217860D+01  0.1000000000D+01
 S   1 1.00       0.000000000000
      0.2207807629D+01  0.1000000000D+01
 S   1 1.00       0.000000000000
      0.1127496852D+01  0.1000000000D+01
 S   1 1.00       0.000000000000
      0.5757970639D+00  0.1000000000D+01
 S   1 1.00       0.000000000000
      0.2940516050D+00  0.1000000000D+01
 S   1 1.00       0.000000000000
      0.1501680918D+00  0.1000000000D+01
 S   1 1.00       0.000000000000
      0.7668876969D-01  0.1000000000D+01
 P   1 1.00       0.000000000000
      0.2019953588D+06  0.1000000000D+01
 P   1 1.00       0.000000000000
      0.1031562389D+06  0.1000000000D+01
 P   1 1.00       0.000000000000
      0.5268046591D+05  0.1000000000D+01
 P   1 1.00       0.000000000000
      0.2690318607D+05  0.1000000000D+01
 P   1 1.00       0.000000000000
      0.1373908542D+05  0.1000000000D+01
 P   1 1.00       0.000000000000
      0.7016361094D+04  0.1000000000D+01
 P   1 1.00       0.000000000000
      0.3583158668D+04  0.1000000000D+01
 P   1 1.00       0.000000000000
      0.1829869625D+04  0.1000000000D+01
 P   1 1.00       0.000000000000
      0.9344891347D+03  0.1000000000D+01
 P   1 1.00       0.000000000000
      0.4772306896D+03  0.1000000000D+01
 P   1 1.00       0.000000000000
      0.2437151195D+03  0.1000000000D+01
 P   1 1.00       0.000000000000
      0.1244619442D+03  0.1000000000D+01
 P   1 1.00       0.000000000000
      0.6356099525D+02  0.1000000000D+01
 P   1 1.00       0.000000000000
      0.3245972208D+02  0.1000000000D+01
 P   1 1.00       0.000000000000
      0.1657673158D+02  0.1000000000D+01
 P   1 1.00       0.000000000000
      0.8465507783D+01  0.1000000000D+01
 P   1 1.00       0.000000000000
      0.4323217860D+01  0.1000000000D+01
 P   1 1.00       0.000000000000
      0.2207807629D+01  0.1000000000D+01
 P   1 1.00       0.000000000000
      0.1127496852D+01  0.1000000000D+01
 P   1 1.00       0.000000000000
      0.5757970639D+00  0.1000000000D+01
 P   1 1.00       0.000000000000
      0.2940516050D+00  0.1000000000D+01
 P   1 1.00       0.000000000000
      0.1501680918D+00  0.1000000000D+01
 P   1 1.00       0.000000000000
      0.7668876969D-01  0.1000000000D+01
 P   1 1.00       0.000000000000
      0.3916389510D-01  0.1000000000D+01
 D   1 1.00       0.000000000000
      0.4772306896D+03  0.1000000000D+01
 D   1 1.00       0.000000000000
      0.2437151195D+03  0.1000000000D+01
 D   1 1.00       0.000000000000
      0.1244619442D+03  0.1000000000D+01
 D   1 1.00       0.000000000000
      0.6356099525D+02  0.1000000000D+01
 D   1 1.00       0.000000000000
      0.3245972208D+02  0.1000000000D+01
 D   1 1.00       0.000000000000
      0.1657673158D+02  0.1000000000D+01
 D   1 1.00       0.000000000000
      0.8465507783D+01  0.1000000000D+01
 D   1 1.00       0.000000000000
      0.4323217860D+01  0.1000000000D+01
 D   1 1.00       0.000000000000
      0.2207807629D+01  0.1000000000D+01
 D   1 1.00       0.000000000000
      0.1127496852D+01  0.1000000000D+01
 D   1 1.00       0.000000000000
      0.5757970639D+00  0.1000000000D+01
 D   1 1.00       0.000000000000
      0.2940516050D+00  0.1000000000D+01
 D   1 1.00       0.000000000000
      0.1501680918D+00  0.1000000000D+01
 D   1 1.00       0.000000000000
      0.7668876969D-01  0.1000000000D+01
 D   1 1.00       0.000000000000
      0.3916389510D-01  0.1000000000D+01
 ****
      6 0
 S   1 1.00       0.000000000000
      0.2019953588D+06  0.1000000000D+01
 S   1 1.00       0.000000000000
      0.1031562389D+06  0.1000000000D+01
 S   1 1.00       0.000000000000
      0.5268046591D+05  0.1000000000D+01
 S   1 1.00       0.000000000000
      0.2690318607D+05  0.1000000000D+01
 S   1 1.00       0.000000000000
      0.1373908542D+05  0.1000000000D+01
 S   1 1.00       0.000000000000
      0.7016361094D+04  0.1000000000D+01
 S   1 1.00       0.000000000000
      0.3583158668D+04  0.1000000000D+01
 S   1 1.00       0.000000000000
      0.1829869625D+04  0.1000000000D+01
 S   1 1.00       0.000000000000
      0.9344891347D+03  0.1000000000D+01
 S   1 1.00       0.000000000000
      0.4772306896D+03  0.1000000000D+01
 S   1 1.00       0.000000000000
      0.2437151195D+03  0.1000000000D+01
 S   1 1.00       0.000000000000
      0.1244619442D+03  0.1000000000D+01
 S   1 1.00       0.000000000000
      0.6356099525D+02  0.1000000000D+01
 S   1 1.00       0.000000000000
      0.3245972208D+02  0.1000000000D+01
 S   1 1.00       0.000000000000
      0.1657673158D+02  0.1000000000D+01
 S   1 1.00       0.000000000000
      0.8465507783D+01  0.1000000000D+01
 S   1 1.00       0.000000000000
      0.4323217860D+01  0.1000000000D+01
 S   1 1.00       0.000000000000
      0.2207807629D+01  0.1000000000D+01
 S   1 1.00       0.000000000000
      0.1127496852D+01  0.1000000000D+01
 S   1 1.00       0.000000000000
      0.5757970639D+00  0.1000000000D+01
 S   1 1.00       0.000000000000
      0.2940516050D+00  0.1000000000D+01
 S   1 1.00       0.000000000000
      0.1501680918D+00  0.1000000000D+01
 S   1 1.00       0.000000000000
      0.7668876969D-01  0.1000000000D+01
 P   1 1.00       0.000000000000
      0.2019953588D+06  0.1000000000D+01
 P   1 1.00       0.000000000000
      0.1031562389D+06  0.1000000000D+01
 P   1 1.00       0.000000000000
      0.5268046591D+05  0.1000000000D+01
 P   1 1.00       0.000000000000
      0.2690318607D+05  0.1000000000D+01
 P   1 1.00       0.000000000000
      0.1373908542D+05  0.1000000000D+01
 P   1 1.00       0.000000000000
      0.7016361094D+04  0.1000000000D+01
 P   1 1.00       0.000000000000
      0.3583158668D+04  0.1000000000D+01
 P   1 1.00       0.000000000000
      0.1829869625D+04  0.1000000000D+01
 P   1 1.00       0.000000000000
      0.9344891347D+03  0.1000000000D+01
 P   1 1.00       0.000000000000
      0.4772306896D+03  0.1000000000D+01
 P   1 1.00       0.000000000000
      0.2437151195D+03  0.1000000000D+01
 P   1 1.00       0.000000000000
      0.1244619442D+03  0.1000000000D+01
 P   1 1.00       0.000000000000
      0.6356099525D+02  0.1000000000D+01
 P   1 1.00       0.000000000000
      0.3245972208D+02  0.1000000000D+01
 P   1 1.00       0.000000000000
      0.1657673158D+02  0.1000000000D+01
 P   1 1.00       0.000000000000
      0.8465507783D+01  0.1000000000D+01
 P   1 1.00       0.000000000000
      0.4323217860D+01  0.1000000000D+01
 P   1 1.00       0.000000000000
      0.2207807629D+01  0.1000000000D+01
 P   1 1.00       0.000000000000
      0.1127496852D+01  0.1000000000D+01
 P   1 1.00       0.000000000000
      0.5757970639D+00  0.1000000000D+01
 P   1 1.00       0.000000000000
      0.2940516050D+00  0.1000000000D+01
 P   1 1.00       0.000000000000
      0.1501680918D+00  0.1000000000D+01
 P   1 1.00       0.000000000000
      0.7668876969D-01  0.1000000000D+01
 P   1 1.00       0.000000000000
      0.3916389510D-01  0.1000000000D+01
 D   1 1.00       0.000000000000
      0.4772306896D+03  0.1000000000D+01
 D   1 1.00       0.000000000000
      0.2437151195D+03  0.1000000000D+01
 D   1 1.00       0.000000000000
      0.1244619442D+03  0.1000000000D+01
 D   1 1.00       0.000000000000
      0.6356099525D+02  0.1000000000D+01
 D   1 1.00       0.000000000000
      0.3245972208D+02  0.1000000000D+01
 D   1 1.00       0.000000000000
      0.1657673158D+02  0.1000000000D+01
 D   1 1.00       0.000000000000
      0.8465507783D+01  0.1000000000D+01
 D   1 1.00       0.000000000000
      0.4323217860D+01  0.1000000000D+01
 D   1 1.00       0.000000000000
      0.2207807629D+01  0.1000000000D+01
 D   1 1.00       0.000000000000
      0.1127496852D+01  0.1000000000D+01
 D   1 1.00       0.000000000000
      0.5757970639D+00  0.1000000000D+01
 D   1 1.00       0.000000000000
      0.2940516050D+00  0.1000000000D+01
 D   1 1.00       0.000000000000
      0.1501680918D+00  0.1000000000D+01
 D   1 1.00       0.000000000000
      0.7668876969D-01  0.1000000000D+01
 D   1 1.00       0.000000000000
      0.3916389510D-01  0.1000000000D+01
 ****
      7 0
 S   1 1.00       0.000000000000
      0.2019953588D+06  0.1000000000D+01
 S   1 1.00       0.000000000000
      0.1031562389D+06  0.1000000000D+01
 S   1 1.00       0.000000000000
      0.5268046591D+05  0.1000000000D+01
 S   1 1.00       0.000000000000
      0.2690318607D+05  0.1000000000D+01
 S   1 1.00       0.000000000000
      0.1373908542D+05  0.1000000000D+01
 S   1 1.00       0.000000000000
      0.7016361094D+04  0.1000000000D+01
 S   1 1.00       0.000000000000
      0.3583158668D+04  0.1000000000D+01
 S   1 1.00       0.000000000000
      0.1829869625D+04  0.1000000000D+01
 S   1 1.00       0.000000000000
      0.9344891347D+03  0.1000000000D+01
 S   1 1.00       0.000000000000
      0.4772306896D+03  0.1000000000D+01
 S   1 1.00       0.000000000000
      0.2437151195D+03  0.1000000000D+01
 S   1 1.00       0.000000000000
      0.1244619442D+03  0.1000000000D+01
 S   1 1.00       0.000000000000
      0.6356099525D+02  0.1000000000D+01
 S   1 1.00       0.000000000000
      0.3245972208D+02  0.1000000000D+01
 S   1 1.00       0.000000000000
      0.1657673158D+02  0.1000000000D+01
 S   1 1.00       0.000000000000
      0.8465507783D+01  0.1000000000D+01
 S   1 1.00       0.000000000000
      0.4323217860D+01  0.1000000000D+01
 S   1 1.00       0.000000000000
      0.2207807629D+01  0.1000000000D+01
 S   1 1.00       0.000000000000
      0.1127496852D+01  0.1000000000D+01
 S   1 1.00       0.000000000000
      0.5757970639D+00  0.1000000000D+01
 S   1 1.00       0.000000000000
      0.2940516050D+00  0.1000000000D+01
 S   1 1.00       0.000000000000
      0.1501680918D+00  0.1000000000D+01
 S   1 1.00       0.000000000000
      0.7668876969D-01  0.1000000000D+01
 P   1 1.00       0.000000000000
      0.2019953588D+06  0.1000000000D+01
 P   1 1.00       0.000000000000
      0.1031562389D+06  0.1000000000D+01
 P   1 1.00       0.000000000000
      0.5268046591D+05  0.1000000000D+01
 P   1 1.00       0.000000000000
      0.2690318607D+05  0.1000000000D+01
 P   1 1.00       0.000000000000
      0.1373908542D+05  0.1000000000D+01
 P   1 1.00       0.000000000000
      0.7016361094D+04  0.1000000000D+01
 P   1 1.00       0.000000000000
      0.3583158668D+04  0.1000000000D+01
 P   1 1.00       0.000000000000
      0.1829869625D+04  0.1000000000D+01
 P   1 1.00       0.000000000000
      0.9344891347D+03  0.1000000000D+01
 P   1 1.00       0.000000000000
      0.4772306896D+03  0.1000000000D+01
 P   1 1.00       0.000000000000
      0.2437151195D+03  0.1000000000D+01
 P   1 1.00       0.000000000000
      0.1244619442D+03  0.1000000000D+01
 P   1 1.00       0.000000000000
      0.6356099525D+02  0.1000000000D+01
 P   1 1.00       0.000000000000
      0.3245972208D+02  0.1000000000D+01
 P   1 1.00       0.000000000000
      0.1657673158D+02  0.1000000000D+01
 P   1 1.00       0.000000000000
      0.8465507783D+01  0.1000000000D+01
 P   1 1.00       0.000000000000
      0.4323217860D+01  0.1000000000D+01
 P   1 1.00       0.000000000000
      0.2207807629D+01  0.1000000000D+01
 P   1 1.00       0.000000000000
      0.1127496852D+01  0.1000000000D+01
 P   1 1.00       0.000000000000
      0.5757970639D+00  0.1000000000D+01
 P   1 1.00       0.000000000000
      0.2940516050D+00  0.1000000000D+01
 P   1 1.00       0.000000000000
      0.1501680918D+00  0.1000000000D+01
 P   1 1.00       0.000000000000
      0.7668876969D-01  0.1000000000D+01
 D   1 1.00       0.000000000000
      0.1829869625D+04  0.1000000000D+01
 D   1 1.00       0.000000000000
      0.9344891347D+03  0.1000000000D+01
 D   1 1.00       0.000000000000
      0.4772306896D+03  0.1000000000D+01
 D   1 1.00       0.000000000000
      0.2437151195D+03  0.1000000000D+01
 D   1 1.00       0.000000000000
      0.1244619442D+03  0.1000000000D+01
 D   1 1.00       0.000000000000
      0.6356099525D+02  0.1000000000D+01
 D   1 1.00       0.000000000000
      0.3245972208D+02  0.1000000000D+01
 D   1 1.00       0.000000000000
      0.1657673158D+02  0.1000000000D+01
 D   1 1.00       0.000000000000
      0.8465507783D+01  0.1000000000D+01
 D   1 1.00       0.000000000000
      0.4323217860D+01  0.1000000000D+01
 D   1 1.00       0.000000000000
      0.2207807629D+01  0.1000000000D+01
 D   1 1.00       0.000000000000
      0.1127496852D+01  0.1000000000D+01
 D   1 1.00       0.000000000000
      0.5757970639D+00  0.1000000000D+01
 D   1 1.00       0.000000000000
      0.2940516050D+00  0.1000000000D+01
 D   1 1.00       0.000000000000
      0.1501680918D+00  0.1000000000D+01
 D   1 1.00       0.000000000000
      0.7668876969D-01  0.1000000000D+01
 ****

 AO basis set (Overlap normalization):
 Atom H1       Shell     1 S   1     bf    1 -     1          0.000000000000          1.759260347551         -5.722465030197
      0.1373908542D+05  0.1000000000D+01
 Atom H1       Shell     2 S   1     bf    2 -     2          0.000000000000          1.759260347551         -5.722465030197
      0.7016361094D+04  0.1000000000D+01
 Atom H1       Shell     3 S   1     bf    3 -     3          0.000000000000          1.759260347551         -5.722465030197
      0.3583158668D+04  0.1000000000D+01
 Atom H1       Shell     4 S   1     bf    4 -     4          0.000000000000          1.759260347551         -5.722465030197
      0.1829869625D+04  0.1000000000D+01
 Atom H1       Shell     5 S   1     bf    5 -     5          0.000000000000          1.759260347551         -5.722465030197
      0.9344891347D+03  0.1000000000D+01
 Atom H1       Shell     6 S   1     bf    6 -     6          0.000000000000          1.759260347551         -5.722465030197
      0.4772306896D+03  0.1000000000D+01
 Atom H1       Shell     7 S   1     bf    7 -     7          0.000000000000          1.759260347551         -5.722465030197
      0.2437151195D+03  0.1000000000D+01
 Atom H1       Shell     8 S   1     bf    8 -     8          0.000000000000          1.759260347551         -5.722465030197
      0.1244619442D+03  0.1000000000D+01
 Atom H1       Shell     9 S   1     bf    9 -     9          0.000000000000          1.759260347551         -5.722465030197
      0.6356099525D+02  0.1000000000D+01
 Atom H1       Shell    10 S   1     bf   10 -    10          0.000000000000          1.759260347551         -5.722465030197
      0.3245972208D+02  0.1000000000D+01
 Atom H1       Shell    11 S   1     bf   11 -    11          0.000000000000          1.759260347551         -5.722465030197
      0.1657673158D+02  0.1000000000D+01
 Atom H1       Shell    12 S   1     bf   12 -    12          0.000000000000          1.759260347551         -5.722465030197
      0.8465507783D+01  0.1000000000D+01
 Atom H1       Shell    13 S   1     bf   13 -    13          0.000000000000          1.759260347551         -5.722465030197
      0.4323217860D+01  0.1000000000D+01
 Atom H1       Shell    14 S   1     bf   14 -    14          0.000000000000          1.759260347551         -5.722465030197
      0.2207807629D+01  0.1000000000D+01
 Atom H1       Shell    15 S   1     bf   15 -    15          0.000000000000          1.759260347551         -5.722465030197
      0.1127496852D+01  0.1000000000D+01
 Atom H1       Shell    16 S   1     bf   16 -    16          0.000000000000          1.759260347551         -5.722465030197
      0.5757970639D+00  0.1000000000D+01
 Atom H1       Shell    17 S   1     bf   17 -    17          0.000000000000          1.759260347551         -5.722465030197
      0.2940516050D+00  0.1000000000D+01
 Atom H1       Shell    18 S   1     bf   18 -    18          0.000000000000          1.759260347551         -5.722465030197
      0.1501680918D+00  0.1000000000D+01
 Atom H1       Shell    19 S   1     bf   19 -    19          0.000000000000          1.759260347551         -5.722465030197
      0.7668876969D-01  0.1000000000D+01
 Atom H1       Shell    20 S   1     bf   20 -    20          0.000000000000          1.759260347551         -5.722465030197
      0.3916389510D-01  0.1000000000D+01
 Atom H1       Shell    21 P   1     bf   21 -    23          0.000000000000          1.759260347551         -5.722465030197
      0.1373908542D+05  0.1000000000D+01
 Atom H1       Shell    22 P   1     bf   24 -    26          0.000000000000          1.759260347551         -5.722465030197
      0.7016361094D+04  0.1000000000D+01
 Atom H1       Shell    23 P   1     bf   27 -    29          0.000000000000          1.759260347551         -5.722465030197
      0.3583158668D+04  0.1000000000D+01
 Atom H1       Shell    24 P   1     bf   30 -    32          0.000000000000          1.759260347551         -5.722465030197
      0.1829869625D+04  0.1000000000D+01
 Atom H1       Shell    25 P   1     bf   33 -    35          0.000000000000          1.759260347551         -5.722465030197
      0.9344891347D+03  0.1000000000D+01
 Atom H1       Shell    26 P   1     bf   36 -    38          0.000000000000          1.759260347551         -5.722465030197
      0.4772306896D+03  0.1000000000D+01
 Atom H1       Shell    27 P   1     bf   39 -    41          0.000000000000          1.759260347551         -5.722465030197
      0.2437151195D+03  0.1000000000D+01
 Atom H1       Shell    28 P   1     bf   42 -    44          0.000000000000          1.759260347551         -5.722465030197
      0.1244619442D+03  0.1000000000D+01
 Atom H1       Shell    29 P   1     bf   45 -    47          0.000000000000          1.759260347551         -5.722465030197
      0.6356099525D+02  0.1000000000D+01
 Atom H1       Shell    30 P   1     bf   48 -    50          0.000000000000          1.759260347551         -5.722465030197
      0.3245972208D+02  0.1000000000D+01
 Atom H1       Shell    31 P   1     bf   51 -    53          0.000000000000          1.759260347551         -5.722465030197
      0.1657673158D+02  0.1000000000D+01
 Atom H1       Shell    32 P   1     bf   54 -    56          0.000000000000          1.759260347551         -5.722465030197
      0.8465507783D+01  0.1000000000D+01
 Atom H1       Shell    33 P   1     bf   57 -    59          0.000000000000          1.759260347551         -5.722465030197
      0.4323217860D+01  0.1000000000D+01
 Atom H1       Shell    34 P   1     bf   60 -    62          0.000000000000          1.759260347551         -5.722465030197
      0.2207807629D+01  0.1000000000D+01
 Atom H1       Shell    35 P   1     bf   63 -    65          0.000000000000          1.759260347551         -5.722465030197
      0.1127496852D+01  0.1000000000D+01
 Atom H1       Shell    36 P   1     bf   66 -    68          0.000000000000          1.759260347551         -5.722465030197
      0.5757970639D+00  0.1000000000D+01
 Atom H1       Shell    37 P   1     bf   69 -    71          0.000000000000          1.759260347551         -5.722465030197
      0.2940516050D+00  0.1000000000D+01
 Atom H1       Shell    38 P   1     bf   72 -    74          0.000000000000          1.759260347551         -5.722465030197
      0.1501680918D+00  0.1000000000D+01
 Atom H1       Shell    39 P   1     bf   75 -    77          0.000000000000          1.759260347551         -5.722465030197
      0.7668876969D-01  0.1000000000D+01
 Atom H1       Shell    40 P   1     bf   78 -    80          0.000000000000          1.759260347551         -5.722465030197
      0.3916389510D-01  0.1000000000D+01
 Atom H2       Shell    41 S   1     bf   81 -    81          0.000000000000         -1.759260347551         -5.722465030197
      0.1373908542D+05  0.1000000000D+01
 Atom H2       Shell    42 S   1     bf   82 -    82          0.000000000000         -1.759260347551         -5.722465030197
      0.7016361094D+04  0.1000000000D+01
 Atom H2       Shell    43 S   1     bf   83 -    83          0.000000000000         -1.759260347551         -5.722465030197
      0.3583158668D+04  0.1000000000D+01
 Atom H2       Shell    44 S   1     bf   84 -    84          0.000000000000         -1.759260347551         -5.722465030197
      0.1829869625D+04  0.1000000000D+01
 Atom H2       Shell    45 S   1     bf   85 -    85          0.000000000000         -1.759260347551         -5.722465030197
      0.9344891347D+03  0.1000000000D+01
 Atom H2       Shell    46 S   1     bf   86 -    86          0.000000000000         -1.759260347551         -5.722465030197
      0.4772306896D+03  0.1000000000D+01
 Atom H2       Shell    47 S   1     bf   87 -    87          0.000000000000         -1.759260347551         -5.722465030197
      0.2437151195D+03  0.1000000000D+01
 Atom H2       Shell    48 S   1     bf   88 -    88          0.000000000000         -1.759260347551         -5.722465030197
      0.1244619442D+03  0.1000000000D+01
 Atom H2       Shell    49 S   1     bf   89 -    89          0.000000000000         -1.759260347551         -5.722465030197
      0.6356099525D+02  0.1000000000D+01
 Atom H2       Shell    50 S   1     bf   90 -    90          0.000000000000         -1.759260347551         -5.722465030197
      0.3245972208D+02  0.1000000000D+01
 Atom H2       Shell    51 S   1     bf   91 -    91          0.000000000000         -1.759260347551         -5.722465030197
      0.1657673158D+02  0.1000000000D+01
 Atom H2       Shell    52 S   1     bf   92 -    92          0.000000000000         -1.759260347551         -5.722465030197
      0.8465507783D+01  0.1000000000D+01
 Atom H2       Shell    53 S   1     bf   93 -    93          0.000000000000         -1.759260347551         -5.722465030197
      0.4323217860D+01  0.1000000000D+01
 Atom H2       Shell    54 S   1     bf   94 -    94          0.000000000000         -1.759260347551         -5.722465030197
      0.2207807629D+01  0.1000000000D+01
 Atom H2       Shell    55 S   1     bf   95 -    95          0.000000000000         -1.759260347551         -5.722465030197
      0.1127496852D+01  0.1000000000D+01
 Atom H2       Shell    56 S   1     bf   96 -    96          0.000000000000         -1.759260347551         -5.722465030197
      0.5757970639D+00  0.1000000000D+01
 Atom H2       Shell    57 S   1     bf   97 -    97          0.000000000000         -1.759260347551         -5.722465030197
      0.2940516050D+00  0.1000000000D+01
 Atom H2       Shell    58 S   1     bf   98 -    98          0.000000000000         -1.759260347551         -5.722465030197
      0.1501680918D+00  0.1000000000D+01
 Atom H2       Shell    59 S   1     bf   99 -    99          0.000000000000         -1.759260347551         -5.722465030197
      0.7668876969D-01  0.1000000000D+01
 Atom H2       Shell    60 S   1     bf  100 -   100          0.000000000000         -1.759260347551         -5.722465030197
      0.3916389510D-01  0.1000000000D+01
 Atom H2       Shell    61 P   1     bf  101 -   103          0.000000000000         -1.759260347551         -5.722465030197
      0.1373908542D+05  0.1000000000D+01
 Atom H2       Shell    62 P   1     bf  104 -   106          0.000000000000         -1.759260347551         -5.722465030197
      0.7016361094D+04  0.1000000000D+01
 Atom H2       Shell    63 P   1     bf  107 -   109          0.000000000000         -1.759260347551         -5.722465030197
      0.3583158668D+04  0.1000000000D+01
 Atom H2       Shell    64 P   1     bf  110 -   112          0.000000000000         -1.759260347551         -5.722465030197
      0.1829869625D+04  0.1000000000D+01
 Atom H2       Shell    65 P   1     bf  113 -   115          0.000000000000         -1.759260347551         -5.722465030197
      0.9344891347D+03  0.1000000000D+01
 Atom H2       Shell    66 P   1     bf  116 -   118          0.000000000000         -1.759260347551         -5.722465030197
      0.4772306896D+03  0.1000000000D+01
 Atom H2       Shell    67 P   1     bf  119 -   121          0.000000000000         -1.759260347551         -5.722465030197
      0.2437151195D+03  0.1000000000D+01
 Atom H2       Shell    68 P   1     bf  122 -   124          0.000000000000         -1.759260347551         -5.722465030197
      0.1244619442D+03  0.1000000000D+01
 Atom H2       Shell    69 P   1     bf  125 -   127          0.000000000000         -1.759260347551         -5.722465030197
      0.6356099525D+02  0.1000000000D+01
 Atom H2       Shell    70 P   1     bf  128 -   130          0.000000000000         -1.759260347551         -5.722465030197
      0.3245972208D+02  0.1000000000D+01
 Atom H2       Shell    71 P   1     bf  131 -   133          0.000000000000         -1.759260347551         -5.722465030197
      0.1657673158D+02  0.1000000000D+01
 Atom H2       Shell    72 P   1     bf  134 -   136          0.000000000000         -1.759260347551         -5.722465030197
      0.8465507783D+01  0.1000000000D+01
 Atom H2       Shell    73 P   1     bf  137 -   139          0.000000000000         -1.759260347551         -5.722465030197
      0.4323217860D+01  0.1000000000D+01
 Atom H2       Shell    74 P   1     bf  140 -   142          0.000000000000         -1.759260347551         -5.722465030197
      0.2207807629D+01  0.1000000000D+01
 Atom H2       Shell    75 P   1     bf  143 -   145          0.000000000000         -1.759260347551         -5.722465030197
      0.1127496852D+01  0.1000000000D+01
 Atom H2       Shell    76 P   1     bf  146 -   148          0.000000000000         -1.759260347551         -5.722465030197
      0.5757970639D+00  0.1000000000D+01
 Atom H2       Shell    77 P   1     bf  149 -   151          0.000000000000         -1.759260347551         -5.722465030197
      0.2940516050D+00  0.1000000000D+01
 Atom H2       Shell    78 P   1     bf  152 -   154          0.000000000000         -1.759260347551         -5.722465030197
      0.1501680918D+00  0.1000000000D+01
 Atom H2       Shell    79 P   1     bf  155 -   157          0.000000000000         -1.759260347551         -5.722465030197
      0.7668876969D-01  0.1000000000D+01
 Atom H2       Shell    80 P   1     bf  158 -   160          0.000000000000         -1.759260347551         -5.722465030197
      0.3916389510D-01  0.1000000000D+01
 Atom C3       Shell    81 S   1     bf  161 -   161          0.000000000000          0.000000000000         -4.676409561415
      0.2019953588D+06  0.1000000000D+01
 Atom C3       Shell    82 S   1     bf  162 -   162          0.000000000000          0.000000000000         -4.676409561415
      0.1031562389D+06  0.1000000000D+01
 Atom C3       Shell    83 S   1     bf  163 -   163          0.000000000000          0.000000000000         -4.676409561415
      0.5268046591D+05  0.1000000000D+01
 Atom C3       Shell    84 S   1     bf  164 -   164          0.000000000000          0.000000000000         -4.676409561415
      0.2690318607D+05  0.1000000000D+01
 Atom C3       Shell    85 S   1     bf  165 -   165          0.000000000000          0.000000000000         -4.676409561415
      0.1373908542D+05  0.1000000000D+01
 Atom C3       Shell    86 S   1     bf  166 -   166          0.000000000000          0.000000000000         -4.676409561415
      0.7016361094D+04  0.1000000000D+01
 Atom C3       Shell    87 S   1     bf  167 -   167          0.000000000000          0.000000000000         -4.676409561415
      0.3583158668D+04  0.1000000000D+01
 Atom C3       Shell    88 S   1     bf  168 -   168          0.000000000000          0.000000000000         -4.676409561415
      0.1829869625D+04  0.1000000000D+01
 Atom C3       Shell    89 S   1     bf  169 -   169          0.000000000000          0.000000000000         -4.676409561415
      0.9344891347D+03  0.1000000000D+01
 Atom C3       Shell    90 S   1     bf  170 -   170          0.000000000000          0.000000000000         -4.676409561415
      0.4772306896D+03  0.1000000000D+01
 Atom C3       Shell    91 S   1     bf  171 -   171          0.000000000000          0.000000000000         -4.676409561415
      0.2437151195D+03  0.1000000000D+01
 Atom C3       Shell    92 S   1     bf  172 -   172          0.000000000000          0.000000000000         -4.676409561415
      0.1244619442D+03  0.1000000000D+01
 Atom C3       Shell    93 S   1     bf  173 -   173          0.000000000000          0.000000000000         -4.676409561415
      0.6356099525D+02  0.1000000000D+01
 Atom C3       Shell    94 S   1     bf  174 -   174          0.000000000000          0.000000000000         -4.676409561415
      0.3245972208D+02  0.1000000000D+01
 Atom C3       Shell    95 S   1     bf  175 -   175          0.000000000000          0.000000000000         -4.676409561415
      0.1657673158D+02  0.1000000000D+01
 Atom C3       Shell    96 S   1     bf  176 -   176          0.000000000000          0.000000000000         -4.676409561415
      0.8465507783D+01  0.1000000000D+01
 Atom C3       Shell    97 S   1     bf  177 -   177          0.000000000000          0.000000000000         -4.676409561415
      0.4323217860D+01  0.1000000000D+01
 Atom C3       Shell    98 S   1     bf  178 -   178          0.000000000000          0.000000000000         -4.676409561415
      0.2207807629D+01  0.1000000000D+01
 Atom C3       Shell    99 S   1     bf  179 -   179          0.000000000000          0.000000000000         -4.676409561415
      0.1127496852D+01  0.1000000000D+01
 Atom C3       Shell   100 S   1     bf  180 -   180          0.000000000000          0.000000000000         -4.676409561415
      0.5757970639D+00  0.1000000000D+01
 Atom C3       Shell   101 S   1     bf  181 -   181          0.000000000000          0.000000000000         -4.676409561415
      0.2940516050D+00  0.1000000000D+01
 Atom C3       Shell   102 S   1     bf  182 -   182          0.000000000000          0.000000000000         -4.676409561415
      0.1501680918D+00  0.1000000000D+01
 Atom C3       Shell   103 S   1     bf  183 -   183          0.000000000000          0.000000000000         -4.676409561415
      0.7668876969D-01  0.1000000000D+01
 Atom C3       Shell   104 P   1     bf  184 -   186          0.000000000000          0.000000000000         -4.676409561415
      0.2019953588D+06  0.1000000000D+01
 Atom C3       Shell   105 P   1     bf  187 -   189          0.000000000000          0.000000000000         -4.676409561415
      0.1031562389D+06  0.1000000000D+01
 Atom C3       Shell   106 P   1     bf  190 -   192          0.000000000000          0.000000000000         -4.676409561415
      0.5268046591D+05  0.1000000000D+01
 Atom C3       Shell   107 P   1     bf  193 -   195          0.000000000000          0.000000000000         -4.676409561415
      0.2690318607D+05  0.1000000000D+01
 Atom C3       Shell   108 P   1     bf  196 -   198          0.000000000000          0.000000000000         -4.676409561415
      0.1373908542D+05  0.1000000000D+01
 Atom C3       Shell   109 P   1     bf  199 -   201          0.000000000000          0.000000000000         -4.676409561415
      0.7016361094D+04  0.1000000000D+01
 Atom C3       Shell   110 P   1     bf  202 -   204          0.000000000000          0.000000000000         -4.676409561415
      0.3583158668D+04  0.1000000000D+01
 Atom C3       Shell   111 P   1     bf  205 -   207          0.000000000000          0.000000000000         -4.676409561415
      0.1829869625D+04  0.1000000000D+01
 Atom C3       Shell   112 P   1     bf  208 -   210          0.000000000000          0.000000000000         -4.676409561415
      0.9344891347D+03  0.1000000000D+01
 Atom C3       Shell   113 P   1     bf  211 -   213          0.000000000000          0.000000000000         -4.676409561415
      0.4772306896D+03  0.1000000000D+01
 Atom C3       Shell   114 P   1     bf  214 -   216          0.000000000000          0.000000000000         -4.676409561415
      0.2437151195D+03  0.1000000000D+01
 Atom C3       Shell   115 P   1     bf  217 -   219          0.000000000000          0.000000000000         -4.676409561415
      0.1244619442D+03  0.1000000000D+01
 Atom C3       Shell   116 P   1     bf  220 -   222          0.000000000000          0.000000000000         -4.676409561415
      0.6356099525D+02  0.1000000000D+01
 Atom C3       Shell   117 P   1     bf  223 -   225          0.000000000000          0.000000000000         -4.676409561415
      0.3245972208D+02  0.1000000000D+01
 Atom C3       Shell   118 P   1     bf  226 -   228          0.000000000000          0.000000000000         -4.676409561415
      0.1657673158D+02  0.1000000000D+01
 Atom C3       Shell   119 P   1     bf  229 -   231          0.000000000000          0.000000000000         -4.676409561415
      0.8465507783D+01  0.1000000000D+01
 Atom C3       Shell   120 P   1     bf  232 -   234          0.000000000000          0.000000000000         -4.676409561415
      0.4323217860D+01  0.1000000000D+01
 Atom C3       Shell   121 P   1     bf  235 -   237          0.000000000000          0.000000000000         -4.676409561415
      0.2207807629D+01  0.1000000000D+01
 Atom C3       Shell   122 P   1     bf  238 -   240          0.000000000000          0.000000000000         -4.676409561415
      0.1127496852D+01  0.1000000000D+01
 Atom C3       Shell   123 P   1     bf  241 -   243          0.000000000000          0.000000000000         -4.676409561415
      0.5757970639D+00  0.1000000000D+01
 Atom C3       Shell   124 P   1     bf  244 -   246          0.000000000000          0.000000000000         -4.676409561415
      0.2940516050D+00  0.1000000000D+01
 Atom C3       Shell   125 P   1     bf  247 -   249          0.000000000000          0.000000000000         -4.676409561415
      0.1501680918D+00  0.1000000000D+01
 Atom C3       Shell   126 P   1     bf  250 -   252          0.000000000000          0.000000000000         -4.676409561415
      0.7668876969D-01  0.1000000000D+01
 Atom C3       Shell   127 P   1     bf  253 -   255          0.000000000000          0.000000000000         -4.676409561415
      0.3916389510D-01  0.1000000000D+01
 Atom C3       Shell   128 D   1     bf  256 -   260          0.000000000000          0.000000000000         -4.676409561415
      0.4772306896D+03  0.1000000000D+01
 Atom C3       Shell   129 D   1     bf  261 -   265          0.000000000000          0.000000000000         -4.676409561415
      0.2437151195D+03  0.1000000000D+01
 Atom C3       Shell   130 D   1     bf  266 -   270          0.000000000000          0.000000000000         -4.676409561415
      0.1244619442D+03  0.1000000000D+01
 Atom C3       Shell   131 D   1     bf  271 -   275          0.000000000000          0.000000000000         -4.676409561415
      0.6356099525D+02  0.1000000000D+01
 Atom C3       Shell   132 D   1     bf  276 -   280          0.000000000000          0.000000000000         -4.676409561415
      0.3245972208D+02  0.1000000000D+01
 Atom C3       Shell   133 D   1     bf  281 -   285          0.000000000000          0.000000000000         -4.676409561415
      0.1657673158D+02  0.1000000000D+01
 Atom C3       Shell   134 D   1     bf  286 -   290          0.000000000000          0.000000000000         -4.676409561415
      0.8465507783D+01  0.1000000000D+01
 Atom C3       Shell   135 D   1     bf  291 -   295          0.000000000000          0.000000000000         -4.676409561415
      0.4323217860D+01  0.1000000000D+01
 Atom C3       Shell   136 D   1     bf  296 -   300          0.000000000000          0.000000000000         -4.676409561415
      0.2207807629D+01  0.1000000000D+01
 Atom C3       Shell   137 D   1     bf  301 -   305          0.000000000000          0.000000000000         -4.676409561415
      0.1127496852D+01  0.1000000000D+01
 Atom C3       Shell   138 D   1     bf  306 -   310          0.000000000000          0.000000000000         -4.676409561415
      0.5757970639D+00  0.1000000000D+01
 Atom C3       Shell   139 D   1     bf  311 -   315          0.000000000000          0.000000000000         -4.676409561415
      0.2940516050D+00  0.1000000000D+01
 Atom C3       Shell   140 D   1     bf  316 -   320          0.000000000000          0.000000000000         -4.676409561415
      0.1501680918D+00  0.1000000000D+01
 Atom C3       Shell   141 D   1     bf  321 -   325          0.000000000000          0.000000000000         -4.676409561415
      0.7668876969D-01  0.1000000000D+01
 Atom C3       Shell   142 D   1     bf  326 -   330          0.000000000000          0.000000000000         -4.676409561415
      0.3916389510D-01  0.1000000000D+01
 Atom C4       Shell   143 S   1     bf  331 -   331          0.000000000000          0.000000000000         -2.129715543752
      0.2019953588D+06  0.1000000000D+01
 Atom C4       Shell   144 S   1     bf  332 -   332          0.000000000000          0.000000000000         -2.129715543752
      0.1031562389D+06  0.1000000000D+01
 Atom C4       Shell   145 S   1     bf  333 -   333          0.000000000000          0.000000000000         -2.129715543752
      0.5268046591D+05  0.1000000000D+01
 Atom C4       Shell   146 S   1     bf  334 -   334          0.000000000000          0.000000000000         -2.129715543752
      0.2690318607D+05  0.1000000000D+01
 Atom C4       Shell   147 S   1     bf  335 -   335          0.000000000000          0.000000000000         -2.129715543752
      0.1373908542D+05  0.1000000000D+01
 Atom C4       Shell   148 S   1     bf  336 -   336          0.000000000000          0.000000000000         -2.129715543752
      0.7016361094D+04  0.1000000000D+01
 Atom C4       Shell   149 S   1     bf  337 -   337          0.000000000000          0.000000000000         -2.129715543752
      0.3583158668D+04  0.1000000000D+01
 Atom C4       Shell   150 S   1     bf  338 -   338          0.000000000000          0.000000000000         -2.129715543752
      0.1829869625D+04  0.1000000000D+01
 Atom C4       Shell   151 S   1     bf  339 -   339          0.000000000000          0.000000000000         -2.129715543752
      0.9344891347D+03  0.1000000000D+01
 Atom C4       Shell   152 S   1     bf  340 -   340          0.000000000000          0.000000000000         -2.129715543752
      0.4772306896D+03  0.1000000000D+01
 Atom C4       Shell   153 S   1     bf  341 -   341          0.000000000000          0.000000000000         -2.129715543752
      0.2437151195D+03  0.1000000000D+01
 Atom C4       Shell   154 S   1     bf  342 -   342          0.000000000000          0.000000000000         -2.129715543752
      0.1244619442D+03  0.1000000000D+01
 Atom C4       Shell   155 S   1     bf  343 -   343          0.000000000000          0.000000000000         -2.129715543752
      0.6356099525D+02  0.1000000000D+01
 Atom C4       Shell   156 S   1     bf  344 -   344          0.000000000000          0.000000000000         -2.129715543752
      0.3245972208D+02  0.1000000000D+01
 Atom C4       Shell   157 S   1     bf  345 -   345          0.000000000000          0.000000000000         -2.129715543752
      0.1657673158D+02  0.1000000000D+01
 Atom C4       Shell   158 S   1     bf  346 -   346          0.000000000000          0.000000000000         -2.129715543752
      0.8465507783D+01  0.1000000000D+01
 Atom C4       Shell   159 S   1     bf  347 -   347          0.000000000000          0.000000000000         -2.129715543752
      0.4323217860D+01  0.1000000000D+01
 Atom C4       Shell   160 S   1     bf  348 -   348          0.000000000000          0.000000000000         -2.129715543752
      0.2207807629D+01  0.1000000000D+01
 Atom C4       Shell   161 S   1     bf  349 -   349          0.000000000000          0.000000000000         -2.129715543752
      0.1127496852D+01  0.1000000000D+01
 Atom C4       Shell   162 S   1     bf  350 -   350          0.000000000000          0.000000000000         -2.129715543752
      0.5757970639D+00  0.1000000000D+01
 Atom C4       Shell   163 S   1     bf  351 -   351          0.000000000000          0.000000000000         -2.129715543752
      0.2940516050D+00  0.1000000000D+01
 Atom C4       Shell   164 S   1     bf  352 -   352          0.000000000000          0.000000000000         -2.129715543752
      0.1501680918D+00  0.1000000000D+01
 Atom C4       Shell   165 S   1     bf  353 -   353          0.000000000000          0.000000000000         -2.129715543752
      0.7668876969D-01  0.1000000000D+01
 Atom C4       Shell   166 P   1     bf  354 -   356          0.000000000000          0.000000000000         -2.129715543752
      0.2019953588D+06  0.1000000000D+01
 Atom C4       Shell   167 P   1     bf  357 -   359          0.000000000000          0.000000000000         -2.129715543752
      0.1031562389D+06  0.1000000000D+01
 Atom C4       Shell   168 P   1     bf  360 -   362          0.000000000000          0.000000000000         -2.129715543752
      0.5268046591D+05  0.1000000000D+01
 Atom C4       Shell   169 P   1     bf  363 -   365          0.000000000000          0.000000000000         -2.129715543752
      0.2690318607D+05  0.1000000000D+01
 Atom C4       Shell   170 P   1     bf  366 -   368          0.000000000000          0.000000000000         -2.129715543752
      0.1373908542D+05  0.1000000000D+01
 Atom C4       Shell   171 P   1     bf  369 -   371          0.000000000000          0.000000000000         -2.129715543752
      0.7016361094D+04  0.1000000000D+01
 Atom C4       Shell   172 P   1     bf  372 -   374          0.000000000000          0.000000000000         -2.129715543752
      0.3583158668D+04  0.1000000000D+01
 Atom C4       Shell   173 P   1     bf  375 -   377          0.000000000000          0.000000000000         -2.129715543752
      0.1829869625D+04  0.1000000000D+01
 Atom C4       Shell   174 P   1     bf  378 -   380          0.000000000000          0.000000000000         -2.129715543752
      0.9344891347D+03  0.1000000000D+01
 Atom C4       Shell   175 P   1     bf  381 -   383          0.000000000000          0.000000000000         -2.129715543752
      0.4772306896D+03  0.1000000000D+01
 Atom C4       Shell   176 P   1     bf  384 -   386          0.000000000000          0.000000000000         -2.129715543752
      0.2437151195D+03  0.1000000000D+01
 Atom C4       Shell   177 P   1     bf  387 -   389          0.000000000000          0.000000000000         -2.129715543752
      0.1244619442D+03  0.1000000000D+01
 Atom C4       Shell   178 P   1     bf  390 -   392          0.000000000000          0.000000000000         -2.129715543752
      0.6356099525D+02  0.1000000000D+01
 Atom C4       Shell   179 P   1     bf  393 -   395          0.000000000000          0.000000000000         -2.129715543752
      0.3245972208D+02  0.1000000000D+01
 Atom C4       Shell   180 P   1     bf  396 -   398          0.000000000000          0.000000000000         -2.129715543752
      0.1657673158D+02  0.1000000000D+01
 Atom C4       Shell   181 P   1     bf  399 -   401          0.000000000000          0.000000000000         -2.129715543752
      0.8465507783D+01  0.1000000000D+01
 Atom C4       Shell   182 P   1     bf  402 -   404          0.000000000000          0.000000000000         -2.129715543752
      0.4323217860D+01  0.1000000000D+01
 Atom C4       Shell   183 P   1     bf  405 -   407          0.000000000000          0.000000000000         -2.129715543752
      0.2207807629D+01  0.1000000000D+01
 Atom C4       Shell   184 P   1     bf  408 -   410          0.000000000000          0.000000000000         -2.129715543752
      0.1127496852D+01  0.1000000000D+01
 Atom C4       Shell   185 P   1     bf  411 -   413          0.000000000000          0.000000000000         -2.129715543752
      0.5757970639D+00  0.1000000000D+01
 Atom C4       Shell   186 P   1     bf  414 -   416          0.000000000000          0.000000000000         -2.129715543752
      0.2940516050D+00  0.1000000000D+01
 Atom C4       Shell   187 P   1     bf  417 -   419          0.000000000000          0.000000000000         -2.129715543752
      0.1501680918D+00  0.1000000000D+01
 Atom C4       Shell   188 P   1     bf  420 -   422          0.000000000000          0.000000000000         -2.129715543752
      0.7668876969D-01  0.1000000000D+01
 Atom C4       Shell   189 P   1     bf  423 -   425          0.000000000000          0.000000000000         -2.129715543752
      0.3916389510D-01  0.1000000000D+01
 Atom C4       Shell   190 D   1     bf  426 -   430          0.000000000000          0.000000000000         -2.129715543752
      0.4772306896D+03  0.1000000000D+01
 Atom C4       Shell   191 D   1     bf  431 -   435          0.000000000000          0.000000000000         -2.129715543752
      0.2437151195D+03  0.1000000000D+01
 Atom C4       Shell   192 D   1     bf  436 -   440          0.000000000000          0.000000000000         -2.129715543752
      0.1244619442D+03  0.1000000000D+01
 Atom C4       Shell   193 D   1     bf  441 -   445          0.000000000000          0.000000000000         -2.129715543752
      0.6356099525D+02  0.1000000000D+01
 Atom C4       Shell   194 D   1     bf  446 -   450          0.000000000000          0.000000000000         -2.129715543752
      0.3245972208D+02  0.1000000000D+01
 Atom C4       Shell   195 D   1     bf  451 -   455          0.000000000000          0.000000000000         -2.129715543752
      0.1657673158D+02  0.1000000000D+01
 Atom C4       Shell   196 D   1     bf  456 -   460          0.000000000000          0.000000000000         -2.129715543752
      0.8465507783D+01  0.1000000000D+01
 Atom C4       Shell   197 D   1     bf  461 -   465          0.000000000000          0.000000000000         -2.129715543752
      0.4323217860D+01  0.1000000000D+01
 Atom C4       Shell   198 D   1     bf  466 -   470          0.000000000000          0.000000000000         -2.129715543752
      0.2207807629D+01  0.1000000000D+01
 Atom C4       Shell   199 D   1     bf  471 -   475          0.000000000000          0.000000000000         -2.129715543752
      0.1127496852D+01  0.1000000000D+01
 Atom C4       Shell   200 D   1     bf  476 -   480          0.000000000000          0.000000000000         -2.129715543752
      0.5757970639D+00  0.1000000000D+01
 Atom C4       Shell   201 D   1     bf  481 -   485          0.000000000000          0.000000000000         -2.129715543752
      0.2940516050D+00  0.1000000000D+01
 Atom C4       Shell   202 D   1     bf  486 -   490          0.000000000000          0.000000000000         -2.129715543752
      0.1501680918D+00  0.1000000000D+01
 Atom C4       Shell   203 D   1     bf  491 -   495          0.000000000000          0.000000000000         -2.129715543752
      0.7668876969D-01  0.1000000000D+01
 Atom C4       Shell   204 D   1     bf  496 -   500          0.000000000000          0.000000000000         -2.129715543752
      0.3916389510D-01  0.1000000000D+01
 Atom C5       Shell   205 S   1     bf  501 -   501          0.000000000000          0.000000000000          0.196691380084
      0.2019953588D+06  0.1000000000D+01
 Atom C5       Shell   206 S   1     bf  502 -   502          0.000000000000          0.000000000000          0.196691380084
      0.1031562389D+06  0.1000000000D+01
 Atom C5       Shell   207 S   1     bf  503 -   503          0.000000000000          0.000000000000          0.196691380084
      0.5268046591D+05  0.1000000000D+01
 Atom C5       Shell   208 S   1     bf  504 -   504          0.000000000000          0.000000000000          0.196691380084
      0.2690318607D+05  0.1000000000D+01
 Atom C5       Shell   209 S   1     bf  505 -   505          0.000000000000          0.000000000000          0.196691380084
      0.1373908542D+05  0.1000000000D+01
 Atom C5       Shell   210 S   1     bf  506 -   506          0.000000000000          0.000000000000          0.196691380084
      0.7016361094D+04  0.1000000000D+01
 Atom C5       Shell   211 S   1     bf  507 -   507          0.000000000000          0.000000000000          0.196691380084
      0.3583158668D+04  0.1000000000D+01
 Atom C5       Shell   212 S   1     bf  508 -   508          0.000000000000          0.000000000000          0.196691380084
      0.1829869625D+04  0.1000000000D+01
 Atom C5       Shell   213 S   1     bf  509 -   509          0.000000000000          0.000000000000          0.196691380084
      0.9344891347D+03  0.1000000000D+01
 Atom C5       Shell   214 S   1     bf  510 -   510          0.000000000000          0.000000000000          0.196691380084
      0.4772306896D+03  0.1000000000D+01
 Atom C5       Shell   215 S   1     bf  511 -   511          0.000000000000          0.000000000000          0.196691380084
      0.2437151195D+03  0.1000000000D+01
 Atom C5       Shell   216 S   1     bf  512 -   512          0.000000000000          0.000000000000          0.196691380084
      0.1244619442D+03  0.1000000000D+01
 Atom C5       Shell   217 S   1     bf  513 -   513          0.000000000000          0.000000000000          0.196691380084
      0.6356099525D+02  0.1000000000D+01
 Atom C5       Shell   218 S   1     bf  514 -   514          0.000000000000          0.000000000000          0.196691380084
      0.3245972208D+02  0.1000000000D+01
 Atom C5       Shell   219 S   1     bf  515 -   515          0.000000000000          0.000000000000          0.196691380084
      0.1657673158D+02  0.1000000000D+01
 Atom C5       Shell   220 S   1     bf  516 -   516          0.000000000000          0.000000000000          0.196691380084
      0.8465507783D+01  0.1000000000D+01
 Atom C5       Shell   221 S   1     bf  517 -   517          0.000000000000          0.000000000000          0.196691380084
      0.4323217860D+01  0.1000000000D+01
 Atom C5       Shell   222 S   1     bf  518 -   518          0.000000000000          0.000000000000          0.196691380084
      0.2207807629D+01  0.1000000000D+01
 Atom C5       Shell   223 S   1     bf  519 -   519          0.000000000000          0.000000000000          0.196691380084
      0.1127496852D+01  0.1000000000D+01
 Atom C5       Shell   224 S   1     bf  520 -   520          0.000000000000          0.000000000000          0.196691380084
      0.5757970639D+00  0.1000000000D+01
 Atom C5       Shell   225 S   1     bf  521 -   521          0.000000000000          0.000000000000          0.196691380084
      0.2940516050D+00  0.1000000000D+01
 Atom C5       Shell   226 S   1     bf  522 -   522          0.000000000000          0.000000000000          0.196691380084
      0.1501680918D+00  0.1000000000D+01
 Atom C5       Shell   227 S   1     bf  523 -   523          0.000000000000          0.000000000000          0.196691380084
      0.7668876969D-01  0.1000000000D+01
 Atom C5       Shell   228 P   1     bf  524 -   526          0.000000000000          0.000000000000          0.196691380084
      0.2019953588D+06  0.1000000000D+01
 Atom C5       Shell   229 P   1     bf  527 -   529          0.000000000000          0.000000000000          0.196691380084
      0.1031562389D+06  0.1000000000D+01
 Atom C5       Shell   230 P   1     bf  530 -   532          0.000000000000          0.000000000000          0.196691380084
      0.5268046591D+05  0.1000000000D+01
 Atom C5       Shell   231 P   1     bf  533 -   535          0.000000000000          0.000000000000          0.196691380084
      0.2690318607D+05  0.1000000000D+01
 Atom C5       Shell   232 P   1     bf  536 -   538          0.000000000000          0.000000000000          0.196691380084
      0.1373908542D+05  0.1000000000D+01
 Atom C5       Shell   233 P   1     bf  539 -   541          0.000000000000          0.000000000000          0.196691380084
      0.7016361094D+04  0.1000000000D+01
 Atom C5       Shell   234 P   1     bf  542 -   544          0.000000000000          0.000000000000          0.196691380084
      0.3583158668D+04  0.1000000000D+01
 Atom C5       Shell   235 P   1     bf  545 -   547          0.000000000000          0.000000000000          0.196691380084
      0.1829869625D+04  0.1000000000D+01
 Atom C5       Shell   236 P   1     bf  548 -   550          0.000000000000          0.000000000000          0.196691380084
      0.9344891347D+03  0.1000000000D+01
[...]
              Bcc     0.5194    20.031     7.148     6.682  1.0000  0.0000  0.0021
 

 ---------------------------------------------------------------------------------

 No NMR shielding tensors so no spin-rotation constants.
 Leave Link  601 at Tue Aug 13 12:07:39 2013, MaxMem=  536870912 cpu:      10.8
 (Enter /share/apps/gaussian/gdvh12/gdv/l701.exe)
 Compute integral second derivatives.
 ... and contract with generalized density number  0.
 R6Disp: Adding Petersson-Frisch dispersion energy 2nd derivatives to the Hessian.
 Leave Link  701 at Tue Aug 13 12:07:41 2013, MaxMem=  536870912 cpu:       4.5
 (Enter /share/apps/gaussian/gdvh12/gdv/l702.exe)
 L702 exits ... SP integral derivatives will be done elsewhere.
 Leave Link  702 at Tue Aug 13 12:07:41 2013, MaxMem=  536870912 cpu:       0.0
 (Enter /share/apps/gaussian/gdvh12/gdv/l703.exe)
 Compute integral second derivatives, UseDBF=F ICtDFT=           0.
 Integral derivatives from FoFJK, PRISM(SPDF).
 Calling FoFJK, ICntrl=    100127 FMM=F ISym2X=0 I1Cent= 0 IOpClX= 1 NMat=1 NMatS=1 NMatT=0.
 FoFJK:  IHMeth= 1 ICntrl=  100127 DoSepK=F KAlg= 0 I1Cent=   0 FoldK=F
 IRaf=       0 NMat=   1 IRICut=       1 DoRegI=T DoRafI=F ISym2E= 0.
 FoFCou: FMM=F IPFlag=           0 FMFlag=      100000 FMFlg1=         800
         NFxFlg=           0 DoJE=F BraDBF=F KetDBF=F FulRan=T
         wScrn=  0.000000 ICntrl=  100127 IOpCl=  1 I1Cent=           0 NGrid=           0
         NMat0=    1 NMatS0=      1 NMatT0=    0 NMatD0=    1 NMtDS0=    0 NMtDT0=    0
 Symmetry not used in FoFCou.
 Leave Link  703 at Tue Aug 13 21:52:20 2013, MaxMem=  536870912 cpu:   70146.5
 (Enter /share/apps/gaussian/gdvh12/gdv/l716.exe)
 Dipole        = 2.81302646D-04-1.45616744D-11-1.82524179D+00
 Polarizability= 3.30770295D+01-9.71219850D-10 3.45337776D+01
                -9.68731634D-03 1.30712135D-07 1.15948557D+02
 -------------------------------------------------------------------
 Center     Atomic                   Forces (Hartrees/Bohr)
 Number     Number              X              Y              Z
 -------------------------------------------------------------------
      1        1           0.000008820    0.000000863    0.000005094
      2        1           0.000008820   -0.000000863    0.000005094
      3        6           0.000054160    0.000000000   -0.000009787
      4        6          -0.000101035    0.000000000   -0.000000626
      5        6           0.000032035    0.000000000    0.000007413
      6        6          -0.000066831    0.000000000   -0.000008285
      7        7           0.000064032    0.000000000    0.000001096
 -------------------------------------------------------------------
 Cartesian Forces:  Max     0.000101035 RMS     0.000033212
 Force constants in Cartesian coordinates: 
                1             2             3             4             5 
      1  0.814526D-02
      2 -0.236788D-03  0.278767D+00
      3  0.238155D-03 -0.137944D+00  0.131136D+00
      4  0.814535D-02  0.180553D-04  0.315228D-05  0.814526D-02
      5 -0.180553D-04 -0.143018D-01 -0.129370D-01  0.236788D-03  0.278767D+00
      6  0.315282D-05  0.129370D-01  0.102970D-01  0.238155D-03  0.137944D+00
      7 -0.214154D-01  0.221391D-03 -0.210093D-03 -0.214154D-01 -0.221391D-03
      8  0.191114D-03 -0.269812D+00  0.127121D+00 -0.191114D-03 -0.269812D+00
      9 -0.181978D-03  0.126486D+00 -0.122578D+00 -0.181978D-03 -0.126486D+00
     10  0.342851D-02 -0.110075D-04 -0.191066D-04  0.342850D-02  0.110075D-04
     11  0.802934D-04  0.614075D-02  0.253788D-01 -0.802934D-04  0.614075D-02
     12 -0.408421D-04  0.187387D-02 -0.180367D-01 -0.408412D-04 -0.187386D-02
     13  0.158958D-02  0.850749D-05 -0.142459D-04  0.158958D-02 -0.850749D-05
     14 -0.311513D-04 -0.482761D-03 -0.704458D-03  0.311512D-04 -0.482760D-03
     15 -0.249823D-04 -0.403876D-02 -0.325771D-03 -0.249866D-04  0.403875D-02
     16  0.223215D-03 -0.125965D-05  0.193692D-05  0.223211D-03  0.125962D-05
     17  0.210445D-04 -0.374558D-03 -0.105336D-02 -0.210445D-04 -0.374558D-03
     18  0.112651D-04  0.132354D-02 -0.478180D-03  0.112640D-04 -0.132354D-02
     19 -0.116498D-03  0.110150D-05  0.000000D+00 -0.116495D-03 -0.110148D-05
     20 -0.645746D-05  0.635652D-04  0.139746D-03  0.645743D-05  0.635653D-04
     21 -0.477055D-05 -0.637608D-03 -0.142249D-04 -0.476484D-05  0.637606D-03
                6             7             8             9            10 
      6  0.131136D+00
      7 -0.210093D-03  0.675269D-01
      8 -0.127121D+00  0.000000D+00  0.603784D+00
      9 -0.122578D+00  0.117828D-02  0.000000D+00  0.675411D+00
     10 -0.191066D-04 -0.284077D-01  0.000000D+00 -0.104945D-02  0.351453D-01
     11 -0.253788D-01  0.000000D+00 -0.770852D-01  0.000000D+00  0.000000D+00
     12 -0.180367D-01 -0.753472D-03  0.000000D+00 -0.332456D+00 -0.283219D-03
     13 -0.142459D-04 -0.873005D-03  0.000000D+00  0.336631D-03 -0.179062D-02
     14  0.704458D-03  0.000000D+00  0.506512D-02  0.000000D+00  0.000000D+00
     15 -0.325775D-03 -0.448634D-04  0.000000D+00 -0.122919D+00  0.138886D-02
     16  0.193691D-05  0.557093D-02  0.000000D+00 -0.183317D-03 -0.181867D-01
     17  0.105336D-02  0.000000D+00  0.950629D-02  0.000000D+00  0.000000D+00
     18 -0.478177D-03  0.777531D-04  0.000000D+00  0.485363D-01 -0.182468D-04
     19  0.000000D+00 -0.986307D-03  0.000000D+00  0.818141D-04  0.638272D-02
     20 -0.139746D-03  0.000000D+00 -0.164602D-02  0.000000D+00  0.000000D+00
     21 -0.142265D-04 -0.375103D-04  0.000000D+00 -0.234159D-01  0.000000D+00
               11            12            13            14            15 
     11  0.864847D-01
     12  0.000000D+00  0.113376D+01
     13  0.000000D+00  0.886281D-03 -0.934127D-03
     14 -0.126826D-01  0.000000D+00  0.000000D+00  0.214105D-01
     15  0.000000D+00 -0.690555D+00 -0.596171D-03  0.000000D+00  0.125276D+01
     16  0.000000D+00  0.425344D-03 -0.382900D-02  0.000000D+00 -0.912650D-03
     17 -0.137065D-01  0.000000D+00  0.000000D+00 -0.218342D-01  0.000000D+00
     18  0.000000D+00 -0.139418D+00 -0.637394D-03  0.000000D+00 -0.329297D+00
     19  0.000000D+00 -0.193249D-03  0.424760D-02  0.000000D+00  0.214797D-03
     20  0.470807D-02  0.000000D+00  0.000000D+00  0.900674D-02  0.000000D+00
     21  0.000000D+00  0.647419D-01  0.391442D-04  0.000000D+00 -0.109335D+00
               16            17            18            19            20 
     16  0.403095D-01
     17  0.000000D+00  0.550741D-01
     18 -0.137730D-02  0.000000D+00  0.148193D+01
     19 -0.243111D-01  0.000000D+00  0.193266D-02  0.149001D-01
     20  0.000000D+00 -0.282905D-01  0.000000D+00  0.000000D+00  0.160946D-01
     21  0.204405D-02  0.000000D+00 -0.106079D+01 -0.203643D-02  0.000000D+00
               21 
     21  0.112883D+01
 Leave Link  716 at Tue Aug 13 21:52:21 2013, MaxMem=  536870912 cpu:       0.0
 (Enter /share/apps/gaussian/gdvh12/gdv/l106.exe)
 NDeriv=  15 NFrqRd=  0 LFDDif=       1
 NDeriv=  15 NFrqRd=  0 LFDDif=       1
 Re-enter D2Numr: Normal Mode=  3 IStep= 1.
 Leave Link  106 at Tue Aug 13 21:52:21 2013, MaxMem=  536870912 cpu:       1.0
 (Enter /share/apps/gaussian/gdvh12/gdv/l301.exe)
 Standard basis: UGBS1P (5D, 7F)
 Ernie: Thresh=  0.10000D-02 Tol=  0.10000D-05 Strict=F.
  1012 basis functions,  1088 primitive gaussians,  1088 cartesian basis functions
    17 alpha electrons       16 beta electrons
       nuclear repulsion energy       115.3736746685 Hartrees.
 IExCor= 3731 DFT=T Ex+Corr=APFD ExCW=0 ScaHFX=  0.229450
 ScaDFX=  1.000000  1.000000  1.000000  1.000000 ScalE2=  1.000000  1.000000
 IRadAn= 299974 IRanWt=     -1 IRanGd=            0 ICorTp=0 IEmpDi=211
 NAtoms=    7 NActive=    7 NUniq=    7 SFac= 1.00D+00 NAtFMM=   60 NAOKFM=F Big=F
 Integral buffers will be    131072 words long.
 Raffenetti 2 integral format.
 Two-electron integral symmetry is turned off.
 R6Disp:  Petersson-Frisch Dispersion energy=       -0.0009514031 Hartrees.
 Nuclear repulsion after empirical dispersion term =      115.3727232654 Hartrees.
 Leave Link  301 at Tue Aug 13 21:52:21 2013, MaxMem=  536870912 cpu:       0.3
 (Enter /share/apps/gaussian/gdvh12/gdv/l302.exe)
 NPDir=0 NMtPBC=     1 NCelOv=     1 NCel=       1 NClECP=     1 NCelD=      1
         NCelK=      1 NCelE2=     1 NClLst=     1 CellRange=     0.0.
 One-electron integrals computed using PRISM.
 NBasis=  1012 RedAO= T EigKep=  1.07D-06  NBF=  1012
 NBsUse=   995 1.00D-06 EigRej=  7.92D-07 NBFU=   995
 Precomputing XC quadrature grid using
 IXCGrd= 2 IRadAn=      299974 IRanWt=          -1 IRanGd=           0 AccXCQ= 0.00D+00.
 NRdTot=    2093 NPtTot=     1734694 NUsed=     1749449 NTot=     1749481
 NSgBfM=   652   652   652   652   652 NAtAll=     7     7.
 Leave Link  302 at Tue Aug 13 21:52:28 2013, MaxMem=  536870912 cpu:      13.5
 (Enter /share/apps/gaussian/gdvh12/gdv/l303.exe)
 DipDrv:  MaxL=1.
 Leave Link  303 at Tue Aug 13 21:52:29 2013, MaxMem=  536870912 cpu:       1.3
 (Enter /share/apps/gaussian/gdvh12/gdv/l401.exe)
 Initial guess from the checkpoint file:  H2CCCCN.chk
 B after Tr=     0.000227    0.000000    0.000000
         Rot=    1.000000    0.000000    0.000049    0.000000 Ang=   0.01 deg.
 Guess basis will be translated and rotated to current coordinates.
 Initial guess <Sx>= 0.0000 <Sy>= 0.0000 <Sz>= 0.5000 <S**2>= 0.7890 S= 0.5193
 Leave Link  401 at Tue Aug 13 21:52:38 2013, MaxMem=  536870912 cpu:      17.0
 (Enter /share/apps/gaussian/gdvh12/gdv/l502.exe)
 UHF open shell SCF:
 Using DIIS extrapolation, IDIIS=  1040.
 Two-electron integral symmetry not used.
      1749373 words used for storage of precomputed grid.
 IVT=     5331821 IEndB=     5331821 NGot=   536870912 MDV=   532740564
 LenX=   532740564 LenY=   531555732
 Requested convergence on RMS density matrix=1.00D-08 within 128 cycles.
 Requested convergence on MAX density matrix=1.00D-06.
 Requested convergence on             energy=1.00D-06.
 No special actions if energy rises.
 Fock matrices will be formed incrementally for  20 cycles.

 Cycle   1  Pass 1  IDiag  1:
 FoFJK:  IHMeth= 1 ICntrl=       0 DoSepK=F KAlg= 0 I1Cent=   0 FoldK=F
 IRaf=       0 NMat=   1 IRICut=       1 DoRegI=T DoRafI=F ISym2E= 0.
 FoFCou: FMM=F IPFlag=           0 FMFlag=      100000 FMFlg1=           0
         NFxFlg=           0 DoJE=F BraDBF=F KetDBF=F FulRan=T
         wScrn=  0.000000 ICntrl=       0 IOpCl=  1 I1Cent=           0 NGrid=           0
         NMat0=    1 NMatS0=      1 NMatT0=    0 NMatD0=    1 NMtDS0=    0 NMtDT0=    0
 Symmetry not used in FoFCou.
 E= -208.152452191133    
 DIIS: error= 5.48D-04 at cycle   1 NSaved=   1.
 NSaved= 1 IEnMin= 1 EnMin= -208.152452191133     IErMin= 1 ErrMin= 5.48D-04
 ErrMax= 5.48D-04  0.00D+00 EMaxC= 1.00D-01 BMatC= 1.50D-04 BMatP= 1.50D-04
 IDIUse=3 WtCom= 9.95D-01 WtEn= 5.48D-03
 Coeff-Com:  0.100D+01
 Coeff-En:   0.100D+01
 Coeff:      0.100D+01
 Gap=     2.182 Goal=   None    Shift=    0.000
 Gap=     2.242 Goal=   None    Shift=    0.000
 RMSDP=1.61D-04 MaxDP=2.72D-02              OVMax= 2.00D-03

 Cycle   2  Pass 1  IDiag  1:
 RMSU=  1.61D-04    CP:  9.91D-01
 E= -208.152482925498     Delta-E=       -0.000030734365 Rises=F Damp=F
 DIIS: error= 3.75D-05 at cycle   2 NSaved=   2.
 NSaved= 2 IEnMin= 2 EnMin= -208.152482925498     IErMin= 2 ErrMin= 3.75D-05
 ErrMax= 3.75D-05  0.00D+00 EMaxC= 1.00D-01 BMatC= 1.17D-06 BMatP= 1.50D-04
 IDIUse=1 WtCom= 1.00D+00 WtEn= 0.00D+00
 Coeff-Com: -0.301D-01 0.103D+01
 Coeff:     -0.301D-01 0.103D+01
 Gap=     0.203 Goal=   None    Shift=    0.000
 Gap=     0.167 Goal=   None    Shift=    0.000
 RMSDP=3.33D-06 MaxDP=5.29D-04 DE=-3.07D-05 OVMax= 4.28D-04

 Cycle   3  Pass 1  IDiag  1:
 RMSU=  1.74D-06    CP:  9.91D-01  1.02D+00
 E= -208.152483462413     Delta-E=       -0.000000536915 Rises=F Damp=F
 DIIS: error= 1.27D-05 at cycle   3 NSaved=   3.
 NSaved= 3 IEnMin= 3 EnMin= -208.152483462413     IErMin= 3 ErrMin= 1.27D-05
 ErrMax= 1.27D-05  0.00D+00 EMaxC= 1.00D-01 BMatC= 1.31D-07 BMatP= 1.17D-06
 IDIUse=1 WtCom= 1.00D+00 WtEn= 0.00D+00
 Coeff-Com: -0.970D-02 0.183D+00 0.827D+00
 Coeff:     -0.970D-02 0.183D+00 0.827D+00
 Gap=     0.203 Goal=   None    Shift=    0.000
 Gap=     0.167 Goal=   None    Shift=    0.000
 RMSDP=3.21D-07 MaxDP=5.54D-05 DE=-5.37D-07 OVMax= 1.26D-04

 Cycle   4  Pass 1  IDiag  1:
 RMSU=  3.01D-07    CP:  9.91D-01  1.02D+00  1.06D+00
 E= -208.152483498382     Delta-E=       -0.000000035969 Rises=F Damp=F
 DIIS: error= 7.90D-06 at cycle   4 NSaved=   4.
 NSaved= 4 IEnMin= 4 EnMin= -208.152483498382     IErMin= 4 ErrMin= 7.90D-06
 ErrMax= 7.90D-06  0.00D+00 EMaxC= 1.00D-01 BMatC= 4.06D-08 BMatP= 1.31D-07
 IDIUse=1 WtCom= 1.00D+00 WtEn= 0.00D+00
 Coeff-Com: -0.133D-02-0.163D-01 0.296D+00 0.721D+00
 Coeff:     -0.133D-02-0.163D-01 0.296D+00 0.721D+00
 Gap=     0.203 Goal=   None    Shift=    0.000
 Gap=     0.167 Goal=   None    Shift=    0.000
 RMSDP=1.33D-07 MaxDP=2.70D-05 DE=-3.60D-08 OVMax= 6.78D-05

 Cycle   5  Pass 1  IDiag  1:
 RMSU=  9.97D-08    CP:  9.91D-01  1.02D+00  1.10D+00  1.20D+00
 E= -208.152483500744     Delta-E=       -0.000000002362 Rises=F Damp=F
 DIIS: error= 1.08D-05 at cycle   5 NSaved=   5.
 NSaved= 5 IEnMin= 5 EnMin= -208.152483500744     IErMin= 4 ErrMin= 7.90D-06
 ErrMax= 1.08D-05  0.00D+00 EMaxC= 1.00D-01 BMatC= 4.37D-08 BMatP= 4.06D-08
 IDIUse=1 WtCom= 1.00D+00 WtEn= 0.00D+00
 Coeff-Com:  0.133D-02-0.588D-01 0.392D-01 0.563D+00 0.455D+00
 Coeff:      0.133D-02-0.588D-01 0.392D-01 0.563D+00 0.455D+00
 Gap=     0.203 Goal=   None    Shift=    0.000
 Gap=     0.167 Goal=   None    Shift=    0.000
 RMSDP=6.46D-08 MaxDP=1.23D-05 DE=-2.36D-09 OVMax= 4.23D-05

 Cycle   6  Pass 1  IDiag  1:
 RMSU=  4.66D-08    CP:  9.91D-01  1.02D+00  1.11D+00  1.31D+00  1.05D+00
 E= -208.152483510769     Delta-E=       -0.000000010024 Rises=F Damp=F
 DIIS: error= 2.30D-06 at cycle   6 NSaved=   6.
 NSaved= 6 IEnMin= 6 EnMin= -208.152483510769     IErMin= 6 ErrMin= 2.30D-06
 ErrMax= 2.30D-06  0.00D+00 EMaxC= 1.00D-01 BMatC= 4.04D-09 BMatP= 4.06D-08
 IDIUse=1 WtCom= 1.00D+00 WtEn= 0.00D+00
 Coeff-Com:  0.107D-02-0.341D-01-0.173D-01 0.241D+00 0.280D+00 0.530D+00
 Coeff:      0.107D-02-0.341D-01-0.173D-01 0.241D+00 0.280D+00 0.530D+00
 Gap=     0.203 Goal=   None    Shift=    0.000
 Gap=     0.167 Goal=   None    Shift=    0.000
 RMSDP=2.12D-08 MaxDP=3.81D-06 DE=-1.00D-08 OVMax= 1.48D-05

 Cycle   7  Pass 1  IDiag  1:
 RMSU=  1.41D-08    CP:  9.91D-01  1.02D+00  1.12D+00  1.35D+00  1.12D+00
                    CP:  1.02D+00
 E= -208.152483511616     Delta-E=       -0.000000000848 Rises=F Damp=F
 DIIS: error= 8.88D-07 at cycle   7 NSaved=   7.
 NSaved= 7 IEnMin= 7 EnMin= -208.152483511616     IErMin= 7 ErrMin= 8.88D-07
 ErrMax= 8.88D-07  0.00D+00 EMaxC= 1.00D-01 BMatC= 5.37D-10 BMatP= 4.04D-09
 IDIUse=1 WtCom= 1.00D+00 WtEn= 0.00D+00
 Coeff-Com:  0.162D-03 0.707D-03-0.172D-01-0.484D-01 0.881D-02 0.273D+00
 Coeff-Com:  0.783D+00
 Coeff:      0.162D-03 0.707D-03-0.172D-01-0.484D-01 0.881D-02 0.273D+00
 Coeff:      0.783D+00
 Gap=     0.203 Goal=   None    Shift=    0.000
 Gap=     0.167 Goal=   None    Shift=    0.000
 RMSDP=1.12D-08 MaxDP=2.04D-06 DE=-8.48D-10 OVMax= 8.37D-06

 Cycle   8  Pass 1  IDiag  1:
 RMSU=  6.39D-09    CP:  9.91D-01  1.02D+00  1.12D+00  1.36D+00  1.18D+00
                    CP:  1.09D+00  8.89D-01
 E= -208.152483511733     Delta-E=       -0.000000000117 Rises=F Damp=F
 DIIS: error= 6.95D-07 at cycle   8 NSaved=   8.
 NSaved= 8 IEnMin= 8 EnMin= -208.152483511733     IErMin= 8 ErrMin= 6.95D-07
 ErrMax= 6.95D-07  0.00D+00 EMaxC= 1.00D-01 BMatC= 1.62D-10 BMatP= 5.37D-10
 IDIUse=1 WtCom= 1.00D+00 WtEn= 0.00D+00
 Coeff-Com: -0.731D-05 0.380D-02-0.914D-02-0.541D-01-0.226D-01 0.115D+00
 Coeff-Com:  0.490D+00 0.478D+00
 Coeff:     -0.731D-05 0.380D-02-0.914D-02-0.541D-01-0.226D-01 0.115D+00
 Coeff:      0.490D+00 0.478D+00
 Gap=     0.203 Goal=   None    Shift=    0.000
 Gap=     0.167 Goal=   None    Shift=    0.000
 DSYEVD returned Info=      744882 IAlg= 4 N=   995 NDim=   995 NE2=      534225 trying DSYEV.
 RMSDP=3.55D-09 MaxDP=3.69D-07 DE=-1.17D-10 OVMax= 4.35D-06

 SCF Done:  E(UAPFD) =  -208.152483512     A.U. after    8 cycles
            NFock=  8  Conv=0.35D-08     -V/T= 2.0044
 <Sx>= 0.0000 <Sy>= 0.0000 <Sz>= 0.5000 <S**2>= 0.7890 S= 0.5193
 <L.S>= 0.000000000000E+00
 KE= 2.072487819279D+02 PE=-7.146086853557D+02 EE= 1.838346966507D+02
 Annihilation of the first spin contaminant:
 S**2 before annihilation     0.7890,   after     0.7509
 Leave Link  502 at Wed Aug 14 03:39:50 2013, MaxMem=  536870912 cpu:   41654.0
 (Enter /share/apps/gaussian/gdvh12/gdv/l801.exe)
 DoSCS=F DFT=T ScalE2(SS,OS)=  1.000000  1.000000
 Range of M.O.s used for correlation:     1   995
 NBasis=  1012 NAE=    17 NBE=    16 NFC=     0 NFV=     0
 NROrb=    995 NOA=    17 NOB=    16 NVA=   978 NVB=   979

 **** Warning!!: The largest alpha MO coefficient is  0.41901281D+03


 **** Warning!!: The largest beta MO coefficient is  0.40938274D+03

 Leave Link  801 at Wed Aug 14 03:39:51 2013, MaxMem=  536870912 cpu:       0.5
 (Enter /share/apps/gaussian/gdvh12/gdv/l1101.exe)
 Using compressed storage, NAtomX=     7.
 Will process      8 centers per pass.
 R6Disp: Adding Petersson-Frisch dispersion energy 1st derivatives to the gradient.
 Leave Link 1101 at Wed Aug 14 03:39:56 2013, MaxMem=  536870912 cpu:      11.3
 (Enter /share/apps/gaussian/gdvh12/gdv/l1102.exe)
 Symmetrizing basis deriv contribution to polar:
 IMax=3 JMax=2 DiffMx= 0.00D+00
 Leave Link 1102 at Wed Aug 14 03:39:57 2013, MaxMem=  536870912 cpu:       1.3
 (Enter /share/apps/gaussian/gdvh12/gdv/l1110.exe)
 Forming Gx(P) for the SCF density, NAtomX=     7.
 Integral derivatives from FoFJK, PRISM(SPDF).
 Do as many integral derivatives as possible in FoFJK.
 G2DrvN: MDV=     536870752.
 G2DrvN: will do     8 centers at a time, making    1 passes.
 Calling FoFCou, ICntrl=  3107 FMM=F I1Cent=   0 AccDes= 1.00D-12.
 FoFJK:  IHMeth= 1 ICntrl=    3107 DoSepK=F KAlg= 0 I1Cent=   0 FoldK=F
 IRaf=       0 NMat=   1 IRICut=       1 DoRegI=T DoRafI=F ISym2E= 0.
 FoFCou: FMM=F IPFlag=           0 FMFlag=      100000 FMFlg1=           0
         NFxFlg=           0 DoJE=F BraDBF=F KetDBF=F FulRan=T
         wScrn=  0.000000 ICntrl=    3107 IOpCl=  1 I1Cent=           0 NGrid=           0
         NMat0=    1 NMatS0=      1 NMatT0=    0 NMatD0=    1 NMtDS0=    0 NMtDT0=    0
 Symmetry not used in FoFCou.
 End of G2Drv F.D. properties file   721 does not exist.
 End of G2Drv F.D. properties file   722 does not exist.
 Leave Link 1110 at Wed Aug 14 15:08:26 2013, MaxMem=  536870912 cpu:   82552.0
 (Enter /share/apps/gaussian/gdvh12/gdv/l1002.exe)
 Minotr:  UHF open shell wavefunction.
          IDoAtm=1111111
          Direct CPHF calculation.
          Differentiating once with respect to electric field.
                with respect to dipole field.
          Differentiating once with respect to nuclear coordinates.
          Requested convergence is 1.0D-08 RMS, and 1.0D-07 maximum.
          Secondary convergence is 1.0D-12 RMS, and 1.0D-12 maximum.
          NewPWx=T KeepS1=F KeepF1=F KeepIn=T MapXYZ=F SortEE=F KeepMc=T.
          MDV=     536868848 using IRadAn=  199590.
 Generate precomputed XC quadrature information.
          Solving linear equations simultaneously, MaxMat=       0.
 FoFJK:  IHMeth= 1 ICntrl=       0 DoSepK=F KAlg= 0 I1Cent=   0 FoldK=F
 IRaf=       0 NMat=  24 IRICut=       1 DoRegI=T DoRafI=F ISym2E= 0.
 FoFCou: FMM=F IPFlag=           0 FMFlag=      100000 FMFlg1=           0
         NFxFlg=           0 DoJE=F BraDBF=F KetDBF=F FulRan=T
         wScrn=  0.000000 ICntrl=       0 IOpCl=  1 I1Cent=           0 NGrid=           0
         NMat0=   24 NMatS0=     24 NMatT0=    0 NMatD0=   24 NMtDS0=    0 NMtDT0=    0
 Symmetry not used in FoFCou.
          There are    24 degrees of freedom in the 1st order CPHF.  IDoFFX=6 NUNeed=     3.
     21 vectors produced by pass  0 Test12= 1.35D-13 4.17D-09 XBig12= 4.12D+02 1.15D+01.
 AX will form    21 AO Fock derivatives at one time.
