 Entering Gaussian System, Link 0=gdv
 AtFile(1): 6ZaPa-NR.gbs
 Initial command:
 /share/apps/gaussian/gdvh12/gdv/l1.exe /localscratch/933633/Gau-2760.inp -scrdir=/localscratch/933633/
 Entering Link 1 = /share/apps/gaussian/gdvh12/gdv/l1.exe PID=      2761.
  
 Copyright (c) 1988,1990,1992,1993,1995,1998,2003,2009,2011,
            Gaussian, Inc.  All Rights Reserved.
  
 This is the private, development version of
 the Gaussian(R) DV system of programs. It is based on
 the Gaussian(R) 09 system (copyright 2009, Gaussian, Inc.),
 the Gaussian(R) 03 system (copyright 2003, Gaussian, Inc.),
 the Gaussian(R) 98 system (copyright 1998, Gaussian, Inc.),
 the Gaussian(R) 94 system (copyright 1995, Gaussian, Inc.),
 the Gaussian 92(TM) system (copyright 1992, Gaussian, Inc.),
 the Gaussian 90(TM) system (copyright 1990, Gaussian, Inc.),
 the Gaussian 88(TM) system (copyright 1988, Gaussian, Inc.),
 the Gaussian 86(TM) system (copyright 1986, Carnegie Mellon
 University), and the Gaussian 82(TM) system (copyright 1983,
 Carnegie Mellon University). Gaussian is a federally registered
 trademark of Gaussian, Inc.
  
 This software contains proprietary and confidential information,
 including trade secrets, belonging to Gaussian, Inc.
  
 This software is provided under written license and may be
 used, copied, transmitted, or stored only in accord with that
 written license.
  
 The following legend is applicable only to US Government
 contracts under FAR:
  
                    RESTRICTED RIGHTS LEGEND
  
 Use, reproduction and disclosure by the US Government is
 subject to restrictions as set forth in subparagraphs (a)
 and (c) of the Commercial Computer Software - Restricted
 Rights clause in FAR 52.227-19.
  
 Gaussian, Inc.
 340 Quinnipiac St., Bldg. 40, Wallingford CT 06492
  
  
 ---------------------------------------------------------------
 Warning -- This program may not be used in any manner that
 competes with the business of Gaussian, Inc. or will provide
 assistance to any competitor of Gaussian, Inc.  The licensee
 of this program is prohibited from giving any competitor of
 Gaussian, Inc. access to this program.  By using this program,
 the user acknowledges that Gaussian, Inc. is engaged in the
 business of creating and licensing software in the field of
 computational chemistry and represents and warrants to the
 licensee that it is not a competitor of Gaussian, Inc. and that
 it will not use this program in any manner prohibited above.
 ---------------------------------------------------------------
  

 Cite this work as:
 Gaussian Development Version, Revision H.12,
 M. J. Frisch, G. W. Trucks, H. B. Schlegel, G. E. Scuseria, 
 M. A. Robb, J. R. Cheeseman, G. Scalmani, V. Barone, B. Mennucci, 
 G. A. Petersson, H. Nakatsuji, M. Caricato, X. Li, H. P. Hratchian, 
 A. F. Izmaylov, J. Bloino, G. Zheng, J. L. Sonnenberg, M. Hada, 
 M. Ehara, K. Toyota, R. Fukuda, J. Hasegawa, M. Ishida, T. Nakajima, 
 Y. Honda, O. Kitao, H. Nakai, T. Vreven, J. A. Montgomery, Jr., 
 J. E. Peralta, F. Ogliaro, M. Bearpark, J. J. Heyd, E. Brothers, 
 K. N. Kudin, V. N. Staroverov, T. Keith, R. Kobayashi, J. Normand, 
 K. Raghavachari, A. Rendell, J. C. Burant, S. S. Iyengar, J. Tomasi, 
 M. Cossi, N. Rega, J. M. Millam, M. Klene, J. E. Knox, J. B. Cross, 
 V. Bakken, C. Adamo, J. Jaramillo, R. Gomperts, R. E. Stratmann, 
 O. Yazyev, A. J. Austin, R. Cammi, C. Pomelli, J. W. Ochterski, 
 R. L. Martin, K. Morokuma, V. G. Zakrzewski, G. A. Voth, 
 P. Salvador, J. J. Dannenberg, S. Dapprich, P. V. Parandekar, 
 N. J. Mayhall, A. D. Daniels, O. Farkas, J. B. Foresman, 
 J. V. Ortiz, J. Cioslowski, and D. J. Fox, 
 Gaussian, Inc., Wallingford CT, 2010.
 
 ******************************************
 Gaussian DV:  EM64L-GDVRevH.12  9-Jun-2011
                 5-May-2013 
 ******************************************
 % Mem=12GB
 % Nproc=8
 Will use up to    8 processors via shared memory.
 ----------------------------------------------------------------------
 # ROMP2(RW) Gen GFinput Int=NoBasisTransform Int(Grid=Ultrafine) IOp(3
 /32=2,5/6=10,8/11=1,9/33=1) Maxdisk=128GB CBSextrapolate(Nmin=20,MinPo
 p)
 ----------------------------------------------------------------------
 1/38=1/1;
 2/12=2,17=6,18=5,40=1/2;
 3/5=7,11=2,16=1,24=10,25=1,30=1,32=2,60=-1,75=-5,116=101/1,2,3;
 4//1;
 5/5=2,6=10,38=5/2;
 8/5=-1,10=91,11=1/1;
 9/16=-3,33=1,75=2,81=20,83=4/6,4;
 6/7=2,8=2,9=2,10=2/1;
 99/5=1,9=1/99;
 ------
 H-Ga=O
 ------
 Charge =  0 Multiplicity = 1
 Symbolic Z-Matrix:
 H
 Ga                   1     1.52078 
 X                    2     1.       1     90. 
 O                    2     1.64567  3     90.      1     180.     0
 
                          Input orientation:                          
 ---------------------------------------------------------------------
 Center     Atomic      Atomic             Coordinates (Angstroms)
 Number     Number       Type             X           Y           Z
 ---------------------------------------------------------------------
      1          1           0        0.000000    0.000000    0.000000
      2         31           0        0.000000    0.000000    1.520780
      3          8           0        0.000000    0.000000    3.166450
 ---------------------------------------------------------------------
                    Distance matrix (angstroms):
                    1          2          3
     1  H    0.000000
     2  Ga   1.520780   0.000000
     3  O    3.166450   1.645670   0.000000
 Stoichiometry    GaHO
 Framework group  C*V[C*(OGaH)]
 Deg. of freedom     2
 Full point group                 C*V     NOp   4
 Largest Abelian subgroup         C2V     NOp   4
 Largest concise Abelian subgroup C1      NOp   1
                         Standard orientation:                         
 ---------------------------------------------------------------------
 Center     Atomic      Atomic             Coordinates (Angstroms)
 Number     Number       Type             X           Y           Z
 ---------------------------------------------------------------------
      1          1           0        0.000000    0.000000    1.811895
      2         31           0        0.000000    0.000000    0.291115
      3          8           0        0.000000    0.000000   -1.354556
 ---------------------------------------------------------------------
 Rotational constants (GHZ):      0.0000000     13.1277025     13.1277025
 General basis read from cards:  (5D, 7F)
 AO basis set in the form of general basis input (Overlap normalization):
      1 0
 S  10 1.00       0.000000000000
      0.1236550887D+04  0.5411825039D-04
      0.2770666880D+03  0.3008878800D-03
      0.6190041000D+02  0.1768785770D-02
      0.1750924900D+02  0.7217571709D-02
      0.5729993000D+01  0.2566849940D-01
      0.2065079000D+01  0.7841463929D-01
      0.8007820000D+00  0.1973910090D+00
      0.3301280000D+00  0.3598285599D+00
      0.1424660000D+00  0.3642526999D+00
      0.6222000000D-01  0.1099635200D+00
 S   1 1.00       0.000000000000
      0.2553500000D-01  0.1000000000D+01
 S   1 1.00       0.000000000000
      0.9587000000D-02  0.1000000000D+01
 S   1 1.00       0.000000000000
      0.2433484000D+01  0.1000000000D+01
 S   1 1.00       0.000000000000
      0.9567950000D+00  0.1000000000D+01
 S   1 1.00       0.000000000000
      0.3936420000D+00  0.1000000000D+01
 S   1 1.00       0.000000000000
      0.1550630000D+00  0.1000000000D+01
 S   1 1.00       0.000000000000
      0.6403400000D-01  0.1000000000D+01
 P   1 1.00       0.000000000000
      0.7153038000D+01  0.1000000000D+01
 P   1 1.00       0.000000000000
      0.2428633000D+01  0.1000000000D+01
 P   1 1.00       0.000000000000
      0.1082791000D+01  0.1000000000D+01
 P   1 1.00       0.000000000000
      0.4677970000D+00  0.1000000000D+01
 P   1 1.00       0.000000000000
      0.1959010000D+00  0.1000000000D+01
 P   1 1.00       0.000000000000
      0.8203810000D-01  0.1000000000D+01
 D   1 1.00       0.000000000000
      0.6264435000D+01  0.1000000000D+01
 D   1 1.00       0.000000000000
      0.2645911000D+01  0.1000000000D+01
 D   1 1.00       0.000000000000
      0.1150688000D+01  0.1000000000D+01
 D   1 1.00       0.000000000000
      0.4254790000D+00  0.1000000000D+01
 D   1 1.00       0.000000000000
      0.1573250000D+00  0.1000000000D+01
 F   1 1.00       0.000000000000
      0.3223699000D+01  0.1000000000D+01
 F   1 1.00       0.000000000000
      0.1222229000D+01  0.1000000000D+01
 F   1 1.00       0.000000000000
      0.5009380000D+00  0.1000000000D+01
 F   1 1.00       0.000000000000
      0.2053120000D+00  0.1000000000D+01
 G   1 1.00       0.000000000000
      0.3442219000D+01  0.1000000000D+01
 G   1 1.00       0.000000000000
      0.1244815000D+01  0.1000000000D+01
 G   1 1.00       0.000000000000
      0.4501643000D+00  0.1000000000D+01
 H   1 1.00       0.000000000000
      0.1202396970D+01  0.1000000000D+01
 H   1 1.00       0.000000000000
      0.3613870000D+00  0.1000000000D+01
 ****
      2 0
 S  17 1.00       0.000000000000
      0.3233447220D+08  0.9632316966D-06
      0.6109123520D+07  0.5942815974D-05
      0.1405069680D+07  0.3368607103D-04
      0.3811579500D+06  0.1526740774D-03
      0.1186323790D+06  0.5898912654D-03
      0.4135967220D+05  0.1989507389D-02
      0.1582170680D+05  0.6005871973D-02
      0.6524721130D+04  0.1647516038D-01
      0.2857570760D+04  0.4127789172D-01
      0.1312433700D+04  0.9336910071D-01
      0.6254718650D+03  0.1837910385D+00
      0.3065769410D+03  0.2906673886D+00
      0.1534020740D+03  0.3131802779D+00
      0.7785922100D+02  0.1710398306D+00
      0.3985952800D+02  0.2919416843D-01
      0.2047593500D+02  0.1530501157D-02
      0.1050127200D+02  0.8354013168D-04
 S  15 1.00       0.000000000000
      0.4135967220D+05 -0.1293348375D-05
      0.1582170680D+05 -0.1112226881D-04
      0.6524721130D+04 -0.7815628451D-04
      0.2857570760D+04 -0.4611793250D-03
      0.1312433700D+04 -0.2304279891D-02
      0.6254718650D+03 -0.9813259230D-02
      0.3065769410D+03 -0.3366903786D-01
      0.1534020740D+03 -0.7981268148D-01
      0.7785922100D+02 -0.7441201674D-01
      0.3985952800D+02  0.1514157920D+00
      0.2047593500D+02  0.5045055397D+00
      0.1050127200D+02  0.4049778846D+00
      0.5348542000D+01  0.7896325679D-01
      0.2689711000D+01  0.3853447019D-02
      0.1326684000D+01 -0.1479162677D-02
 P  15 1.00       0.000000000000
      0.5262527840D+05  0.1080213645D-04
      0.1394831110D+05  0.8627855641D-04
      0.4441518170D+04  0.5536972749D-03
      0.1640945570D+04  0.2681648466D-02
      0.6820594260D+03  0.1036153204D-01
      0.3104203680D+03  0.3264106172D-01
      0.1510828740D+03  0.8533303869D-01
      0.7704367200D+02  0.1798367933D+00
      0.4044807800D+02  0.2924256861D+00
      0.2153889300D+02  0.3304965102D+00
      0.1148846400D+02  0.2012602273D+00
      0.6073871000D+01  0.4871453064D-01
      0.3155508000D+01  0.3937260104D-02
      0.1599456000D+01  0.2895801638D-03
      0.7863530000D+00  0.2586145261D-04
 S  11 1.00       0.000000000000
      0.3065769410D+03  0.1425775279D-03
      0.1534020740D+03  0.1577392357D-02
      0.7785922100D+02  0.2894460864D-02
      0.3985952800D+02 -0.7373167873D-02
      0.2047593500D+02 -0.1133081701D+00
      0.1050127200D+02 -0.2046236117D+00
      0.5348542000D+01  0.1309695120D+00
      0.2689711000D+01  0.5663780687D+00
      0.1326684000D+01  0.4441015316D+00
      0.6368390000D+00  0.7320727293D-01
      0.2947520000D+00  0.8199529011D-03
 P  12 1.00       0.000000000000
      0.3104203680D+03 -0.2420191256D-03
      0.1510828740D+03 -0.1302425731D-02
      0.7704367200D+02 -0.5550718420D-02
      0.4044807800D+02 -0.1423960073D-01
      0.2153889300D+02 -0.2219629321D-01
      0.1148846400D+02  0.4169705457D-01
      0.6073871000D+01  0.2323026481D+00
      0.3155508000D+01  0.3951250295D+00
      0.1599456000D+01  0.3386134562D+00
      0.7863530000D+00  0.1176462750D+00
      0.3731390000D+00  0.9469426459D-02
      0.1701790000D+00  0.1168761411D-02
 D  14 1.00       0.000000000000
      0.2055828420D+04  0.1948985063D-04
      0.6185839610D+03  0.2072551038D-03
      0.2365174580D+03  0.1324307915D-02
      0.1054961500D+03  0.5898914462D-02
      0.5166452700D+02  0.1968821367D-01
      0.2668079100D+02  0.5201777390D-01
      0.1417407000D+02  0.1147043633D+00
      0.7639545000D+01  0.1962705038D+00
      0.4146007000D+01  0.2538408130D+00
      0.2252146000D+01  0.2637333155D+00
      0.1213559000D+01  0.2248300369D+00
      0.6379280000D+00  0.1467253798D+00
      0.3177690000D+00  0.5801296649D-01
      0.1432420000D+00  0.8132862497D-02
 S  10 1.00       0.000000000000
      0.3985952800D+02  0.3949547682D-04
      0.2047593500D+02  0.3825552196D-03
      0.1050127200D+02  0.2764792242D-02
      0.5348542000D+01 -0.5692911404D-02
      0.2689711000D+01 -0.2950466199D-01
      0.1326684000D+01 -0.1295258070D+00
      0.6368390000D+00 -0.8303496387D-01
      0.2947520000D+00  0.3001625850D+00
      0.1300850000D+00  0.6052970437D+00
      0.5402600000D-01  0.2679650988D+00
 S   1 1.00       0.000000000000
      0.5939600000D-01  0.1000000000D+01
 S   1 1.00       0.000000000000
      0.1993700000D-01  0.1000000000D+01
 P  10 1.00       0.000000000000
      0.2153889300D+02  0.4449490952D-04
      0.1148846400D+02 -0.6458289840D-03
      0.6073871000D+01 -0.3053579562D-02
      0.3155508000D+01 -0.6417240816D-02
      0.1599456000D+01 -0.1565872165D-01
      0.7863530000D+00  0.2788048136D-02
      0.3731390000D+00  0.1374664334D+00
      0.1701790000D+00  0.3543766639D+00
      0.7431400000D-01  0.4568123103D+00
      0.3096000000D-01  0.1935534026D+00
 P   1 1.00       0.000000000000
      0.7775000000D-02  0.1000000000D+01
 P   1 1.00       0.000000000000
      0.2209400000D-01  0.1000000000D+01
 S   1 1.00       0.000000000000
      0.2284789000D+01  0.1000000000D+01
 S   1 1.00       0.000000000000
      0.1157948000D+01  0.1000000000D+01
 S   1 1.00       0.000000000000
      0.5868560000D+00  0.1000000000D+01
 S   1 1.00       0.000000000000
      0.2974230000D+00  0.1000000000D+01
 S   1 1.00       0.000000000000
      0.1507360000D+00  0.1000000000D+01
 P   1 1.00       0.000000000000
      0.1236199000D+01  0.1000000000D+01
 P   1 1.00       0.000000000000
      0.6821490000D+00  0.1000000000D+01
 P   1 1.00       0.000000000000
      0.3764180000D+00  0.1000000000D+01
 P   1 1.00       0.000000000000
      0.2077120000D+00  0.1000000000D+01
 P   1 1.00       0.000000000000
      0.1146180000D+00  0.1000000000D+01
 D   1 1.00       0.000000000000
      0.1044448000D+01  0.1000000000D+01
 D   1 1.00       0.000000000000
      0.5417110000D+00  0.1000000000D+01
 D   1 1.00       0.000000000000
      0.2809630000D+00  0.1000000000D+01
 D   1 1.00       0.000000000000
      0.1457240000D+00  0.1000000000D+01
 D   1 1.00       0.000000000000
      0.7558100000D-01  0.1000000000D+01
 D   1 1.00       0.000000000000
      0.3920070000D-01  0.1000000000D+01
 F   1 1.00       0.000000000000
      0.9843310000D+00  0.1000000000D+01
 F   1 1.00       0.000000000000
      0.5280160000D+00  0.1000000000D+01
 F   1 1.00       0.000000000000
      0.2832390000D+00  0.1000000000D+01
 F   1 1.00       0.000000000000
      0.1519360000D+00  0.1000000000D+01
 F   1 1.00       0.000000000000
      0.8150200000D-01  0.1000000000D+01
 G   1 1.00       0.000000000000
      0.7736980000D+00  0.1000000000D+01
 G   1 1.00       0.000000000000
      0.4244200000D+00  0.1000000000D+01
 G   1 1.00       0.000000000000
      0.2328200000D+00  0.1000000000D+01
 G   1 1.00       0.000000000000
      0.1277160000D+00  0.1000000000D+01
 H   1 1.00       0.000000000000
      0.6767090000D+00  0.1000000000D+01
 H   1 1.00       0.000000000000
      0.3443740000D+00  0.1000000000D+01
 H   1 1.00       0.000000000000
      0.1752500000D+00  0.1000000000D+01
 I   1 1.00       0.000000000000
      0.5361126425D+00  0.1000000000D+01
 ****
      3 0
 S  15 1.00       0.000000000000
      0.6548000000D+06  0.3676746544D-05
      0.1483657123D+06  0.2001322601D-04
      0.3287120290D+05  0.1230958929D-03
      0.8900326514D+04  0.5419452354D-03
      0.2822487225D+04  0.2017300727D-02
      0.1011638751D+04  0.6474519327D-02
      0.3979108470D+03  0.1859701774D-01
      0.1676654060D+03  0.4810708725D-01
      0.7422043800D+02  0.1109657057D+00
      0.3397885900D+02  0.2172491231D+00
      0.1588559300D+02  0.3297594370D+00
      0.7505787000D+01  0.3039544665D+00
      0.3552417000D+01  0.1081779895D+00
      0.1670456000D+01  0.7138302432D-02
      0.7740200000D+00  0.1237595785D-02
 S  10 1.00       0.000000000000
      0.1676654060D+03 -0.3618306853D-03
      0.7422043800D+02 -0.1614846493D-02
      0.3397885900D+02 -0.8051280847D-02
      0.1588559300D+02 -0.2843516405D-01
      0.7505787000D+01 -0.6974989359D-01
      0.3552417000D+01 -0.3762836555D-01
      0.1670456000D+01  0.1842351239D+00
      0.7740200000D+00  0.4267202503D+00
      0.3502170000D+00  0.4088258309D+00
      0.1530920000D+00  0.1148198259D+00
 S   1 1.00       0.000000000000
      0.6343585760D-01  0.1000000000D+01
 P  11 1.00       0.000000000000
      0.8425259190D+03  0.7115590365D-04
      0.2038673200D+03  0.6269252005D-03
      0.6481637700D+02  0.3575226676D-02
      0.2453650700D+02  0.1406815969D-01
      0.1032262900D+02  0.4331169469D-01
      0.4610823000D+01  0.1103853021D+00
      0.2124722000D+01  0.2148049775D+00
      0.9920000000D+00  0.3022354214D+00
      0.4628540000D+00  0.3126216704D+00
      0.2124640000D+00  0.2092272585D+00
      0.9367700000D-01  0.5257213566D-01
 P   1 1.00       0.000000000000
      0.4557271185D-01  0.1000000000D+01
 S   1 1.00       0.000000000000
      0.3443955000D+01  0.1000000000D+01
 S   1 1.00       0.000000000000
      0.1607443000D+01  0.1000000000D+01
 S   1 1.00       0.000000000000
      0.7502640000D+00  0.1000000000D+01
 S   1 1.00       0.000000000000
      0.3501810000D+00  0.1000000000D+01
 S   1 1.00       0.000000000000
      0.1634450000D+00  0.1000000000D+01
 P   1 1.00       0.000000000000
      0.3923428000D+01  0.1000000000D+01
 P   1 1.00       0.000000000000
      0.1652241000D+01  0.1000000000D+01
 P   1 1.00       0.000000000000
      0.6957950000D+00  0.1000000000D+01
 P   1 1.00       0.000000000000
      0.2930150000D+00  0.1000000000D+01
 P   1 1.00       0.000000000000
      0.1233950000D+00  0.1000000000D+01
 D   1 1.00       0.000000000000
      0.9871045000D+01  0.1000000000D+01
 D   1 1.00       0.000000000000
      0.4275423000D+01  0.1000000000D+01
 D   1 1.00       0.000000000000
      0.1851804000D+01  0.1000000000D+01
 D   1 1.00       0.000000000000
      0.8020670000D+00  0.1000000000D+01
 D   1 1.00       0.000000000000
      0.3473980000D+00  0.1000000000D+01
 D   1 1.00       0.000000000000
      0.1504670000D+00  0.1000000000D+01
 F   1 1.00       0.000000000000
      0.5194130000D+01  0.1000000000D+01
 F   1 1.00       0.000000000000
      0.2436296000D+01  0.1000000000D+01
 F   1 1.00       0.000000000000
      0.1142740000D+01  0.1000000000D+01
 F   1 1.00       0.000000000000
      0.5360000000D+00  0.1000000000D+01
 F   1 1.00       0.000000000000
      0.2514097000D+00  0.1000000000D+01
 G   1 1.00       0.000000000000
      0.5063136000D+01  0.1000000000D+01
 G   1 1.00       0.000000000000
      0.2235772000D+01  0.1000000000D+01
 G   1 1.00       0.000000000000
      0.9872690000D+00  0.1000000000D+01
 G   1 1.00       0.000000000000
      0.4359560000D+00  0.1000000000D+01
 H   1 1.00       0.000000000000
      0.3591649000D+01  0.1000000000D+01
 H   1 1.00       0.000000000000
      0.1458150000D+01  0.1000000000D+01
 H   1 1.00       0.000000000000
      0.5919840000D+00  0.1000000000D+01
 I   1 1.00       0.000000000000
      0.2680115504D+01  0.1000000000D+01
 ****

 There are   280 symmetry adapted cartesian basis functions of A1  symmetry.
 There are   101 symmetry adapted cartesian basis functions of A2  symmetry.
 There are   176 symmetry adapted cartesian basis functions of B1  symmetry.
 There are   176 symmetry adapted cartesian basis functions of B2  symmetry.
 There are   179 symmetry adapted basis functions of A1  symmetry.
 There are    76 symmetry adapted basis functions of A2  symmetry.
 There are   121 symmetry adapted basis functions of B1  symmetry.
 There are   121 symmetry adapted basis functions of B2  symmetry.
   497 basis functions,  1024 primitive gaussians,   733 cartesian basis functions
    20 alpha electrons       20 beta electrons
       nuclear repulsion energy        91.8700661552 Hartrees.
 NAtoms=    3 NActive=    3 NUniq=    3 SFac= 1.00D+00 NAtFMM=   60 NAOKFM=F Big=F
 Integral buffers will be    131072 words long.
 Raffenetti 2 integral format.
 Two-electron integral symmetry is turned on.
 One-electron integrals computed using PRISM.
 PrsmSu:  requested number of processors reduced to:   4 ShMem   1 Linda.
 NBasis=   497 RedAO= F EigKep=  0.00D+00  NBF=   179    76   121   121
 NBsUse=   497 1.00D-04 EigRej=  0.00D+00 NBFU=   179    76   121   121
 ExpMin= 7.78D-03 ExpMax= 3.23D+07 ExpMxC= 6.52D+03 IAcc=3 IRadAn=         5 AccDes= 0.00D+00
 Harris functional with IExCor=  205 and IRadAn=       5 diagonalized for initial guess.
 HarFok:  IExCor=  205 AccDes= 0.00D+00 IRadAn=         5 IDoV= 1 UseB2=F ITyADJ=14
 ICtDFT=  3500011 ScaDFX=  1.000000  1.000000  1.000000  1.000000
 FoFCou: FMM=F IPFlag=           0 FMFlag=      100000 FMFlg1=           0
         NFxFlg=           0 DoJE=T BraDBF=F KetDBF=T FulRan=T
         wScrn=  0.000000 ICntrl=     500 IOpCl=  0 I1Cent=   200000004 NGrid=           0
         NMat0=    1 NMatS0=      1 NMatT0=    0 NMatD0=    1 NMtDS0=    0 NMtDT0=    0
 Petite list used in FoFCou.
 DSYEVD returned Info=      186251 IAlg= 4 N=   497 NDim=   497 NE2=     3238496 trying DSYEV.
 Initial guess orbital symmetries:
       Occupied  (SG) (SG) (SG) (PI) (PI) (SG) (SG) (SG) (PI) (PI)
                 (SG) (SG) (PI) (PI) (DLTA) (DLTA) (SG) (SG) (PI)
                 (PI)
       Virtual   (SG) (PI) (PI) (SG) (SG) (PI) (PI) (DLTA) (DLTA)
                 (SG) (PI) (PI) (SG) (SG) (PI) (PI) (SG) (PI) (PI)
                 (SG) (SG) (SG) (PI) (PI) (DLTA) (DLTA) (DLTA)
                 (DLTA) (PI) (PI) (PHI) (PHI) (SG) (SG) (PI) (PI)
                 (SG) (PI) (PI) (SG) (SG) (SG) (DLTA) (DLTA) (PI)
                 (PI) (PI) (PI) (SG) (DLTA) (DLTA) (PHI) (PHI)
                 (?A) (?A) (SG) (PI) (PI) (DLTA) (DLTA) (PI) (PI)
                 (SG) (DLTA) (DLTA) (PHI) (PHI) (SG) (PI) (PI)
                 (SG) (PI) (PI) (SG) (DLTA) (DLTA) (PI) (PI) (PHI)
                 (PHI) (SG) (?A) (?A) (?B) (?B) (SG) (DLTA) (DLTA)
                 (PI) (PI) (SG) (PI) (PI) (SG) (PHI) (PHI) (DLTA)
                 (DLTA) (DLTA) (DLTA) (PI) (PI) (SG) (DLTA) (DLTA)
                 (PHI) (PHI) (?A) (?A) (SG) (PI) (PI) (DLTA) (DLTA)
                 (PHI) (PHI) (PI) (PI) (SG) (PHI) (PHI) (SG) (PI)
                 (PI) (DLTA) (DLTA) (PI) (PI) (SG) (PI) (PI) (SG)
                 (SG) (DLTA) (DLTA) (SG) (SG) (PI) (PI) (PI) (PI)
                 (PHI) (PHI) (SG) (DLTA) (DLTA) (?A) (?A) (DLTA)
                 (DLTA) (PI) (PI) (?B) (?B) (?A) (?A) (?A) (?A)
                 (SG) (?B) (?B) (PI) (PI) (PHI) (PHI) (SG) (DLTA)
                 (DLTA) (PI) (PI) (PHI) (PHI) (DLTA) (DLTA) (SG)
                 (PI) (PI) (DLTA) (DLTA) (SG) (?A) (?A) (PI) (PI)
                 (PHI) (PHI) (PHI) (PHI) (SG) (DLTA) (DLTA) (?A)
                 (?A) (PI) (PI) (PHI) (PHI) (SG) (DLTA) (DLTA)
                 (SG) (PHI) (PHI) (PI) (PI) (SG) (PI) (PI) (DLTA)
                 (DLTA) (PI) (PI) (SG) (?B) (?B) (SG) (DLTA) (DLTA)
                 (PHI) (PHI) (PI) (PI) (SG) (SG) (?A) (?A) (SG)
                 (SG) (DLTA) (DLTA) (?B) (?B) (SG) (DLTA) (DLTA)
                 (PI) (PI) (PHI) (PHI) (PI) (PI) (SG) (PI) (PI)
                 (SG) (DLTA) (DLTA) (PI) (PI) (SG) (?A) (?A) (PI)
                 (PI) (SG) (DLTA) (DLTA) (PHI) (PHI) (?B) (?B)
                 (?A) (?A) (SG) (DLTA) (DLTA) (PHI) (PHI) (PI)
                 (PI) (?A) (?A) (PI) (PI) (PI) (PI) (PHI) (PHI)
                 (DLTA) (DLTA) (SG) (?A) (?A) (PHI) (PHI) (DLTA)
                 (DLTA) (SG) (PI) (PI) (PHI) (PHI) (DLTA) (DLTA)
                 (SG) (SG) (DLTA) (DLTA) (PHI) (PHI) (PI) (PI)
                 (SG) (PI) (PI) (SG) (DLTA) (DLTA) (PHI) (PHI)
                 (PI) (PI) (SG) (PI) (PI) (DLTA) (DLTA) (SG) (?A)
                 (?A) (DLTA) (DLTA) (SG) (PI) (PI) (DLTA) (DLTA)
                 (PHI) (PHI) (SG) (?B) (?B) (?A) (?A) (PI) (PI)
                 (SG) (DLTA) (DLTA) (SG) (PI) (PI) (PI) (PI) (PHI)
                 (PHI) (PI) (PI) (SG) (SG) (?B) (?B) (?A) (?A)
                 (SG) (PHI) (PHI) (DLTA) (DLTA) (DLTA) (DLTA) (PI)
                 (PI) (SG) (PI) (PI) (SG) (PI) (PI) (SG) (PI) (PI)
                 (SG) (DLTA) (DLTA) (PHI) (PHI) (SG) (?A) (?A)
                 (DLTA) (DLTA) (PHI) (PHI) (PI) (PI) (PI) (PI)
                 (SG) (DLTA) (DLTA) (SG) (PI) (PI) (SG) (SG) (DLTA)
                 (DLTA) (PHI) (PHI) (PI) (PI) (DLTA) (DLTA) (SG)
                 (SG) (PI) (PI) (SG) (?B) (?B) (SG) (SG) (?A) (?A)
                 (PHI) (PHI) (DLTA) (DLTA) (PI) (PI) (SG) (?A)
                 (?A) (PHI) (PHI) (DLTA) (DLTA) (PI) (PI) (SG)
                 (?B) (?B) (?A) (?A) (PHI) (PHI) (DLTA) (DLTA)
                 (PI) (PI) (SG) (SG) (PI) (PI) (PHI) (PHI) (DLTA)
                 (DLTA) (SG) (PI) (PI) (SG) (?A) (?A) (PHI) (PHI)
                 (DLTA) (DLTA) (DLTA) (DLTA) (PI) (PI) (SG) (PI)
                 (PI) (SG) (PI) (PI) (SG) (DLTA) (DLTA) (PI) (PI)
                 (SG) (SG) (SG)
 The electronic state of the initial guess is 1-SG.
 Requested convergence on RMS density matrix=1.00D-10 within 128 cycles.
 Requested convergence on MAX density matrix=1.00D-08.
 Requested convergence on             energy=1.00D-08.
 No special actions if energy rises.
 Initial convergence to 1.0D-05 achieved.  Increase integral accuracy.
 SCF Done:  E(ROHF) =  -1998.71515680     A.U. after   17 cycles
            NFock= 17  Conv=0.14D-10     -V/T= 2.0000
 <Sx>= 0.0000 <Sy>= 0.0000 <Sz>= 0.0000 <S**2>= 0.0000 S= 0.0000
 <L.S>= 0.000000000000E+00
 Annihilation of the first spin contaminant:
 S**2 before annihilation     0.0000,   after     0.0000
 GenMOA:  NOpAll=  4 NOp2=4 NOpUse=  4 JSym2X=1
 <Sx>= 0.0000 <Sy>= 0.0000 <Sz>= 0.0000 <S**2>= 0.0000 S= 0.0000
 Range of M.O.s used for correlation:    16   497
 NBasis=   497 NAE=    20 NBE=    20 NFC=    15 NFV=     0
 NROrb=    482 NOA=     5 NOB=     5 NVA=   477 NVB=   477

 **** Warning!!: The largest alpha MO coefficient is  0.13024881D+04


 **** Warning!!: The largest beta MO coefficient is  0.13024881D+04

 Singles contribution to E2=   -0.3302370307D-13
 Disk-based method using OVN memory for  5 occupieds at a time.
 Permanent disk used for amplitudes and <ij||ab> integrals=    15917490 words.
 Estimated scratch disk usage=  1609590501 words.
 IUseRI=2 ITolRI= 6 IR12RI=0
 Actual    scratch disk usage=  1602409189 words.
 GetIJB would need an additional  1395435413 words of memory to use all   8 processors.
 JobTyp=2 Pass  1:  I=   1 to   5 NPSUse=  1 ParTrn=F ParDer=F DoDerP=F.
 (rs|ai) integrals will be sorted in core.
 T,EIJ(AA): I=   1 J=   2      0.1460459E-03     -0.6335258E-03
 T,EIJ(AA): I=   1 J=   3      0.5779907E-03     -0.2467726E-02
 T,EIJ(AA): I=   1 J=   4      0.5618107E-03     -0.2400674E-02
 T,EIJ(AA): I=   1 J=   5      0.5618107E-03     -0.2400674E-02
 T,EIJ(AA): I=   2 J=   3      0.2791267E-03     -0.5918898E-03
 T,EIJ(AA): I=   2 J=   4      0.4243539E-03     -0.1082651E-02
 T,EIJ(AA): I=   2 J=   5      0.4243539E-03     -0.1082651E-02
 T,EIJ(AA): I=   3 J=   4      0.4042471E-02     -0.9925996E-02
 T,EIJ(AA): I=   3 J=   5      0.4042471E-02     -0.9925996E-02
 T,EIJ(AA): I=   4 J=   5      0.4660113E-02     -0.1114504E-01
 T,EIJ(AB): I=   1 J=   1      0.1188046E-02     -0.7247819E-02
 T,EIJ(AB): I=   1 J=   2      0.2688769E-03     -0.1323214E-02
 T,EIJ(AB): I=   1 J=   3      0.1361181E-02     -0.7020565E-02
 T,EIJ(AB): I=   1 J=   4      0.1601785E-02     -0.8072395E-02
 T,EIJ(AB): I=   1 J=   5      0.1601785E-02     -0.8072395E-02
 T,EIJ(AB): I=   2 J=   1      0.2688769E-03     -0.1323214E-02
 T,EIJ(AB): I=   2 J=   2      0.8989985E-02     -0.2161219E-01
 T,EIJ(AB): I=   2 J=   3      0.2169914E-02     -0.6086939E-02
 T,EIJ(AB): I=   2 J=   4      0.7623161E-03     -0.1843297E-02
 T,EIJ(AB): I=   2 J=   5      0.7623161E-03     -0.1843297E-02
 T,EIJ(AB): I=   3 J=   1      0.1361181E-02     -0.7020565E-02
 T,EIJ(AB): I=   3 J=   2      0.2169914E-02     -0.6086939E-02
 T,EIJ(AB): I=   3 J=   3      0.8493076E-02     -0.2331317E-01
 T,EIJ(AB): I=   3 J=   4      0.5332833E-02     -0.1367608E-01
 T,EIJ(AB): I=   3 J=   5      0.5332833E-02     -0.1367608E-01
 T,EIJ(AB): I=   4 J=   1      0.1601785E-02     -0.8072395E-02
 T,EIJ(AB): I=   4 J=   2      0.7623161E-03     -0.1843297E-02
 T,EIJ(AB): I=   4 J=   3      0.5332833E-02     -0.1367608E-01
 T,EIJ(AB): I=   4 J=   4      0.1009550E-01     -0.2734207E-01
 T,EIJ(AB): I=   4 J=   5      0.6037586E-02     -0.1509399E-01
 T,EIJ(AB): I=   5 J=   1      0.1601785E-02     -0.8072395E-02
 T,EIJ(AB): I=   5 J=   2      0.7623161E-03     -0.1843297E-02
 T,EIJ(AB): I=   5 J=   3      0.5332833E-02     -0.1367608E-01
 T,EIJ(AB): I=   5 J=   4      0.6037586E-02     -0.1509399E-01
 T,EIJ(AB): I=   5 J=   5      0.1009550E-01     -0.2734207E-01
 Actual    scratch disk usage=  1602409189 words.
 GetIJB would need an additional  1395435413 words of memory to use all   8 processors.
 JobTyp=3 Pass  1:  I=   1 to   5 NPSUse=  1 ParTrn=F ParDer=F DoDerP=F.
 (rs|ai) integrals will be sorted in core.
 T,EIJ(BB): I=   1 J=   2      0.1460459E-03     -0.6335258E-03
 T,EIJ(BB): I=   1 J=   3      0.5779907E-03     -0.2467726E-02
 T,EIJ(BB): I=   1 J=   4      0.5618107E-03     -0.2400674E-02
 T,EIJ(BB): I=   1 J=   5      0.5618107E-03     -0.2400674E-02
 T,EIJ(BB): I=   2 J=   3      0.2791267E-03     -0.5918898E-03
 T,EIJ(BB): I=   2 J=   4      0.4243539E-03     -0.1082651E-02
 T,EIJ(BB): I=   2 J=   5      0.4243539E-03     -0.1082651E-02
 T,EIJ(BB): I=   3 J=   4      0.4042471E-02     -0.9925996E-02
 T,EIJ(BB): I=   3 J=   5      0.4042471E-02     -0.9925996E-02
 T,EIJ(BB): I=   4 J=   5      0.4660113E-02     -0.1114504E-01
 Spin components of T(2) and E(2):
     alpha-alpha T2 =       0.1572054788D-01 E2=     -0.4165682027D-01
     alpha-beta  T2 =       0.8932495857D-01 E2=     -0.2602738287D+00
     beta-beta   T2 =       0.1572054788D-01 E2=     -0.4165682027D-01
 ANorm=    0.1058662389D+01
 E2 =    -0.3435874693D+00 EUMP2 =    -0.19990587442672D+04

 Complete Basis Set (CBS) Extrapolation:
 M. R. Nyden and G. A. Petersson, JCP 75, 1843 (1981)
 G. A. Petersson and M. A. Al-Laham, JCP 94, 6081 (1991)
 G. A. Petersson, T. Tensfeldt, and J. A. Montgomery, JCP 94, 6091 (1991)
 J. A. Montgomery, J. W. Ochterski, and G. A. Petersson, JCP 101, 5900 (1994)
 
 Minimum Number of PNO for Extrapolation =  20
 Absolute Overlaps: IRadAn =         5
 LocTrn: ILocal=3 LocCor=F DoCore=F.
 Entering OneElI...
 Overlap between basis sets.
 Requested accuracy = 0.1000D-12
 PrsmSu:  NPrtUS=   1 ThrOK=F IAlg=1 NPAlg=1 LenDen=           0.
 Prism:   IPart=     0 DynPar=F LinDyn=F Incr=           1.
 PRISM was handed  1609564974 working-precision words and    79 shell-pairs
 IPart=  0 NShTot=          79 NBatch=          16 AvBLen=         4.9
 PrSmSu:  NxtVal=              2.
 CnvPC2: ToCart=F DoDens=F IPureD=0 IPureF=0.
 Transformed matrix in CnvPC2: 
                 1             2             3             4             5 
      1   0.100000D+01  0.182688D-02  0.113835D-01  0.000000D+00  0.000000D+00
      2   0.182688D-02  0.100000D+01  0.399707D+00  0.000000D+00  0.000000D+00
      3   0.113835D-01  0.399707D+00  0.100000D+01  0.000000D+00  0.000000D+00
      4   0.000000D+00  0.000000D+00  0.000000D+00  0.100000D+01  0.000000D+00
      5   0.000000D+00  0.000000D+00  0.000000D+00  0.000000D+00  0.100000D+01
      6   0.235913D-02  0.000000D+00  0.000000D+00  0.000000D+00  0.000000D+00
      7   0.705334D-01  0.262553D-01  0.313572D+00  0.000000D+00  0.000000D+00
      8   0.000000D+00  0.000000D+00  0.000000D+00  0.326517D+00  0.000000D+00
      9   0.000000D+00  0.000000D+00  0.000000D+00  0.000000D+00  0.326517D+00
     10   0.447740D-01  0.000000D+00  0.000000D+00  0.000000D+00  0.000000D+00
     11   0.201859D-01  0.000000D+00  0.000000D+00  0.000000D+00  0.000000D+00
     12   0.000000D+00  0.000000D+00  0.000000D+00  0.000000D+00  0.000000D+00
     13   0.000000D+00  0.000000D+00  0.000000D+00  0.000000D+00  0.000000D+00
     14   0.000000D+00  0.000000D+00  0.000000D+00  0.000000D+00  0.000000D+00
     15   0.000000D+00  0.000000D+00  0.000000D+00  0.000000D+00  0.000000D+00
     16   0.415741D+00 -0.353836D-03  0.313775D-02  0.000000D+00  0.000000D+00
     17   0.000000D+00  0.000000D+00  0.000000D+00  0.102782D-01  0.000000D+00
     18   0.000000D+00  0.000000D+00  0.000000D+00  0.000000D+00  0.102782D-01
     19   0.520894D+00  0.000000D+00  0.000000D+00  0.000000D+00  0.000000D+00
     20   0.475092D+00  0.000000D+00  0.000000D+00  0.000000D+00  0.000000D+00
     21   0.000000D+00  0.000000D+00  0.000000D+00  0.000000D+00  0.000000D+00
     22   0.000000D+00  0.000000D+00  0.000000D+00  0.000000D+00  0.000000D+00
     23   0.000000D+00  0.000000D+00  0.000000D+00  0.000000D+00  0.000000D+00
     24   0.000000D+00  0.000000D+00  0.000000D+00  0.000000D+00  0.000000D+00
     25   0.140167D-03  0.000000D+00  0.000000D+00  0.000000D+00  0.000000D+00
     26   0.472897D-02  0.504123D-03  0.327271D-02  0.000000D+00  0.000000D+00
     27   0.000000D+00  0.000000D+00  0.000000D+00  0.395318D-03  0.000000D+00
     28   0.000000D+00  0.000000D+00  0.000000D+00  0.000000D+00  0.395318D-03
     29   0.677001D-02  0.108240D-02  0.687796D-02  0.000000D+00  0.000000D+00
                 6             7             8             9            10 
      1   0.235913D-02  0.705334D-01  0.000000D+00  0.000000D+00  0.447740D-01
      2   0.000000D+00  0.262553D-01  0.000000D+00  0.000000D+00  0.000000D+00
      3   0.000000D+00  0.313572D+00  0.000000D+00  0.000000D+00  0.000000D+00
      4   0.000000D+00  0.000000D+00  0.326517D+00  0.000000D+00  0.000000D+00
      5   0.000000D+00  0.000000D+00  0.000000D+00  0.326517D+00  0.000000D+00
      6   0.100000D+01  0.000000D+00  0.000000D+00  0.000000D+00  0.326517D+00
      7   0.000000D+00  0.100000D+01  0.000000D+00  0.000000D+00  0.000000D+00
      8   0.000000D+00  0.000000D+00  0.100000D+01  0.000000D+00  0.000000D+00
      9   0.000000D+00  0.000000D+00  0.000000D+00  0.100000D+01  0.000000D+00
     10   0.326517D+00  0.000000D+00  0.000000D+00  0.000000D+00  0.100000D+01
     11   0.000000D+00  0.000000D+00  0.000000D+00  0.000000D+00  0.000000D+00
     12   0.000000D+00  0.000000D+00  0.000000D+00  0.000000D+00  0.000000D+00
     13   0.000000D+00  0.000000D+00  0.000000D+00  0.000000D+00  0.000000D+00
     14   0.000000D+00  0.000000D+00  0.000000D+00  0.000000D+00  0.000000D+00
     15   0.000000D+00  0.000000D+00  0.000000D+00  0.000000D+00  0.000000D+00
     16   0.000000D+00  0.172993D+00  0.000000D+00  0.000000D+00  0.000000D+00
     17   0.000000D+00  0.000000D+00  0.189903D+00  0.000000D+00  0.000000D+00
     18   0.000000D+00  0.000000D+00  0.000000D+00  0.189903D+00  0.000000D+00
     19   0.102782D-01  0.000000D+00  0.000000D+00  0.000000D+00  0.189903D+00
     20   0.000000D+00  0.000000D+00  0.000000D+00  0.000000D+00  0.000000D+00
     21   0.000000D+00  0.000000D+00  0.000000D+00  0.000000D+00  0.000000D+00
     22   0.000000D+00  0.000000D+00  0.000000D+00  0.000000D+00  0.000000D+00
     23   0.000000D+00  0.000000D+00  0.000000D+00  0.000000D+00  0.000000D+00
     24   0.000000D+00  0.000000D+00  0.000000D+00  0.000000D+00  0.000000D+00
     25   0.000000D+00  0.262395D-05  0.000000D+00  0.000000D+00 -0.866144D-05
     26  -0.135172D-02  0.269251D-01  0.000000D+00  0.000000D+00 -0.282865D-01
     27   0.000000D+00  0.000000D+00  0.845551D-02  0.000000D+00  0.000000D+00
     28   0.000000D+00  0.000000D+00  0.000000D+00  0.845551D-02  0.000000D+00
     29  -0.247458D-02  0.489369D-01  0.000000D+00  0.000000D+00 -0.467083D-01
                11            12            13            14            15 
      1   0.201859D-01  0.000000D+00  0.000000D+00  0.000000D+00  0.000000D+00
      2   0.000000D+00  0.000000D+00  0.000000D+00  0.000000D+00  0.000000D+00
      3   0.000000D+00  0.000000D+00  0.000000D+00  0.000000D+00  0.000000D+00
      4   0.000000D+00  0.000000D+00  0.000000D+00  0.000000D+00  0.000000D+00
      5   0.000000D+00  0.000000D+00  0.000000D+00  0.000000D+00  0.000000D+00
      6   0.000000D+00  0.000000D+00  0.000000D+00  0.000000D+00  0.000000D+00
      7   0.000000D+00  0.000000D+00  0.000000D+00  0.000000D+00  0.000000D+00
      8   0.000000D+00  0.000000D+00  0.000000D+00  0.000000D+00  0.000000D+00
      9   0.000000D+00  0.000000D+00  0.000000D+00  0.000000D+00  0.000000D+00
     10   0.000000D+00  0.000000D+00  0.000000D+00  0.000000D+00  0.000000D+00
     11   0.100000D+01  0.000000D+00  0.000000D+00  0.000000D+00  0.000000D+00
     12   0.000000D+00  0.100000D+01  0.000000D+00  0.000000D+00  0.000000D+00
     13   0.000000D+00  0.000000D+00  0.100000D+01  0.000000D+00  0.000000D+00
     14   0.000000D+00  0.000000D+00  0.000000D+00  0.100000D+01  0.000000D+00
     15   0.000000D+00  0.000000D+00  0.000000D+00  0.000000D+00  0.100000D+01
     16   0.000000D+00  0.000000D+00  0.000000D+00  0.000000D+00  0.000000D+00
     17   0.000000D+00  0.000000D+00  0.000000D+00  0.000000D+00  0.000000D+00
     18   0.000000D+00  0.000000D+00  0.000000D+00  0.000000D+00  0.000000D+00
     19   0.000000D+00  0.000000D+00  0.000000D+00  0.000000D+00  0.000000D+00
     20   0.784073D-01  0.000000D+00  0.000000D+00  0.000000D+00  0.000000D+00
     21   0.000000D+00  0.784073D-01  0.000000D+00  0.000000D+00  0.000000D+00
     22   0.000000D+00  0.000000D+00  0.784073D-01  0.000000D+00  0.000000D+00
     23   0.000000D+00  0.000000D+00  0.000000D+00  0.784073D-01  0.000000D+00
     24   0.000000D+00  0.000000D+00  0.000000D+00  0.000000D+00  0.784073D-01
     25   0.184979D-04  0.000000D+00  0.000000D+00  0.000000D+00  0.000000D+00
     26   0.172311D-01  0.000000D+00  0.000000D+00  0.000000D+00  0.000000D+00
     27   0.000000D+00 -0.912522D-02  0.000000D+00  0.000000D+00  0.000000D+00
     28   0.000000D+00  0.000000D+00 -0.912522D-02  0.000000D+00  0.000000D+00
     29   0.264785D-01  0.000000D+00  0.000000D+00  0.000000D+00  0.000000D+00
                16            17            18            19            20 
      1   0.415741D+00  0.000000D+00  0.000000D+00  0.520894D+00  0.475092D+00
      2  -0.353836D-03  0.000000D+00  0.000000D+00  0.000000D+00  0.000000D+00
      3   0.313775D-02  0.000000D+00  0.000000D+00  0.000000D+00  0.000000D+00
      4   0.000000D+00  0.102782D-01  0.000000D+00  0.000000D+00  0.000000D+00
      5   0.000000D+00  0.000000D+00  0.102782D-01  0.000000D+00  0.000000D+00
      6   0.000000D+00  0.000000D+00  0.000000D+00  0.102782D-01  0.000000D+00
      7   0.172993D+00  0.000000D+00  0.000000D+00  0.000000D+00  0.000000D+00
      8   0.000000D+00  0.189903D+00  0.000000D+00  0.000000D+00  0.000000D+00
      9   0.000000D+00  0.000000D+00  0.189903D+00  0.000000D+00  0.000000D+00
     10   0.000000D+00  0.000000D+00  0.000000D+00  0.189903D+00  0.000000D+00
     11   0.000000D+00  0.000000D+00  0.000000D+00  0.000000D+00  0.784073D-01
     12   0.000000D+00  0.000000D+00  0.000000D+00  0.000000D+00  0.000000D+00
     13   0.000000D+00  0.000000D+00  0.000000D+00  0.000000D+00  0.000000D+00
     14   0.000000D+00  0.000000D+00  0.000000D+00  0.000000D+00  0.000000D+00
     15   0.000000D+00  0.000000D+00  0.000000D+00  0.000000D+00  0.000000D+00
     16   0.100000D+01  0.000000D+00  0.000000D+00  0.000000D+00  0.000000D+00
     17   0.000000D+00  0.100000D+01  0.000000D+00  0.000000D+00  0.000000D+00
     18   0.000000D+00  0.000000D+00  0.100000D+01  0.000000D+00  0.000000D+00
     19   0.000000D+00  0.000000D+00  0.000000D+00  0.100000D+01  0.000000D+00
     20   0.000000D+00  0.000000D+00  0.000000D+00  0.000000D+00  0.100000D+01
     21   0.000000D+00  0.000000D+00  0.000000D+00  0.000000D+00  0.000000D+00
     22   0.000000D+00  0.000000D+00  0.000000D+00  0.000000D+00  0.000000D+00
     23   0.000000D+00  0.000000D+00  0.000000D+00  0.000000D+00  0.000000D+00
     24   0.000000D+00  0.000000D+00  0.000000D+00  0.000000D+00  0.000000D+00
     25   0.322146D-01  0.000000D+00  0.000000D+00 -0.551599D-01  0.866145D-01
     26   0.300050D+00  0.000000D+00  0.000000D+00 -0.444879D+00  0.496202D+00
     27   0.000000D+00  0.152673D+00  0.000000D+00  0.000000D+00  0.000000D+00
     28   0.000000D+00  0.000000D+00  0.152673D+00  0.000000D+00  0.000000D+00
     29   0.185803D+00  0.000000D+00  0.000000D+00 -0.247315D+00  0.917421D-01
                21            22            23            24            25 
      1   0.000000D+00  0.000000D+00  0.000000D+00  0.000000D+00  0.140167D-03
      2   0.000000D+00  0.000000D+00  0.000000D+00  0.000000D+00  0.000000D+00
      3   0.000000D+00  0.000000D+00  0.000000D+00  0.000000D+00  0.000000D+00
      4   0.000000D+00  0.000000D+00  0.000000D+00  0.000000D+00  0.000000D+00
      5   0.000000D+00  0.000000D+00  0.000000D+00  0.000000D+00  0.000000D+00
      6   0.000000D+00  0.000000D+00  0.000000D+00  0.000000D+00  0.000000D+00
      7   0.000000D+00  0.000000D+00  0.000000D+00  0.000000D+00  0.262395D-05
      8   0.000000D+00  0.000000D+00  0.000000D+00  0.000000D+00  0.000000D+00
      9   0.000000D+00  0.000000D+00  0.000000D+00  0.000000D+00  0.000000D+00
     10   0.000000D+00  0.000000D+00  0.000000D+00  0.000000D+00 -0.866144D-05
     11   0.000000D+00  0.000000D+00  0.000000D+00  0.000000D+00  0.184979D-04
     12   0.784073D-01  0.000000D+00  0.000000D+00  0.000000D+00  0.000000D+00
     13   0.000000D+00  0.784073D-01  0.000000D+00  0.000000D+00  0.000000D+00
     14   0.000000D+00  0.000000D+00  0.784073D-01  0.000000D+00  0.000000D+00
     15   0.000000D+00  0.000000D+00  0.000000D+00  0.784073D-01  0.000000D+00
     16   0.000000D+00  0.000000D+00  0.000000D+00  0.000000D+00  0.322146D-01
     17   0.000000D+00  0.000000D+00  0.000000D+00  0.000000D+00  0.000000D+00
     18   0.000000D+00  0.000000D+00  0.000000D+00  0.000000D+00  0.000000D+00
     19   0.000000D+00  0.000000D+00  0.000000D+00  0.000000D+00 -0.551599D-01
     20   0.000000D+00  0.000000D+00  0.000000D+00  0.000000D+00  0.866145D-01
     21   0.100000D+01  0.000000D+00  0.000000D+00  0.000000D+00  0.000000D+00
     22   0.000000D+00  0.100000D+01  0.000000D+00  0.000000D+00  0.000000D+00
     23   0.000000D+00  0.000000D+00  0.100000D+01  0.000000D+00  0.000000D+00
     24   0.000000D+00  0.000000D+00  0.000000D+00  0.100000D+01  0.000000D+00
     25   0.000000D+00  0.000000D+00  0.000000D+00  0.000000D+00  0.100000D+01
     26   0.000000D+00  0.000000D+00  0.000000D+00  0.000000D+00  0.236704D+00
     27  -0.306089D+00  0.000000D+00  0.000000D+00  0.000000D+00  0.000000D+00
     28   0.000000D+00 -0.306089D+00  0.000000D+00  0.000000D+00  0.000000D+00
     29   0.000000D+00  0.000000D+00  0.000000D+00  0.000000D+00  0.000000D+00
                26            27            28            29 
      1   0.472897D-02  0.000000D+00  0.000000D+00  0.677001D-02
      2   0.504123D-03  0.000000D+00  0.000000D+00  0.108240D-02
      3   0.327271D-02  0.000000D+00  0.000000D+00  0.687796D-02
      4   0.000000D+00  0.395318D-03  0.000000D+00  0.000000D+00
      5   0.000000D+00  0.000000D+00  0.395318D-03  0.000000D+00
      6  -0.135172D-02  0.000000D+00  0.000000D+00 -0.247458D-02
      7   0.269251D-01  0.000000D+00  0.000000D+00  0.489369D-01
      8   0.000000D+00  0.845551D-02  0.000000D+00  0.000000D+00
      9   0.000000D+00  0.000000D+00  0.845551D-02  0.000000D+00
     10  -0.282865D-01  0.000000D+00  0.000000D+00 -0.467083D-01
     11   0.172311D-01  0.000000D+00  0.000000D+00  0.264785D-01
     12   0.000000D+00 -0.912522D-02  0.000000D+00  0.000000D+00
     13   0.000000D+00  0.000000D+00 -0.912522D-02  0.000000D+00
     14   0.000000D+00  0.000000D+00  0.000000D+00  0.000000D+00
     15   0.000000D+00  0.000000D+00  0.000000D+00  0.000000D+00
     16   0.300050D+00  0.000000D+00  0.000000D+00  0.185803D+00
     17   0.000000D+00  0.152673D+00  0.000000D+00  0.000000D+00
     18   0.000000D+00  0.000000D+00  0.152673D+00  0.000000D+00
     19  -0.444879D+00  0.000000D+00  0.000000D+00 -0.247315D+00
     20   0.496202D+00  0.000000D+00  0.000000D+00  0.917421D-01
     21   0.000000D+00 -0.306089D+00  0.000000D+00  0.000000D+00
     22   0.000000D+00  0.000000D+00 -0.306089D+00  0.000000D+00
     23   0.000000D+00  0.000000D+00  0.000000D+00  0.000000D+00
     24   0.000000D+00  0.000000D+00  0.000000D+00  0.000000D+00
     25   0.236704D+00  0.000000D+00  0.000000D+00  0.000000D+00
     26   0.100000D+01  0.000000D+00  0.000000D+00  0.000000D+00
     27   0.000000D+00  0.100000D+01  0.000000D+00  0.000000D+00
     28   0.000000D+00  0.000000D+00  0.100000D+01  0.000000D+00
     29   0.000000D+00  0.000000D+00  0.000000D+00  0.100000D+01
 Entering OneElI...
 Overlap between basis sets.
 Requested accuracy = 0.1000D-12
 PrsmSu:  NPrtUS=   1 ThrOK=F IAlg=1 NPAlg=1 LenDen=           0.
 Prism:   IPart=     0 DynPar=F LinDyn=F Incr=           9.
 PRISM was handed  1608832479 working-precision words and   915 shell-pairs
 IPart=  0 NShTot=         915 NBatch=         110 AvBLen=         8.3
 PrSmSu:  NxtVal=             10.
 CnvPC2: ToCart=F DoDens=F IPureD=0 IPureF=0.
 Transformed matrix in CnvPC2: 
                 1             2             3             4             5 
      1   0.982562D+00  0.261606D-02  0.162299D-01  0.000000D+00  0.000000D+00
      2   0.387584D+00  0.302403D-02  0.186368D-01  0.000000D+00  0.000000D+00
      3   0.204525D+00  0.165486D-02  0.102110D-01  0.000000D+00  0.000000D+00
      4   0.692141D+00  0.000000D+00  0.000000D+00  0.000000D+00  0.000000D+00
      5   0.901674D+00  0.218943D-04  0.192594D-03  0.000000D+00  0.000000D+00
      6   0.978057D+00  0.113118D-02  0.727708D-02  0.000000D+00  0.000000D+00
      7   0.866152D+00  0.401339D-02  0.247309D-01  0.000000D+00  0.000000D+00
      8   0.633797D+00  0.438386D-02  0.269685D-01  0.000000D+00  0.000000D+00
      9   0.000000D+00  0.000000D+00  0.000000D+00  0.000000D+00  0.000000D+00
     10   0.000000D+00  0.000000D+00  0.000000D+00  0.000000D+00  0.000000D+00
     11   0.000000D+00  0.000000D+00  0.000000D+00  0.000000D+00  0.000000D+00
     12   0.000000D+00  0.000000D+00  0.000000D+00  0.000000D+00  0.000000D+00
     13   0.000000D+00  0.000000D+00  0.000000D+00  0.000000D+00  0.000000D+00
     14   0.000000D+00  0.000000D+00  0.000000D+00  0.000000D+00  0.000000D+00
     15   0.000000D+00  0.000000D+00  0.000000D+00  0.283018D-04  0.000000D+00
     16   0.000000D+00  0.000000D+00  0.000000D+00  0.000000D+00  0.283018D-04
     17   0.000000D+00 -0.510699D-04 -0.468795D-03  0.000000D+00  0.000000D+00
     18   0.000000D+00  0.000000D+00  0.000000D+00  0.109196D-02  0.000000D+00
     19   0.000000D+00  0.000000D+00  0.000000D+00  0.000000D+00  0.109196D-02
     20   0.000000D+00 -0.274231D-02 -0.175696D-01  0.000000D+00  0.000000D+00
     21   0.000000D+00  0.000000D+00  0.000000D+00  0.330828D-02  0.000000D+00
     22   0.000000D+00  0.000000D+00  0.000000D+00  0.000000D+00  0.330828D-02
     23   0.000000D+00 -0.867448D-02 -0.529950D-01  0.000000D+00  0.000000D+00
     24   0.000000D+00  0.000000D+00  0.000000D+00  0.285866D-02  0.000000D+00
     25   0.000000D+00  0.000000D+00  0.000000D+00  0.000000D+00  0.285866D-02
     26   0.000000D+00 -0.748520D-02 -0.457994D-01  0.000000D+00  0.000000D+00
     27   0.000000D+00  0.000000D+00  0.000000D+00  0.000000D+00  0.000000D+00
     28   0.000000D+00  0.000000D+00  0.000000D+00  0.000000D+00  0.000000D+00
     29   0.000000D+00  0.000000D+00  0.000000D+00  0.000000D+00  0.000000D+00
     30   0.000000D+00  0.000000D+00  0.000000D+00  0.000000D+00  0.000000D+00
     31   0.000000D+00  0.000000D+00  0.000000D+00  0.000000D+00  0.000000D+00
     32   0.000000D+00  0.000000D+00  0.000000D+00  0.000000D+00  0.000000D+00
     33   0.000000D+00  0.000000D+00  0.000000D+00  0.000000D+00  0.000000D+00
     34   0.000000D+00  0.000000D+00  0.000000D+00  0.000000D+00  0.000000D+00
     35   0.000000D+00  0.000000D+00  0.000000D+00  0.000000D+00  0.000000D+00
     36   0.000000D+00  0.000000D+00  0.000000D+00  0.000000D+00  0.000000D+00
     37   0.000000D+00  0.111892D-03  0.101674D-02  0.000000D+00  0.000000D+00
     38   0.000000D+00  0.000000D+00  0.000000D+00 -0.106403D-03  0.000000D+00
     39   0.000000D+00  0.000000D+00  0.000000D+00  0.000000D+00 -0.106403D-03
     40   0.000000D+00  0.000000D+00  0.000000D+00  0.000000D+00  0.000000D+00
     41   0.000000D+00  0.000000D+00  0.000000D+00  0.000000D+00  0.000000D+00
     42   0.000000D+00  0.744341D-02  0.459116D-01  0.000000D+00  0.000000D+00
     43   0.000000D+00  0.000000D+00  0.000000D+00 -0.495980D-02  0.000000D+00
     44   0.000000D+00  0.000000D+00  0.000000D+00  0.000000D+00 -0.495980D-02
     45   0.000000D+00  0.000000D+00  0.000000D+00  0.000000D+00  0.000000D+00
     46   0.000000D+00  0.000000D+00  0.000000D+00  0.000000D+00  0.000000D+00
     47   0.000000D+00  0.119216D-01  0.720646D-01  0.000000D+00  0.000000D+00
     48   0.000000D+00  0.000000D+00  0.000000D+00 -0.779993D-02  0.000000D+00
     49   0.000000D+00  0.000000D+00  0.000000D+00  0.000000D+00 -0.779993D-02
     50   0.000000D+00  0.000000D+00  0.000000D+00  0.000000D+00  0.000000D+00
     51   0.000000D+00  0.000000D+00  0.000000D+00  0.000000D+00  0.000000D+00
     52   0.000000D+00  0.000000D+00  0.000000D+00  0.000000D+00  0.000000D+00
     53   0.000000D+00  0.000000D+00  0.000000D+00  0.000000D+00  0.000000D+00
     54   0.000000D+00  0.000000D+00  0.000000D+00  0.000000D+00  0.000000D+00
     55   0.000000D+00  0.000000D+00  0.000000D+00  0.000000D+00  0.000000D+00
     56   0.000000D+00  0.000000D+00  0.000000D+00  0.000000D+00  0.000000D+00
     57   0.000000D+00  0.000000D+00  0.000000D+00  0.000000D+00  0.000000D+00
     58   0.000000D+00  0.000000D+00  0.000000D+00  0.000000D+00  0.000000D+00
     59   0.000000D+00 -0.195590D-03 -0.175753D-02  0.000000D+00  0.000000D+00
     60   0.000000D+00  0.000000D+00  0.000000D+00  0.260348D-03  0.000000D+00
     61   0.000000D+00  0.000000D+00  0.000000D+00  0.000000D+00  0.260348D-03
     62   0.000000D+00  0.000000D+00  0.000000D+00  0.000000D+00  0.000000D+00
     63   0.000000D+00  0.000000D+00  0.000000D+00  0.000000D+00  0.000000D+00
     64   0.000000D+00  0.000000D+00  0.000000D+00  0.000000D+00  0.000000D+00
     65   0.000000D+00  0.000000D+00  0.000000D+00  0.000000D+00  0.000000D+00
     66   0.000000D+00 -0.964913D-02 -0.587855D-01  0.000000D+00  0.000000D+00
     67   0.000000D+00  0.000000D+00  0.000000D+00  0.899177D-02  0.000000D+00
     68   0.000000D+00  0.000000D+00  0.000000D+00  0.000000D+00  0.899177D-02
     69   0.000000D+00  0.000000D+00  0.000000D+00  0.000000D+00  0.000000D+00
     70   0.000000D+00  0.000000D+00  0.000000D+00  0.000000D+00  0.000000D+00
     71   0.000000D+00  0.000000D+00  0.000000D+00  0.000000D+00  0.000000D+00
     72   0.000000D+00  0.000000D+00  0.000000D+00  0.000000D+00  0.000000D+00
     73   0.000000D+00 -0.148600D-01 -0.885667D-01  0.000000D+00  0.000000D+00
     74   0.000000D+00  0.000000D+00  0.000000D+00  0.135752D-01  0.000000D+00
     75   0.000000D+00  0.000000D+00  0.000000D+00  0.000000D+00  0.135752D-01
     76   0.000000D+00  0.000000D+00  0.000000D+00  0.000000D+00  0.000000D+00
     77   0.000000D+00  0.000000D+00  0.000000D+00  0.000000D+00  0.000000D+00
     78   0.000000D+00  0.000000D+00  0.000000D+00  0.000000D+00  0.000000D+00
     79   0.000000D+00  0.000000D+00  0.000000D+00  0.000000D+00  0.000000D+00
     80   0.000000D+00  0.000000D+00  0.000000D+00  0.000000D+00  0.000000D+00
     81   0.000000D+00  0.000000D+00  0.000000D+00  0.000000D+00  0.000000D+00
     82   0.000000D+00  0.000000D+00  0.000000D+00  0.000000D+00  0.000000D+00
     83   0.000000D+00  0.000000D+00  0.000000D+00  0.000000D+00  0.000000D+00
     84   0.000000D+00  0.000000D+00  0.000000D+00  0.000000D+00  0.000000D+00
     85   0.000000D+00  0.000000D+00  0.000000D+00  0.000000D+00  0.000000D+00
     86   0.000000D+00  0.000000D+00  0.000000D+00  0.000000D+00  0.000000D+00
     87   0.000000D+00  0.000000D+00  0.000000D+00  0.000000D+00  0.000000D+00
     88   0.000000D+00  0.000000D+00  0.000000D+00  0.000000D+00  0.000000D+00
     89   0.000000D+00  0.407228D-03  0.345972D-02  0.000000D+00  0.000000D+00
     90   0.000000D+00  0.000000D+00  0.000000D+00 -0.664430D-03  0.000000D+00
     91   0.000000D+00  0.000000D+00  0.000000D+00  0.000000D+00 -0.664430D-03
     92   0.000000D+00  0.000000D+00  0.000000D+00  0.000000D+00  0.000000D+00
     93   0.000000D+00  0.000000D+00  0.000000D+00  0.000000D+00  0.000000D+00
     94   0.000000D+00  0.000000D+00  0.000000D+00  0.000000D+00  0.000000D+00
     95   0.000000D+00  0.000000D+00  0.000000D+00  0.000000D+00  0.000000D+00
     96   0.000000D+00  0.000000D+00  0.000000D+00  0.000000D+00  0.000000D+00
     97   0.000000D+00  0.000000D+00  0.000000D+00  0.000000D+00  0.000000D+00
     98   0.000000D+00  0.167423D-01  0.982963D-01  0.000000D+00  0.000000D+00
     99   0.000000D+00  0.000000D+00  0.000000D+00 -0.194798D-01  0.000000D+00
    100   0.000000D+00  0.000000D+00  0.000000D+00  0.000000D+00 -0.194798D-01
    101   0.000000D+00  0.000000D+00  0.000000D+00  0.000000D+00  0.000000D+00
    102   0.000000D+00  0.000000D+00  0.000000D+00  0.000000D+00  0.000000D+00
    103   0.000000D+00  0.000000D+00  0.000000D+00  0.000000D+00  0.000000D+00
    104   0.000000D+00  0.000000D+00  0.000000D+00  0.000000D+00  0.000000D+00
    105   0.000000D+00  0.000000D+00  0.000000D+00  0.000000D+00  0.000000D+00
    106   0.000000D+00  0.000000D+00  0.000000D+00  0.000000D+00  0.000000D+00
    107   0.000000D+00 -0.108916D-02 -0.832117D-02  0.000000D+00  0.000000D+00
    108   0.000000D+00  0.000000D+00  0.000000D+00  0.197358D-02  0.000000D+00
    109   0.000000D+00  0.000000D+00  0.000000D+00  0.000000D+00  0.197358D-02
    110   0.000000D+00  0.000000D+00  0.000000D+00  0.000000D+00  0.000000D+00
    111   0.000000D+00  0.000000D+00  0.000000D+00  0.000000D+00  0.000000D+00
    112   0.000000D+00  0.000000D+00  0.000000D+00  0.000000D+00  0.000000D+00
    113   0.000000D+00  0.000000D+00  0.000000D+00  0.000000D+00  0.000000D+00
    114   0.000000D+00  0.000000D+00  0.000000D+00  0.000000D+00  0.000000D+00
    115   0.000000D+00  0.000000D+00  0.000000D+00  0.000000D+00  0.000000D+00
    116   0.000000D+00  0.000000D+00  0.000000D+00  0.000000D+00  0.000000D+00
    117   0.000000D+00  0.000000D+00  0.000000D+00  0.000000D+00  0.000000D+00
    118   0.000000D+00 -0.218655D-01 -0.124867D+00  0.000000D+00  0.000000D+00
    119   0.000000D+00  0.000000D+00  0.000000D+00  0.303896D-01  0.000000D+00
    120   0.000000D+00  0.000000D+00  0.000000D+00  0.000000D+00  0.303896D-01
    121   0.000000D+00  0.000000D+00  0.000000D+00  0.000000D+00  0.000000D+00
    122   0.000000D+00  0.000000D+00  0.000000D+00  0.000000D+00  0.000000D+00
    123   0.000000D+00  0.000000D+00  0.000000D+00  0.000000D+00  0.000000D+00
    124   0.000000D+00  0.000000D+00  0.000000D+00  0.000000D+00  0.000000D+00
    125   0.000000D+00  0.000000D+00  0.000000D+00  0.000000D+00  0.000000D+00
    126   0.000000D+00  0.000000D+00  0.000000D+00  0.000000D+00  0.000000D+00
    127   0.000000D+00  0.000000D+00  0.000000D+00  0.000000D+00  0.000000D+00
    128   0.000000D+00  0.000000D+00  0.000000D+00  0.000000D+00  0.000000D+00
    129   0.192020D-02  0.999793D+00  0.408249D+00  0.000000D+00  0.000000D+00
    130   0.133482D-01  0.287523D+00  0.988918D+00  0.000000D+00  0.000000D+00
    131   0.000000D+00  0.000000D+00  0.000000D+00  0.999220D+00  0.000000D+00
    132   0.000000D+00  0.000000D+00  0.000000D+00  0.000000D+00  0.999220D+00
    133   0.277120D-02  0.000000D+00  0.000000D+00  0.000000D+00  0.000000D+00
    134   0.707794D-01  0.124652D-01  0.317864D+00  0.000000D+00  0.000000D+00
    135   0.000000D+00  0.000000D+00  0.000000D+00  0.339582D+00  0.000000D+00
    136   0.000000D+00  0.000000D+00  0.000000D+00  0.000000D+00  0.339582D+00
    137   0.559877D-01  0.000000D+00  0.000000D+00  0.000000D+00  0.000000D+00
    138   0.774328D-01  0.000000D+00  0.000000D+00  0.000000D+00  0.000000D+00
    139   0.000000D+00  0.000000D+00  0.000000D+00  0.000000D+00  0.000000D+00
    140   0.000000D+00  0.000000D+00  0.000000D+00  0.000000D+00  0.000000D+00
    141   0.000000D+00  0.000000D+00  0.000000D+00  0.000000D+00  0.000000D+00
    142   0.000000D+00  0.000000D+00  0.000000D+00  0.000000D+00  0.000000D+00
    143   0.406114D+00  0.167639D-03  0.992567D-02  0.000000D+00  0.000000D+00
    144   0.411478D+00  0.703009D-02  0.431758D-01  0.000000D+00  0.000000D+00
    145   0.285729D+00  0.310155D-02  0.191182D-01  0.000000D+00  0.000000D+00
    146   0.000000D+00  0.000000D+00  0.000000D+00  0.522019D-02  0.000000D+00
    147   0.000000D+00  0.000000D+00  0.000000D+00  0.000000D+00  0.522019D-02
    148   0.527469D+00  0.000000D+00  0.000000D+00  0.000000D+00  0.000000D+00
    149   0.000000D+00  0.000000D+00  0.000000D+00  0.298440D-03  0.000000D+00
    150   0.000000D+00  0.000000D+00  0.000000D+00  0.000000D+00  0.298440D-03
    151   0.814303D-01  0.000000D+00  0.000000D+00  0.000000D+00  0.000000D+00
    152   0.000000D+00  0.000000D+00  0.000000D+00  0.109860D-02  0.000000D+00
    153   0.000000D+00  0.000000D+00  0.000000D+00  0.000000D+00  0.109860D-02
    154   0.234400D+00  0.000000D+00  0.000000D+00  0.000000D+00  0.000000D+00
    155   0.506697D-01  0.105960D+00  0.539704D+00  0.000000D+00  0.000000D+00
    156   0.892642D-01  0.644358D-01  0.359235D+00  0.000000D+00  0.000000D+00
    157   0.159956D+00  0.389491D-01  0.228082D+00  0.000000D+00  0.000000D+00
    158   0.270307D+00  0.234706D-01  0.141041D+00  0.000000D+00  0.000000D+00
    159   0.380074D+00  0.141210D-01  0.859984D-01  0.000000D+00  0.000000D+00
    160   0.000000D+00  0.000000D+00  0.000000D+00  0.140148D+00  0.000000D+00
    161   0.000000D+00  0.000000D+00  0.000000D+00  0.000000D+00  0.140148D+00
    162   0.871231D-01  0.000000D+00  0.000000D+00  0.000000D+00  0.000000D+00
    163   0.000000D+00  0.000000D+00  0.000000D+00  0.722432D-01  0.000000D+00
    164   0.000000D+00  0.000000D+00  0.000000D+00  0.000000D+00  0.722432D-01
    165   0.183297D+00  0.000000D+00  0.000000D+00  0.000000D+00  0.000000D+00
    166   0.000000D+00  0.000000D+00  0.000000D+00  0.359832D-01  0.000000D+00
    167   0.000000D+00  0.000000D+00  0.000000D+00  0.000000D+00  0.359832D-01
    168   0.340152D+00  0.000000D+00  0.000000D+00  0.000000D+00  0.000000D+00
    169   0.000000D+00  0.000000D+00  0.000000D+00  0.175654D-01  0.000000D+00
    170   0.000000D+00  0.000000D+00  0.000000D+00  0.000000D+00  0.175654D-01
    171   0.497982D+00  0.000000D+00  0.000000D+00  0.000000D+00  0.000000D+00
    172   0.000000D+00  0.000000D+00  0.000000D+00  0.847658D-02  0.000000D+00
    173   0.000000D+00  0.000000D+00  0.000000D+00  0.000000D+00  0.847658D-02
    174   0.553408D+00  0.000000D+00  0.000000D+00  0.000000D+00  0.000000D+00
    175   0.880323D-01  0.000000D+00  0.000000D+00  0.000000D+00  0.000000D+00
    176   0.000000D+00  0.000000D+00  0.000000D+00  0.000000D+00  0.000000D+00
    177   0.000000D+00  0.000000D+00  0.000000D+00  0.000000D+00  0.000000D+00
    178   0.000000D+00  0.000000D+00  0.000000D+00  0.000000D+00  0.000000D+00
    179   0.000000D+00  0.000000D+00  0.000000D+00  0.000000D+00  0.000000D+00
    180   0.228556D+00  0.000000D+00  0.000000D+00  0.000000D+00  0.000000D+00
    181   0.000000D+00  0.000000D+00  0.000000D+00  0.000000D+00  0.000000D+00
    182   0.000000D+00  0.000000D+00  0.000000D+00  0.000000D+00  0.000000D+00
    183   0.000000D+00  0.000000D+00  0.000000D+00  0.000000D+00  0.000000D+00
    184   0.000000D+00  0.000000D+00  0.000000D+00  0.000000D+00  0.000000D+00
    185   0.410917D+00  0.000000D+00  0.000000D+00  0.000000D+00  0.000000D+00
    186   0.000000D+00  0.000000D+00  0.000000D+00  0.000000D+00  0.000000D+00
    187   0.000000D+00  0.000000D+00  0.000000D+00  0.000000D+00  0.000000D+00
    188   0.000000D+00  0.000000D+00  0.000000D+00  0.000000D+00  0.000000D+00
    189   0.000000D+00  0.000000D+00  0.000000D+00  0.000000D+00  0.000000D+00
    190   0.472481D+00  0.000000D+00  0.000000D+00  0.000000D+00  0.000000D+00
    191   0.000000D+00  0.000000D+00  0.000000D+00  0.000000D+00  0.000000D+00
    192   0.000000D+00  0.000000D+00  0.000000D+00  0.000000D+00  0.000000D+00
    193   0.000000D+00  0.000000D+00  0.000000D+00  0.000000D+00  0.000000D+00
    194   0.000000D+00  0.000000D+00  0.000000D+00  0.000000D+00  0.000000D+00
    195   0.366861D+00  0.000000D+00  0.000000D+00  0.000000D+00  0.000000D+00
    196   0.000000D+00  0.000000D+00  0.000000D+00  0.000000D+00  0.000000D+00
    197   0.000000D+00  0.000000D+00  0.000000D+00  0.000000D+00  0.000000D+00
    198   0.000000D+00  0.000000D+00  0.000000D+00  0.000000D+00  0.000000D+00
    199   0.000000D+00  0.000000D+00  0.000000D+00  0.000000D+00  0.000000D+00
    200   0.209068D+00  0.000000D+00  0.000000D+00  0.000000D+00  0.000000D+00
    201   0.000000D+00  0.000000D+00  0.000000D+00  0.000000D+00  0.000000D+00
    202   0.000000D+00  0.000000D+00  0.000000D+00  0.000000D+00  0.000000D+00
    203   0.000000D+00  0.000000D+00  0.000000D+00  0.000000D+00  0.000000D+00
    204   0.000000D+00  0.000000D+00  0.000000D+00  0.000000D+00  0.000000D+00
    205   0.783064D-01  0.000000D+00  0.000000D+00  0.000000D+00  0.000000D+00
    206   0.000000D+00  0.000000D+00  0.000000D+00  0.000000D+00  0.000000D+00
    207   0.000000D+00  0.000000D+00  0.000000D+00  0.000000D+00  0.000000D+00
    208   0.000000D+00  0.000000D+00  0.000000D+00  0.000000D+00  0.000000D+00
    209   0.000000D+00  0.000000D+00  0.000000D+00  0.000000D+00  0.000000D+00
    210   0.000000D+00  0.000000D+00  0.000000D+00  0.000000D+00  0.000000D+00
    211   0.000000D+00  0.000000D+00  0.000000D+00  0.000000D+00  0.000000D+00
    212   0.207026D+00  0.000000D+00  0.000000D+00  0.000000D+00  0.000000D+00
    213   0.000000D+00  0.000000D+00  0.000000D+00  0.000000D+00  0.000000D+00
    214   0.000000D+00  0.000000D+00  0.000000D+00  0.000000D+00  0.000000D+00
    215   0.000000D+00  0.000000D+00  0.000000D+00  0.000000D+00  0.000000D+00
    216   0.000000D+00  0.000000D+00  0.000000D+00  0.000000D+00  0.000000D+00
    217   0.000000D+00  0.000000D+00  0.000000D+00  0.000000D+00  0.000000D+00
    218   0.000000D+00  0.000000D+00  0.000000D+00  0.000000D+00  0.000000D+00
    219   0.337914D+00  0.000000D+00  0.000000D+00  0.000000D+00  0.000000D+00
    220   0.000000D+00  0.000000D+00  0.000000D+00  0.000000D+00  0.000000D+00
    221   0.000000D+00  0.000000D+00  0.000000D+00  0.000000D+00  0.000000D+00
    222   0.000000D+00  0.000000D+00  0.000000D+00  0.000000D+00  0.000000D+00
    223   0.000000D+00  0.000000D+00  0.000000D+00  0.000000D+00  0.000000D+00
    224   0.000000D+00  0.000000D+00  0.000000D+00  0.000000D+00  0.000000D+00
    225   0.000000D+00  0.000000D+00  0.000000D+00  0.000000D+00  0.000000D+00
    226   0.335723D+00  0.000000D+00  0.000000D+00  0.000000D+00  0.000000D+00
    227   0.000000D+00  0.000000D+00  0.000000D+00  0.000000D+00  0.000000D+00
    228   0.000000D+00  0.000000D+00  0.000000D+00  0.000000D+00  0.000000D+00
    229   0.000000D+00  0.000000D+00  0.000000D+00  0.000000D+00  0.000000D+00
    230   0.000000D+00  0.000000D+00  0.000000D+00  0.000000D+00  0.000000D+00
    231   0.000000D+00  0.000000D+00  0.000000D+00  0.000000D+00  0.000000D+00
    232   0.000000D+00  0.000000D+00  0.000000D+00  0.000000D+00  0.000000D+00
    233   0.222817D+00  0.000000D+00  0.000000D+00  0.000000D+00  0.000000D+00
    234   0.000000D+00  0.000000D+00  0.000000D+00  0.000000D+00  0.000000D+00
    235   0.000000D+00  0.000000D+00  0.000000D+00  0.000000D+00  0.000000D+00
    236   0.000000D+00  0.000000D+00  0.000000D+00  0.000000D+00  0.000000D+00
    237   0.000000D+00  0.000000D+00  0.000000D+00  0.000000D+00  0.000000D+00
    238   0.000000D+00  0.000000D+00  0.000000D+00  0.000000D+00  0.000000D+00
    239   0.000000D+00  0.000000D+00  0.000000D+00  0.000000D+00  0.000000D+00
    240   0.999787D-01  0.000000D+00  0.000000D+00  0.000000D+00  0.000000D+00
    241   0.000000D+00  0.000000D+00  0.000000D+00  0.000000D+00  0.000000D+00
    242   0.000000D+00  0.000000D+00  0.000000D+00  0.000000D+00  0.000000D+00
    243   0.000000D+00  0.000000D+00  0.000000D+00  0.000000D+00  0.000000D+00
    244   0.000000D+00  0.000000D+00  0.000000D+00  0.000000D+00  0.000000D+00
    245   0.000000D+00  0.000000D+00  0.000000D+00  0.000000D+00  0.000000D+00
    246   0.000000D+00  0.000000D+00  0.000000D+00  0.000000D+00  0.000000D+00
    247   0.000000D+00  0.000000D+00  0.000000D+00  0.000000D+00  0.000000D+00
    248   0.000000D+00  0.000000D+00  0.000000D+00  0.000000D+00  0.000000D+00
    249   0.213987D+00  0.000000D+00  0.000000D+00  0.000000D+00  0.000000D+00
    250   0.000000D+00  0.000000D+00  0.000000D+00  0.000000D+00  0.000000D+00
    251   0.000000D+00  0.000000D+00  0.000000D+00  0.000000D+00  0.000000D+00
    252   0.000000D+00  0.000000D+00  0.000000D+00  0.000000D+00  0.000000D+00
    253   0.000000D+00  0.000000D+00  0.000000D+00  0.000000D+00  0.000000D+00
    254   0.000000D+00  0.000000D+00  0.000000D+00  0.000000D+00  0.000000D+00
    255   0.000000D+00  0.000000D+00  0.000000D+00  0.000000D+00  0.000000D+00
    256   0.000000D+00  0.000000D+00  0.000000D+00  0.000000D+00  0.000000D+00
    257   0.000000D+00  0.000000D+00  0.000000D+00  0.000000D+00  0.000000D+00
    258   0.253488D+00  0.000000D+00  0.000000D+00  0.000000D+00  0.000000D+00
    259   0.000000D+00  0.000000D+00  0.000000D+00  0.000000D+00  0.000000D+00
    260   0.000000D+00  0.000000D+00  0.000000D+00  0.000000D+00  0.000000D+00
    261   0.000000D+00  0.000000D+00  0.000000D+00  0.000000D+00  0.000000D+00
    262   0.000000D+00  0.000000D+00  0.000000D+00  0.000000D+00  0.000000D+00
    263   0.000000D+00  0.000000D+00  0.000000D+00  0.000000D+00  0.000000D+00
    264   0.000000D+00  0.000000D+00  0.000000D+00  0.000000D+00  0.000000D+00
    265   0.000000D+00  0.000000D+00  0.000000D+00  0.000000D+00  0.000000D+00
    266   0.000000D+00  0.000000D+00  0.000000D+00  0.000000D+00  0.000000D+00
    267   0.182664D+00  0.000000D+00  0.000000D+00  0.000000D+00  0.000000D+00
    268   0.000000D+00  0.000000D+00  0.000000D+00  0.000000D+00  0.000000D+00
    269   0.000000D+00  0.000000D+00  0.000000D+00  0.000000D+00  0.000000D+00
    270   0.000000D+00  0.000000D+00  0.000000D+00  0.000000D+00  0.000000D+00
    271   0.000000D+00  0.000000D+00  0.000000D+00  0.000000D+00  0.000000D+00
    272   0.000000D+00  0.000000D+00  0.000000D+00  0.000000D+00  0.000000D+00
    273   0.000000D+00  0.000000D+00  0.000000D+00  0.000000D+00  0.000000D+00
    274   0.000000D+00  0.000000D+00  0.000000D+00  0.000000D+00  0.000000D+00
    275   0.000000D+00  0.000000D+00  0.000000D+00  0.000000D+00  0.000000D+00
    276   0.103006D+00  0.000000D+00  0.000000D+00  0.000000D+00  0.000000D+00
    277   0.000000D+00  0.000000D+00  0.000000D+00  0.000000D+00  0.000000D+00
    278   0.000000D+00  0.000000D+00  0.000000D+00  0.000000D+00  0.000000D+00
    279   0.000000D+00  0.000000D+00  0.000000D+00  0.000000D+00  0.000000D+00
    280   0.000000D+00  0.000000D+00  0.000000D+00  0.000000D+00  0.000000D+00
    281   0.000000D+00  0.000000D+00  0.000000D+00  0.000000D+00  0.000000D+00
    282   0.000000D+00  0.000000D+00  0.000000D+00  0.000000D+00  0.000000D+00
    283   0.000000D+00  0.000000D+00  0.000000D+00  0.000000D+00  0.000000D+00
    284   0.000000D+00  0.000000D+00  0.000000D+00  0.000000D+00  0.000000D+00
    285   0.000000D+00  0.000000D+00  0.000000D+00  0.000000D+00  0.000000D+00
    286   0.000000D+00  0.000000D+00  0.000000D+00  0.000000D+00  0.000000D+00
    287   0.180058D+00  0.000000D+00  0.000000D+00  0.000000D+00  0.000000D+00
    288   0.000000D+00  0.000000D+00  0.000000D+00  0.000000D+00  0.000000D+00
    289   0.000000D+00  0.000000D+00  0.000000D+00  0.000000D+00  0.000000D+00
    290   0.000000D+00  0.000000D+00  0.000000D+00  0.000000D+00  0.000000D+00
    291   0.000000D+00  0.000000D+00  0.000000D+00  0.000000D+00  0.000000D+00
    292   0.000000D+00  0.000000D+00  0.000000D+00  0.000000D+00  0.000000D+00
    293   0.000000D+00  0.000000D+00  0.000000D+00  0.000000D+00  0.000000D+00
    294   0.000000D+00  0.000000D+00  0.000000D+00  0.000000D+00  0.000000D+00
    295   0.000000D+00  0.000000D+00  0.000000D+00  0.000000D+00  0.000000D+00
    296   0.000000D+00  0.000000D+00  0.000000D+00  0.000000D+00  0.000000D+00
    297   0.000000D+00  0.000000D+00  0.000000D+00  0.000000D+00  0.000000D+00
    298   0.137848D+00  0.000000D+00  0.000000D+00  0.000000D+00  0.000000D+00
    299   0.000000D+00  0.000000D+00  0.000000D+00  0.000000D+00  0.000000D+00
    300   0.000000D+00  0.000000D+00  0.000000D+00  0.000000D+00  0.000000D+00
    301   0.000000D+00  0.000000D+00  0.000000D+00  0.000000D+00  0.000000D+00
    302   0.000000D+00  0.000000D+00  0.000000D+00  0.000000D+00  0.000000D+00
    303   0.000000D+00  0.000000D+00  0.000000D+00  0.000000D+00  0.000000D+00
    304   0.000000D+00  0.000000D+00  0.000000D+00  0.000000D+00  0.000000D+00
    305   0.000000D+00  0.000000D+00  0.000000D+00  0.000000D+00  0.000000D+00
    306   0.000000D+00  0.000000D+00  0.000000D+00  0.000000D+00  0.000000D+00
    307   0.000000D+00  0.000000D+00  0.000000D+00  0.000000D+00  0.000000D+00
    308   0.000000D+00  0.000000D+00  0.000000D+00  0.000000D+00  0.000000D+00
    309   0.109466D+00  0.000000D+00  0.000000D+00  0.000000D+00  0.000000D+00
    310   0.000000D+00  0.000000D+00  0.000000D+00  0.000000D+00  0.000000D+00
    311   0.000000D+00  0.000000D+00  0.000000D+00  0.000000D+00  0.000000D+00
    312   0.000000D+00  0.000000D+00  0.000000D+00  0.000000D+00  0.000000D+00
    313   0.000000D+00  0.000000D+00  0.000000D+00  0.000000D+00  0.000000D+00
    314   0.000000D+00  0.000000D+00  0.000000D+00  0.000000D+00  0.000000D+00
    315   0.000000D+00  0.000000D+00  0.000000D+00  0.000000D+00  0.000000D+00
    316   0.000000D+00  0.000000D+00  0.000000D+00  0.000000D+00  0.000000D+00
    317   0.000000D+00  0.000000D+00  0.000000D+00  0.000000D+00  0.000000D+00
    318   0.000000D+00  0.000000D+00  0.000000D+00  0.000000D+00  0.000000D+00
    319   0.000000D+00  0.000000D+00  0.000000D+00  0.000000D+00  0.000000D+00
    320   0.000000D+00  0.000000D+00  0.000000D+00  0.000000D+00  0.000000D+00
    321   0.000000D+00  0.000000D+00  0.000000D+00  0.000000D+00  0.000000D+00
    322   0.157616D-03  0.000000D+00  0.000000D+00  0.000000D+00  0.000000D+00
    323   0.730027D-02  0.755475D-03  0.477962D-02  0.000000D+00  0.000000D+00
    324   0.104045D+00  0.399998D-02  0.246160D-01  0.000000D+00  0.000000D+00
    325   0.000000D+00  0.000000D+00  0.000000D+00  0.828248D-03  0.000000D+00
    326   0.000000D+00  0.000000D+00  0.000000D+00  0.000000D+00  0.828248D-03
    327   0.219843D-01  0.231004D-02  0.143831D-01  0.000000D+00  0.000000D+00
    328   0.000000D+00  0.000000D+00  0.000000D+00  0.174341D-02  0.000000D+00
    329   0.000000D+00  0.000000D+00  0.000000D+00  0.000000D+00  0.174341D-02
    330   0.291207D+00  0.492455D-02  0.302354D-01  0.000000D+00  0.000000D+00
    331   0.383044D-03  0.000000D+00  0.000000D+00  0.000000D+00  0.000000D+00
    332   0.840333D-03  0.000000D+00  0.000000D+00  0.000000D+00  0.000000D+00
    333   0.218155D-02  0.343544D-04  0.273164D-03  0.000000D+00  0.000000D+00
    334   0.698983D-02  0.904591D-03  0.581087D-02  0.000000D+00  0.000000D+00
    335   0.266653D-01  0.309388D-02  0.191197D-01  0.000000D+00  0.000000D+00
    336   0.000000D+00  0.000000D+00  0.000000D+00  0.000000D+00  0.000000D+00
    337   0.000000D+00  0.000000D+00  0.000000D+00  0.000000D+00  0.000000D+00
    338   0.331537D-03  0.000000D+00  0.000000D+00  0.000000D+00  0.000000D+00
    339   0.000000D+00  0.000000D+00  0.000000D+00  0.000000D+00  0.000000D+00
    340   0.000000D+00  0.000000D+00  0.000000D+00  0.000000D+00  0.000000D+00
    341   0.116225D-02  0.000000D+00  0.199104D-05  0.000000D+00  0.000000D+00
    342   0.000000D+00  0.000000D+00  0.000000D+00  0.117415D-03  0.000000D+00
    343   0.000000D+00  0.000000D+00  0.000000D+00  0.000000D+00  0.117415D-03
    344   0.473759D-02  0.282349D-03  0.206847D-02  0.000000D+00  0.000000D+00
    345   0.000000D+00  0.000000D+00  0.000000D+00  0.164949D-02  0.000000D+00
    346   0.000000D+00  0.000000D+00  0.000000D+00  0.000000D+00  0.164949D-02
    347   0.232009D-01  0.461224D-02  0.286366D-01  0.000000D+00  0.000000D+00
    348   0.000000D+00  0.000000D+00  0.000000D+00  0.284063D-02  0.000000D+00
    349   0.000000D+00  0.000000D+00  0.000000D+00  0.000000D+00  0.284063D-02
    350   0.114585D+00  0.805421D-02  0.492445D-01  0.000000D+00  0.000000D+00
    351   0.350930D-04  0.000000D+00  0.000000D+00  0.000000D+00  0.000000D+00
    352   0.000000D+00  0.000000D+00  0.000000D+00  0.000000D+00  0.000000D+00
    353   0.000000D+00  0.000000D+00  0.000000D+00  0.000000D+00  0.000000D+00
    354   0.000000D+00  0.000000D+00  0.000000D+00  0.000000D+00  0.000000D+00
    355   0.000000D+00  0.000000D+00  0.000000D+00  0.000000D+00  0.000000D+00
    356   0.159830D-03  0.000000D+00  0.000000D+00  0.000000D+00  0.000000D+00
    357   0.000000D+00  0.000000D+00  0.000000D+00  0.000000D+00  0.000000D+00
    358   0.000000D+00  0.000000D+00  0.000000D+00  0.000000D+00  0.000000D+00
    359   0.000000D+00  0.000000D+00  0.000000D+00  0.000000D+00  0.000000D+00
    360   0.000000D+00  0.000000D+00  0.000000D+00  0.000000D+00  0.000000D+00
    361   0.768396D-03  0.000000D+00  0.210645D-05  0.000000D+00  0.000000D+00
    362   0.000000D+00  0.000000D+00  0.000000D+00  0.000000D+00  0.000000D+00
    363   0.000000D+00  0.000000D+00  0.000000D+00  0.000000D+00  0.000000D+00
    364   0.000000D+00  0.000000D+00  0.000000D+00  0.000000D+00  0.000000D+00
    365   0.000000D+00  0.000000D+00  0.000000D+00  0.000000D+00  0.000000D+00
    366   0.401219D-02  0.389402D-03  0.292173D-02  0.000000D+00  0.000000D+00
    367   0.000000D+00  0.000000D+00  0.000000D+00  0.286708D-03  0.000000D+00
    368   0.000000D+00  0.000000D+00  0.000000D+00  0.000000D+00  0.286708D-03
    369   0.000000D+00  0.000000D+00  0.000000D+00  0.000000D+00  0.000000D+00
    370   0.000000D+00  0.000000D+00  0.000000D+00  0.000000D+00  0.000000D+00
    371   0.232807D-01  0.712960D-02  0.438538D-01  0.000000D+00  0.000000D+00
    372   0.000000D+00  0.000000D+00  0.000000D+00  0.437909D-02  0.000000D+00
    373   0.000000D+00  0.000000D+00  0.000000D+00  0.000000D+00  0.437909D-02
    374   0.000000D+00  0.000000D+00  0.000000D+00  0.000000D+00  0.000000D+00
    375   0.000000D+00  0.000000D+00  0.000000D+00  0.000000D+00  0.000000D+00
    376   0.131582D+00  0.110523D-01  0.669678D-01  0.000000D+00  0.000000D+00
    377   0.000000D+00  0.000000D+00  0.000000D+00  0.669668D-02  0.000000D+00
    378   0.000000D+00  0.000000D+00  0.000000D+00  0.000000D+00  0.669668D-02
    379   0.000000D+00  0.000000D+00  0.000000D+00  0.000000D+00  0.000000D+00
    380   0.000000D+00  0.000000D+00  0.000000D+00  0.000000D+00  0.000000D+00
    381   0.429820D-04  0.000000D+00  0.000000D+00  0.000000D+00  0.000000D+00
    382   0.000000D+00  0.000000D+00  0.000000D+00  0.000000D+00  0.000000D+00
    383   0.000000D+00  0.000000D+00  0.000000D+00  0.000000D+00  0.000000D+00
    384   0.000000D+00  0.000000D+00  0.000000D+00  0.000000D+00  0.000000D+00
    385   0.000000D+00  0.000000D+00  0.000000D+00  0.000000D+00  0.000000D+00
    386   0.000000D+00  0.000000D+00  0.000000D+00  0.000000D+00  0.000000D+00
    387   0.000000D+00  0.000000D+00  0.000000D+00  0.000000D+00  0.000000D+00
    388   0.246757D-03  0.000000D+00  0.000000D+00  0.000000D+00  0.000000D+00
    389   0.000000D+00  0.000000D+00  0.000000D+00  0.000000D+00  0.000000D+00
    390   0.000000D+00  0.000000D+00  0.000000D+00  0.000000D+00  0.000000D+00
    391   0.000000D+00  0.000000D+00  0.000000D+00  0.000000D+00  0.000000D+00
    392   0.000000D+00  0.000000D+00  0.000000D+00  0.000000D+00  0.000000D+00
    393   0.000000D+00  0.000000D+00  0.000000D+00  0.000000D+00  0.000000D+00
    394   0.000000D+00  0.000000D+00  0.000000D+00  0.000000D+00  0.000000D+00
    395   0.145615D-02  0.821956D-04  0.770477D-03  0.000000D+00  0.000000D+00
    396   0.000000D+00  0.000000D+00  0.000000D+00  0.105147D-03  0.000000D+00
    397   0.000000D+00  0.000000D+00  0.000000D+00  0.000000D+00  0.105147D-03
    398   0.000000D+00  0.000000D+00  0.000000D+00  0.000000D+00  0.000000D+00
    399   0.000000D+00  0.000000D+00  0.000000D+00  0.000000D+00  0.000000D+00
    400   0.000000D+00  0.000000D+00  0.000000D+00  0.000000D+00  0.000000D+00
    401   0.000000D+00  0.000000D+00  0.000000D+00  0.000000D+00  0.000000D+00
    402   0.891105D-02  0.501978D-02  0.315822D-01  0.000000D+00  0.000000D+00
    403   0.000000D+00  0.000000D+00  0.000000D+00  0.445070D-02  0.000000D+00
    404   0.000000D+00  0.000000D+00  0.000000D+00  0.000000D+00  0.445070D-02
    405   0.000000D+00  0.000000D+00  0.000000D+00  0.000000D+00  0.000000D+00
    406   0.000000D+00  0.000000D+00  0.000000D+00  0.000000D+00  0.000000D+00
    407   0.000000D+00  0.000000D+00  0.000000D+00  0.000000D+00  0.000000D+00
    408   0.000000D+00  0.000000D+00  0.000000D+00  0.000000D+00  0.000000D+00
    409   0.577613D-01  0.142369D-01  0.851307D-01  0.000000D+00  0.000000D+00
    410   0.000000D+00  0.000000D+00  0.000000D+00  0.120545D-01  0.000000D+00
    411   0.000000D+00  0.000000D+00  0.000000D+00  0.000000D+00  0.120545D-01
    412   0.000000D+00  0.000000D+00  0.000000D+00  0.000000D+00  0.000000D+00
    413   0.000000D+00  0.000000D+00  0.000000D+00  0.000000D+00  0.000000D+00
    414   0.000000D+00  0.000000D+00  0.000000D+00  0.000000D+00  0.000000D+00
    415   0.000000D+00  0.000000D+00  0.000000D+00  0.000000D+00  0.000000D+00
    416   0.149737D-04  0.000000D+00  0.000000D+00  0.000000D+00  0.000000D+00
    417   0.000000D+00  0.000000D+00  0.000000D+00  0.000000D+00  0.000000D+00
    418   0.000000D+00  0.000000D+00  0.000000D+00  0.000000D+00  0.000000D+00
    419   0.000000D+00  0.000000D+00  0.000000D+00  0.000000D+00  0.000000D+00
    420   0.000000D+00  0.000000D+00  0.000000D+00  0.000000D+00  0.000000D+00
    421   0.000000D+00  0.000000D+00  0.000000D+00  0.000000D+00  0.000000D+00
    422   0.000000D+00  0.000000D+00  0.000000D+00  0.000000D+00  0.000000D+00
    423   0.000000D+00  0.000000D+00  0.000000D+00  0.000000D+00  0.000000D+00
    424   0.000000D+00  0.000000D+00  0.000000D+00  0.000000D+00  0.000000D+00
    425   0.143295D-03  0.000000D+00  0.176420D-05  0.000000D+00  0.000000D+00
    426   0.000000D+00  0.000000D+00  0.000000D+00  0.000000D+00  0.000000D+00
    427   0.000000D+00  0.000000D+00  0.000000D+00  0.000000D+00  0.000000D+00
    428   0.000000D+00  0.000000D+00  0.000000D+00  0.000000D+00  0.000000D+00
    429   0.000000D+00  0.000000D+00  0.000000D+00  0.000000D+00  0.000000D+00
    430   0.000000D+00  0.000000D+00  0.000000D+00  0.000000D+00  0.000000D+00
[...]
   20    | -0.005045 -0.000653 -0.013177 -0.013177  0.000000
         |

                     Sum of ab pair energies =    -0.195069 A.U.
                     Sum of ba pair energies =    -0.070740 A.U.
                     Sum of aa pair energies =    -0.041956 A.U.
                     Sum of bb pair energies =    -0.041956 A.U.

           Sum of intraorbital pair energies =    -0.124329 A.U.
           Sum of interorbital pair energies =    -0.225393 A.U.
                                                  ----------
                         Total pair energies =    -0.349722 A.U.

                         Single Excitations  =     0.000000 A.U.

                          Total second order =    -0.349722 A.U.



            MP2(CBS) (With Interference Correction) 
            ---------------------------------------

 AB - AA |     16        17        18        19        20
 BA - BB |     16        17        18        19        20
------------------------------------------------------------
   16    | -0.014496 -0.000623 -0.004946 -0.004946 -0.002711
   16    |  0.000000 -0.000623 -0.004946 -0.004946 -0.002711
         |
   17    | -0.001737 -0.028199 -0.000502 -0.000502 -0.000446
   17    | -0.001737  0.000000 -0.000502 -0.000502 -0.000446
         |
   18    | -0.010085 -0.000663 -0.027488 -0.011154 -0.008037
   18    | -0.010085 -0.000663  0.000000 -0.011154 -0.008037
         |
   19    | -0.010085 -0.000663 -0.015182 -0.027488 -0.008037
   19    | -0.010085 -0.000663 -0.015182  0.000000 -0.008037
         |
   20    | -0.004973 -0.000649 -0.013097 -0.013097 -0.025027
   20    | -0.004973 -0.000649 -0.013097 -0.013097  0.000000
         |

                     Sum of ab pair energies =    -0.192928 A.U.
                     Sum of ba pair energies =    -0.070231 A.U.
                     Sum of aa pair energies =    -0.041903 A.U.
                     Sum of bb pair energies =    -0.041903 A.U.

           Sum of intraorbital pair energies =    -0.122697 A.U.
           Sum of interorbital pair energies =    -0.224269 A.U.
                                                  ----------
                         Total pair energies =    -0.346966 A.U.

                         Single Excitations  =     0.000000 A.U.

                          Total second order =    -0.346966 A.U.

                         E2(CBS) - E2(Dir) =      -0.006134 A.U.

 E2(CBS)=      -0.349722 CBS-Int=       0.002756 OIii=       1.996118

 **********************************************************************

            Population analysis using the SCF density.

 **********************************************************************

 Orbital symmetries:
       Occupied  (SG) (SG) (PI) (PI) (SG) (SG) (SG) (PI) (PI) (SG)
                 (SG) (DLTA) (DLTA) (PI) (PI) (SG) (SG) (SG) (PI)
                 (PI)
       Virtual   (SG) (PI) (PI) (SG) (PI) (PI) (SG) (SG) (SG) (PI)
                 (PI) (DLTA) (DLTA) (SG) (PI) (PI) (SG) (PI) (PI)
                 (SG) (SG) (SG) (PI) (PI) (DLTA) (DLTA) (PHI) (PHI)
                 (DLTA) (DLTA) (SG) (PI) (PI) (PI) (PI) (SG) (SG)
                 (SG) (PI) (PI) (SG) (PI) (PI) (SG) (DLTA) (DLTA)
                 (?A) (?A) (PHI) (PHI) (PI) (PI) (DLTA) (DLTA)
                 (DLTA) (DLTA) (SG) (PI) (PI) (SG) (SG) (PI) (PI)
                 (PHI) (PHI) (DLTA) (DLTA) (SG) (PI) (PI) (PI)
                 (PI) (SG) (DLTA) (DLTA) (SG) (PHI) (PHI) (SG)
                 (?B) (?B) (?A) (?A) (PI) (PI) (PI) (PI) (SG) (SG)
                 (PHI) (PHI) (PI) (PI) (DLTA) (DLTA) (SG) (DLTA)
                 (DLTA) (DLTA) (DLTA) (PI) (PI) (DLTA) (DLTA) (?A)
                 (?A) (PHI) (PHI) (SG) (SG) (PI) (PI) (DLTA) (DLTA)
                 (SG) (PHI) (PHI) (PI) (PI) (PHI) (PHI) (PI) (PI)
                 (SG) (DLTA) (DLTA) (PI) (PI) (SG) (SG) (PI) (PI)
                 (SG) (DLTA) (DLTA) (SG) (PI) (PI) (PHI) (PHI)
                 (SG) (PI) (PI) (DLTA) (DLTA) (?A) (?A) (?B) (?B)
                 (DLTA) (DLTA) (SG) (?A) (?A) (?B) (?B) (?A) (?A)
                 (SG) (PI) (PI) (PI) (PI) (PHI) (PHI) (DLTA) (DLTA)
                 (PHI) (PHI) (SG) (PI) (PI) (DLTA) (DLTA) (PI)
                 (PI) (SG) (?A) (?A) (SG) (PHI) (PHI) (DLTA) (DLTA)
                 (PI) (PI) (PHI) (PHI) (DLTA) (DLTA) (SG) (?A)
                 (?A) (PI) (PI) (SG) (PHI) (PHI) (DLTA) (DLTA)
                 (SG) (PHI) (PHI) (PI) (PI) (SG) (PI) (PI) (DLTA)
                 (DLTA) (SG) (PI) (PI) (?B) (?B) (PHI) (PHI) (SG)
                 (SG) (SG) (PI) (PI) (DLTA) (DLTA) (?A) (?A) (DLTA)
                 (DLTA) (SG) (?B) (?B) (SG) (SG) (DLTA) (DLTA)
                 (PI) (PI) (PHI) (PHI) (SG) (PI) (PI) (PI) (PI)
                 (SG) (DLTA) (DLTA) (?A) (?A) (SG) (PI) (PI) (?B)
                 (?B) (PI) (PI) (DLTA) (DLTA) (PHI) (PHI) (?A)
                 (?A) (SG) (SG) (PHI) (PHI) (DLTA) (DLTA) (?A)
                 (?A) (PI) (PI) (PI) (PI) (PHI) (PHI) (DLTA) (DLTA)
                 (PI) (PI) (SG) (PHI) (PHI) (SG) (?A) (?A) (PI)
                 (PI) (DLTA) (DLTA) (DLTA) (DLTA) (SG) (PHI) (PHI)
                 (SG) (DLTA) (DLTA) (SG) (PHI) (PHI) (PI) (PI)
                 (PI) (PI) (PHI) (PHI) (DLTA) (DLTA) (SG) (PI)
                 (PI) (?A) (?A) (SG) (DLTA) (DLTA) (PI) (PI) (SG)
                 (DLTA) (DLTA) (SG) (PI) (PI) (PHI) (PHI) (DLTA)
                 (DLTA) (?B) (?B) (?A) (?A) (SG) (PI) (PI) (SG)
                 (DLTA) (DLTA) (SG) (PI) (PI) (PHI) (PHI) (PI)
                 (PI) (SG) (PI) (PI) (SG) (DLTA) (DLTA) (?B) (?B)
                 (?A) (?A) (SG) (PHI) (PHI) (PI) (PI) (DLTA) (DLTA)
                 (SG) (PI) (PI) (SG) (PI) (PI) (SG) (PI) (PI) (SG)
                 (DLTA) (DLTA) (PHI) (PHI) (SG) (?A) (?A) (PI)
                 (PI) (DLTA) (DLTA) (PHI) (PHI) (PI) (PI) (SG)
                 (DLTA) (DLTA) (SG) (PI) (PI) (SG) (SG) (DLTA)
                 (DLTA) (PHI) (PHI) (DLTA) (DLTA) (PI) (PI) (PI)
                 (PI) (SG) (SG) (SG) (?B) (?B) (SG) (SG) (?A) (?A)
                 (PHI) (PHI) (DLTA) (DLTA) (PI) (PI) (SG) (?A)
                 (?A) (PHI) (PHI) (DLTA) (DLTA) (PI) (PI) (SG)
                 (?B) (?B) (?A) (?A) (PHI) (PHI) (DLTA) (DLTA)
                 (PI) (PI) (SG) (SG) (PI) (PI) (PHI) (PHI) (DLTA)
                 (DLTA) (SG) (PI) (PI) (SG) (DLTA) (DLTA) (?A)
                 (?A) (PHI) (PHI) (DLTA) (DLTA) (PI) (PI) (SG)
                 (PI) (PI) (SG) (PI) (PI) (SG) (DLTA) (DLTA) (PI)
                 (PI) (SG) (SG) (SG)
 The electronic state is 1-SG.
 Alpha  occ. eigenvalues -- -378.84507 -48.19787 -42.52617 -42.52617 -42.52077
 Alpha  occ. eigenvalues --  -20.48964  -6.42662  -4.51996  -4.51996  -4.51278
 Alpha  occ. eigenvalues --   -1.26941  -1.23526  -1.23526  -1.22679  -1.22679
 Alpha  occ. eigenvalues --   -1.12254  -0.58937  -0.45324  -0.40694  -0.40694
 Alpha virt. eigenvalues --    0.00586   0.01188   0.01188   0.02070   0.03493
 Alpha virt. eigenvalues --    0.03493   0.04192   0.05360   0.07483   0.09530
 Alpha virt. eigenvalues --    0.09530   0.09641   0.09641   0.10202   0.11033
 Alpha virt. eigenvalues --    0.11033   0.14342   0.18249   0.18249   0.18648
 Alpha virt. eigenvalues --    0.19802   0.21611   0.23888   0.23888   0.25920
 Alpha virt. eigenvalues --    0.25920   0.27811   0.27811   0.28905   0.28905
 Alpha virt. eigenvalues --    0.28965   0.29042   0.29042   0.29876   0.29876
 Alpha virt. eigenvalues --    0.33487   0.36953   0.40469   0.41260   0.41260
 Alpha virt. eigenvalues --    0.44692   0.52858   0.52858   0.54355   0.55751
 Alpha virt. eigenvalues --    0.55751   0.56242   0.56242   0.56915   0.56915
 Alpha virt. eigenvalues --    0.58303   0.58303   0.59067   0.59067   0.59819
 Alpha virt. eigenvalues --    0.59819   0.61129   0.61694   0.61694   0.62977
 Alpha virt. eigenvalues --    0.68346   0.68734   0.68734   0.70049   0.70049
 Alpha virt. eigenvalues --    0.71433   0.71433   0.77376   0.81542   0.81542
 Alpha virt. eigenvalues --    0.81810   0.81810   0.82972   0.85001   0.85001
 Alpha virt. eigenvalues --    0.86338   0.94731   0.94731   0.96710   0.98460
 Alpha virt. eigenvalues --    0.98460   0.99757   0.99757   1.02172   1.02172
 Alpha virt. eigenvalues --    1.11581   1.11581   1.14381   1.18308   1.19545
 Alpha virt. eigenvalues --    1.19545   1.19962   1.19962   1.20465   1.20465
 Alpha virt. eigenvalues --    1.22284   1.24340   1.24340   1.27321   1.27321
 Alpha virt. eigenvalues --    1.27667   1.27667   1.32394   1.32394   1.33294
 Alpha virt. eigenvalues --    1.33294   1.33549   1.33549   1.34145   1.37150
 Alpha virt. eigenvalues --    1.42136   1.42136   1.42612   1.42612   1.43869
 Alpha virt. eigenvalues --    1.43960   1.43960   1.46532   1.46532   1.48608
 Alpha virt. eigenvalues --    1.48608   1.52139   1.52139   1.52408   1.56302
 Alpha virt. eigenvalues --    1.56302   1.70002   1.70002   1.70857   1.78234
 Alpha virt. eigenvalues --    1.79919   1.79919   1.91371   2.03010   2.03010
 Alpha virt. eigenvalues --    2.05374   2.05917   2.05917   2.09180   2.09180
 Alpha virt. eigenvalues --    2.10912   2.16862   2.16862   2.20184   2.20184
 Alpha virt. eigenvalues --    2.26257   2.26257   2.28741   2.28741   2.29057
 Alpha virt. eigenvalues --    2.29057   2.30129   2.33893   2.33893   2.35818
 Alpha virt. eigenvalues --    2.35818   2.40694   2.40694   2.42828   2.45601
 Alpha virt. eigenvalues --    2.45601   2.49773   2.49773   2.49893   2.49893
 Alpha virt. eigenvalues --    2.63666   2.63666   2.64729   2.64729   2.64808
 Alpha virt. eigenvalues --    2.66825   2.66825   2.67119   2.67119   2.67844
 Alpha virt. eigenvalues --    2.67844   2.69205   2.71164   2.71164   2.75424
 Alpha virt. eigenvalues --    2.75993   2.75993   2.77816   2.77816   2.81184
 Alpha virt. eigenvalues --    2.81184   2.83550   2.83550   2.85373   2.85373
 Alpha virt. eigenvalues --    2.85823   2.87801   2.87801   2.92291   2.92291
 Alpha virt. eigenvalues --    3.01720   3.05742   3.05742   3.06828   3.06828
 Alpha virt. eigenvalues --    3.15585   3.15973   3.15973   3.20851   3.20851
 Alpha virt. eigenvalues --    3.31783   3.42524   3.42524   3.48463   3.48463
 Alpha virt. eigenvalues --    3.55725   3.56052   3.56052   3.64441   3.64441
 Alpha virt. eigenvalues --    3.67919   3.67919   3.73298   3.75817   3.75817
 Alpha virt. eigenvalues --    3.80891   3.80891   3.82574   3.82574   3.96741
 Alpha virt. eigenvalues --    3.96741   3.97978   3.97978   3.99051   4.06105
 Alpha virt. eigenvalues --    4.06105   4.07680   4.17355   4.20848   4.20848
 Alpha virt. eigenvalues --    4.25838   4.25838   4.44194   4.44194   4.44762
 Alpha virt. eigenvalues --    4.47903   4.47903   4.56883   4.56883   4.68798
 Alpha virt. eigenvalues --    4.71927   4.71927   4.75310   4.75310   4.77734
 Alpha virt. eigenvalues --    4.82567   4.82567   5.00438   5.00438   5.00731
 Alpha virt. eigenvalues --    5.00731   5.02071   5.02071   5.02928   5.02928
 Alpha virt. eigenvalues --    5.05597   5.05597   5.06755   5.15507   5.21223
 Alpha virt. eigenvalues --    5.21223   5.21647   5.21647   5.26011   5.26011
 Alpha virt. eigenvalues --    5.28283   5.28283   5.34134   5.34134   5.44339
 Alpha virt. eigenvalues --    5.44339   5.44601   5.44601   5.50399   5.50399
 Alpha virt. eigenvalues --    5.63119   5.80511   5.80511   5.95400   5.98859
 Alpha virt. eigenvalues --    5.98859   6.00815   6.00815   6.00884   6.00884
 Alpha virt. eigenvalues --    6.17257   6.17257   6.17895   6.26911   6.26911
 Alpha virt. eigenvalues --    6.32137   6.43507   6.43507   6.46227   6.54404
 Alpha virt. eigenvalues --    6.54404   6.54742   6.54742   6.80594   6.80594
 Alpha virt. eigenvalues --    6.92177   6.92177   6.98909   6.98909   6.98937
 Alpha virt. eigenvalues --    7.15870   7.15870   7.37535   7.37535   7.38022
 Alpha virt. eigenvalues --    7.43611   7.43611   7.44694   7.44694   7.56505
 Alpha virt. eigenvalues --    7.61113   7.61113   7.71980   7.79284   7.79284
 Alpha virt. eigenvalues --    7.88975   7.88975   8.02162   8.02162   8.06969
 Alpha virt. eigenvalues --    8.06969   8.22590   8.22590   8.23900   8.46538
 Alpha virt. eigenvalues --    8.46538   8.48986   8.65094   8.65094   8.77627
 Alpha virt. eigenvalues --    8.92457   8.92457   9.05631   9.05631   9.34222
 Alpha virt. eigenvalues --    9.34222   9.43640   9.44594   9.44594   9.75093
 Alpha virt. eigenvalues --    9.98203   9.98203  10.00913  10.00913  10.11786
 Alpha virt. eigenvalues --   10.11786  10.20659  10.28305  10.28305  10.38500
 Alpha virt. eigenvalues --   10.38500  10.49263  10.49263  10.50967  10.75283
 Alpha virt. eigenvalues --   10.75283  10.96776  11.28048  11.28048  11.66122
 Alpha virt. eigenvalues --   12.03682  12.03682  12.29268  12.65651  12.65651
 Alpha virt. eigenvalues --   13.18262  13.18262  13.48835  13.64219  13.64219
 Alpha virt. eigenvalues --   13.76942  13.76942  13.85841  13.85841  13.92456
 Alpha virt. eigenvalues --   13.92456  14.25176  14.25176  14.27024  14.35779
 Alpha virt. eigenvalues --   14.35779  14.66708  14.80019  14.80019  15.13126
 Alpha virt. eigenvalues --   15.19334  17.60742  17.60742  17.81004  17.81004
 Alpha virt. eigenvalues --   18.20521  18.20521  18.48171  18.48171  18.62830
 Alpha virt. eigenvalues --   18.62830  18.72720  18.81964  19.20442  19.43922
 Alpha virt. eigenvalues --   19.43922  19.45134  19.45134  19.45156  19.45156
 Alpha virt. eigenvalues --   19.56822  19.56822  19.74704  19.74704  19.90143
 Alpha virt. eigenvalues --   19.90143  19.91635  21.14609  21.14609  21.41420
 Alpha virt. eigenvalues --   21.41420  21.97278  21.97278  22.27545  22.27545
 Alpha virt. eigenvalues --   22.31805  25.02275  25.02275  25.07695  25.07695
 Alpha virt. eigenvalues --   25.16991  25.16991  25.25296  25.25296  25.39897
 Alpha virt. eigenvalues --   25.39897  25.46507  27.51654  27.95944  27.95944
 Alpha virt. eigenvalues --   28.69396  28.69396  29.20472  29.20472  29.47841
 Alpha virt. eigenvalues --   29.61779  29.61779  30.50162  31.30413  31.30413
 Alpha virt. eigenvalues --   31.56229  31.56229  31.73788  31.73788  32.03019
 Alpha virt. eigenvalues --   32.03019  32.06207  32.06207  32.25879  32.28326
 Alpha virt. eigenvalues --   32.28326  33.10748  34.24253  34.24253  35.99516
 Alpha virt. eigenvalues --   41.96351  41.96351  42.63044  42.63044  42.95100
 Alpha virt. eigenvalues --   84.60121 297.19599
          Condensed to atoms (all electrons):
              1          2          3
     1  H    0.796593   0.350664  -0.020602
     2  Ga   0.350664  29.355390   0.294773
     3  O   -0.020602   0.294773   8.598348
          Atomic-Atomic Spin Densities.
              1          2          3
     1  H    0.000000   0.000000   0.000000
     2  Ga   0.000000   0.000000   0.000000
     3  O    0.000000   0.000000   0.000000
 Mulliken charges and spin densities:
              1          2
     1  H   -0.126654   0.000000
     2  Ga   0.999174   0.000000
     3  O   -0.872519   0.000000
 Sum of Mulliken charges =   0.00000 spin densities =   0.000000
 Mulliken charges and spin densities with hydrogens summed into heavy atoms:
              1          2
     2  Ga   0.872519   0.000000
     3  O   -0.872519   0.000000
 Sum of Mulliken charges with hydrogens summed into heavy atoms =   0.00000 spin densities =   0.000000
 Electronic spatial extent (au):  <R**2>=            124.0797
 Charge=              0.0000 electrons
 Dipole moment (field-independent basis, Debye):
    X=              0.0000    Y=              0.0000    Z=              5.7103  Tot=              5.7103
 Quadrupole moment (field-independent basis, Debye-Ang):
   XX=            -19.4874   YY=            -19.4874   ZZ=            -29.0249
   XY=              0.0000   XZ=              0.0000   YZ=              0.0000
 Traceless Quadrupole moment (field-independent basis, Debye-Ang):
   XX=              3.1792   YY=              3.1792   ZZ=             -6.3584
   XY=              0.0000   XZ=              0.0000   YZ=              0.0000
 Octapole moment (field-independent basis, Debye-Ang**2):
  XXX=              0.0000  YYY=              0.0000  ZZZ=             15.4039  XYY=              0.0000
  XXY=              0.0000  XXZ=              4.3244  XZZ=              0.0000  YZZ=              0.0000
  YYZ=              4.3244  XYZ=              0.0000
 Hexadecapole moment (field-independent basis, Debye-Ang**3):
 XXXX=            -19.7701 YYYY=            -19.7701 ZZZZ=           -138.1782 XXXY=              0.0000
 XXXZ=              0.0000 YYYX=              0.0000 YYYZ=              0.0000 ZZZX=              0.0000
 ZZZY=              0.0000 XXYY=             -6.5900 XXZZ=            -25.4996 YYZZ=            -25.4996
 XXYZ=              0.0000 YYXZ=              0.0000 ZZXY=              0.0000
 N-N= 9.187006615519D+01 E-N=-7.456991768706D+03  KE= 2.998008697518D+03
                          Isotropic Fermi Contact Couplings
        Atom                 a.u.       MegaHertz       Gauss      10(-4) cm-1
     1  H(1)               0.00000       0.00000       0.00000       0.00000
     2  Ga(69)             0.00000       0.00000       0.00000       0.00000
     3  O(17)              0.00000       0.00000       0.00000       0.00000
 --------------------------------------------------------
       Center         ----  Spin Dipole Couplings  ----
                      3XX-RR        3YY-RR        3ZZ-RR
 --------------------------------------------------------
     1   Atom        0.000000      0.000000      0.000000
     2   Atom        0.000000      0.000000      0.000000
     3   Atom        0.000000      0.000000      0.000000
 --------------------------------------------------------
                        XY            XZ            YZ
 --------------------------------------------------------
     1   Atom        0.000000      0.000000      0.000000
     2   Atom        0.000000      0.000000      0.000000
     3   Atom        0.000000      0.000000      0.000000
 --------------------------------------------------------


 ---------------------------------------------------------------------------------
              Anisotropic Spin Dipole Couplings in Principal Axis System
 ---------------------------------------------------------------------------------

       Atom             a.u.   MegaHertz   Gauss  10(-4) cm-1        Axes

              Baa     0.0000     0.000     0.000     0.000  1.0000  0.0000  0.0000
     1 H(1)   Bbb     0.0000     0.000     0.000     0.000  0.0000  1.0000  0.0000
              Bcc     0.0000     0.000     0.000     0.000  0.0000  0.0000  1.0000
 
              Baa     0.0000     0.000     0.000     0.000  1.0000  0.0000  0.0000
     2 Ga(69) Bbb     0.0000     0.000     0.000     0.000  0.0000  1.0000  0.0000
              Bcc     0.0000     0.000     0.000     0.000  0.0000  0.0000  1.0000
 
              Baa     0.0000     0.000     0.000     0.000  1.0000  0.0000  0.0000
     3 O(17)  Bbb     0.0000     0.000     0.000     0.000  0.0000  1.0000  0.0000
              Bcc     0.0000     0.000     0.000     0.000  0.0000  0.0000  1.0000
 

 ---------------------------------------------------------------------------------


 Test job not archived.
 1\1\GINC-C28\SP\ROMP2-RW\Gen\Ga1H1O1\GPETERSSON\05-May-2013\0\\# ROMP2
 (RW) Gen GFinput Int=NoBasisTransform Int(Grid=Ultrafine) IOp(3/32=2,5
 /6=10,8/11=1,9/33=1) Maxdisk=128GB CBSextrapolate(Nmin=20,MinPop)\\H-G
 a=O\\0,1\H\Ga,1,1.52078\X,2,1.,1,90.\O,2,1.64567,3,90.,1,180.,0\\Versi
 on=EM64L-GDVRevH.12\State=1-SG\HF=-1998.7151568\MP2=-1999.0587443\E2(C
 BS)=-0.3497216\CBS-Int=-0.3469659\OIii=1.9961181\RMSD=1.393e-11\PG=C*V
  [C*(O1Ga1H1)]\\@


 The most important thing in communication is to hear what isn't being said.
 -- Peter F. Drucker
 Job cpu time:  2 days 13 hours 13 minutes 29.0 seconds.
 File lengths (MBytes):  RWF=  12412 Int=      0 D2E=      0 Chk=     20 Scr=      1
 Normal termination of Gaussian DV at Sun May  5 20:21:26 2013.
