 Entering Gaussian System, Link 0=g09
 AtFile(1): 7ZaP-NR.gbs
 Initial command:
 /share/apps/gaussian/g09root/g09/l1.exe /localscratch/737998/Gau-11585.inp -scrdir=/localscratch/737998/
 Entering Link 1 = /share/apps/gaussian/g09root/g09/l1.exe PID=     11586.
  
 Copyright (c) 1988,1990,1992,1993,1995,1998,2003,2009, Gaussian, Inc.
                  All Rights Reserved.
  
 This is part of the Gaussian(R) 09 program.  It is based on
 the Gaussian(R) 03 system (copyright 2003, Gaussian, Inc.),
 the Gaussian(R) 98 system (copyright 1998, Gaussian, Inc.),
 the Gaussian(R) 94 system (copyright 1995, Gaussian, Inc.),
 the Gaussian 92(TM) system (copyright 1992, Gaussian, Inc.),
 the Gaussian 90(TM) system (copyright 1990, Gaussian, Inc.),
 the Gaussian 88(TM) system (copyright 1988, Gaussian, Inc.),
 the Gaussian 86(TM) system (copyright 1986, Carnegie Mellon
 University), and the Gaussian 82(TM) system (copyright 1983,
 Carnegie Mellon University). Gaussian is a federally registered
 trademark of Gaussian, Inc.
  
 This software contains proprietary and confidential information,
 including trade secrets, belonging to Gaussian, Inc.
  
 This software is provided under written license and may be
 used, copied, transmitted, or stored only in accord with that
 written license.
  
 The following legend is applicable only to US Government
 contracts under FAR:
  
                    RESTRICTED RIGHTS LEGEND
  
 Use, reproduction and disclosure by the US Government is
 subject to restrictions as set forth in subparagraphs (a)
 and (c) of the Commercial Computer Software - Restricted
 Rights clause in FAR 52.227-19.
  
 Gaussian, Inc.
 340 Quinnipiac St., Bldg. 40, Wallingford CT 06492
  
  
 ---------------------------------------------------------------
 Warning -- This program may not be used in any manner that
 competes with the business of Gaussian, Inc. or will provide
 assistance to any competitor of Gaussian, Inc.  The licensee
 of this program is prohibited from giving any competitor of
 Gaussian, Inc. access to this program.  By using this program,
 the user acknowledges that Gaussian, Inc. is engaged in the
 business of creating and licensing software in the field of
 computational chemistry and represents and warrants to the
 licensee that it is not a competitor of Gaussian, Inc. and that
 it will not use this program in any manner prohibited above.
 ---------------------------------------------------------------
  

 Cite this work as:
 Gaussian 09, Revision A.02,
 M. J. Frisch, G. W. Trucks, H. B. Schlegel, G. E. Scuseria, 
 M. A. Robb, J. R. Cheeseman, G. Scalmani, V. Barone, B. Mennucci, 
 G. A. Petersson, H. Nakatsuji, M. Caricato, X. Li, H. P. Hratchian, 
 A. F. Izmaylov, J. Bloino, G. Zheng, J. L. Sonnenberg, M. Hada, 
 M. Ehara, K. Toyota, R. Fukuda, J. Hasegawa, M. Ishida, T. Nakajima, 
 Y. Honda, O. Kitao, H. Nakai, T. Vreven, J. A. Montgomery, Jr., 
 J. E. Peralta, F. Ogliaro, M. Bearpark, J. J. Heyd, E. Brothers, 
 K. N. Kudin, V. N. Staroverov, R. Kobayashi, J. Normand, 
 K. Raghavachari, A. Rendell, J. C. Burant, S. S. Iyengar, J. Tomasi, 
 M. Cossi, N. Rega, J. M. Millam, M. Klene, J. E. Knox, J. B. Cross, 
 V. Bakken, C. Adamo, J. Jaramillo, R. Gomperts, R. E. Stratmann, 
 O. Yazyev, A. J. Austin, R. Cammi, C. Pomelli, J. W. Ochterski, 
 R. L. Martin, K. Morokuma, V. G. Zakrzewski, G. A. Voth, 
 P. Salvador, J. J. Dannenberg, S. Dapprich, A. D. Daniels, 
 O. Farkas, J. B. Foresman, J. V. Ortiz, J. Cioslowski, 
 and D. J. Fox, Gaussian, Inc., Wallingford CT, 2009.
 
 ******************************************
 Gaussian 09:  EM64L-G09RevA.02 11-Jun-2009
                23-Aug-2012 
 ******************************************
 % Mem=12GB
 % Nproc=8
 Will use up to    8 processors via shared memory.
 ----------------------------------------------------------------------
 # ROMP2(RW) Gen GFinput Int=NoBasisTransform Int(Grid=Ultrafine) IOp(3
 /32=2,5/6=10,8/11=1,9/33=1) Maxdisk=128GB CBSextrapolate(Nmin=25,MinPo
 p)
 ----------------------------------------------------------------------
 1/38=1/1;
 2/12=2,17=6,18=5,40=1/2;
 3/5=7,11=2,16=1,24=10,25=1,30=1,32=2,60=-1,75=-5,116=101/1,2,3;
 4//1;
 5/5=2,6=10,38=5/2;
 8/5=-1,10=91,11=1/1;
 9/16=-3,33=1,75=2,81=25,83=4/6,4;
 6/7=2,8=2,9=2,10=2/1;
 99/5=1,9=1/99;
 ------
 H-Ga=O
 ------
 Symbolic Z-matrix:
 Charge =  0 Multiplicity = 1
 H
 Ga                   1     1.52078 
 X                    2     1.       1     90. 
 O                    2     1.64567  3     90.      1     180.     0
 
                          Input orientation:                          
 ---------------------------------------------------------------------
 Center     Atomic      Atomic             Coordinates (Angstroms)
 Number     Number       Type             X           Y           Z
 ---------------------------------------------------------------------
      1          1           0        0.000000    0.000000    0.000000
      2         31           0        0.000000    0.000000    1.520780
      3          8           0        0.000000    0.000000    3.166450
 ---------------------------------------------------------------------
                    Distance matrix (angstroms):
                    1          2          3
     1  H    0.000000
     2  Ga   1.520780   0.000000
     3  O    3.166450   1.645670   0.000000
 Stoichiometry    GaHO
 Framework group  C*V[C*(OGaH)]
 Deg. of freedom     2
 Full point group                 C*V     NOp   4
 Largest Abelian subgroup         C2V     NOp   4
 Largest concise Abelian subgroup C1      NOp   1
                         Standard orientation:                         
 ---------------------------------------------------------------------
 Center     Atomic      Atomic             Coordinates (Angstroms)
 Number     Number       Type             X           Y           Z
 ---------------------------------------------------------------------
      1          1           0        0.000000    0.000000    1.811895
      2         31           0        0.000000    0.000000    0.291115
      3          8           0        0.000000    0.000000   -1.354556
 ---------------------------------------------------------------------
 Rotational constants (GHZ):      0.0000000     13.1277025     13.1277025
 General basis read from cards:  (5D, 7F)
 AO basis set in the form of general basis input (Overlap normalization):
      1 0
 S  12 1.00       0.000000000000
      0.5381780160D+04  0.1012686299D-04
      0.9139887390D+03  0.7169476206D-04
      0.2020220330D+03  0.4090344007D-03
      0.5529293400D+02  0.1775146749D-02
      0.1792053700D+02  0.6303908266D-02
      0.6611010000D+01  0.1916649659D-01
      0.2682085000D+01  0.5121491647D-01
      0.1162104000D+01  0.1213171629D+00
      0.5249190000D+00  0.2420085149D+00
      0.2425210000D+00  0.3592427208D+00
      0.1130260000D+00  0.2831494728D+00
      0.5267100000D-01  0.6030267546D-01
 S   1 1.00       0.000000000000
      0.2553700000D-01  0.1000000000D+01
 S   1 1.00       0.000000000000
      0.9448000000D-02  0.1000000000D+01
 S   1 1.00       0.000000000000
      0.3873663000D+01  0.1000000000D+01
 S   1 1.00       0.000000000000
      0.1681599000D+01  0.1000000000D+01
 S   1 1.00       0.000000000000
      0.7300000000D+00  0.1000000000D+01
 S   1 1.00       0.000000000000
      0.3169010000D+00  0.1000000000D+01
 S   1 1.00       0.000000000000
      0.1375700000D+00  0.1000000000D+01
 S   1 1.00       0.000000000000
      0.5972100000D-01  0.1000000000D+01
 P   1 1.00       0.000000000000
      0.7901081000D+01  0.1000000000D+01
 P   1 1.00       0.000000000000
      0.3743343000D+01  0.1000000000D+01
 P   1 1.00       0.000000000000
      0.1773506000D+01  0.1000000000D+01
 P   1 1.00       0.000000000000
      0.8402450000D+00  0.1000000000D+01
 P   1 1.00       0.000000000000
      0.3980880000D+00  0.1000000000D+01
 P   1 1.00       0.000000000000
      0.1886040000D+00  0.1000000000D+01
 D   1 1.00       0.000000000000
      0.6793936000D+01  0.1000000000D+01
 D   1 1.00       0.000000000000
      0.3278394000D+01  0.1000000000D+01
 D   1 1.00       0.000000000000
      0.1581979000D+01  0.1000000000D+01
 D   1 1.00       0.000000000000
      0.7633790000D+00  0.1000000000D+01
 D   1 1.00       0.000000000000
      0.3683670000D+00  0.1000000000D+01
 F   1 1.00       0.000000000000
      0.5541324000D+01  0.1000000000D+01
 F   1 1.00       0.000000000000
      0.2486224000D+01  0.1000000000D+01
 F   1 1.00       0.000000000000
      0.1115494000D+01  0.1000000000D+01
 F   1 1.00       0.000000000000
      0.5004880000D+00  0.1000000000D+01
 G   1 1.00       0.000000000000
      0.5708716000D+01  0.1000000000D+01
 G   1 1.00       0.000000000000
      0.2571411000D+01  0.1000000000D+01
 G   1 1.00       0.000000000000
      0.1158256000D+01  0.1000000000D+01
 H   1 1.00       0.000000000000
      0.3367163000D+01  0.1000000000D+01
 H   1 1.00       0.000000000000
      0.1196260000D+01  0.1000000000D+01
 I   1 1.00       0.000000000000
      0.3091020597D+01  0.1000000000D+01
 ****
      2 0
 S  19 1.00       0.000000000000
      0.7369011450D+08  0.3398652299D-06
      0.1434742920D+08  0.2011367417D-05
      0.3348383880D+07  0.1130957301D-04
      0.9124584310D+06  0.5123735321D-04
      0.2836389560D+06  0.1991605688D-03
      0.9851556540D+05  0.6773538271D-03
      0.3754130700D+05  0.2064829886D-02
      0.1544692820D+05  0.5740627196D-02
      0.6768058940D+04  0.1473265984D-01
      0.3119967080D+04  0.3504746214D-01
      0.1497624980D+04  0.7662036226D-01
      0.7419428600D+03  0.1498807848D+00
      0.3764941930D+03  0.2474840225D+00
      0.1944226120D+03  0.3069954700D+00
      0.1016027390D+03  0.2299418859D+00
      0.5346974300D+02  0.7327690628D-01
      0.2821293200D+02  0.5939524312D-02
      0.1486462300D+02  0.9408089699D-03
      0.7789383000D+01  0.5390931690D-04
 S  16 1.00       0.000000000000
      0.3754130700D+05 -0.1413315410D-05
      0.1544692820D+05 -0.1112545724D-04
      0.6768058940D+04 -0.6518389306D-04
      0.3119967080D+04 -0.3624530488D-03
      0.1497624980D+04 -0.1633270226D-02
      0.7419428600D+03 -0.6729113205D-02
      0.3764941930D+03 -0.2269331977D-01
      0.1944226120D+03 -0.6006394409D-01
      0.1016027390D+03 -0.8834593784D-01
      0.5346974300D+02  0.1561467785D-01
      0.2821293200D+02  0.3399208064D+00
      0.1486462300D+02  0.5122009021D+00
      0.7789383000D+01  0.2302523144D+00
      0.4043324000D+01  0.2407581200D-01
      0.2070062000D+01  0.4228402367D-03
      0.1040293000D+01 -0.9862724372D-03
 P  16 1.00       0.000000000000
      0.9425215910D+05  0.3841050629D-05
      0.2560114340D+05  0.2942504327D-04
      0.8250355540D+04  0.1874543863D-03
      0.3061108590D+04  0.9190166738D-03
      0.1273111470D+04  0.3667933141D-02
      0.5796597140D+03  0.1219761921D-01
      0.2830035420D+03  0.3447704185D-01
      0.1455052420D+03  0.8338733117D-01
      0.7756386400D+02  0.1676299494D+00
      0.4229972300D+02  0.2686581977D+00
      0.2333461200D+02  0.3159418725D+00
      0.1289816500D+02  0.2209379094D+00
      0.7087574000D+01  0.7138686121D-01
      0.3846748000D+01  0.8464777027D-02
      0.2051226000D+01  0.5966694539D-03
      0.1069977000D+01 -0.5133823437D-05
 S  12 1.00       0.000000000000
      0.3764941930D+03  0.1485477676D-03
      0.1944226120D+03  0.8156771649D-03
      0.1016027390D+03  0.3011245023D-02
      0.5346974300D+02  0.9342797537D-03
      0.2821293200D+02 -0.4273808038D-01
      0.1486462300D+02 -0.1840516791D+00
      0.7789383000D+01 -0.1084100230D+00
      0.4043324000D+01  0.3310335649D+00
      0.2070062000D+01  0.5775376285D+00
      0.1040293000D+01  0.2893210560D+00
      0.5103690000D+00  0.2457612212D-01
      0.2428970000D+00  0.1321313402D-02
 P  15 1.00       0.000000000000
      0.1273111470D+04 -0.6571916991D-05
      0.5796597140D+03 -0.5081148643D-04
      0.2830035420D+03 -0.3310930151D-03
      0.1455052420D+03 -0.1555798310D-02
      0.7756386400D+02 -0.5443652598D-02
      0.4229972300D+02 -0.1333429724D-01
      0.2333461200D+02 -0.2201409373D-01
      0.1289816500D+02  0.1781053564D-01
      0.7087574000D+01  0.1702204860D+00
      0.3846748000D+01  0.3410060528D+00
      0.2051226000D+01  0.3648191556D+00
      0.1069977000D+01  0.1982117296D+00
      0.5440280000D+00  0.3843317070D-01
      0.2688030000D+00  0.2562935316D-02
      0.1287170000D+00  0.3623204614D-03
 D  16 1.00       0.000000000000
      0.3460814690D+04  0.5851294600D-05
      0.1082534080D+04  0.6003647436D-04
      0.4154353850D+03  0.4041708790D-03
      0.1841120670D+03  0.1935943437D-02
      0.8995822000D+02  0.7246417236D-02
      0.4682493700D+02  0.2142316126D-01
      0.2534045100D+02  0.5225022797D-01
      0.1402460500D+02  0.1087717495D+00
      0.7853259000D+01  0.1810230846D+00
      0.4418060000D+01  0.2356453347D+00
      0.2483481000D+01  0.2510696383D+00
      0.1386562000D+01  0.2242937491D+00
      0.7623140000D+00  0.1596632821D+00
      0.4072570000D+00  0.7950840994D-01
      0.2072110000D+00  0.2047231171D-01
      0.9753800000D-01  0.1665391293D-02
 S  11 1.00       0.000000000000
      0.5346974300D+02 -0.3497481714D-04
      0.2821293200D+02  0.4225810351D-03
      0.1486462300D+02  0.2985531452D-02
      0.7789383000D+01  0.1748864762D-02
      0.4043324000D+01 -0.1390575022D-01
      0.2070062000D+01 -0.6102580101D-01
      0.1040293000D+01 -0.1488437419D+00
      0.5103690000D+00  0.2839414382D-02
      0.2428970000D+00  0.3865149305D+00
      0.1113180000D+00  0.5561054320D+00
      0.4870400000D-01  0.1965875103D+00
 S   1 1.00       0.000000000000
      0.5125000000D-01  0.1000000000D+01
 S   1 1.00       0.000000000000
      0.1774900000D-01  0.1000000000D+01
 P  10 1.00       0.000000000000
      0.1289816500D+02 -0.3062720921D-03
      0.7087574000D+01 -0.2085122072D-02
      0.3846748000D+01 -0.4496809748D-02
      0.2051226000D+01 -0.1050800390D-01
      0.1069977000D+01 -0.1369286118D-01
      0.5440280000D+00  0.4975412170D-01
      0.2688030000D+00  0.2088157852D+00
      0.1287170000D+00  0.3839233801D+00
      0.5957900000D-01  0.3860263116D+00
      0.2658500000D-01  0.1234014540D+00
 P   1 1.00       0.000000000000
      0.7640000000D-02  0.1000000000D+01
 P   1 1.00       0.000000000000
      0.2208300000D-01  0.1000000000D+01
 S   1 1.00       0.000000000000
      0.2860788000D+01  0.1000000000D+01
 S   1 1.00       0.000000000000
      0.1574103000D+01  0.1000000000D+01
 S   1 1.00       0.000000000000
      0.8661250000D+00  0.1000000000D+01
 S   1 1.00       0.000000000000
      0.4765720000D+00  0.1000000000D+01
 S   1 1.00       0.000000000000
      0.2622260000D+00  0.1000000000D+01
 S   1 1.00       0.000000000000
      0.1442860000D+00  0.1000000000D+01
 P   1 1.00       0.000000000000
      0.1466257000D+01  0.1000000000D+01
 P   1 1.00       0.000000000000
      0.8880830000D+00  0.1000000000D+01
 P   1 1.00       0.000000000000
      0.5378940000D+00  0.1000000000D+01
 P   1 1.00       0.000000000000
      0.3257920000D+00  0.1000000000D+01
 P   1 1.00       0.000000000000
      0.1973260000D+00  0.1000000000D+01
 P   1 1.00       0.000000000000
      0.1195160000D+00  0.1000000000D+01
 D   1 1.00       0.000000000000
      0.1557708000D+01  0.1000000000D+01
 D   1 1.00       0.000000000000
      0.8449680000D+00  0.1000000000D+01
 D   1 1.00       0.000000000000
      0.4583470000D+00  0.1000000000D+01
 D   1 1.00       0.000000000000
      0.2486270000D+00  0.1000000000D+01
 D   1 1.00       0.000000000000
      0.1348660000D+00  0.1000000000D+01
 D   1 1.00       0.000000000000
      0.7315700000D-01  0.1000000000D+01
 F   1 1.00       0.000000000000
      0.1533439000D+01  0.1000000000D+01
 F   1 1.00       0.000000000000
      0.8375150000D+00  0.1000000000D+01
 F   1 1.00       0.000000000000
      0.4574240000D+00  0.1000000000D+01
 F   1 1.00       0.000000000000
      0.2498300000D+00  0.1000000000D+01
 F   1 1.00       0.000000000000
      0.1364490000D+00  0.1000000000D+01
 G   1 1.00       0.000000000000
      0.3455892000D+01  0.1000000000D+01
 G   1 1.00       0.000000000000
      0.1431678000D+01  0.1000000000D+01
 G   1 1.00       0.000000000000
      0.5931030000D+00  0.1000000000D+01
 G   1 1.00       0.000000000000
      0.2457060000D+00  0.1000000000D+01
 H   1 1.00       0.000000000000
      0.9338210000D+00  0.1000000000D+01
 H   1 1.00       0.000000000000
      0.5332140000D+00  0.1000000000D+01
 H   1 1.00       0.000000000000
      0.3044660000D+00  0.1000000000D+01
 I   1 1.00       0.000000000000
      0.7616390000D+00  0.1000000000D+01
 I   1 1.00       0.000000000000
      0.4074190000D+00  0.1000000000D+01
 J   1 1.00       0.000000000000
      0.6388588486D+00  0.1000000000D+01
 ****
      3 0
 S  16 1.00       0.000000000000
      0.1411246410D+07  0.1627429822D-05
      0.2499102240D+06  0.1092621996D-04
      0.5603410580D+05  0.6238741867D-04
      0.1521153640D+05  0.2783303491D-03
      0.4812287750D+04  0.1040541872D-02
      0.1717755460D+04  0.3380392793D-02
      0.6733958240D+03  0.9828484765D-02
      0.2835101840D+03  0.2605310129D-01
      0.1258620070D+03  0.6280818057D-01
      0.5804472200D+02  0.1348202075D+00
      0.2747198500D+02  0.2435563460D+00
      0.1321062900D+02  0.3323287378D+00
      0.6399806000D+01  0.2607930483D+00
      0.3099614000D+01  0.7430834326D-01
      0.1489856000D+01  0.4189538074D-02
      0.7052010000D+00  0.8706455725D-03
 S  11 1.00       0.000000000000
      0.2835101840D+03 -0.1122588094D-03
      0.1258620070D+03 -0.5559335617D-03
      0.5804472200D+02 -0.2851687904D-02
      0.2747198500D+02 -0.1133494995D-01
      0.1321062900D+02 -0.3657977704D-01
      0.6399806000D+01 -0.7288994197D-01
      0.3099614000D+01 -0.1062032356D-01
      0.1489856000D+01  0.2196705572D+00
      0.7052010000D+00  0.4294832072D+00
      0.3258480000D+00  0.3775832849D+00
      0.1454600000D+00  0.9640261255D-01
 S   1 1.00       0.000000000000
      0.5814297870D-01  0.1000000000D+01
 P  13 1.00       0.000000000000
      0.2085279200D+04  0.1447911740D-04
      0.5101470830D+03  0.1283233588D-03
      0.1616811510D+03  0.7792790007D-03
      0.6114945200D+02  0.3400506049D-02
      0.2597660200D+02  0.1157685214D-01
      0.1187542600D+02  0.3269740339D-01
      0.5677133000D+01  0.8011404242D-01
      0.2786475000D+01  0.1605265057D+00
      0.1387844000D+01  0.2460495026D+00
      0.6952810000D+00  0.2898982926D+00
      0.3470020000D+00  0.2606799382D+00
      0.1700990000D+00  0.1479363112D+00
      0.8008000000D-01  0.2980261453D-01
 P   1 1.00       0.000000000000
      0.4261436033D-01  0.1000000000D+01
 S   1 1.00       0.000000000000
      0.4249866000D+01  0.1000000000D+01
 S   1 1.00       0.000000000000
      0.2167470000D+01  0.1000000000D+01
 S   1 1.00       0.000000000000
      0.1105429000D+01  0.1000000000D+01
 S   1 1.00       0.000000000000
      0.5637790000D+00  0.1000000000D+01
 S   1 1.00       0.000000000000
      0.2875320000D+00  0.1000000000D+01
 S   1 1.00       0.000000000000
      0.1466440000D+00  0.1000000000D+01
 P   1 1.00       0.000000000000
      0.5659724000D+01  0.1000000000D+01
 P   1 1.00       0.000000000000
      0.2575878000D+01  0.1000000000D+01
 P   1 1.00       0.000000000000
      0.1172344000D+01  0.1000000000D+01
 P   1 1.00       0.000000000000
      0.5335620000D+00  0.1000000000D+01
 P   1 1.00       0.000000000000
      0.2428370000D+00  0.1000000000D+01
 P   1 1.00       0.000000000000
      0.1105210000D+00  0.1000000000D+01
 D   1 1.00       0.000000000000
      0.9464211000D+01  0.1000000000D+01
 D   1 1.00       0.000000000000
      0.4752286000D+01  0.1000000000D+01
 D   1 1.00       0.000000000000
      0.2386276000D+01  0.1000000000D+01
 D   1 1.00       0.000000000000
      0.1198226000D+01  0.1000000000D+01
 D   1 1.00       0.000000000000
      0.6016680000D+00  0.1000000000D+01
 D   1 1.00       0.000000000000
      0.3021170000D+00  0.1000000000D+01
 F   1 1.00       0.000000000000
      0.7001836000D+01  0.1000000000D+01
 F   1 1.00       0.000000000000
      0.3552509000D+01  0.1000000000D+01
 F   1 1.00       0.000000000000
      0.1802430000D+01  0.1000000000D+01
 F   1 1.00       0.000000000000
      0.9144960000D+00  0.1000000000D+01
 F   1 1.00       0.000000000000
      0.4639860000D+00  0.1000000000D+01
 G   1 1.00       0.000000000000
      0.6472481000D+01  0.1000000000D+01
 G   1 1.00       0.000000000000
      0.3119071000D+01  0.1000000000D+01
 G   1 1.00       0.000000000000
      0.1503072000D+01  0.1000000000D+01
 G   1 1.00       0.000000000000
      0.7243260000D+00  0.1000000000D+01
 H   1 1.00       0.000000000000
      0.5355083000D+01  0.1000000000D+01
 H   1 1.00       0.000000000000
      0.2414696000D+01  0.1000000000D+01
 H   1 1.00       0.000000000000
      0.1088827000D+01  0.1000000000D+01
 I   1 1.00       0.000000000000
      0.4322113000D+01  0.1000000000D+01
 I   1 1.00       0.000000000000
      0.1716263000D+01  0.1000000000D+01
 J   1 1.00       0.000000000000
      0.3060973723D+01  0.1000000000D+01
 ****

 There are   204 symmetry adapted basis functions of A1  symmetry.
 There are    91 symmetry adapted basis functions of A2  symmetry.
 There are   140 symmetry adapted basis functions of B1  symmetry.
 There are   140 symmetry adapted basis functions of B2  symmetry.
 Integral buffers will be    131072 words long.
 Raffenetti 2 integral format.
 Two-electron integral symmetry is turned on.
   575 basis functions,  1228 primitive gaussians,   898 cartesian basis functions
    20 alpha electrons       20 beta electrons
       nuclear repulsion energy        91.8700661552 Hartrees.
 NAtoms=    3 NActive=    3 NUniq=    3 SFac= 7.50D-01 NAtFMM=   80 NAOKFM=F Big=F
 One-electron integrals computed using PRISM.
 NBasis=   575 RedAO= F  NBF=   204    91   140   140
 NBsUse=   575 1.00D-04 NBFU=   204    91   140   140
 Harris functional with IExCor=  205 diagonalized for initial guess.
 ExpMin= 7.64D-03 ExpMax= 7.37D+07 ExpMxC= 6.77D+03 IAcc=3 IRadAn=         5 AccDes= 0.00D+00
 HarFok:  IExCor=  205 AccDes= 0.00D+00 IRadAn=         5 IDoV= 1
 ScaDFX=  1.000000  1.000000  1.000000  1.000000
 FoFCou: FMM=F IPFlag=           0 FMFlag=      100000 FMFlg1=           0
         NFxFlg=           0 DoJE=T BraDBF=F KetDBF=T FulRan=T
         Omega=  0.000000  0.000000  1.000000  0.000000  0.000000 ICntrl=     500 IOpCl=  0
         NMat0=    1 NMatS0=    1 NMatT0=    0 NMatD0=    1 NMtDS0=    0 NMtDT0=    0
         I1Cent=           4 NGrid=           0.
 Petite list used in FoFCou.
 Initial guess orbital symmetries:
       Occupied  (SG) (SG) (SG) (PI) (PI) (SG) (SG) (SG) (PI) (PI)
                 (SG) (SG) (PI) (PI) (DLTA) (DLTA) (SG) (SG) (PI)
                 (PI)
       Virtual   (SG) (PI) (PI) (SG) (SG) (PI) (PI) (SG) (SG) (SG)
                 (PI) (PI) (PI) (PI) (DLTA) (DLTA) (SG) (SG) (PI)
                 (PI) (SG) (SG) (PI) (PI) (SG) (SG) (PI) (PI) (DLTA)
                 (DLTA) (SG) (PHI) (PHI) (DLTA) (DLTA) (PI) (PI)
                 (PI) (PI) (SG) (SG) (SG) (PI) (PI) (SG) (PI) (PI)
                 (SG) (SG) (DLTA) (DLTA) (SG) (PI) (PI) (PI) (PI)
                 (DLTA) (DLTA) (DLTA) (DLTA) (PI) (PI) (SG) (PHI)
                 (PHI) (SG) (PHI) (PHI) (?A) (?A) (DLTA) (DLTA)
                 (SG) (SG) (PI) (PI) (SG) (PI) (PI) (SG) (PI) (PI)
                 (DLTA) (DLTA) (PHI) (PHI) (SG) (?A) (?A) (?B)
                 (?B) (PI) (PI) (SG) (SG) (DLTA) (DLTA) (PI) (PI)
                 (PHI) (PHI) (SG) (DLTA) (DLTA) (PI) (PI) (PI)
                 (PI) (SG) (DLTA) (DLTA) (PHI) (PHI) (DLTA) (DLTA)
                 (SG) (PI) (PI) (DLTA) (DLTA) (SG) (PHI) (PHI)
                 (SG) (PI) (PI) (SG) (?A) (?A) (?B) (?B) (SG) (PI)
                 (PI) (SG) (SG) (PI) (PI) (DLTA) (DLTA) (SG) (PHI)
                 (PHI) (PI) (PI) (?A) (?A) (SG) (DLTA) (DLTA) (PHI)
                 (PHI) (SG) (PI) (PI) (DLTA) (DLTA) (SG) (PHI)
                 (PHI) (PI) (PI) (SG) (?A) (?A) (PI) (PI) (?A)
                 (?A) (?B) (?B) (DLTA) (DLTA) (SG) (PI) (PI) (SG)
                 (DLTA) (DLTA) (DLTA) (DLTA) (PI) (PI) (PHI) (PHI)
                 (PHI) (PHI) (SG) (DLTA) (DLTA) (PHI) (PHI) (PI)
                 (PI) (SG) (PI) (PI) (SG) (DLTA) (DLTA) (SG) (PI)
                 (PI) (DLTA) (DLTA) (SG) (PI) (PI) (?B) (?B) (?A)
                 (?A) (SG) (SG) (SG) (?C) (?C) (DLTA) (DLTA) (PI)
                 (PI) (SG) (SG) (PHI) (PHI) (PI) (PI) (DLTA) (DLTA)
                 (SG) (PHI) (PHI) (?A) (?A) (?A) (?A) (?B) (?B)
                 (SG) (SG) (PI) (PI) (SG) (PHI) (PHI) (?B) (?B)
                 (PI) (PI) (SG) (DLTA) (DLTA) (PI) (PI) (SG) (PHI)
                 (PHI) (?A) (?A) (SG) (DLTA) (DLTA) (PI) (PI) (DLTA)
                 (DLTA) (?B) (?B) (?A) (?A) (PI) (PI) (PHI) (PHI)
                 (?A) (?A) (SG) (PHI) (PHI) (?B) (?B) (DLTA) (DLTA)
                 (DLTA) (DLTA) (SG) (PHI) (PHI) (PI) (PI) (PI)
                 (PI) (DLTA) (DLTA) (PI) (PI) (SG) (?A) (?A) (PHI)
                 (PHI) (SG) (SG) (?A) (?A) (PI) (PI) (DLTA) (DLTA)
                 (SG) (PHI) (PHI) (SG) (PI) (PI) (PI) (PI) (DLTA)
                 (DLTA) (SG) (PHI) (PHI) (DLTA) (DLTA) (PHI) (PHI)
                 (DLTA) (DLTA) (SG) (PI) (PI) (SG) (DLTA) (DLTA)
                 (PI) (PI) (SG) (DLTA) (DLTA) (PI) (PI) (SG) (SG)
                 (PI) (PI) (DLTA) (DLTA) (PI) (PI) (SG) (SG) (SG)
                 (?B) (?B) (SG) (?A) (?A) (PI) (PI) (PHI) (PHI)
                 (SG) (PI) (PI) (DLTA) (DLTA) (SG) (PI) (PI) (PHI)
                 (PHI) (SG) (DLTA) (DLTA) (PI) (PI) (?A) (?A) (SG)
                 (SG) (?B) (?B) (?A) (?A) (PHI) (PHI) (SG) (DLTA)
                 (DLTA) (PI) (PI) (PHI) (PHI) (PI) (PI) (DLTA)
                 (DLTA) (?A) (?A) (PHI) (PHI) (SG) (SG) (PI) (PI)
                 (DLTA) (DLTA) (DLTA) (DLTA) (PI) (PI) (PI) (PI)
                 (SG) (?A) (?A) (PI) (PI) (PHI) (PHI) (SG) (PHI)
                 (PHI) (DLTA) (DLTA) (SG) (PI) (PI) (SG) (SG) (DLTA)
                 (DLTA) (DLTA) (DLTA) (SG) (PI) (PI) (PI) (PI)
                 (?B) (?B) (?A) (?A) (SG) (SG) (PHI) (PHI) (DLTA)
                 (DLTA) (SG) (PI) (PI) (?B) (?B) (?A) (?A) (SG)
                 (PHI) (PHI) (DLTA) (DLTA) (SG) (PI) (PI) (?B)
                 (?B) (SG) (SG) (?A) (?A) (?C) (?C) (PHI) (PHI)
                 (DLTA) (DLTA) (PI) (PI) (SG) (SG) (SG) (SG) (?B)
                 (?B) (PHI) (PHI) (?A) (?A) (PHI) (PHI) (DLTA)
                 (DLTA) (PI) (PI) (SG) (DLTA) (DLTA) (SG) (PI)
                 (PI) (DLTA) (DLTA) (?B) (?B) (PI) (PI) (?A) (?A)
                 (SG) (?A) (?A) (PHI) (PHI) (PI) (PI) (PI) (PI)
                 (DLTA) (DLTA) (SG) (PHI) (PHI) (SG) (DLTA) (DLTA)
                 (PI) (PI) (SG) (PHI) (PHI) (DLTA) (DLTA) (?A)
                 (?A) (SG) (PI) (PI) (PHI) (PHI) (DLTA) (DLTA)
                 (SG) (PI) (PI) (DLTA) (DLTA) (PI) (PI) (SG) (SG)
                 (PI) (PI) (SG) (SG) (SG)
 The electronic state of the initial guess is 1-SG.
 Requested convergence on RMS density matrix=1.00D-10 within 128 cycles.
 Requested convergence on MAX density matrix=1.00D-08.
 Requested convergence on             energy=1.00D-08.
 No special actions if energy rises.
 Initial convergence to 1.0D-05 achieved.  Increase integral accuracy.
 SCF Done:  E(ROHF) =  -1998.71534264     A.U. after   17 cycles
             Convg  =    0.2195D-10             -V/T =  2.0000
 <Sx>= 0.0000 <Sy>= 0.0000 <Sz>= 0.0000 <S**2>= 0.0000 S= 0.0000
 <L.S>= 0.000000000000E+00
 Annihilation of the first spin contaminant:
 S**2 before annihilation     0.0000,   after     0.0000
 DiagDN has N=   575 LTot=  1757 but NE2=     3 cannot use DSYEVD.
 GenMOA:  NOpAll=  4 NOp2=4 NOpUse=  4 JSym2X=1
 <Sx>= 0.0000 <Sy>= 0.0000 <Sz>= 0.0000 <S**2>= 0.0000 S= 0.0000
 Range of M.O.s used for correlation:    16   575
 NBasis=   575 NAE=    20 NBE=    20 NFC=    15 NFV=     0
 NROrb=    560 NOA=     5 NOB=     5 NVA=   555 NVB=   555

 **** Warning!!: The largest alpha MO coefficient is  0.28117578D+03


 **** Warning!!: The largest beta MO coefficient is  0.28117578D+03

 Singles contribution to E2=   -0.1730817992D-14
 Disk-based method using OVN memory for  5 occupieds at a time.
 Permanent disk used for amplitudes and <ij||ab> integrals=    21550650 words.
 Estimated scratch disk usage=  2692384178 words.
 IUseRI=2 ITolRI= 6 IR12RI=0
 Actual    scratch disk usage=  2690949554 words.
 GetIJB would need an additional  1703209040 words of memory to use all   8 processors.
 JobTyp=2 Pass  1:  I=   1 to   5 NPSUse=  1 ParTrn=F ParDer=F DoDerP=F.
 (rs|ai) integrals will be sorted in core.
 T,EIJ(AA): I=   1 J=   2      0.1497261E-03     -0.6755313E-03
 T,EIJ(AA): I=   1 J=   3      0.5797479E-03     -0.2495147E-02
 T,EIJ(AA): I=   1 J=   4      0.5626866E-03     -0.2415992E-02
 T,EIJ(AA): I=   1 J=   5      0.5626866E-03     -0.2415992E-02
 T,EIJ(AA): I=   2 J=   3      0.2789724E-03     -0.5926509E-03
 T,EIJ(AA): I=   2 J=   4      0.4250276E-03     -0.1087491E-02
 T,EIJ(AA): I=   2 J=   5      0.4250276E-03     -0.1087491E-02
 T,EIJ(AA): I=   3 J=   4      0.4036802E-02     -0.9924507E-02
 T,EIJ(AA): I=   3 J=   5      0.4036802E-02     -0.9924507E-02
 T,EIJ(AA): I=   4 J=   5      0.4652691E-02     -0.1114474E-01
 T,EIJ(AB): I=   1 J=   1      0.1206010E-02     -0.7655063E-02
 T,EIJ(AB): I=   1 J=   2      0.2742793E-03     -0.1393254E-02
 T,EIJ(AB): I=   1 J=   3      0.1364648E-02     -0.7112805E-02
 T,EIJ(AB): I=   1 J=   4      0.1604364E-02     -0.8156054E-02
 T,EIJ(AB): I=   1 J=   5      0.1604364E-02     -0.8156054E-02
 T,EIJ(AB): I=   2 J=   1      0.2742793E-03     -0.1393254E-02
 T,EIJ(AB): I=   2 J=   2      0.8983891E-02     -0.2166807E-01
 T,EIJ(AB): I=   2 J=   3      0.2173917E-02     -0.6125727E-02
 T,EIJ(AB): I=   2 J=   4      0.7637584E-03     -0.1857334E-02
 T,EIJ(AB): I=   2 J=   5      0.7637584E-03     -0.1857334E-02
 T,EIJ(AB): I=   3 J=   1      0.1364648E-02     -0.7112805E-02
 T,EIJ(AB): I=   3 J=   2      0.2173917E-02     -0.6125727E-02
 T,EIJ(AB): I=   3 J=   3      0.8483520E-02     -0.2341723E-01
 T,EIJ(AB): I=   3 J=   4      0.5324892E-02     -0.1372055E-01
 T,EIJ(AB): I=   3 J=   5      0.5324892E-02     -0.1372055E-01
 T,EIJ(AB): I=   4 J=   1      0.1604364E-02     -0.8156054E-02
 T,EIJ(AB): I=   4 J=   2      0.7637584E-03     -0.1857334E-02
 T,EIJ(AB): I=   4 J=   3      0.5324892E-02     -0.1372055E-01
 T,EIJ(AB): I=   4 J=   4      0.1007904E-01     -0.2745759E-01
 T,EIJ(AB): I=   4 J=   5      0.6026882E-02     -0.1513998E-01
 T,EIJ(AB): I=   5 J=   1      0.1604364E-02     -0.8156054E-02
 T,EIJ(AB): I=   5 J=   2      0.7637584E-03     -0.1857334E-02
 T,EIJ(AB): I=   5 J=   3      0.5324892E-02     -0.1372055E-01
 T,EIJ(AB): I=   5 J=   4      0.6026882E-02     -0.1513998E-01
 T,EIJ(AB): I=   5 J=   5      0.1007904E-01     -0.2745759E-01
 Actual    scratch disk usage=  2690949554 words.
 GetIJB would need an additional  1703209040 words of memory to use all   8 processors.
 JobTyp=3 Pass  1:  I=   1 to   5 NPSUse=  1 ParTrn=F ParDer=F DoDerP=F.
 (rs|ai) integrals will be sorted in core.
 T,EIJ(BB): I=   1 J=   2      0.1497261E-03     -0.6755313E-03
 T,EIJ(BB): I=   1 J=   3      0.5797479E-03     -0.2495147E-02
 T,EIJ(BB): I=   1 J=   4      0.5626866E-03     -0.2415992E-02
 T,EIJ(BB): I=   1 J=   5      0.5626866E-03     -0.2415992E-02
 T,EIJ(BB): I=   2 J=   3      0.2789724E-03     -0.5926509E-03
 T,EIJ(BB): I=   2 J=   4      0.4250276E-03     -0.1087491E-02
 T,EIJ(BB): I=   2 J=   5      0.4250276E-03     -0.1087491E-02
 T,EIJ(BB): I=   3 J=   4      0.4036802E-02     -0.9924507E-02
 T,EIJ(BB): I=   3 J=   5      0.4036802E-02     -0.9924507E-02
 T,EIJ(BB): I=   4 J=   5      0.4652691E-02     -0.1114474E-01
 Spin components of T(2) and E(2):
     alpha-alpha T2 =       0.1571016880D-01 E2=     -0.4176404629D-01
     alpha-beta  T2 =       0.8928302195D-01 E2=     -0.2621347952D+00
     beta-beta   T2 =       0.1571016880D-01 E2=     -0.4176404629D-01
 ANorm=    0.1058632778D+01
 E2 =    -0.3456628878D+00 EUMP2 =    -0.19990610055261D+04

 Complete Basis Set (CBS) Extrapolation:
 M. R. Nyden and G. A. Petersson, JCP 75, 1843 (1981)
 G. A. Petersson and M. A. Al-Laham, JCP 94, 6081 (1991)
 G. A. Petersson, T. Tensfeldt, and J. A. Montgomery, JCP 94, 6091 (1991)
 J. A. Montgomery, J. W. Ochterski, and G. A. Petersson, JCP 101, 5900 (1994)
 
 Minimum Number of PNO for Extrapolation =  25
 Absolute Overlaps: IRadAn =         5
 LocTrn: ILocal=3 LocCor=F DoCore=F.
 Entering OneElI...
 Overlap between basis sets.
 Requested accuracy = 0.1000D-12
 PrsmSu:  NPrtUS=   1 ThrOK=F IAlg=1
 PRISM was handed  1609128549 working-precision words and    79 shell-pairs
 IPart=  0 NShTot=          79 NBatch=          16 AvBLen=         4.9
 CnvPC2: ToCart=F DoDens=F IPureD=0 IPureF=0.
 Transformed matrix in CnvPC2: 
                 1             2             3             4             5 
      1   0.100000D+01  0.182688D-02  0.113835D-01  0.000000D+00  0.000000D+00
      2   0.182688D-02  0.100000D+01  0.399707D+00  0.000000D+00  0.000000D+00
      3   0.113835D-01  0.399707D+00  0.100000D+01  0.000000D+00  0.000000D+00
      4   0.000000D+00  0.000000D+00  0.000000D+00  0.100000D+01  0.000000D+00
      5   0.000000D+00  0.000000D+00  0.000000D+00  0.000000D+00  0.100000D+01
      6   0.235913D-02  0.000000D+00  0.000000D+00  0.000000D+00  0.000000D+00
      7   0.705334D-01  0.262553D-01  0.313572D+00  0.000000D+00  0.000000D+00
      8   0.000000D+00  0.000000D+00  0.000000D+00  0.326517D+00  0.000000D+00
      9   0.000000D+00  0.000000D+00  0.000000D+00  0.000000D+00  0.326517D+00
     10   0.447740D-01  0.000000D+00  0.000000D+00  0.000000D+00  0.000000D+00
     11   0.201859D-01  0.000000D+00  0.000000D+00  0.000000D+00  0.000000D+00
     12   0.000000D+00  0.000000D+00  0.000000D+00  0.000000D+00  0.000000D+00
     13   0.000000D+00  0.000000D+00  0.000000D+00  0.000000D+00  0.000000D+00
     14   0.000000D+00  0.000000D+00  0.000000D+00  0.000000D+00  0.000000D+00
     15   0.000000D+00  0.000000D+00  0.000000D+00  0.000000D+00  0.000000D+00
     16   0.415741D+00 -0.353836D-03  0.313775D-02  0.000000D+00  0.000000D+00
     17   0.000000D+00  0.000000D+00  0.000000D+00  0.102782D-01  0.000000D+00
     18   0.000000D+00  0.000000D+00  0.000000D+00  0.000000D+00  0.102782D-01
     19   0.520894D+00  0.000000D+00  0.000000D+00  0.000000D+00  0.000000D+00
     20   0.475092D+00  0.000000D+00  0.000000D+00  0.000000D+00  0.000000D+00
     21   0.000000D+00  0.000000D+00  0.000000D+00  0.000000D+00  0.000000D+00
     22   0.000000D+00  0.000000D+00  0.000000D+00  0.000000D+00  0.000000D+00
     23   0.000000D+00  0.000000D+00  0.000000D+00  0.000000D+00  0.000000D+00
     24   0.000000D+00  0.000000D+00  0.000000D+00  0.000000D+00  0.000000D+00
     25   0.140167D-03  0.000000D+00  0.000000D+00  0.000000D+00  0.000000D+00
     26   0.472897D-02  0.504123D-03  0.327271D-02  0.000000D+00  0.000000D+00
     27   0.000000D+00  0.000000D+00  0.000000D+00  0.395318D-03  0.000000D+00
     28   0.000000D+00  0.000000D+00  0.000000D+00  0.000000D+00  0.395318D-03
     29   0.677001D-02  0.108240D-02  0.687796D-02  0.000000D+00  0.000000D+00
                 6             7             8             9            10 
      1   0.235913D-02  0.705334D-01  0.000000D+00  0.000000D+00  0.447740D-01
      2   0.000000D+00  0.262553D-01  0.000000D+00  0.000000D+00  0.000000D+00
      3   0.000000D+00  0.313572D+00  0.000000D+00  0.000000D+00  0.000000D+00
      4   0.000000D+00  0.000000D+00  0.326517D+00  0.000000D+00  0.000000D+00
      5   0.000000D+00  0.000000D+00  0.000000D+00  0.326517D+00  0.000000D+00
      6   0.100000D+01  0.000000D+00  0.000000D+00  0.000000D+00  0.326517D+00
      7   0.000000D+00  0.100000D+01  0.000000D+00  0.000000D+00  0.000000D+00
      8   0.000000D+00  0.000000D+00  0.100000D+01  0.000000D+00  0.000000D+00
      9   0.000000D+00  0.000000D+00  0.000000D+00  0.100000D+01  0.000000D+00
     10   0.326517D+00  0.000000D+00  0.000000D+00  0.000000D+00  0.100000D+01
     11   0.000000D+00  0.000000D+00  0.000000D+00  0.000000D+00  0.000000D+00
     12   0.000000D+00  0.000000D+00  0.000000D+00  0.000000D+00  0.000000D+00
     13   0.000000D+00  0.000000D+00  0.000000D+00  0.000000D+00  0.000000D+00
     14   0.000000D+00  0.000000D+00  0.000000D+00  0.000000D+00  0.000000D+00
     15   0.000000D+00  0.000000D+00  0.000000D+00  0.000000D+00  0.000000D+00
     16   0.000000D+00  0.172993D+00  0.000000D+00  0.000000D+00  0.000000D+00
     17   0.000000D+00  0.000000D+00  0.189903D+00  0.000000D+00  0.000000D+00
     18   0.000000D+00  0.000000D+00  0.000000D+00  0.189903D+00  0.000000D+00
     19   0.102782D-01  0.000000D+00  0.000000D+00  0.000000D+00  0.189903D+00
     20   0.000000D+00  0.000000D+00  0.000000D+00  0.000000D+00  0.000000D+00
     21   0.000000D+00  0.000000D+00  0.000000D+00  0.000000D+00  0.000000D+00
     22   0.000000D+00  0.000000D+00  0.000000D+00  0.000000D+00  0.000000D+00
     23   0.000000D+00  0.000000D+00  0.000000D+00  0.000000D+00  0.000000D+00
     24   0.000000D+00  0.000000D+00  0.000000D+00  0.000000D+00  0.000000D+00
     25   0.000000D+00  0.262395D-05  0.000000D+00  0.000000D+00 -0.866144D-05
     26  -0.135172D-02  0.269251D-01  0.000000D+00  0.000000D+00 -0.282865D-01
     27   0.000000D+00  0.000000D+00  0.845551D-02  0.000000D+00  0.000000D+00
     28   0.000000D+00  0.000000D+00  0.000000D+00  0.845551D-02  0.000000D+00
     29  -0.247458D-02  0.489369D-01  0.000000D+00  0.000000D+00 -0.467083D-01
                11            12            13            14            15 
      1   0.201859D-01  0.000000D+00  0.000000D+00  0.000000D+00  0.000000D+00
      2   0.000000D+00  0.000000D+00  0.000000D+00  0.000000D+00  0.000000D+00
      3   0.000000D+00  0.000000D+00  0.000000D+00  0.000000D+00  0.000000D+00
      4   0.000000D+00  0.000000D+00  0.000000D+00  0.000000D+00  0.000000D+00
      5   0.000000D+00  0.000000D+00  0.000000D+00  0.000000D+00  0.000000D+00
      6   0.000000D+00  0.000000D+00  0.000000D+00  0.000000D+00  0.000000D+00
      7   0.000000D+00  0.000000D+00  0.000000D+00  0.000000D+00  0.000000D+00
      8   0.000000D+00  0.000000D+00  0.000000D+00  0.000000D+00  0.000000D+00
      9   0.000000D+00  0.000000D+00  0.000000D+00  0.000000D+00  0.000000D+00
     10   0.000000D+00  0.000000D+00  0.000000D+00  0.000000D+00  0.000000D+00
     11   0.100000D+01  0.000000D+00  0.000000D+00  0.000000D+00  0.000000D+00
     12   0.000000D+00  0.100000D+01  0.000000D+00  0.000000D+00  0.000000D+00
     13   0.000000D+00  0.000000D+00  0.100000D+01  0.000000D+00  0.000000D+00
     14   0.000000D+00  0.000000D+00  0.000000D+00  0.100000D+01  0.000000D+00
     15   0.000000D+00  0.000000D+00  0.000000D+00  0.000000D+00  0.100000D+01
     16   0.000000D+00  0.000000D+00  0.000000D+00  0.000000D+00  0.000000D+00
     17   0.000000D+00  0.000000D+00  0.000000D+00  0.000000D+00  0.000000D+00
     18   0.000000D+00  0.000000D+00  0.000000D+00  0.000000D+00  0.000000D+00
     19   0.000000D+00  0.000000D+00  0.000000D+00  0.000000D+00  0.000000D+00
     20   0.784073D-01  0.000000D+00  0.000000D+00  0.000000D+00  0.000000D+00
     21   0.000000D+00  0.784073D-01  0.000000D+00  0.000000D+00  0.000000D+00
     22   0.000000D+00  0.000000D+00  0.784073D-01  0.000000D+00  0.000000D+00
     23   0.000000D+00  0.000000D+00  0.000000D+00  0.784073D-01  0.000000D+00
     24   0.000000D+00  0.000000D+00  0.000000D+00  0.000000D+00  0.784073D-01
     25   0.184979D-04  0.000000D+00  0.000000D+00  0.000000D+00  0.000000D+00
     26   0.172311D-01  0.000000D+00  0.000000D+00  0.000000D+00  0.000000D+00
     27   0.000000D+00 -0.912522D-02  0.000000D+00  0.000000D+00  0.000000D+00
     28   0.000000D+00  0.000000D+00 -0.912522D-02  0.000000D+00  0.000000D+00
     29   0.264785D-01  0.000000D+00  0.000000D+00  0.000000D+00  0.000000D+00
                16            17            18            19            20 
      1   0.415741D+00  0.000000D+00  0.000000D+00  0.520894D+00  0.475092D+00
      2  -0.353836D-03  0.000000D+00  0.000000D+00  0.000000D+00  0.000000D+00
      3   0.313775D-02  0.000000D+00  0.000000D+00  0.000000D+00  0.000000D+00
      4   0.000000D+00  0.102782D-01  0.000000D+00  0.000000D+00  0.000000D+00
      5   0.000000D+00  0.000000D+00  0.102782D-01  0.000000D+00  0.000000D+00
      6   0.000000D+00  0.000000D+00  0.000000D+00  0.102782D-01  0.000000D+00
      7   0.172993D+00  0.000000D+00  0.000000D+00  0.000000D+00  0.000000D+00
      8   0.000000D+00  0.189903D+00  0.000000D+00  0.000000D+00  0.000000D+00
      9   0.000000D+00  0.000000D+00  0.189903D+00  0.000000D+00  0.000000D+00
     10   0.000000D+00  0.000000D+00  0.000000D+00  0.189903D+00  0.000000D+00
     11   0.000000D+00  0.000000D+00  0.000000D+00  0.000000D+00  0.784073D-01
     12   0.000000D+00  0.000000D+00  0.000000D+00  0.000000D+00  0.000000D+00
     13   0.000000D+00  0.000000D+00  0.000000D+00  0.000000D+00  0.000000D+00
     14   0.000000D+00  0.000000D+00  0.000000D+00  0.000000D+00  0.000000D+00
     15   0.000000D+00  0.000000D+00  0.000000D+00  0.000000D+00  0.000000D+00
     16   0.100000D+01  0.000000D+00  0.000000D+00  0.000000D+00  0.000000D+00
     17   0.000000D+00  0.100000D+01  0.000000D+00  0.000000D+00  0.000000D+00
     18   0.000000D+00  0.000000D+00  0.100000D+01  0.000000D+00  0.000000D+00
     19   0.000000D+00  0.000000D+00  0.000000D+00  0.100000D+01  0.000000D+00
     20   0.000000D+00  0.000000D+00  0.000000D+00  0.000000D+00  0.100000D+01
     21   0.000000D+00  0.000000D+00  0.000000D+00  0.000000D+00  0.000000D+00
     22   0.000000D+00  0.000000D+00  0.000000D+00  0.000000D+00  0.000000D+00
     23   0.000000D+00  0.000000D+00  0.000000D+00  0.000000D+00  0.000000D+00
     24   0.000000D+00  0.000000D+00  0.000000D+00  0.000000D+00  0.000000D+00
     25   0.322146D-01  0.000000D+00  0.000000D+00 -0.551599D-01  0.866145D-01
     26   0.300050D+00  0.000000D+00  0.000000D+00 -0.444879D+00  0.496202D+00
     27   0.000000D+00  0.152673D+00  0.000000D+00  0.000000D+00  0.000000D+00
     28   0.000000D+00  0.000000D+00  0.152673D+00  0.000000D+00  0.000000D+00
     29   0.185803D+00  0.000000D+00  0.000000D+00 -0.247315D+00  0.917421D-01
                21            22            23            24            25 
      1   0.000000D+00  0.000000D+00  0.000000D+00  0.000000D+00  0.140167D-03
      2   0.000000D+00  0.000000D+00  0.000000D+00  0.000000D+00  0.000000D+00
      3   0.000000D+00  0.000000D+00  0.000000D+00  0.000000D+00  0.000000D+00
      4   0.000000D+00  0.000000D+00  0.000000D+00  0.000000D+00  0.000000D+00
      5   0.000000D+00  0.000000D+00  0.000000D+00  0.000000D+00  0.000000D+00
      6   0.000000D+00  0.000000D+00  0.000000D+00  0.000000D+00  0.000000D+00
      7   0.000000D+00  0.000000D+00  0.000000D+00  0.000000D+00  0.262395D-05
      8   0.000000D+00  0.000000D+00  0.000000D+00  0.000000D+00  0.000000D+00
      9   0.000000D+00  0.000000D+00  0.000000D+00  0.000000D+00  0.000000D+00
     10   0.000000D+00  0.000000D+00  0.000000D+00  0.000000D+00 -0.866144D-05
     11   0.000000D+00  0.000000D+00  0.000000D+00  0.000000D+00  0.184979D-04
     12   0.784073D-01  0.000000D+00  0.000000D+00  0.000000D+00  0.000000D+00
     13   0.000000D+00  0.784073D-01  0.000000D+00  0.000000D+00  0.000000D+00
     14   0.000000D+00  0.000000D+00  0.784073D-01  0.000000D+00  0.000000D+00
     15   0.000000D+00  0.000000D+00  0.000000D+00  0.784073D-01  0.000000D+00
     16   0.000000D+00  0.000000D+00  0.000000D+00  0.000000D+00  0.322146D-01
     17   0.000000D+00  0.000000D+00  0.000000D+00  0.000000D+00  0.000000D+00
     18   0.000000D+00  0.000000D+00  0.000000D+00  0.000000D+00  0.000000D+00
     19   0.000000D+00  0.000000D+00  0.000000D+00  0.000000D+00 -0.551599D-01
     20   0.000000D+00  0.000000D+00  0.000000D+00  0.000000D+00  0.866145D-01
     21   0.100000D+01  0.000000D+00  0.000000D+00  0.000000D+00  0.000000D+00
     22   0.000000D+00  0.100000D+01  0.000000D+00  0.000000D+00  0.000000D+00
     23   0.000000D+00  0.000000D+00  0.100000D+01  0.000000D+00  0.000000D+00
     24   0.000000D+00  0.000000D+00  0.000000D+00  0.100000D+01  0.000000D+00
     25   0.000000D+00  0.000000D+00  0.000000D+00  0.000000D+00  0.100000D+01
     26   0.000000D+00  0.000000D+00  0.000000D+00  0.000000D+00  0.236704D+00
     27  -0.306089D+00  0.000000D+00  0.000000D+00  0.000000D+00  0.000000D+00
     28   0.000000D+00 -0.306089D+00  0.000000D+00  0.000000D+00  0.000000D+00
     29   0.000000D+00  0.000000D+00  0.000000D+00  0.000000D+00  0.000000D+00
                26            27            28            29 
      1   0.472897D-02  0.000000D+00  0.000000D+00  0.677001D-02
      2   0.504123D-03  0.000000D+00  0.000000D+00  0.108240D-02
      3   0.327271D-02  0.000000D+00  0.000000D+00  0.687796D-02
      4   0.000000D+00  0.395318D-03  0.000000D+00  0.000000D+00
      5   0.000000D+00  0.000000D+00  0.395318D-03  0.000000D+00
      6  -0.135172D-02  0.000000D+00  0.000000D+00 -0.247458D-02
      7   0.269251D-01  0.000000D+00  0.000000D+00  0.489369D-01
      8   0.000000D+00  0.845551D-02  0.000000D+00  0.000000D+00
      9   0.000000D+00  0.000000D+00  0.845551D-02  0.000000D+00
     10  -0.282865D-01  0.000000D+00  0.000000D+00 -0.467083D-01
     11   0.172311D-01  0.000000D+00  0.000000D+00  0.264785D-01
     12   0.000000D+00 -0.912522D-02  0.000000D+00  0.000000D+00
     13   0.000000D+00  0.000000D+00 -0.912522D-02  0.000000D+00
     14   0.000000D+00  0.000000D+00  0.000000D+00  0.000000D+00
     15   0.000000D+00  0.000000D+00  0.000000D+00  0.000000D+00
     16   0.300050D+00  0.000000D+00  0.000000D+00  0.185803D+00
     17   0.000000D+00  0.152673D+00  0.000000D+00  0.000000D+00
     18   0.000000D+00  0.000000D+00  0.152673D+00  0.000000D+00
     19  -0.444879D+00  0.000000D+00  0.000000D+00 -0.247315D+00
     20   0.496202D+00  0.000000D+00  0.000000D+00  0.917421D-01
     21   0.000000D+00 -0.306089D+00  0.000000D+00  0.000000D+00
     22   0.000000D+00  0.000000D+00 -0.306089D+00  0.000000D+00
     23   0.000000D+00  0.000000D+00  0.000000D+00  0.000000D+00
     24   0.000000D+00  0.000000D+00  0.000000D+00  0.000000D+00
     25   0.236704D+00  0.000000D+00  0.000000D+00  0.000000D+00
     26   0.100000D+01  0.000000D+00  0.000000D+00  0.000000D+00
     27   0.000000D+00  0.100000D+01  0.000000D+00  0.000000D+00
     28   0.000000D+00  0.000000D+00  0.100000D+01  0.000000D+00
     29   0.000000D+00  0.000000D+00  0.000000D+00  0.100000D+01
 Entering OneElI...
 Overlap between basis sets.
 Requested accuracy = 0.1000D-12
 PrsmSu:  NPrtUS=   1 ThrOK=F IAlg=1
 PRISM was handed  1608056769 working-precision words and   997 shell-pairs
 IPart=  0 NShTot=         997 NBatch=         117 AvBLen=         8.5
 CnvPC2: ToCart=F DoDens=F IPureD=0 IPureF=0.
 Transformed matrix in CnvPC2: 
                 1             2             3             4             5 
      1   0.982562D+00  0.261557D-02  0.162277D-01  0.000000D+00  0.000000D+00
      2   0.387603D+00  0.302415D-02  0.186376D-01  0.000000D+00  0.000000D+00
      3   0.202474D+00  0.163871D-02  0.101114D-01  0.000000D+00  0.000000D+00
      4   0.574133D+00  0.000000D+00  0.000000D+00  0.000000D+00  0.000000D+00
      5   0.783350D+00  0.000000D+00  0.186320D-05  0.000000D+00  0.000000D+00
      6   0.942336D+00  0.113928D-03  0.853306D-03  0.000000D+00  0.000000D+00
      7   0.969386D+00  0.180751D-02  0.113995D-01  0.000000D+00  0.000000D+00
      8   0.839405D+00  0.423854D-02  0.260931D-01  0.000000D+00  0.000000D+00
      9   0.613799D+00  0.431142D-02  0.265262D-01  0.000000D+00  0.000000D+00
     10   0.000000D+00  0.000000D+00  0.000000D+00  0.000000D+00  0.000000D+00
     11   0.000000D+00  0.000000D+00  0.000000D+00  0.000000D+00  0.000000D+00
     12   0.000000D+00  0.000000D+00  0.000000D+00  0.000000D+00  0.000000D+00
     13   0.000000D+00  0.000000D+00  0.000000D+00  0.000000D+00  0.000000D+00
     14   0.000000D+00  0.000000D+00  0.000000D+00  0.000000D+00  0.000000D+00
     15   0.000000D+00  0.000000D+00  0.000000D+00  0.000000D+00  0.000000D+00
     16   0.000000D+00  0.000000D+00  0.000000D+00  0.000000D+00  0.000000D+00
     17   0.000000D+00  0.000000D+00  0.000000D+00  0.000000D+00  0.000000D+00
     18   0.000000D+00  0.000000D+00 -0.715508D-05  0.000000D+00  0.000000D+00
     19   0.000000D+00  0.000000D+00  0.000000D+00  0.126029D-03  0.000000D+00
     20   0.000000D+00  0.000000D+00  0.000000D+00  0.000000D+00  0.126029D-03
     21   0.000000D+00 -0.269185D-03 -0.205892D-02  0.000000D+00  0.000000D+00
     22   0.000000D+00  0.000000D+00  0.000000D+00  0.155648D-02  0.000000D+00
     23   0.000000D+00  0.000000D+00  0.000000D+00  0.000000D+00  0.155648D-02
     24   0.000000D+00 -0.397663D-02 -0.250001D-01  0.000000D+00  0.000000D+00
     25   0.000000D+00  0.000000D+00  0.000000D+00  0.334995D-02  0.000000D+00
     26   0.000000D+00  0.000000D+00  0.000000D+00  0.000000D+00  0.334995D-02
     27   0.000000D+00 -0.878605D-02 -0.536611D-01  0.000000D+00  0.000000D+00
     28   0.000000D+00  0.000000D+00  0.000000D+00  0.000000D+00  0.000000D+00
     29   0.000000D+00  0.000000D+00  0.000000D+00  0.000000D+00  0.000000D+00
     30   0.000000D+00  0.000000D+00  0.000000D+00  0.000000D+00  0.000000D+00
     31   0.000000D+00  0.000000D+00  0.000000D+00  0.000000D+00  0.000000D+00
     32   0.000000D+00  0.000000D+00  0.000000D+00  0.000000D+00  0.000000D+00
     33   0.000000D+00  0.000000D+00  0.000000D+00  0.000000D+00  0.000000D+00
     34   0.000000D+00  0.000000D+00  0.000000D+00  0.000000D+00  0.000000D+00
     35   0.000000D+00  0.000000D+00  0.000000D+00  0.000000D+00  0.000000D+00
     36   0.000000D+00  0.000000D+00  0.000000D+00  0.000000D+00  0.000000D+00
     37   0.000000D+00  0.000000D+00  0.000000D+00  0.000000D+00  0.000000D+00
     38   0.000000D+00  0.589139D-05  0.838121D-04  0.000000D+00  0.000000D+00
     39   0.000000D+00  0.000000D+00  0.000000D+00 -0.853399D-05  0.000000D+00
     40   0.000000D+00  0.000000D+00  0.000000D+00  0.000000D+00 -0.853399D-05
     41   0.000000D+00  0.000000D+00  0.000000D+00  0.000000D+00  0.000000D+00
     42   0.000000D+00  0.000000D+00  0.000000D+00  0.000000D+00  0.000000D+00
     43   0.000000D+00  0.129082D-02  0.899306D-02  0.000000D+00  0.000000D+00
     44   0.000000D+00  0.000000D+00  0.000000D+00 -0.960946D-03  0.000000D+00
     45   0.000000D+00  0.000000D+00  0.000000D+00  0.000000D+00 -0.960946D-03
     46   0.000000D+00  0.000000D+00  0.000000D+00  0.000000D+00  0.000000D+00
     47   0.000000D+00  0.000000D+00  0.000000D+00  0.000000D+00  0.000000D+00
     48   0.000000D+00  0.925807D-02  0.565302D-01  0.000000D+00  0.000000D+00
     49   0.000000D+00  0.000000D+00  0.000000D+00 -0.611274D-02  0.000000D+00
     50   0.000000D+00  0.000000D+00  0.000000D+00  0.000000D+00 -0.611274D-02
     51   0.000000D+00  0.000000D+00  0.000000D+00  0.000000D+00  0.000000D+00
     52   0.000000D+00  0.000000D+00  0.000000D+00  0.000000D+00  0.000000D+00
     53   0.000000D+00  0.000000D+00  0.000000D+00  0.000000D+00  0.000000D+00
     54   0.000000D+00  0.000000D+00  0.000000D+00  0.000000D+00  0.000000D+00
     55   0.000000D+00  0.000000D+00  0.000000D+00  0.000000D+00  0.000000D+00
     56   0.000000D+00  0.000000D+00  0.000000D+00  0.000000D+00  0.000000D+00
     57   0.000000D+00  0.000000D+00  0.000000D+00  0.000000D+00  0.000000D+00
     58   0.000000D+00  0.000000D+00  0.000000D+00  0.000000D+00  0.000000D+00
     59   0.000000D+00  0.000000D+00  0.000000D+00  0.000000D+00  0.000000D+00
     60   0.000000D+00  0.000000D+00 -0.183726D-05  0.000000D+00  0.000000D+00
     61   0.000000D+00  0.000000D+00  0.000000D+00  0.000000D+00  0.000000D+00
     62   0.000000D+00  0.000000D+00  0.000000D+00  0.000000D+00  0.000000D+00
     63   0.000000D+00  0.000000D+00  0.000000D+00  0.000000D+00  0.000000D+00
     64   0.000000D+00  0.000000D+00  0.000000D+00  0.000000D+00  0.000000D+00
     65   0.000000D+00  0.000000D+00  0.000000D+00  0.000000D+00  0.000000D+00
     66   0.000000D+00  0.000000D+00  0.000000D+00  0.000000D+00  0.000000D+00
     67   0.000000D+00 -0.380047D-03 -0.313265D-02  0.000000D+00  0.000000D+00
     68   0.000000D+00  0.000000D+00  0.000000D+00  0.467020D-03  0.000000D+00
     69   0.000000D+00  0.000000D+00  0.000000D+00  0.000000D+00  0.467020D-03
     70   0.000000D+00  0.000000D+00  0.000000D+00  0.000000D+00  0.000000D+00
     71   0.000000D+00  0.000000D+00  0.000000D+00  0.000000D+00  0.000000D+00
     72   0.000000D+00  0.000000D+00  0.000000D+00  0.000000D+00  0.000000D+00
     73   0.000000D+00  0.000000D+00  0.000000D+00  0.000000D+00  0.000000D+00
     74   0.000000D+00 -0.966537D-02 -0.588788D-01  0.000000D+00  0.000000D+00
     75   0.000000D+00  0.000000D+00  0.000000D+00  0.900612D-02  0.000000D+00
     76   0.000000D+00  0.000000D+00  0.000000D+00  0.000000D+00  0.900612D-02
     77   0.000000D+00  0.000000D+00  0.000000D+00  0.000000D+00  0.000000D+00
     78   0.000000D+00  0.000000D+00  0.000000D+00  0.000000D+00  0.000000D+00
     79   0.000000D+00  0.000000D+00  0.000000D+00  0.000000D+00  0.000000D+00
     80   0.000000D+00  0.000000D+00  0.000000D+00  0.000000D+00  0.000000D+00
     81   0.000000D+00  0.000000D+00  0.000000D+00  0.000000D+00  0.000000D+00
     82   0.000000D+00  0.000000D+00  0.000000D+00  0.000000D+00  0.000000D+00
     83   0.000000D+00  0.000000D+00  0.000000D+00  0.000000D+00  0.000000D+00
     84   0.000000D+00  0.000000D+00  0.000000D+00  0.000000D+00  0.000000D+00
     85   0.000000D+00  0.000000D+00  0.000000D+00  0.000000D+00  0.000000D+00
     86   0.000000D+00  0.000000D+00  0.000000D+00  0.000000D+00  0.000000D+00
     87   0.000000D+00  0.000000D+00  0.000000D+00  0.000000D+00  0.000000D+00
     88   0.000000D+00  0.000000D+00  0.000000D+00  0.000000D+00  0.000000D+00
     89   0.000000D+00  0.000000D+00  0.000000D+00  0.000000D+00  0.000000D+00
     90   0.000000D+00  0.000000D+00  0.343323D-05  0.000000D+00  0.000000D+00
     91   0.000000D+00  0.000000D+00  0.000000D+00  0.000000D+00  0.000000D+00
     92   0.000000D+00  0.000000D+00  0.000000D+00  0.000000D+00  0.000000D+00
     93   0.000000D+00  0.000000D+00  0.000000D+00  0.000000D+00  0.000000D+00
     94   0.000000D+00  0.000000D+00  0.000000D+00  0.000000D+00  0.000000D+00
     95   0.000000D+00  0.000000D+00  0.000000D+00  0.000000D+00  0.000000D+00
     96   0.000000D+00  0.000000D+00  0.000000D+00  0.000000D+00  0.000000D+00
     97   0.000000D+00  0.000000D+00  0.000000D+00  0.000000D+00  0.000000D+00
     98   0.000000D+00  0.000000D+00  0.000000D+00  0.000000D+00  0.000000D+00
     99   0.000000D+00  0.676500D-03  0.537475D-02  0.000000D+00  0.000000D+00
    100   0.000000D+00  0.000000D+00  0.000000D+00 -0.103750D-02  0.000000D+00
    101   0.000000D+00  0.000000D+00  0.000000D+00  0.000000D+00 -0.103750D-02
    102   0.000000D+00  0.000000D+00  0.000000D+00  0.000000D+00  0.000000D+00
    103   0.000000D+00  0.000000D+00  0.000000D+00  0.000000D+00  0.000000D+00
    104   0.000000D+00  0.000000D+00  0.000000D+00  0.000000D+00  0.000000D+00
    105   0.000000D+00  0.000000D+00  0.000000D+00  0.000000D+00  0.000000D+00
    106   0.000000D+00  0.000000D+00  0.000000D+00  0.000000D+00  0.000000D+00
    107   0.000000D+00  0.000000D+00  0.000000D+00  0.000000D+00  0.000000D+00
    108   0.000000D+00  0.000000D+00  0.000000D+00  0.000000D+00  0.000000D+00
    109   0.000000D+00  0.000000D+00  0.000000D+00  0.000000D+00  0.000000D+00
    110   0.000000D+00  0.000000D+00  0.000000D+00  0.000000D+00  0.000000D+00
    111   0.000000D+00  0.000000D+00  0.000000D+00  0.000000D+00  0.000000D+00
    112   0.000000D+00  0.000000D+00  0.000000D+00  0.000000D+00  0.000000D+00
    113   0.000000D+00  0.000000D+00  0.000000D+00  0.000000D+00  0.000000D+00
    114   0.000000D+00  0.000000D+00  0.000000D+00  0.000000D+00  0.000000D+00
    115   0.000000D+00  0.000000D+00  0.000000D+00  0.000000D+00  0.000000D+00
    116   0.000000D+00  0.000000D+00  0.000000D+00  0.000000D+00  0.000000D+00
    117   0.000000D+00  0.000000D+00  0.000000D+00  0.000000D+00  0.000000D+00
    118   0.000000D+00  0.000000D+00  0.000000D+00  0.000000D+00  0.000000D+00
    119   0.000000D+00 -0.112622D-02 -0.856681D-02  0.000000D+00  0.000000D+00
    120   0.000000D+00  0.000000D+00  0.000000D+00  0.203255D-02  0.000000D+00
    121   0.000000D+00  0.000000D+00  0.000000D+00  0.000000D+00  0.203255D-02
    122   0.000000D+00  0.000000D+00  0.000000D+00  0.000000D+00  0.000000D+00
    123   0.000000D+00  0.000000D+00  0.000000D+00  0.000000D+00  0.000000D+00
    124   0.000000D+00  0.000000D+00  0.000000D+00  0.000000D+00  0.000000D+00
    125   0.000000D+00  0.000000D+00  0.000000D+00  0.000000D+00  0.000000D+00
    126   0.000000D+00  0.000000D+00  0.000000D+00  0.000000D+00  0.000000D+00
    127   0.000000D+00  0.000000D+00  0.000000D+00  0.000000D+00  0.000000D+00
    128   0.000000D+00  0.000000D+00  0.000000D+00  0.000000D+00  0.000000D+00
    129   0.000000D+00  0.000000D+00  0.000000D+00  0.000000D+00  0.000000D+00
    130   0.000000D+00  0.000000D+00  0.175484D-05  0.000000D+00  0.000000D+00
    131   0.000000D+00  0.000000D+00  0.000000D+00  0.000000D+00  0.000000D+00
    132   0.000000D+00  0.000000D+00  0.000000D+00  0.000000D+00  0.000000D+00
    133   0.000000D+00  0.000000D+00  0.000000D+00  0.000000D+00  0.000000D+00
    134   0.000000D+00  0.000000D+00  0.000000D+00  0.000000D+00  0.000000D+00
    135   0.000000D+00  0.000000D+00  0.000000D+00  0.000000D+00  0.000000D+00
    136   0.000000D+00  0.000000D+00  0.000000D+00  0.000000D+00  0.000000D+00
    137   0.000000D+00  0.000000D+00  0.000000D+00  0.000000D+00  0.000000D+00
    138   0.000000D+00  0.000000D+00  0.000000D+00  0.000000D+00  0.000000D+00
    139   0.000000D+00  0.000000D+00  0.000000D+00  0.000000D+00  0.000000D+00
    140   0.000000D+00  0.000000D+00  0.000000D+00  0.000000D+00  0.000000D+00
    141   0.000000D+00  0.000000D+00  0.000000D+00  0.000000D+00  0.000000D+00
    142   0.000000D+00  0.000000D+00  0.000000D+00  0.000000D+00  0.000000D+00
    143   0.192581D-02  0.999789D+00  0.408650D+00  0.000000D+00  0.000000D+00
    144   0.133322D-01  0.287568D+00  0.988932D+00  0.000000D+00  0.000000D+00
    145   0.000000D+00  0.000000D+00  0.000000D+00  0.999224D+00  0.000000D+00
    146   0.000000D+00  0.000000D+00  0.000000D+00  0.000000D+00  0.999224D+00
    147   0.275740D-02  0.000000D+00  0.000000D+00  0.000000D+00  0.000000D+00
    148   0.709206D-01  0.117599D-01  0.315764D+00  0.000000D+00  0.000000D+00
    149   0.000000D+00  0.000000D+00  0.000000D+00  0.337691D+00  0.000000D+00
    150   0.000000D+00  0.000000D+00  0.000000D+00  0.000000D+00  0.337691D+00
    151   0.559807D-01  0.000000D+00  0.000000D+00  0.000000D+00  0.000000D+00
    152   0.774325D-01  0.000000D+00  0.000000D+00  0.000000D+00  0.000000D+00
    153   0.000000D+00  0.000000D+00  0.000000D+00  0.000000D+00  0.000000D+00
    154   0.000000D+00  0.000000D+00  0.000000D+00  0.000000D+00  0.000000D+00
    155   0.000000D+00  0.000000D+00  0.000000D+00  0.000000D+00  0.000000D+00
    156   0.000000D+00  0.000000D+00  0.000000D+00  0.000000D+00  0.000000D+00
    157   0.406361D+00  0.258524D-04  0.714738D-02  0.000000D+00  0.000000D+00
    158   0.401343D+00  0.629438D-02  0.386865D-01  0.000000D+00  0.000000D+00
    159   0.269447D+00  0.284266D-02  0.175259D-01  0.000000D+00  0.000000D+00
    160   0.000000D+00  0.000000D+00  0.000000D+00  0.558729D-02  0.000000D+00
    161   0.000000D+00  0.000000D+00  0.000000D+00  0.000000D+00  0.558729D-02
    162   0.527427D+00  0.000000D+00  0.000000D+00  0.000000D+00  0.000000D+00
    163   0.000000D+00  0.000000D+00  0.000000D+00  0.291983D-03  0.000000D+00
    164   0.000000D+00  0.000000D+00  0.000000D+00  0.000000D+00  0.291983D-03
    165   0.798636D-01  0.000000D+00  0.000000D+00  0.000000D+00  0.000000D+00
    166   0.000000D+00  0.000000D+00  0.000000D+00  0.109792D-02  0.000000D+00
    167   0.000000D+00  0.000000D+00  0.000000D+00  0.000000D+00  0.109792D-02
    168   0.234296D+00  0.000000D+00  0.000000D+00  0.000000D+00  0.000000D+00
    169   0.422595D-01  0.124642D+00  0.608035D+00  0.000000D+00  0.000000D+00
    170   0.688800D-01  0.807516D-01  0.435001D+00  0.000000D+00  0.000000D+00
    171   0.114541D+00  0.519927D-01  0.297145D+00  0.000000D+00  0.000000D+00
    172   0.190142D+00  0.333600D-01  0.197271D+00  0.000000D+00  0.000000D+00
    173   0.292863D+00  0.213634D-01  0.128789D+00  0.000000D+00  0.000000D+00
    174   0.385332D+00  0.136663D-01  0.832787D-01  0.000000D+00  0.000000D+00
    175   0.000000D+00  0.000000D+00  0.000000D+00  0.167963D+00  0.000000D+00
    176   0.000000D+00  0.000000D+00  0.000000D+00  0.000000D+00  0.167963D+00
    177   0.698004D-01  0.000000D+00  0.000000D+00  0.000000D+00  0.000000D+00
    178   0.000000D+00  0.000000D+00  0.000000D+00  0.974571D-01  0.000000D+00
    179   0.000000D+00  0.000000D+00  0.000000D+00  0.000000D+00  0.974571D-01
    180   0.132870D+00  0.000000D+00  0.000000D+00  0.000000D+00  0.000000D+00
    181   0.000000D+00  0.000000D+00  0.000000D+00  0.548549D-01  0.000000D+00
    182   0.000000D+00  0.000000D+00  0.000000D+00  0.000000D+00  0.548549D-01
    183   0.239940D+00  0.000000D+00  0.000000D+00  0.000000D+00  0.000000D+00
    184   0.000000D+00  0.000000D+00  0.000000D+00  0.302737D-01  0.000000D+00
    185   0.000000D+00  0.000000D+00  0.000000D+00  0.000000D+00  0.302737D-01
    186   0.382518D+00  0.000000D+00  0.000000D+00  0.000000D+00  0.000000D+00
    187   0.000000D+00  0.000000D+00  0.000000D+00  0.165011D-01  0.000000D+00
    188   0.000000D+00  0.000000D+00  0.000000D+00  0.000000D+00  0.165011D-01
    189   0.507991D+00  0.000000D+00  0.000000D+00  0.000000D+00  0.000000D+00
    190   0.000000D+00  0.000000D+00  0.000000D+00  0.892489D-02  0.000000D+00
    191   0.000000D+00  0.000000D+00  0.000000D+00  0.000000D+00  0.892489D-02
    192   0.554099D+00  0.000000D+00  0.000000D+00  0.000000D+00  0.000000D+00
    193   0.449314D-01  0.000000D+00  0.000000D+00  0.000000D+00  0.000000D+00
    194   0.000000D+00  0.000000D+00  0.000000D+00  0.000000D+00  0.000000D+00
    195   0.000000D+00  0.000000D+00  0.000000D+00  0.000000D+00  0.000000D+00
    196   0.000000D+00  0.000000D+00  0.000000D+00  0.000000D+00  0.000000D+00
    197   0.000000D+00  0.000000D+00  0.000000D+00  0.000000D+00  0.000000D+00
    198   0.123162D+00  0.000000D+00  0.000000D+00  0.000000D+00  0.000000D+00
    199   0.000000D+00  0.000000D+00  0.000000D+00  0.000000D+00  0.000000D+00
    200   0.000000D+00  0.000000D+00  0.000000D+00  0.000000D+00  0.000000D+00
    201   0.000000D+00  0.000000D+00  0.000000D+00  0.000000D+00  0.000000D+00
    202   0.000000D+00  0.000000D+00  0.000000D+00  0.000000D+00  0.000000D+00
    203   0.276584D+00  0.000000D+00  0.000000D+00  0.000000D+00  0.000000D+00
    204   0.000000D+00  0.000000D+00  0.000000D+00  0.000000D+00  0.000000D+00
    205   0.000000D+00  0.000000D+00  0.000000D+00  0.000000D+00  0.000000D+00
    206   0.000000D+00  0.000000D+00  0.000000D+00  0.000000D+00  0.000000D+00
    207   0.000000D+00  0.000000D+00  0.000000D+00  0.000000D+00  0.000000D+00
    208   0.436016D+00  0.000000D+00  0.000000D+00  0.000000D+00  0.000000D+00
    209   0.000000D+00  0.000000D+00  0.000000D+00  0.000000D+00  0.000000D+00
    210   0.000000D+00  0.000000D+00  0.000000D+00  0.000000D+00  0.000000D+00
    211   0.000000D+00  0.000000D+00  0.000000D+00  0.000000D+00  0.000000D+00
    212   0.000000D+00  0.000000D+00  0.000000D+00  0.000000D+00  0.000000D+00
    213   0.467300D+00  0.000000D+00  0.000000D+00  0.000000D+00  0.000000D+00
    214   0.000000D+00  0.000000D+00  0.000000D+00  0.000000D+00  0.000000D+00
    215   0.000000D+00  0.000000D+00  0.000000D+00  0.000000D+00  0.000000D+00
    216   0.000000D+00  0.000000D+00  0.000000D+00  0.000000D+00  0.000000D+00
    217   0.000000D+00  0.000000D+00  0.000000D+00  0.000000D+00  0.000000D+00
    218   0.359128D+00  0.000000D+00  0.000000D+00  0.000000D+00  0.000000D+00
    219   0.000000D+00  0.000000D+00  0.000000D+00  0.000000D+00  0.000000D+00
    220   0.000000D+00  0.000000D+00  0.000000D+00  0.000000D+00  0.000000D+00
    221   0.000000D+00  0.000000D+00  0.000000D+00  0.000000D+00  0.000000D+00
    222   0.000000D+00  0.000000D+00  0.000000D+00  0.000000D+00  0.000000D+00
    223   0.326992D-01  0.000000D+00  0.000000D+00  0.000000D+00  0.000000D+00
    224   0.000000D+00  0.000000D+00  0.000000D+00  0.000000D+00  0.000000D+00
    225   0.000000D+00  0.000000D+00  0.000000D+00  0.000000D+00  0.000000D+00
    226   0.000000D+00  0.000000D+00  0.000000D+00  0.000000D+00  0.000000D+00
    227   0.000000D+00  0.000000D+00  0.000000D+00  0.000000D+00  0.000000D+00
    228   0.000000D+00  0.000000D+00  0.000000D+00  0.000000D+00  0.000000D+00
    229   0.000000D+00  0.000000D+00  0.000000D+00  0.000000D+00  0.000000D+00
    230   0.104559D+00  0.000000D+00  0.000000D+00  0.000000D+00  0.000000D+00
    231   0.000000D+00  0.000000D+00  0.000000D+00  0.000000D+00  0.000000D+00
    232   0.000000D+00  0.000000D+00  0.000000D+00  0.000000D+00  0.000000D+00
    233   0.000000D+00  0.000000D+00  0.000000D+00  0.000000D+00  0.000000D+00
    234   0.000000D+00  0.000000D+00  0.000000D+00  0.000000D+00  0.000000D+00
    235   0.000000D+00  0.000000D+00  0.000000D+00  0.000000D+00  0.000000D+00
    236   0.000000D+00  0.000000D+00  0.000000D+00  0.000000D+00  0.000000D+00
    237   0.242807D+00  0.000000D+00  0.000000D+00  0.000000D+00  0.000000D+00
    238   0.000000D+00  0.000000D+00  0.000000D+00  0.000000D+00  0.000000D+00
    239   0.000000D+00  0.000000D+00  0.000000D+00  0.000000D+00  0.000000D+00
    240   0.000000D+00  0.000000D+00  0.000000D+00  0.000000D+00  0.000000D+00
    241   0.000000D+00  0.000000D+00  0.000000D+00  0.000000D+00  0.000000D+00
    242   0.000000D+00  0.000000D+00  0.000000D+00  0.000000D+00  0.000000D+00
    243   0.000000D+00  0.000000D+00  0.000000D+00  0.000000D+00  0.000000D+00
    244   0.350354D+00  0.000000D+00  0.000000D+00  0.000000D+00  0.000000D+00
    245   0.000000D+00  0.000000D+00  0.000000D+00  0.000000D+00  0.000000D+00
    246   0.000000D+00  0.000000D+00  0.000000D+00  0.000000D+00  0.000000D+00
    247   0.000000D+00  0.000000D+00  0.000000D+00  0.000000D+00  0.000000D+00
    248   0.000000D+00  0.000000D+00  0.000000D+00  0.000000D+00  0.000000D+00
    249   0.000000D+00  0.000000D+00  0.000000D+00  0.000000D+00  0.000000D+00
    250   0.000000D+00  0.000000D+00  0.000000D+00  0.000000D+00  0.000000D+00
    251   0.321022D+00  0.000000D+00  0.000000D+00  0.000000D+00  0.000000D+00
    252   0.000000D+00  0.000000D+00  0.000000D+00  0.000000D+00  0.000000D+00
    253   0.000000D+00  0.000000D+00  0.000000D+00  0.000000D+00  0.000000D+00
    254   0.000000D+00  0.000000D+00  0.000000D+00  0.000000D+00  0.000000D+00
    255   0.000000D+00  0.000000D+00  0.000000D+00  0.000000D+00  0.000000D+00
    256   0.000000D+00  0.000000D+00  0.000000D+00  0.000000D+00  0.000000D+00
    257   0.000000D+00  0.000000D+00  0.000000D+00  0.000000D+00  0.000000D+00
    258   0.309338D-02  0.000000D+00  0.000000D+00  0.000000D+00  0.000000D+00
    259   0.000000D+00  0.000000D+00  0.000000D+00  0.000000D+00  0.000000D+00
    260   0.000000D+00  0.000000D+00  0.000000D+00  0.000000D+00  0.000000D+00
    261   0.000000D+00  0.000000D+00  0.000000D+00  0.000000D+00  0.000000D+00
    262   0.000000D+00  0.000000D+00  0.000000D+00  0.000000D+00  0.000000D+00
    263   0.000000D+00  0.000000D+00  0.000000D+00  0.000000D+00  0.000000D+00
    264   0.000000D+00  0.000000D+00  0.000000D+00  0.000000D+00  0.000000D+00
    265   0.000000D+00  0.000000D+00  0.000000D+00  0.000000D+00  0.000000D+00
    266   0.000000D+00  0.000000D+00  0.000000D+00  0.000000D+00  0.000000D+00
    267   0.275620D-01  0.000000D+00  0.000000D+00  0.000000D+00  0.000000D+00
    268   0.000000D+00  0.000000D+00  0.000000D+00  0.000000D+00  0.000000D+00
    269   0.000000D+00  0.000000D+00  0.000000D+00  0.000000D+00  0.000000D+00
    270   0.000000D+00  0.000000D+00  0.000000D+00  0.000000D+00  0.000000D+00
    271   0.000000D+00  0.000000D+00  0.000000D+00  0.000000D+00  0.000000D+00
    272   0.000000D+00  0.000000D+00  0.000000D+00  0.000000D+00  0.000000D+00
    273   0.000000D+00  0.000000D+00  0.000000D+00  0.000000D+00  0.000000D+00
    274   0.000000D+00  0.000000D+00  0.000000D+00  0.000000D+00  0.000000D+00
    275   0.000000D+00  0.000000D+00  0.000000D+00  0.000000D+00  0.000000D+00
    276   0.150699D+00  0.000000D+00  0.000000D+00  0.000000D+00  0.000000D+00
    277   0.000000D+00  0.000000D+00  0.000000D+00  0.000000D+00  0.000000D+00
    278   0.000000D+00  0.000000D+00  0.000000D+00  0.000000D+00  0.000000D+00
    279   0.000000D+00  0.000000D+00  0.000000D+00  0.000000D+00  0.000000D+00
    280   0.000000D+00  0.000000D+00  0.000000D+00  0.000000D+00  0.000000D+00
    281   0.000000D+00  0.000000D+00  0.000000D+00  0.000000D+00  0.000000D+00
    282   0.000000D+00  0.000000D+00  0.000000D+00  0.000000D+00  0.000000D+00
    283   0.000000D+00  0.000000D+00  0.000000D+00  0.000000D+00  0.000000D+00
    284   0.000000D+00  0.000000D+00  0.000000D+00  0.000000D+00  0.000000D+00
    285   0.255281D+00  0.000000D+00  0.000000D+00  0.000000D+00  0.000000D+00
    286   0.000000D+00  0.000000D+00  0.000000D+00  0.000000D+00  0.000000D+00
    287   0.000000D+00  0.000000D+00  0.000000D+00  0.000000D+00  0.000000D+00
    288   0.000000D+00  0.000000D+00  0.000000D+00  0.000000D+00  0.000000D+00
    289   0.000000D+00  0.000000D+00  0.000000D+00  0.000000D+00  0.000000D+00
    290   0.000000D+00  0.000000D+00  0.000000D+00  0.000000D+00  0.000000D+00
    291   0.000000D+00  0.000000D+00  0.000000D+00  0.000000D+00  0.000000D+00
    292   0.000000D+00  0.000000D+00  0.000000D+00  0.000000D+00  0.000000D+00
    293   0.000000D+00  0.000000D+00  0.000000D+00  0.000000D+00  0.000000D+00
    294   0.569245D-01  0.000000D+00  0.000000D+00  0.000000D+00  0.000000D+00
    295   0.000000D+00  0.000000D+00  0.000000D+00  0.000000D+00  0.000000D+00
    296   0.000000D+00  0.000000D+00  0.000000D+00  0.000000D+00  0.000000D+00
    297   0.000000D+00  0.000000D+00  0.000000D+00  0.000000D+00  0.000000D+00
    298   0.000000D+00  0.000000D+00  0.000000D+00  0.000000D+00  0.000000D+00
    299   0.000000D+00  0.000000D+00  0.000000D+00  0.000000D+00  0.000000D+00
    300   0.000000D+00  0.000000D+00  0.000000D+00  0.000000D+00  0.000000D+00
    301   0.000000D+00  0.000000D+00  0.000000D+00  0.000000D+00  0.000000D+00
    302   0.000000D+00  0.000000D+00  0.000000D+00  0.000000D+00  0.000000D+00
    303   0.000000D+00  0.000000D+00  0.000000D+00  0.000000D+00  0.000000D+00
    304   0.000000D+00  0.000000D+00  0.000000D+00  0.000000D+00  0.000000D+00
    305   0.139506D+00  0.000000D+00  0.000000D+00  0.000000D+00  0.000000D+00
    306   0.000000D+00  0.000000D+00  0.000000D+00  0.000000D+00  0.000000D+00
    307   0.000000D+00  0.000000D+00  0.000000D+00  0.000000D+00  0.000000D+00
    308   0.000000D+00  0.000000D+00  0.000000D+00  0.000000D+00  0.000000D+00
    309   0.000000D+00  0.000000D+00  0.000000D+00  0.000000D+00  0.000000D+00
    310   0.000000D+00  0.000000D+00  0.000000D+00  0.000000D+00  0.000000D+00
    311   0.000000D+00  0.000000D+00  0.000000D+00  0.000000D+00  0.000000D+00
    312   0.000000D+00  0.000000D+00  0.000000D+00  0.000000D+00  0.000000D+00
    313   0.000000D+00  0.000000D+00  0.000000D+00  0.000000D+00  0.000000D+00
    314   0.000000D+00  0.000000D+00  0.000000D+00  0.000000D+00  0.000000D+00
    315   0.000000D+00  0.000000D+00  0.000000D+00  0.000000D+00  0.000000D+00
    316   0.181213D+00  0.000000D+00  0.000000D+00  0.000000D+00  0.000000D+00
    317   0.000000D+00  0.000000D+00  0.000000D+00  0.000000D+00  0.000000D+00
    318   0.000000D+00  0.000000D+00  0.000000D+00  0.000000D+00  0.000000D+00
    319   0.000000D+00  0.000000D+00  0.000000D+00  0.000000D+00  0.000000D+00
    320   0.000000D+00  0.000000D+00  0.000000D+00  0.000000D+00  0.000000D+00
    321   0.000000D+00  0.000000D+00  0.000000D+00  0.000000D+00  0.000000D+00
    322   0.000000D+00  0.000000D+00  0.000000D+00  0.000000D+00  0.000000D+00
    323   0.000000D+00  0.000000D+00  0.000000D+00  0.000000D+00  0.000000D+00
    324   0.000000D+00  0.000000D+00  0.000000D+00  0.000000D+00  0.000000D+00
    325   0.000000D+00  0.000000D+00  0.000000D+00  0.000000D+00  0.000000D+00
    326   0.000000D+00  0.000000D+00  0.000000D+00  0.000000D+00  0.000000D+00
    327   0.697979D-01  0.000000D+00  0.000000D+00  0.000000D+00  0.000000D+00
    328   0.000000D+00  0.000000D+00  0.000000D+00  0.000000D+00  0.000000D+00
    329   0.000000D+00  0.000000D+00  0.000000D+00  0.000000D+00  0.000000D+00
    330   0.000000D+00  0.000000D+00  0.000000D+00  0.000000D+00  0.000000D+00
    331   0.000000D+00  0.000000D+00  0.000000D+00  0.000000D+00  0.000000D+00
    332   0.000000D+00  0.000000D+00  0.000000D+00  0.000000D+00  0.000000D+00
    333   0.000000D+00  0.000000D+00  0.000000D+00  0.000000D+00  0.000000D+00
    334   0.000000D+00  0.000000D+00  0.000000D+00  0.000000D+00  0.000000D+00
    335   0.000000D+00  0.000000D+00  0.000000D+00  0.000000D+00  0.000000D+00
    336   0.000000D+00  0.000000D+00  0.000000D+00  0.000000D+00  0.000000D+00
    337   0.000000D+00  0.000000D+00  0.000000D+00  0.000000D+00  0.000000D+00
    338   0.000000D+00  0.000000D+00  0.000000D+00  0.000000D+00  0.000000D+00
    339   0.000000D+00  0.000000D+00  0.000000D+00  0.000000D+00  0.000000D+00
    340   0.126405D+00  0.000000D+00  0.000000D+00  0.000000D+00  0.000000D+00
    341   0.000000D+00  0.000000D+00  0.000000D+00  0.000000D+00  0.000000D+00
    342   0.000000D+00  0.000000D+00  0.000000D+00  0.000000D+00  0.000000D+00
    343   0.000000D+00  0.000000D+00  0.000000D+00  0.000000D+00  0.000000D+00
    344   0.000000D+00  0.000000D+00  0.000000D+00  0.000000D+00  0.000000D+00
    345   0.000000D+00  0.000000D+00  0.000000D+00  0.000000D+00  0.000000D+00
    346   0.000000D+00  0.000000D+00  0.000000D+00  0.000000D+00  0.000000D+00
    347   0.000000D+00  0.000000D+00  0.000000D+00  0.000000D+00  0.000000D+00
    348   0.000000D+00  0.000000D+00  0.000000D+00  0.000000D+00  0.000000D+00
    349   0.000000D+00  0.000000D+00  0.000000D+00  0.000000D+00  0.000000D+00
    350   0.000000D+00  0.000000D+00  0.000000D+00  0.000000D+00  0.000000D+00
    351   0.000000D+00  0.000000D+00  0.000000D+00  0.000000D+00  0.000000D+00
    352   0.000000D+00  0.000000D+00  0.000000D+00  0.000000D+00  0.000000D+00
    353   0.734122D-01  0.000000D+00  0.000000D+00  0.000000D+00  0.000000D+00
    354   0.000000D+00  0.000000D+00  0.000000D+00  0.000000D+00  0.000000D+00
    355   0.000000D+00  0.000000D+00  0.000000D+00  0.000000D+00  0.000000D+00
    356   0.000000D+00  0.000000D+00  0.000000D+00  0.000000D+00  0.000000D+00
    357   0.000000D+00  0.000000D+00  0.000000D+00  0.000000D+00  0.000000D+00
    358   0.000000D+00  0.000000D+00  0.000000D+00  0.000000D+00  0.000000D+00
    359   0.000000D+00  0.000000D+00  0.000000D+00  0.000000D+00  0.000000D+00
    360   0.000000D+00  0.000000D+00  0.000000D+00  0.000000D+00  0.000000D+00
    361   0.000000D+00  0.000000D+00  0.000000D+00  0.000000D+00  0.000000D+00
    362   0.000000D+00  0.000000D+00  0.000000D+00  0.000000D+00  0.000000D+00
    363   0.000000D+00  0.000000D+00  0.000000D+00  0.000000D+00  0.000000D+00
    364   0.000000D+00  0.000000D+00  0.000000D+00  0.000000D+00  0.000000D+00
    365   0.000000D+00  0.000000D+00  0.000000D+00  0.000000D+00  0.000000D+00
    366   0.000000D+00  0.000000D+00  0.000000D+00  0.000000D+00  0.000000D+00
    367   0.000000D+00  0.000000D+00  0.000000D+00  0.000000D+00  0.000000D+00
    368   0.157488D-03  0.000000D+00  0.000000D+00  0.000000D+00  0.000000D+00
    369   0.732605D-02  0.755929D-03  0.478199D-02  0.000000D+00  0.000000D+00
    370   0.112946D+00  0.394382D-02  0.242729D-01  0.000000D+00  0.000000D+00
    371   0.000000D+00  0.000000D+00  0.000000D+00  0.828352D-03  0.000000D+00
    372   0.000000D+00  0.000000D+00  0.000000D+00  0.000000D+00  0.828352D-03
    373   0.219933D-01  0.231051D-02  0.143848D-01  0.000000D+00  0.000000D+00
    374   0.000000D+00  0.000000D+00  0.000000D+00  0.165015D-02  0.000000D+00
    375   0.000000D+00  0.000000D+00  0.000000D+00  0.000000D+00  0.165015D-02
    376   0.296581D+00  0.465985D-02  0.286189D-01  0.000000D+00  0.000000D+00
    377   0.314903D-03  0.000000D+00  0.000000D+00  0.000000D+00  0.000000D+00
    378   0.607356D-03  0.000000D+00  0.000000D+00  0.000000D+00  0.000000D+00
    379   0.131004D-02  0.154628D-05  0.171590D-04  0.000000D+00  0.000000D+00
    380   0.329166D-02  0.165750D-03  0.116753D-02  0.000000D+00  0.000000D+00
    381   0.977517D-02  0.142707D-02  0.900895D-02  0.000000D+00  0.000000D+00
    382   0.322224D-01  0.335474D-02  0.207003D-01  0.000000D+00  0.000000D+00
    383   0.000000D+00  0.000000D+00  0.000000D+00  0.000000D+00  0.000000D+00
    384   0.000000D+00  0.000000D+00  0.000000D+00  0.000000D+00  0.000000D+00
    385   0.200990D-03  0.000000D+00  0.000000D+00  0.000000D+00  0.000000D+00
    386   0.000000D+00  0.000000D+00  0.000000D+00  0.000000D+00  0.000000D+00
    387   0.000000D+00  0.000000D+00  0.000000D+00  0.000000D+00  0.000000D+00
    388   0.601134D-03  0.000000D+00  0.000000D+00  0.000000D+00  0.000000D+00
    389   0.000000D+00  0.000000D+00  0.000000D+00  0.350375D-05  0.000000D+00
    390   0.000000D+00  0.000000D+00  0.000000D+00  0.000000D+00  0.350375D-05
    391   0.198793D-02  0.570538D-05  0.636230D-04  0.000000D+00  0.000000D+00
    392   0.000000D+00  0.000000D+00  0.000000D+00  0.369138D-03  0.000000D+00
    393   0.000000D+00  0.000000D+00  0.000000D+00  0.000000D+00  0.369138D-03
    394   0.756128D-02  0.962019D-03  0.645398D-02  0.000000D+00  0.000000D+00
    395   0.000000D+00  0.000000D+00  0.000000D+00  0.210166D-02  0.000000D+00
    396   0.000000D+00  0.000000D+00  0.000000D+00  0.000000D+00  0.210166D-02
    397   0.334491D-01  0.591925D-02  0.364592D-01  0.000000D+00  0.000000D+00
    398   0.000000D+00  0.000000D+00  0.000000D+00  0.280388D-02  0.000000D+00
    399   0.000000D+00  0.000000D+00  0.000000D+00  0.000000D+00  0.280388D-02
    400   0.135165D+00  0.794859D-02  0.486083D-01  0.000000D+00  0.000000D+00
    401   0.378421D-04  0.000000D+00  0.000000D+00  0.000000D+00  0.000000D+00
    402   0.000000D+00  0.000000D+00  0.000000D+00  0.000000D+00  0.000000D+00
    403   0.000000D+00  0.000000D+00  0.000000D+00  0.000000D+00  0.000000D+00
    404   0.000000D+00  0.000000D+00  0.000000D+00  0.000000D+00  0.000000D+00
    405   0.000000D+00  0.000000D+00  0.000000D+00  0.000000D+00  0.000000D+00
    406   0.131652D-03  0.000000D+00  0.000000D+00  0.000000D+00  0.000000D+00
    407   0.000000D+00  0.000000D+00  0.000000D+00  0.000000D+00  0.000000D+00
    408   0.000000D+00  0.000000D+00  0.000000D+00  0.000000D+00  0.000000D+00
    409   0.000000D+00  0.000000D+00  0.000000D+00  0.000000D+00  0.000000D+00
    410   0.000000D+00  0.000000D+00  0.000000D+00  0.000000D+00  0.000000D+00
    411   0.473825D-03  0.000000D+00  0.000000D+00  0.000000D+00  0.000000D+00
    412   0.000000D+00  0.000000D+00  0.000000D+00  0.000000D+00  0.000000D+00
    413   0.000000D+00  0.000000D+00  0.000000D+00  0.000000D+00  0.000000D+00
    414   0.000000D+00  0.000000D+00  0.000000D+00  0.000000D+00  0.000000D+00
    415   0.000000D+00  0.000000D+00  0.000000D+00  0.000000D+00  0.000000D+00
[...]
                     Sum of ba pair energies =    -0.070459 A.U.
                     Sum of aa pair energies =    -0.041921 A.U.
                     Sum of bb pair energies =    -0.041921 A.U.

           Sum of intraorbital pair energies =    -0.123186 A.U.
           Sum of interorbital pair energies =    -0.224760 A.U.
                                                  ----------
                         Total pair energies =    -0.347946 A.U.

                         Single Excitations  =     0.000000 A.U.

                          Total second order =    -0.347946 A.U.

                         E2(CBS) - E2(Dir) =      -0.004263 A.U.

 E2(CBS)=      -0.349926 CBS-Int=       0.001980 OIii=       1.953168

 **********************************************************************

            Population analysis using the SCF density.

 **********************************************************************

 Orbital symmetries:
       Occupied  (SG) (SG) (PI) (PI) (SG) (SG) (SG) (PI) (PI) (SG)
                 (SG) (DLTA) (DLTA) (PI) (PI) (SG) (SG) (SG) (PI)
                 (PI)
       Virtual   (SG) (PI) (PI) (SG) (PI) (PI) (SG) (SG) (SG) (PI)
                 (PI) (SG) (PI) (PI) (SG) (DLTA) (DLTA) (SG) (SG)
                 (PI) (PI) (SG) (PI) (PI) (SG) (SG) (PHI) (PHI)
                 (DLTA) (DLTA) (DLTA) (DLTA) (SG) (PI) (PI) (PI)
                 (PI) (SG) (SG) (PI) (PI) (SG) (PI) (PI) (SG) (PI)
                 (PI) (SG) (SG) (SG) (DLTA) (DLTA) (PI) (PI) (SG)
                 (DLTA) (DLTA) (PI) (PI) (DLTA) (DLTA) (PHI) (PHI)
                 (?A) (?A) (SG) (PHI) (PHI) (PI) (PI) (DLTA) (DLTA)
                 (SG) (SG) (PI) (PI) (SG) (PI) (PI) (SG) (DLTA)
                 (DLTA) (PI) (PI) (?B) (?B) (PHI) (PHI) (?A) (?A)
                 (SG) (PI) (PI) (SG) (SG) (PI) (PI) (DLTA) (DLTA)
                 (SG) (PHI) (PHI) (PI) (PI) (DLTA) (DLTA) (PHI)
                 (PHI) (DLTA) (DLTA) (SG) (PI) (PI) (DLTA) (DLTA)
                 (SG) (SG) (PHI) (PHI) (PI) (PI) (DLTA) (DLTA)
                 (SG) (SG) (SG) (?A) (?A) (?B) (?B) (PI) (PI) (SG)
                 (PI) (PI) (SG) (PI) (PI) (DLTA) (DLTA) (PHI) (PHI)
                 (SG) (?A) (?A) (SG) (PI) (PI) (DLTA) (DLTA) (PHI)
                 (PHI) (PI) (PI) (SG) (DLTA) (DLTA) (SG) (PHI)
                 (PHI) (?B) (?B) (PI) (PI) (?A) (?A) (SG) (PI)
                 (PI) (?A) (?A) (DLTA) (DLTA) (SG) (PI) (PI) (SG)
                 (DLTA) (DLTA) (PHI) (PHI) (DLTA) (DLTA) (PI) (PI)
                 (PHI) (PHI) (SG) (PI) (PI) (DLTA) (DLTA) (PHI)
                 (PHI) (SG) (PI) (PI) (SG) (SG) (DLTA) (DLTA) (?B)
                 (?B) (?C) (?C) (SG) (SG) (PI) (PI) (?A) (?A) (DLTA)
                 (DLTA) (SG) (PI) (PI) (SG) (PHI) (PHI) (DLTA)
                 (DLTA) (SG) (PI) (PI) (SG) (DLTA) (DLTA) (PI)
                 (PI) (SG) (PHI) (PHI) (?A) (?A) (SG) (SG) (?A)
                 (?A) (?B) (?B) (PI) (PI) (PHI) (PHI) (SG) (?B)
                 (?B) (PI) (PI) (SG) (DLTA) (DLTA) (PHI) (PHI)
                 (PI) (PI) (DLTA) (DLTA) (SG) (PI) (PI) (?A) (?A)
                 (DLTA) (DLTA) (SG) (?B) (?B) (?A) (?A) (PI) (PI)
                 (PHI) (PHI) (SG) (?B) (?B) (?A) (?A) (PHI) (PHI)
                 (DLTA) (DLTA) (DLTA) (DLTA) (PHI) (PHI) (SG) (PI)
                 (PI) (PI) (PI) (?A) (?A) (PI) (PI) (DLTA) (DLTA)
                 (SG) (PHI) (PHI) (SG) (SG) (PI) (PI) (?A) (?A)
                 (SG) (PHI) (PHI) (SG) (DLTA) (DLTA) (PI) (PI)
                 (DLTA) (DLTA) (PI) (PI) (PHI) (PHI) (DLTA) (DLTA)
                 (SG) (SG) (PHI) (PHI) (DLTA) (DLTA) (DLTA) (DLTA)
                 (PI) (PI) (SG) (PI) (PI) (SG) (DLTA) (DLTA) (PI)
                 (PI) (SG) (SG) (PI) (PI) (DLTA) (DLTA) (PI) (PI)
                 (SG) (SG) (SG) (?B) (?B) (?A) (?A) (SG) (PI) (PI)
                 (PHI) (PHI) (SG) (DLTA) (DLTA) (PI) (PI) (SG)
                 (PHI) (PHI) (PI) (PI) (SG) (DLTA) (DLTA) (PI)
                 (PI) (?A) (?A) (SG) (SG) (?B) (?B) (PHI) (PHI)
                 (DLTA) (DLTA) (?A) (?A) (SG) (PI) (PI) (PHI) (PHI)
                 (PI) (PI) (SG) (DLTA) (DLTA) (?A) (?A) (DLTA)
                 (DLTA) (PHI) (PHI) (PI) (PI) (SG) (DLTA) (DLTA)
                 (PI) (PI) (SG) (PI) (PI) (?A) (?A) (PI) (PI) (SG)
                 (PHI) (PHI) (PHI) (PHI) (DLTA) (DLTA) (SG) (PI)
                 (PI) (SG) (SG) (DLTA) (DLTA) (DLTA) (DLTA) (SG)
                 (PI) (PI) (?B) (?B) (SG) (SG) (?A) (?A) (PHI)
                 (PHI) (PI) (PI) (DLTA) (DLTA) (?B) (?B) (PI) (PI)
                 (?A) (?A) (PHI) (PHI) (SG) (SG) (DLTA) (DLTA)
                 (SG) (PI) (PI) (?B) (?B) (SG) (SG) (?A) (?A) (?C)
                 (?C) (PHI) (PHI) (DLTA) (DLTA) (PI) (PI) (SG)
                 (SG) (PHI) (PHI) (SG) (SG) (?B) (?B) (?A) (?A)
                 (PHI) (PHI) (DLTA) (DLTA) (DLTA) (DLTA) (PI) (PI)
                 (SG) (SG) (PI) (PI) (DLTA) (DLTA) (PI) (PI) (SG)
                 (?A) (?A) (PI) (PI) (?B) (?B) (?A) (?A) (PHI)
                 (PHI) (PHI) (PHI) (PI) (PI) (DLTA) (DLTA) (SG)
                 (SG) (DLTA) (DLTA) (PI) (PI) (SG) (PHI) (PHI)
                 (DLTA) (DLTA) (?A) (?A) (SG) (PI) (PI) (PHI) (PHI)
                 (DLTA) (DLTA) (SG) (PI) (PI) (DLTA) (DLTA) (PI)
                 (PI) (SG) (SG) (PI) (PI) (SG) (SG) (SG)
 The electronic state is 1-SG.
 Alpha  occ. eigenvalues -- -378.84491 -48.19773 -42.52596 -42.52596 -42.52078
 Alpha  occ. eigenvalues --  -20.48968  -6.42654  -4.51966  -4.51966  -4.51322
 Alpha  occ. eigenvalues --   -1.26968  -1.23486  -1.23486  -1.22693  -1.22693
 Alpha  occ. eigenvalues --   -1.12273  -0.58922  -0.45339  -0.40704  -0.40704
 Alpha virt. eigenvalues --    0.00581   0.01230   0.01230   0.02122   0.03481
 Alpha virt. eigenvalues --    0.03481   0.04193   0.05551   0.07692   0.10064
 Alpha virt. eigenvalues --    0.10064   0.10930   0.14517   0.14517   0.14689
 Alpha virt. eigenvalues --    0.16596   0.16596   0.19737   0.21434   0.23497
 Alpha virt. eigenvalues --    0.23497   0.25674   0.27733   0.27733   0.30997
 Alpha virt. eigenvalues --    0.40448   0.44788   0.44788   0.45072   0.45072
 Alpha virt. eigenvalues --    0.46930   0.46930   0.46931   0.47796   0.47796
 Alpha virt. eigenvalues --    0.48386   0.48386   0.51649   0.53966   0.55895
 Alpha virt. eigenvalues --    0.55895   0.61476   0.67172   0.67172   0.73547
 Alpha virt. eigenvalues --    0.76547   0.76547   0.81716   0.84814   0.92604
 Alpha virt. eigenvalues --    0.97139   0.97139   1.04902   1.04902   1.06165
 Alpha virt. eigenvalues --    1.06319   1.06319   1.08437   1.08437   1.10135
 Alpha virt. eigenvalues --    1.10135   1.10856   1.10856   1.14630   1.14630
 Alpha virt. eigenvalues --    1.15105   1.16464   1.16464   1.21584   1.21584
 Alpha virt. eigenvalues --    1.24970   1.24970   1.30870   1.34945   1.36495
 Alpha virt. eigenvalues --    1.36495   1.43208   1.45386   1.45386   1.51375
 Alpha virt. eigenvalues --    1.53535   1.53535   1.55743   1.55743   1.61880
 Alpha virt. eigenvalues --    1.61880   1.62138   1.62138   1.63950   1.63950
 Alpha virt. eigenvalues --    1.67994   1.71180   1.71180   1.79904   1.90971
 Alpha virt. eigenvalues --    1.97160   1.97160   2.03129   2.03129   2.12194
 Alpha virt. eigenvalues --    2.13161   2.13161   2.21846   2.21846   2.22929
 Alpha virt. eigenvalues --    2.22929   2.25997   2.25997   2.26773   2.26773
 Alpha virt. eigenvalues --    2.30472   2.31237   2.31237   2.34576   2.34576
 Alpha virt. eigenvalues --    2.39668   2.44008   2.47677   2.47677   2.52053
 Alpha virt. eigenvalues --    2.52053   2.52169   2.52169   2.61655   2.69366
 Alpha virt. eigenvalues --    2.69366   2.70983   2.70983   2.71456   2.71456
 Alpha virt. eigenvalues --    2.72950   2.72950   2.77028   2.85446   2.85446
 Alpha virt. eigenvalues --    2.90508   2.97964   2.97964   3.00683   3.00683
 Alpha virt. eigenvalues --    3.10450   3.10450   3.11823   3.12208   3.12208
 Alpha virt. eigenvalues --    3.16413   3.18005   3.18005   3.20518   3.20518
 Alpha virt. eigenvalues --    3.25576   3.25576   3.27072   3.27072   3.27632
 Alpha virt. eigenvalues --    3.37983   3.37983   3.61100   3.62435   3.62435
 Alpha virt. eigenvalues --    3.65628   3.65628   3.65797   3.65797   3.67813
 Alpha virt. eigenvalues --    3.67813   3.74028   3.82919   3.82919   3.85506
 Alpha virt. eigenvalues --    3.85506   3.88425   3.88425   3.98854   4.04303
 Alpha virt. eigenvalues --    4.04303   4.12851   4.13281   4.13281   4.40730
 Alpha virt. eigenvalues --    4.40730   4.40925   4.40925   4.41589   4.41589
 Alpha virt. eigenvalues --    4.56051   4.56051   4.61310   4.67100   4.67100
 Alpha virt. eigenvalues --    4.67808   4.67808   4.81642   4.81642   4.83319
 Alpha virt. eigenvalues --    4.84822   4.84822   4.91184   4.96056   4.98784
 Alpha virt. eigenvalues --    4.98784   5.15646   5.15646   5.15729   5.15729
 Alpha virt. eigenvalues --    5.17761   5.17761   5.18380   5.18380   5.23182
 Alpha virt. eigenvalues --    5.23182   5.25861   5.25861   5.26281   5.34045
 Alpha virt. eigenvalues --    5.34045   5.39365   5.47549   5.47549   5.49073
 Alpha virt. eigenvalues --    5.49073   5.51864   5.55016   5.55016   5.73676
 Alpha virt. eigenvalues --    5.87647   5.87647   5.96080   5.96080   6.06238
 Alpha virt. eigenvalues --    6.15052   6.15052   6.16841   6.16841   6.22518
 Alpha virt. eigenvalues --    6.22518   6.23428   6.23428   6.24552   6.24552
 Alpha virt. eigenvalues --    6.37412   6.37412   6.42156   6.42156   6.42383
 Alpha virt. eigenvalues --    6.71135   6.71135   6.72467   6.72467   6.77569
 Alpha virt. eigenvalues --    6.84273   6.84273   7.06057   7.06057   7.06414
 Alpha virt. eigenvalues --    7.06414   7.07880   7.07880   7.08011   7.18042
 Alpha virt. eigenvalues --    7.18042   7.21944   7.21944   7.22618   7.22618
 Alpha virt. eigenvalues --    7.27545   7.31661   7.31661   7.37507   7.37507
 Alpha virt. eigenvalues --    7.46862   7.46862   7.50287   7.50287   7.55401
 Alpha virt. eigenvalues --    7.60128   7.60128   7.60979   7.60979   7.72422
 Alpha virt. eigenvalues --    7.72422   7.72552   7.72552   7.90529   7.90529
 Alpha virt. eigenvalues --    8.01548   8.01548   8.08774   8.09015   8.09015
 Alpha virt. eigenvalues --    8.15990   8.15990   8.32882   8.32882   8.35231
 Alpha virt. eigenvalues --    8.35231   8.36756   8.36756   8.44747   8.56737
 Alpha virt. eigenvalues --    8.56737   8.72646   8.93253   8.98028   8.98028
 Alpha virt. eigenvalues --    9.05980   9.05980   9.06748   9.12893   9.12893
 Alpha virt. eigenvalues --    9.16493   9.19463   9.19463   9.29613   9.29613
 Alpha virt. eigenvalues --    9.49001   9.49001   9.49867   9.49867   9.63940
 Alpha virt. eigenvalues --    9.63940   9.66055   9.66055   9.74828   9.88652
 Alpha virt. eigenvalues --    9.92171   9.92171   9.98622   9.98622  10.06450
 Alpha virt. eigenvalues --   10.06450  10.10060  10.10060  10.19229  10.45117
 Alpha virt. eigenvalues --   10.45117  10.64861  10.76677  10.76677  10.81403
 Alpha virt. eigenvalues --   10.81403  11.01786  11.36842  11.50170  11.50170
 Alpha virt. eigenvalues --   11.54113  11.54113  12.05966  12.05966  12.06571
 Alpha virt. eigenvalues --   12.33324  12.33324  12.38336  12.38336  12.62951
 Alpha virt. eigenvalues --   12.62951  12.64089  12.81388  12.81388  13.05154
 Alpha virt. eigenvalues --   13.05154  13.15611  13.62371  13.62371  13.63949
 Alpha virt. eigenvalues --   13.63949  13.98025  13.99369  13.99369  14.17421
 Alpha virt. eigenvalues --   14.17421  14.79212  15.05736  15.05736  15.55502
 Alpha virt. eigenvalues --   15.55502  15.77344  15.77344  15.93058  16.39883
 Alpha virt. eigenvalues --   16.53814  16.53814  16.60850  16.60850  16.67752
 Alpha virt. eigenvalues --   16.67752  16.78226  16.78226  16.86933  17.04395
 Alpha virt. eigenvalues --   17.04395  17.40830  17.40830  17.58145  17.58145
 Alpha virt. eigenvalues --   17.70318  17.71515  17.71515  17.76446  17.76446
 Alpha virt. eigenvalues --   17.86358  17.86358  17.89366  17.89366  17.91024
 Alpha virt. eigenvalues --   17.91024  18.13874  18.53513  18.53513  18.56649
 Alpha virt. eigenvalues --   18.56649  18.81004  18.95642  18.95642  19.51673
 Alpha virt. eigenvalues --   19.51673  19.53489  19.53489  19.55448  19.79383
 Alpha virt. eigenvalues --   19.79383  20.03659  20.03659  20.04255  20.04255
 Alpha virt. eigenvalues --   20.12864  20.39183  20.39183  20.39971  20.60830
 Alpha virt. eigenvalues --   21.00838  21.00838  22.11225  22.11225  22.45090
 Alpha virt. eigenvalues --   22.54183  22.54183  22.88489  22.88489  22.88870
 Alpha virt. eigenvalues --   22.88870  22.90324  22.90324  22.93671  22.93671
 Alpha virt. eigenvalues --   23.01467  23.01467  23.03142  23.03142  23.30649
 Alpha virt. eigenvalues --   23.30649  23.34672  23.34672  23.52205  23.52205
 Alpha virt. eigenvalues --   23.77825  23.77825  23.79493  23.84403  23.94947
 Alpha virt. eigenvalues --   23.94947  24.31663  24.40334  24.40334  25.37821
 Alpha virt. eigenvalues --   25.37821  25.38483  25.38483  25.38621  25.38621
 Alpha virt. eigenvalues --   25.39667  25.39667  25.40928  25.40928  25.45514
 Alpha virt. eigenvalues --   25.45514  25.58616  25.58616  25.67205  26.33014
 Alpha virt. eigenvalues --   33.15173  33.15173  33.53569  33.53569  33.54719
 Alpha virt. eigenvalues --   33.54719  33.63105  33.63105  33.79922  33.79922
 Alpha virt. eigenvalues --   33.98540  33.98540  34.06190  34.06190  34.13553
 Alpha virt. eigenvalues --   34.13553  34.25629  34.61835  34.72441  34.72441
 Alpha virt. eigenvalues --   37.65618  37.65618  38.13113  38.13113  38.31649
 Alpha virt. eigenvalues --   38.40382  38.40382  38.56743  38.56743  38.59320
 Alpha virt. eigenvalues --   38.59320  38.73180  38.73180  38.86745  38.86745
 Alpha virt. eigenvalues --   39.21745  39.21745  39.30394  39.30394  39.33007
 Alpha virt. eigenvalues --   39.33007  39.34255  39.58645  39.67843  39.67843
 Alpha virt. eigenvalues --   39.79996  39.79996  40.10404  41.44811  41.44811
 Alpha virt. eigenvalues --   42.04960  42.04960  42.55128  42.55128  42.68753
 Alpha virt. eigenvalues --   42.70682  42.70682  42.79752  42.79752  43.06281
 Alpha virt. eigenvalues --   43.06281  43.65173  43.72700  43.72700  46.62996
 Alpha virt. eigenvalues --   46.62996  47.25447  47.25447  47.80802  49.11253
 Alpha virt. eigenvalues --   53.12279  53.12279  55.08200 108.33920 450.91544
          Condensed to atoms (all electrons):
              1          2          3
     1  H    0.607902   0.397202   0.002953
     2  Ga   0.397202  29.483947   0.505924
     3  O    0.002953   0.505924   8.095993
 Mulliken atomic charges:
              1
     1  H   -0.008057
     2  Ga   0.612927
     3  O   -0.604870
 Sum of Mulliken atomic charges =   0.00000
 Mulliken charges with hydrogens summed into heavy atoms:
              1
     2  Ga   0.604870
     3  O   -0.604870
 Sum of Mulliken charges with hydrogens summed into heavy atoms =   0.00000
          Atomic-Atomic Spin Densities.
              1          2          3
     1  H    0.000000   0.000000   0.000000
     2  Ga   0.000000   0.000000   0.000000
     3  O    0.000000   0.000000   0.000000
 Mulliken atomic spin densities:
              1
     1  H    0.000000
     2  Ga   0.000000
     3  O    0.000000
 Sum of Mulliken atomic spin densities =   0.00000
 Electronic spatial extent (au):  <R**2>=            124.0806
 Charge=              0.0000 electrons
 Dipole moment (field-independent basis, Debye):
    X=              0.0000    Y=              0.0000    Z=              5.7063  Tot=              5.7063
 Quadrupole moment (field-independent basis, Debye-Ang):
   XX=            -19.4854   YY=            -19.4854   ZZ=            -29.0301
   XY=              0.0000   XZ=              0.0000   YZ=              0.0000
 Traceless Quadrupole moment (field-independent basis, Debye-Ang):
   XX=              3.1816   YY=              3.1816   ZZ=             -6.3631
   XY=              0.0000   XZ=              0.0000   YZ=              0.0000
 Octapole moment (field-independent basis, Debye-Ang**2):
  XXX=              0.0000  YYY=              0.0000  ZZZ=             15.4085  XYY=              0.0000
  XXY=              0.0000  XXZ=              4.3194  XZZ=              0.0000  YZZ=              0.0000
  YYZ=              4.3194  XYZ=              0.0000
 Hexadecapole moment (field-independent basis, Debye-Ang**3):
 XXXX=            -19.7626 YYYY=            -19.7626 ZZZZ=           -138.2404 XXXY=              0.0000
 XXXZ=              0.0000 YYYX=              0.0000 YYYZ=              0.0000 ZZZX=              0.0000
 ZZZY=              0.0000 XXYY=             -6.5875 XXZZ=            -25.4912 YYZZ=            -25.4912
 XXYZ=              0.0000 YYXZ=              0.0000 ZZXY=              0.0000
 N-N= 9.187006615519D+01 E-N=-7.456999359787D+03  KE= 2.998013450849D+03
                          Isotropic Fermi Contact Couplings
        Atom                 a.u.       MegaHertz       Gauss      10(-4) cm-1
     1  H(1)               0.00000       0.00000       0.00000       0.00000
     2  Ga(69)             0.00000       0.00000       0.00000       0.00000
     3  O(17)              0.00000       0.00000       0.00000       0.00000
 --------------------------------------------------------
       Center         ----  Spin Dipole Couplings  ----
                      3XX-RR        3YY-RR        3ZZ-RR
 --------------------------------------------------------
     1   Atom        0.000000      0.000000      0.000000
     2   Atom        0.000000      0.000000      0.000000
     3   Atom        0.000000      0.000000      0.000000
 --------------------------------------------------------
                        XY            XZ            YZ
 --------------------------------------------------------
     1   Atom        0.000000      0.000000      0.000000
     2   Atom        0.000000      0.000000      0.000000
     3   Atom        0.000000      0.000000      0.000000
 --------------------------------------------------------


 ---------------------------------------------------------------------------------
              Anisotropic Spin Dipole Couplings in Principal Axis System
 ---------------------------------------------------------------------------------

       Atom             a.u.   MegaHertz   Gauss  10(-4) cm-1        Axes

              Baa     0.0000     0.000     0.000     0.000  1.0000  0.0000  0.0000
     1 H(1)   Bbb     0.0000     0.000     0.000     0.000  0.0000  1.0000  0.0000
              Bcc     0.0000     0.000     0.000     0.000  0.0000  0.0000  1.0000
 
              Baa     0.0000     0.000     0.000     0.000  1.0000  0.0000  0.0000
     2 Ga(69) Bbb     0.0000     0.000     0.000     0.000  0.0000  1.0000  0.0000
              Bcc     0.0000     0.000     0.000     0.000  0.0000  0.0000  1.0000
 
              Baa     0.0000     0.000     0.000     0.000  1.0000  0.0000  0.0000
     3 O(17)  Bbb     0.0000     0.000     0.000     0.000  0.0000  1.0000  0.0000
              Bcc     0.0000     0.000     0.000     0.000  0.0000  0.0000  1.0000
 

 ---------------------------------------------------------------------------------


 Test job not archived.
 1\1\GINC-C31\SP\ROMP2-RW\Gen\Ga1H1O1\GPETERSSON\24-Aug-2012\0\\# ROMP2
 (RW) Gen GFinput Int=NoBasisTransform Int(Grid=Ultrafine) IOp(3/32=2,5
 /6=10,8/11=1,9/33=1) Maxdisk=128GB CBSextrapolate(Nmin=25,MinPop)\\H-G
 a=O\\0,1\H\Ga,1,1.52078\X,2,1.,1,90.\O,2,1.64567,3,90.,1,180.,0\\Versi
 on=EM64L-G09RevA.02\State=1-SG\HF=-1998.7153426\MP2=-1999.0610055\E2(C
 BS)=-0.3499256\CBS-Int=-0.3479456\OIii=1.953168\RMSD=2.195e-11\PG=C*V 
 [C*(O1Ga1H1)]\\@


 NOTHING RESEMBLES A NEW PHENOMENON AS MUCH AS A MISTAKE.

                               -- ENRICO FERMI (?)
 Job cpu time:  5 days 18 hours 26 minutes 32.1 seconds.
 File lengths (MBytes):  RWF=  20778 Int=      0 D2E=      0 Chk=     26 Scr=      1
 Normal termination of Gaussian 09 at Fri Aug 24 07:44:37 2012.
