 Entering Gaussian System, Link 0=g09
 AtFile(1): 7ZaPa-NR.gbs
 Initial command:
 /share/apps/gaussian/g09root/g09/l1.exe /localscratch/934357/Gau-15279.inp -scrdir=/localscratch/934357/
 Entering Link 1 = /share/apps/gaussian/g09root/g09/l1.exe PID=     15280.
  
 Copyright (c) 1988,1990,1992,1993,1995,1998,2003,2009, Gaussian, Inc.
                  All Rights Reserved.
  
 This is part of the Gaussian(R) 09 program.  It is based on
 the Gaussian(R) 03 system (copyright 2003, Gaussian, Inc.),
 the Gaussian(R) 98 system (copyright 1998, Gaussian, Inc.),
 the Gaussian(R) 94 system (copyright 1995, Gaussian, Inc.),
 the Gaussian 92(TM) system (copyright 1992, Gaussian, Inc.),
 the Gaussian 90(TM) system (copyright 1990, Gaussian, Inc.),
 the Gaussian 88(TM) system (copyright 1988, Gaussian, Inc.),
 the Gaussian 86(TM) system (copyright 1986, Carnegie Mellon
 University), and the Gaussian 82(TM) system (copyright 1983,
 Carnegie Mellon University). Gaussian is a federally registered
 trademark of Gaussian, Inc.
  
 This software contains proprietary and confidential information,
 including trade secrets, belonging to Gaussian, Inc.
  
 This software is provided under written license and may be
 used, copied, transmitted, or stored only in accord with that
 written license.
  
 The following legend is applicable only to US Government
 contracts under FAR:
  
                    RESTRICTED RIGHTS LEGEND
  
 Use, reproduction and disclosure by the US Government is
 subject to restrictions as set forth in subparagraphs (a)
 and (c) of the Commercial Computer Software - Restricted
 Rights clause in FAR 52.227-19.
  
 Gaussian, Inc.
 340 Quinnipiac St., Bldg. 40, Wallingford CT 06492
  
  
 ---------------------------------------------------------------
 Warning -- This program may not be used in any manner that
 competes with the business of Gaussian, Inc. or will provide
 assistance to any competitor of Gaussian, Inc.  The licensee
 of this program is prohibited from giving any competitor of
 Gaussian, Inc. access to this program.  By using this program,
 the user acknowledges that Gaussian, Inc. is engaged in the
 business of creating and licensing software in the field of
 computational chemistry and represents and warrants to the
 licensee that it is not a competitor of Gaussian, Inc. and that
 it will not use this program in any manner prohibited above.
 ---------------------------------------------------------------
  

 Cite this work as:
 Gaussian 09, Revision A.02,
 M. J. Frisch, G. W. Trucks, H. B. Schlegel, G. E. Scuseria, 
 M. A. Robb, J. R. Cheeseman, G. Scalmani, V. Barone, B. Mennucci, 
 G. A. Petersson, H. Nakatsuji, M. Caricato, X. Li, H. P. Hratchian, 
 A. F. Izmaylov, J. Bloino, G. Zheng, J. L. Sonnenberg, M. Hada, 
 M. Ehara, K. Toyota, R. Fukuda, J. Hasegawa, M. Ishida, T. Nakajima, 
 Y. Honda, O. Kitao, H. Nakai, T. Vreven, J. A. Montgomery, Jr., 
 J. E. Peralta, F. Ogliaro, M. Bearpark, J. J. Heyd, E. Brothers, 
 K. N. Kudin, V. N. Staroverov, R. Kobayashi, J. Normand, 
 K. Raghavachari, A. Rendell, J. C. Burant, S. S. Iyengar, J. Tomasi, 
 M. Cossi, N. Rega, J. M. Millam, M. Klene, J. E. Knox, J. B. Cross, 
 V. Bakken, C. Adamo, J. Jaramillo, R. Gomperts, R. E. Stratmann, 
 O. Yazyev, A. J. Austin, R. Cammi, C. Pomelli, J. W. Ochterski, 
 R. L. Martin, K. Morokuma, V. G. Zakrzewski, G. A. Voth, 
 P. Salvador, J. J. Dannenberg, S. Dapprich, A. D. Daniels, 
 O. Farkas, J. B. Foresman, J. V. Ortiz, J. Cioslowski, 
 and D. J. Fox, Gaussian, Inc., Wallingford CT, 2009.
 
 ******************************************
 Gaussian 09:  EM64L-G09RevA.02 11-Jun-2009
                13-May-2013 
 ******************************************
 % Mem=12GB
 % Nproc=8
 Will use up to    8 processors via shared memory.
 ----------------------------------------------------------------------
 # ROMP2(RW) Gen GFinput Int=NoBasisTransform Int(Grid=Ultrafine) IOp(3
 /32=2,5/6=10,8/11=1,9/33=1) Maxdisk=128GB CBSextrapolate(Nmin=25,MinPo
 p)
 ----------------------------------------------------------------------
 1/38=1/1;
 2/12=2,17=6,18=5,40=1/2;
 3/5=7,11=2,16=1,24=10,25=1,30=1,32=2,60=-1,75=-5,116=101/1,2,3;
 4//1;
 5/5=2,6=10,38=5/2;
 8/5=-1,10=91,11=1/1;
 9/16=-3,33=1,75=2,81=25,83=4/6,4;
 6/7=2,8=2,9=2,10=2/1;
 99/5=1,9=1/99;
 ------
 H-Ga=O
 ------
 Symbolic Z-matrix:
 Charge =  0 Multiplicity = 1
 H
 Ga                   1     1.52078 
 X                    2     1.       1     90. 
 O                    2     1.64567  3     90.      1     180.     0
 
                          Input orientation:                          
 ---------------------------------------------------------------------
 Center     Atomic      Atomic             Coordinates (Angstroms)
 Number     Number       Type             X           Y           Z
 ---------------------------------------------------------------------
      1          1           0        0.000000    0.000000    0.000000
      2         31           0        0.000000    0.000000    1.520780
      3          8           0        0.000000    0.000000    3.166450
 ---------------------------------------------------------------------
                    Distance matrix (angstroms):
                    1          2          3
     1  H    0.000000
     2  Ga   1.520780   0.000000
     3  O    3.166450   1.645670   0.000000
 Stoichiometry    GaHO
 Framework group  C*V[C*(OGaH)]
 Deg. of freedom     2
 Full point group                 C*V     NOp   4
 Largest Abelian subgroup         C2V     NOp   4
 Largest concise Abelian subgroup C1      NOp   1
                         Standard orientation:                         
 ---------------------------------------------------------------------
 Center     Atomic      Atomic             Coordinates (Angstroms)
 Number     Number       Type             X           Y           Z
 ---------------------------------------------------------------------
      1          1           0        0.000000    0.000000    1.811895
      2         31           0        0.000000    0.000000    0.291115
      3          8           0        0.000000    0.000000   -1.354556
 ---------------------------------------------------------------------
 Rotational constants (GHZ):      0.0000000     13.1277025     13.1277025
 General basis read from cards:  (5D, 7F)
 AO basis set in the form of general basis input (Overlap normalization):
      1 0
 S  12 1.00       0.000000000000
      0.5381780160D+04  0.1012686299D-04
      0.9139887390D+03  0.7169476206D-04
      0.2020220330D+03  0.4090344007D-03
      0.5529293400D+02  0.1775146749D-02
      0.1792053700D+02  0.6303908266D-02
      0.6611010000D+01  0.1916649659D-01
      0.2682085000D+01  0.5121491647D-01
      0.1162104000D+01  0.1213171629D+00
      0.5249190000D+00  0.2420085149D+00
      0.2425210000D+00  0.3592427208D+00
      0.1130260000D+00  0.2831494728D+00
      0.5267100000D-01  0.6030267546D-01
 S   1 1.00       0.000000000000
      0.2553700000D-01  0.1000000000D+01
 S   1 1.00       0.000000000000
      0.9448000000D-02  0.1000000000D+01
 S   1 1.00       0.000000000000
      0.3873663000D+01  0.1000000000D+01
 S   1 1.00       0.000000000000
      0.1681599000D+01  0.1000000000D+01
 S   1 1.00       0.000000000000
      0.7300000000D+00  0.1000000000D+01
 S   1 1.00       0.000000000000
      0.3169010000D+00  0.1000000000D+01
 S   1 1.00       0.000000000000
      0.1375700000D+00  0.1000000000D+01
 S   1 1.00       0.000000000000
      0.5972100000D-01  0.1000000000D+01
 P   1 1.00       0.000000000000
      0.7901081000D+01  0.1000000000D+01
 P   1 1.00       0.000000000000
      0.3743343000D+01  0.1000000000D+01
 P   1 1.00       0.000000000000
      0.1773506000D+01  0.1000000000D+01
 P   1 1.00       0.000000000000
      0.8402450000D+00  0.1000000000D+01
 P   1 1.00       0.000000000000
      0.3980880000D+00  0.1000000000D+01
 P   1 1.00       0.000000000000
      0.1886040000D+00  0.1000000000D+01
 P   1 1.00       0.000000000000
      0.8935570000D-01  0.1000000000D+01
 D   1 1.00       0.000000000000
      0.6793936000D+01  0.1000000000D+01
 D   1 1.00       0.000000000000
      0.3278394000D+01  0.1000000000D+01
 D   1 1.00       0.000000000000
      0.1581979000D+01  0.1000000000D+01
 D   1 1.00       0.000000000000
      0.7633790000D+00  0.1000000000D+01
 D   1 1.00       0.000000000000
      0.3683670000D+00  0.1000000000D+01
 D   1 1.00       0.000000000000
      0.1777540000D+00  0.1000000000D+01
 F   1 1.00       0.000000000000
      0.5541324000D+01  0.1000000000D+01
 F   1 1.00       0.000000000000
      0.2486224000D+01  0.1000000000D+01
 F   1 1.00       0.000000000000
      0.1115494000D+01  0.1000000000D+01
 F   1 1.00       0.000000000000
      0.5004880000D+00  0.1000000000D+01
 F   1 1.00       0.000000000000
      0.2245530000D+00  0.1000000000D+01
 G   1 1.00       0.000000000000
      0.5708716000D+01  0.1000000000D+01
 G   1 1.00       0.000000000000
      0.2571411000D+01  0.1000000000D+01
 G   1 1.00       0.000000000000
      0.1158256000D+01  0.1000000000D+01
 G   1 1.00       0.000000000000
      0.5217201000D+00  0.1000000000D+01
 H   1 1.00       0.000000000000
      0.3367163000D+01  0.1000000000D+01
 H   1 1.00       0.000000000000
      0.1196260000D+01  0.1000000000D+01
 H   1 1.00       0.000000000000
      0.4249980000D+00  0.1000000000D+01
 I   1 1.00       0.000000000000
      0.3091020597D+01  0.1000000000D+01
 I   1 1.00       0.000000000000
      0.4278840000D+00  0.1000000000D+01
 ****
      2 0
 S  19 1.00       0.000000000000
      0.7369011450D+08  0.3398652299D-06
      0.1434742920D+08  0.2011367417D-05
      0.3348383880D+07  0.1130957301D-04
      0.9124584310D+06  0.5123735321D-04
      0.2836389560D+06  0.1991605688D-03
      0.9851556540D+05  0.6773538271D-03
      0.3754130700D+05  0.2064829886D-02
      0.1544692820D+05  0.5740627196D-02
      0.6768058940D+04  0.1473265984D-01
      0.3119967080D+04  0.3504746214D-01
      0.1497624980D+04  0.7662036226D-01
      0.7419428600D+03  0.1498807848D+00
      0.3764941930D+03  0.2474840225D+00
      0.1944226120D+03  0.3069954700D+00
      0.1016027390D+03  0.2299418859D+00
      0.5346974300D+02  0.7327690628D-01
      0.2821293200D+02  0.5939524312D-02
      0.1486462300D+02  0.9408089699D-03
      0.7789383000D+01  0.5390931690D-04
 S  16 1.00       0.000000000000
      0.3754130700D+05 -0.1413315410D-05
      0.1544692820D+05 -0.1112545724D-04
      0.6768058940D+04 -0.6518389306D-04
      0.3119967080D+04 -0.3624530488D-03
      0.1497624980D+04 -0.1633270226D-02
      0.7419428600D+03 -0.6729113205D-02
      0.3764941930D+03 -0.2269331977D-01
      0.1944226120D+03 -0.6006394409D-01
      0.1016027390D+03 -0.8834593784D-01
      0.5346974300D+02  0.1561467785D-01
      0.2821293200D+02  0.3399208064D+00
      0.1486462300D+02  0.5122009021D+00
      0.7789383000D+01  0.2302523144D+00
      0.4043324000D+01  0.2407581200D-01
      0.2070062000D+01  0.4228402367D-03
      0.1040293000D+01 -0.9862724372D-03
 P  16 1.00       0.000000000000
      0.9425215910D+05  0.3841050629D-05
      0.2560114340D+05  0.2942504327D-04
      0.8250355540D+04  0.1874543863D-03
      0.3061108590D+04  0.9190166738D-03
      0.1273111470D+04  0.3667933141D-02
      0.5796597140D+03  0.1219761921D-01
      0.2830035420D+03  0.3447704185D-01
      0.1455052420D+03  0.8338733117D-01
      0.7756386400D+02  0.1676299494D+00
      0.4229972300D+02  0.2686581977D+00
      0.2333461200D+02  0.3159418725D+00
      0.1289816500D+02  0.2209379094D+00
      0.7087574000D+01  0.7138686121D-01
      0.3846748000D+01  0.8464777027D-02
      0.2051226000D+01  0.5966694539D-03
      0.1069977000D+01 -0.5133823437D-05
 S  12 1.00       0.000000000000
      0.3764941930D+03  0.1485477676D-03
      0.1944226120D+03  0.8156771649D-03
      0.1016027390D+03  0.3011245023D-02
      0.5346974300D+02  0.9342797537D-03
      0.2821293200D+02 -0.4273808038D-01
      0.1486462300D+02 -0.1840516791D+00
      0.7789383000D+01 -0.1084100230D+00
      0.4043324000D+01  0.3310335649D+00
      0.2070062000D+01  0.5775376285D+00
      0.1040293000D+01  0.2893210560D+00
      0.5103690000D+00  0.2457612212D-01
      0.2428970000D+00  0.1321313402D-02
 P  15 1.00       0.000000000000
      0.1273111470D+04 -0.6571916991D-05
      0.5796597140D+03 -0.5081148643D-04
      0.2830035420D+03 -0.3310930151D-03
      0.1455052420D+03 -0.1555798310D-02
      0.7756386400D+02 -0.5443652598D-02
      0.4229972300D+02 -0.1333429724D-01
      0.2333461200D+02 -0.2201409373D-01
      0.1289816500D+02  0.1781053564D-01
      0.7087574000D+01  0.1702204860D+00
      0.3846748000D+01  0.3410060528D+00
      0.2051226000D+01  0.3648191556D+00
      0.1069977000D+01  0.1982117296D+00
      0.5440280000D+00  0.3843317070D-01
      0.2688030000D+00  0.2562935316D-02
      0.1287170000D+00  0.3623204614D-03
 D  16 1.00       0.000000000000
      0.3460814690D+04  0.5851294600D-05
      0.1082534080D+04  0.6003647436D-04
      0.4154353850D+03  0.4041708790D-03
      0.1841120670D+03  0.1935943437D-02
      0.8995822000D+02  0.7246417236D-02
      0.4682493700D+02  0.2142316126D-01
      0.2534045100D+02  0.5225022797D-01
      0.1402460500D+02  0.1087717495D+00
      0.7853259000D+01  0.1810230846D+00
      0.4418060000D+01  0.2356453347D+00
      0.2483481000D+01  0.2510696383D+00
      0.1386562000D+01  0.2242937491D+00
      0.7623140000D+00  0.1596632821D+00
      0.4072570000D+00  0.7950840994D-01
      0.2072110000D+00  0.2047231171D-01
      0.9753800000D-01  0.1665391293D-02
 S  11 1.00       0.000000000000
      0.5346974300D+02 -0.3497481714D-04
      0.2821293200D+02  0.4225810351D-03
      0.1486462300D+02  0.2985531452D-02
      0.7789383000D+01  0.1748864762D-02
      0.4043324000D+01 -0.1390575022D-01
      0.2070062000D+01 -0.6102580101D-01
      0.1040293000D+01 -0.1488437419D+00
      0.5103690000D+00  0.2839414382D-02
      0.2428970000D+00  0.3865149305D+00
      0.1113180000D+00  0.5561054320D+00
      0.4870400000D-01  0.1965875103D+00
 S   1 1.00       0.000000000000
      0.5125000000D-01  0.1000000000D+01
 S   1 1.00       0.000000000000
      0.1774900000D-01  0.1000000000D+01
 P  10 1.00       0.000000000000
      0.1289816500D+02 -0.3062720921D-03
      0.7087574000D+01 -0.2085122072D-02
      0.3846748000D+01 -0.4496809748D-02
      0.2051226000D+01 -0.1050800390D-01
      0.1069977000D+01 -0.1369286118D-01
      0.5440280000D+00  0.4975412170D-01
      0.2688030000D+00  0.2088157852D+00
      0.1287170000D+00  0.3839233801D+00
      0.5957900000D-01  0.3860263116D+00
      0.2658500000D-01  0.1234014540D+00
 P   1 1.00       0.000000000000
      0.7640000000D-02  0.1000000000D+01
 P   1 1.00       0.000000000000
      0.2208300000D-01  0.1000000000D+01
 S   1 1.00       0.000000000000
      0.2860788000D+01  0.1000000000D+01
 S   1 1.00       0.000000000000
      0.1574103000D+01  0.1000000000D+01
 S   1 1.00       0.000000000000
      0.8661250000D+00  0.1000000000D+01
 S   1 1.00       0.000000000000
      0.4765720000D+00  0.1000000000D+01
 S   1 1.00       0.000000000000
      0.2622260000D+00  0.1000000000D+01
 S   1 1.00       0.000000000000
      0.1442860000D+00  0.1000000000D+01
 P   1 1.00       0.000000000000
      0.1466257000D+01  0.1000000000D+01
 P   1 1.00       0.000000000000
      0.8880830000D+00  0.1000000000D+01
 P   1 1.00       0.000000000000
      0.5378940000D+00  0.1000000000D+01
 P   1 1.00       0.000000000000
      0.3257920000D+00  0.1000000000D+01
 P   1 1.00       0.000000000000
      0.1973260000D+00  0.1000000000D+01
 P   1 1.00       0.000000000000
      0.1195160000D+00  0.1000000000D+01
 D   1 1.00       0.000000000000
      0.1557708000D+01  0.1000000000D+01
 D   1 1.00       0.000000000000
      0.8449680000D+00  0.1000000000D+01
 D   1 1.00       0.000000000000
      0.4583470000D+00  0.1000000000D+01
 D   1 1.00       0.000000000000
      0.2486270000D+00  0.1000000000D+01
 D   1 1.00       0.000000000000
      0.1348660000D+00  0.1000000000D+01
 D   1 1.00       0.000000000000
      0.7315700000D-01  0.1000000000D+01
 D   1 1.00       0.000000000000
      0.3968340000D-01  0.1000000000D+01
 F   1 1.00       0.000000000000
      0.1533439000D+01  0.1000000000D+01
 F   1 1.00       0.000000000000
      0.8375150000D+00  0.1000000000D+01
 F   1 1.00       0.000000000000
      0.4574240000D+00  0.1000000000D+01
 F   1 1.00       0.000000000000
      0.2498300000D+00  0.1000000000D+01
 F   1 1.00       0.000000000000
      0.1364490000D+00  0.1000000000D+01
 F   1 1.00       0.000000000000
      0.7452400000D-01  0.1000000000D+01
 G   1 1.00       0.000000000000
      0.3455892000D+01  0.1000000000D+01
 G   1 1.00       0.000000000000
      0.1431678000D+01  0.1000000000D+01
 G   1 1.00       0.000000000000
      0.5931030000D+00  0.1000000000D+01
 G   1 1.00       0.000000000000
      0.2457060000D+00  0.1000000000D+01
 G   1 1.00       0.000000000000
      0.1017890000D+00  0.1000000000D+01
 H   1 1.00       0.000000000000
      0.9338210000D+00  0.1000000000D+01
 H   1 1.00       0.000000000000
      0.5332140000D+00  0.1000000000D+01
 H   1 1.00       0.000000000000
      0.3044660000D+00  0.1000000000D+01
 H   1 1.00       0.000000000000
      0.1738510000D+00  0.1000000000D+01
 I   1 1.00       0.000000000000
      0.7616390000D+00  0.1000000000D+01
 I   1 1.00       0.000000000000
      0.4074190000D+00  0.1000000000D+01
 I   1 1.00       0.000000000000
      0.2179380000D+00  0.1000000000D+01
 J   1 1.00       0.000000000000
      0.6388588486D+00  0.1000000000D+01
 ****
      3 0
 S  16 1.00       0.000000000000
      0.1411246410D+07  0.1627429822D-05
      0.2499102240D+06  0.1092621996D-04
      0.5603410580D+05  0.6238741867D-04
      0.1521153640D+05  0.2783303491D-03
      0.4812287750D+04  0.1040541872D-02
      0.1717755460D+04  0.3380392793D-02
      0.6733958240D+03  0.9828484765D-02
      0.2835101840D+03  0.2605310129D-01
      0.1258620070D+03  0.6280818057D-01
      0.5804472200D+02  0.1348202075D+00
      0.2747198500D+02  0.2435563460D+00
      0.1321062900D+02  0.3323287378D+00
      0.6399806000D+01  0.2607930483D+00
      0.3099614000D+01  0.7430834326D-01
      0.1489856000D+01  0.4189538074D-02
      0.7052010000D+00  0.8706455725D-03
 S  11 1.00       0.000000000000
      0.2835101840D+03 -0.1122588094D-03
      0.1258620070D+03 -0.5559335617D-03
      0.5804472200D+02 -0.2851687904D-02
      0.2747198500D+02 -0.1133494995D-01
      0.1321062900D+02 -0.3657977704D-01
      0.6399806000D+01 -0.7288994197D-01
      0.3099614000D+01 -0.1062032356D-01
      0.1489856000D+01  0.2196705572D+00
      0.7052010000D+00  0.4294832072D+00
      0.3258480000D+00  0.3775832849D+00
      0.1454600000D+00  0.9640261255D-01
 S   1 1.00       0.000000000000
      0.5814297870D-01  0.1000000000D+01
 P  13 1.00       0.000000000000
      0.2085279200D+04  0.1447911740D-04
      0.5101470830D+03  0.1283233588D-03
      0.1616811510D+03  0.7792790007D-03
      0.6114945200D+02  0.3400506049D-02
      0.2597660200D+02  0.1157685214D-01
      0.1187542600D+02  0.3269740339D-01
      0.5677133000D+01  0.8011404242D-01
      0.2786475000D+01  0.1605265057D+00
      0.1387844000D+01  0.2460495026D+00
      0.6952810000D+00  0.2898982926D+00
      0.3470020000D+00  0.2606799382D+00
      0.1700990000D+00  0.1479363112D+00
      0.8008000000D-01  0.2980261453D-01
 P   1 1.00       0.000000000000
      0.4261436033D-01  0.1000000000D+01
 S   1 1.00       0.000000000000
      0.4249866000D+01  0.1000000000D+01
 S   1 1.00       0.000000000000
      0.2167470000D+01  0.1000000000D+01
 S   1 1.00       0.000000000000
      0.1105429000D+01  0.1000000000D+01
 S   1 1.00       0.000000000000
      0.5637790000D+00  0.1000000000D+01
 S   1 1.00       0.000000000000
      0.2875320000D+00  0.1000000000D+01
 S   1 1.00       0.000000000000
      0.1466440000D+00  0.1000000000D+01
 P   1 1.00       0.000000000000
      0.5659724000D+01  0.1000000000D+01
 P   1 1.00       0.000000000000
      0.2575878000D+01  0.1000000000D+01
 P   1 1.00       0.000000000000
      0.1172344000D+01  0.1000000000D+01
 P   1 1.00       0.000000000000
      0.5335620000D+00  0.1000000000D+01
 P   1 1.00       0.000000000000
      0.2428370000D+00  0.1000000000D+01
 P   1 1.00       0.000000000000
      0.1105210000D+00  0.1000000000D+01
 D   1 1.00       0.000000000000
      0.9464211000D+01  0.1000000000D+01
 D   1 1.00       0.000000000000
      0.4752286000D+01  0.1000000000D+01
 D   1 1.00       0.000000000000
      0.2386276000D+01  0.1000000000D+01
 D   1 1.00       0.000000000000
      0.1198226000D+01  0.1000000000D+01
 D   1 1.00       0.000000000000
      0.6016680000D+00  0.1000000000D+01
 D   1 1.00       0.000000000000
      0.3021170000D+00  0.1000000000D+01
 D   1 1.00       0.000000000000
      0.1517020000D+00  0.1000000000D+01
 F   1 1.00       0.000000000000
      0.7001836000D+01  0.1000000000D+01
 F   1 1.00       0.000000000000
      0.3552509000D+01  0.1000000000D+01
 F   1 1.00       0.000000000000
      0.1802430000D+01  0.1000000000D+01
 F   1 1.00       0.000000000000
      0.9144960000D+00  0.1000000000D+01
 F   1 1.00       0.000000000000
      0.4639860000D+00  0.1000000000D+01
 F   1 1.00       0.000000000000
      0.2354110000D+00  0.1000000000D+01
 G   1 1.00       0.000000000000
      0.6472481000D+01  0.1000000000D+01
 G   1 1.00       0.000000000000
      0.3119071000D+01  0.1000000000D+01
 G   1 1.00       0.000000000000
      0.1503072000D+01  0.1000000000D+01
 G   1 1.00       0.000000000000
      0.7243260000D+00  0.1000000000D+01
 G   1 1.00       0.000000000000
      0.3490500000D+00  0.1000000000D+01
 H   1 1.00       0.000000000000
      0.5355083000D+01  0.1000000000D+01
 H   1 1.00       0.000000000000
      0.2414696000D+01  0.1000000000D+01
 H   1 1.00       0.000000000000
      0.1088827000D+01  0.1000000000D+01
 H   1 1.00       0.000000000000
      0.4909703000D+00  0.1000000000D+01
 I   1 1.00       0.000000000000
      0.4322113000D+01  0.1000000000D+01
 I   1 1.00       0.000000000000
      0.1716263000D+01  0.1000000000D+01
 I   1 1.00       0.000000000000
      0.6815089000D+00  0.1000000000D+01
 J   1 1.00       0.000000000000
      0.3060973723D+01  0.1000000000D+01
 ****

 There are   247 symmetry adapted basis functions of A1  symmetry.
 There are   118 symmetry adapted basis functions of A2  symmetry.
 There are   174 symmetry adapted basis functions of B1  symmetry.
 There are   174 symmetry adapted basis functions of B2  symmetry.
 Integral buffers will be    131072 words long.
 Raffenetti 2 integral format.
 Two-electron integral symmetry is turned on.
   713 basis functions,  1471 primitive gaussians,  1141 cartesian basis functions
    20 alpha electrons       20 beta electrons
       nuclear repulsion energy        91.8700661552 Hartrees.
 NAtoms=    3 NActive=    3 NUniq=    3 SFac= 7.50D-01 NAtFMM=   80 NAOKFM=F Big=F
 One-electron integrals computed using PRISM.
 NBasis=   713 RedAO= F  NBF=   247   118   174   174
 NBsUse=   713 1.00D-04 NBFU=   247   118   174   174
 Harris functional with IExCor=  205 diagonalized for initial guess.
 ExpMin= 7.64D-03 ExpMax= 7.37D+07 ExpMxC= 6.77D+03 IAcc=3 IRadAn=         5 AccDes= 0.00D+00
 HarFok:  IExCor=  205 AccDes= 0.00D+00 IRadAn=         5 IDoV= 1
 ScaDFX=  1.000000  1.000000  1.000000  1.000000
 FoFCou: FMM=F IPFlag=           0 FMFlag=      100000 FMFlg1=           0
         NFxFlg=           0 DoJE=T BraDBF=F KetDBF=T FulRan=T
         Omega=  0.000000  0.000000  1.000000  0.000000  0.000000 ICntrl=     500 IOpCl=  0
         NMat0=    1 NMatS0=    1 NMatT0=    0 NMatD0=    1 NMtDS0=    0 NMtDT0=    0
         I1Cent=           4 NGrid=           0.
 Petite list used in FoFCou.
 Initial guess orbital symmetries:
       Occupied  (SG) (SG) (SG) (PI) (PI) (SG) (SG) (SG) (PI) (PI)
                 (SG) (SG) (PI) (PI) (DLTA) (DLTA) (SG) (SG) (PI)
                 (PI)
       Virtual   (SG) (PI) (PI) (SG) (SG) (PI) (PI) (SG) (SG) (DLTA)
                 (DLTA) (PI) (PI) (SG) (PI) (PI) (SG) (PI) (PI)
                 (SG) (SG) (SG) (PI) (PI) (DLTA) (DLTA) (DLTA)
                 (DLTA) (PHI) (PHI) (SG) (PI) (PI) (SG) (PI) (PI)
                 (SG) (PI) (PI) (SG) (DLTA) (DLTA) (SG) (PI) (PI)
                 (PHI) (PHI) (SG) (SG) (PI) (PI) (?A) (?A) (SG)
                 (DLTA) (DLTA) (DLTA) (DLTA) (PI) (PI) (DLTA) (DLTA)
                 (SG) (PHI) (PHI) (PI) (PI) (SG) (PI) (PI) (SG)
                 (PI) (PI) (DLTA) (DLTA) (SG) (PI) (PI) (SG) (PHI)
                 (PHI) (SG) (?A) (?A) (?B) (?B) (PI) (PI) (PI)
                 (PI) (SG) (SG) (PHI) (PHI) (DLTA) (DLTA) (DLTA)
                 (DLTA) (SG) (DLTA) (DLTA) (SG) (DLTA) (DLTA) (PI)
                 (PI) (PHI) (PHI) (PI) (PI) (PHI) (PHI) (DLTA)
                 (DLTA) (?A) (?A) (PI) (PI) (SG) (PHI) (PHI) (SG)
                 (?A) (?A) (PI) (PI) (SG) (?B) (?B) (SG) (SG) (PI)
                 (PI) (DLTA) (DLTA) (SG) (SG) (PI) (PI) (PI) (PI)
                 (SG) (PI) (PI) (DLTA) (DLTA) (SG) (PHI) (PHI)
                 (SG) (DLTA) (DLTA) (SG) (PHI) (PHI) (PI) (PI)
                 (DLTA) (DLTA) (?A) (?A) (SG) (?B) (?B) (?A) (?A)
                 (PI) (PI) (DLTA) (DLTA) (PI) (PI) (DLTA) (DLTA)
                 (SG) (PHI) (PHI) (SG) (DLTA) (DLTA) (PHI) (PHI)
                 (SG) (PI) (PI) (SG) (DLTA) (DLTA) (PI) (PI) (PHI)
                 (PHI) (SG) (?A) (?A) (PI) (PI) (PI) (PI) (PHI)
                 (PHI) (?B) (?B) (DLTA) (DLTA) (PI) (PI) (SG) (PHI)
                 (PHI) (SG) (DLTA) (DLTA) (PI) (PI) (SG) (?A) (?A)
                 (?B) (?B) (SG) (?A) (?A) (SG) (PI) (PI) (?B) (?B)
                 (DLTA) (DLTA) (SG) (SG) (PI) (PI) (SG) (SG) (SG)
                 (PHI) (PHI) (?A) (?A) (DLTA) (DLTA) (DLTA) (DLTA)
                 (PHI) (PHI) (PI) (PI) (SG) (PHI) (PHI) (?B) (?B)
                 (PI) (PI) (SG) (?A) (?A) (PI) (PI) (DLTA) (DLTA)
                 (SG) (SG) (?A) (?A) (DLTA) (DLTA) (PI) (PI) (SG)
                 (?B) (?B) (DLTA) (DLTA) (SG) (PI) (PI) (PHI) (PHI)
                 (?A) (?A) (DLTA) (DLTA) (PHI) (PHI) (PHI) (PHI)
                 (PI) (PI) (SG) (DLTA) (DLTA) (?A) (?A) (SG) (PI)
                 (PI) (DLTA) (DLTA) (PHI) (PHI) (SG) (PI) (PI)
                 (SG) (SG) (PI) (PI) (DLTA) (DLTA) (SG) (?B) (?B)
                 (PI) (PI) (PHI) (PHI) (SG) (SG) (DLTA) (DLTA)
                 (?C) (?C) (PI) (PI) (PHI) (PHI) (SG) (SG) (SG)
                 (PI) (PI) (DLTA) (DLTA) (SG) (?A) (?A) (SG) (DLTA)
                 (DLTA) (PI) (PI) (?B) (?B) (SG) (PI) (PI) (DLTA)
                 (DLTA) (SG) (PHI) (PHI) (DLTA) (DLTA) (?A) (?A)
                 (PHI) (PHI) (PI) (PI) (SG) (SG) (?B) (?B) (PI)
                 (PI) (PHI) (PHI) (SG) (DLTA) (DLTA) (PI) (PI)
                 (SG) (PHI) (PHI) (?A) (?A) (PI) (PI) (SG) (DLTA)
                 (DLTA) (SG) (?A) (?A) (?B) (?B) (SG) (?B) (?B)
                 (DLTA) (DLTA) (?A) (?A) (SG) (PI) (PI) (?A) (?A)
                 (PI) (PI) (PHI) (PHI) (DLTA) (DLTA) (?A) (?A)
                 (SG) (PHI) (PHI) (PI) (PI) (PHI) (PHI) (?B) (?B)
                 (DLTA) (DLTA) (PI) (PI) (PHI) (PHI) (SG) (DLTA)
                 (DLTA) (SG) (?A) (?A) (PI) (PI) (PHI) (PHI) (PI)
                 (PI) (DLTA) (DLTA) (SG) (SG) (?A) (?A) (SG) (DLTA)
                 (DLTA) (PI) (PI) (PHI) (PHI) (PI) (PI) (SG) (DLTA)
                 (DLTA) (DLTA) (DLTA) (PI) (PI) (SG) (PHI) (PHI)
                 (PI) (PI) (DLTA) (DLTA) (PHI) (PHI) (SG) (PI)
                 (PI) (SG) (DLTA) (DLTA) (SG) (DLTA) (DLTA) (SG)
                 (PI) (PI) (PI) (PI) (SG) (DLTA) (DLTA) (PI) (PI)
                 (SG) (PI) (PI) (SG) (SG) (?B) (?B) (SG) (?A) (?A)
                 (SG) (PHI) (PHI) (DLTA) (DLTA) (PI) (PI) (SG)
                 (PHI) (PHI) (PI) (PI) (SG) (DLTA) (DLTA) (PI)
                 (PI) (SG) (SG) (?A) (?A) (?B) (?B) (SG) (?A) (?A)
                 (PHI) (PHI) (DLTA) (DLTA) (PHI) (PHI) (?A) (?A)
                 (PI) (PI) (DLTA) (DLTA) (PI) (PI) (SG) (PHI) (PHI)
                 (DLTA) (DLTA) (PI) (PI) (SG) (DLTA) (DLTA) (PI)
                 (PI) (SG) (PI) (PI) (?A) (?A) (PI) (PI) (SG) (PHI)
                 (PHI) (PHI) (PHI) (SG) (DLTA) (DLTA) (PI) (PI)
                 (SG) (DLTA) (DLTA) (SG) (DLTA) (DLTA) (SG) (PI)
                 (PI) (PI) (PI) (?B) (?B) (SG) (SG) (?A) (?A) (PHI)
                 (PHI) (DLTA) (DLTA) (PI) (PI) (?B) (?B) (?A) (?A)
                 (SG) (SG) (PHI) (PHI) (DLTA) (DLTA) (PI) (PI)
                 (?B) (?B) (SG) (SG) (?C) (?C) (?A) (?A) (PHI)
                 (PHI) (DLTA) (DLTA) (SG) (PI) (PI) (SG) (SG) (PHI)
                 (PHI) (SG) (SG) (?B) (?B) (?A) (?A) (PHI) (PHI)
                 (DLTA) (DLTA) (PI) (PI) (SG) (DLTA) (DLTA) (SG)
                 (PI) (PI) (DLTA) (DLTA) (?B) (?B) (?A) (?A) (SG)
                 (PI) (PI) (PHI) (PHI) (PI) (PI) (?A) (?A) (DLTA)
                 (DLTA) (PI) (PI) (SG) (PHI) (PHI) (SG) (DLTA)
                 (DLTA) (PI) (PI) (SG) (PHI) (PHI) (DLTA) (DLTA)
                 (?A) (?A) (SG) (PHI) (PHI) (PI) (PI) (DLTA) (DLTA)
                 (PI) (PI) (SG) (DLTA) (DLTA) (PI) (PI) (SG) (SG)
                 (PI) (PI) (SG) (SG) (SG)
 The electronic state of the initial guess is 1-SG.
 Requested convergence on RMS density matrix=1.00D-10 within 128 cycles.
 Requested convergence on MAX density matrix=1.00D-08.
 Requested convergence on             energy=1.00D-08.
 No special actions if energy rises.
 Initial convergence to 1.0D-05 achieved.  Increase integral accuracy.
 SCF Done:  E(ROHF) =  -1998.71535063     A.U. after   17 cycles
             Convg  =    0.2334D-10             -V/T =  2.0000
 <Sx>= 0.0000 <Sy>= 0.0000 <Sz>= 0.0000 <S**2>= 0.0000 S= 0.0000
 <L.S>= 0.000000000000E+00
 Annihilation of the first spin contaminant:
 S**2 before annihilation     0.0000,   after     0.0000
 DiagDN has N=   713 LTot=  2171 but NE2=     3 cannot use DSYEVD.
 GenMOA:  NOpAll=  4 NOp2=4 NOpUse=  4 JSym2X=1
 <Sx>= 0.0000 <Sy>= 0.0000 <Sz>= 0.0000 <S**2>= 0.0000 S= 0.0000
 Range of M.O.s used for correlation:    16   713
 NBasis=   713 NAE=    20 NBE=    20 NFC=    15 NFV=     0
 NROrb=    698 NOA=     5 NOB=     5 NVA=   693 NVB=   693

 **** Warning!!: The largest alpha MO coefficient is  0.86405902D+03


 **** Warning!!: The largest beta MO coefficient is  0.86405902D+03

 Singles contribution to E2=   -0.1606297930D-10
 Disk-based method using OVN memory for  5 occupieds at a time.
 Permanent disk used for amplitudes and <ij||ab> integrals=    33603570 words.
 Estimated scratch disk usage=  6643444200 words.
 IUseRI=2 ITolRI= 6 IR12RI=0
 Actual    scratch disk usage=  6639927784 words.
 GetIJB would need an additional  1727794847 words of memory to use all   8 processors.
 JobTyp=2 Pass  1:  I=   1 to   5 NPSUse=  1 ParTrn=F ParDer=F DoDerP=F.
 T,EIJ(AA): I=   1 J=   2      0.1498339E-03     -0.6768278E-03
 T,EIJ(AA): I=   1 J=   3      0.5798603E-03     -0.2496385E-02
 T,EIJ(AA): I=   1 J=   4      0.5629517E-03     -0.2417271E-02
 T,EIJ(AA): I=   1 J=   5      0.5629517E-03     -0.2417271E-02
 T,EIJ(AA): I=   2 J=   3      0.2790231E-03     -0.5928138E-03
 T,EIJ(AA): I=   2 J=   4      0.4255154E-03     -0.1088338E-02
 T,EIJ(AA): I=   2 J=   5      0.4255154E-03     -0.1088338E-02
 T,EIJ(AA): I=   3 J=   4      0.4038206E-02     -0.9927373E-02
 T,EIJ(AA): I=   3 J=   5      0.4038206E-02     -0.9927373E-02
 T,EIJ(AA): I=   4 J=   5      0.4657370E-02     -0.1115201E-01
 T,EIJ(AB): I=   1 J=   1      0.1206746E-02     -0.7674343E-02
 T,EIJ(AB): I=   1 J=   2      0.2745287E-03     -0.1396836E-02
 T,EIJ(AB): I=   1 J=   3      0.1365447E-02     -0.7121684E-02
 T,EIJ(AB): I=   1 J=   4      0.1605991E-02     -0.8168639E-02
 T,EIJ(AB): I=   1 J=   5      0.1605991E-02     -0.8168639E-02
 T,EIJ(AB): I=   2 J=   1      0.2745287E-03     -0.1396836E-02
 T,EIJ(AB): I=   2 J=   2      0.8988032E-02     -0.2169536E-01
 T,EIJ(AB): I=   2 J=   3      0.2175796E-02     -0.6134705E-02
 T,EIJ(AB): I=   2 J=   4      0.7646598E-03     -0.1860619E-02
 T,EIJ(AB): I=   2 J=   5      0.7646598E-03     -0.1860619E-02
 T,EIJ(AB): I=   3 J=   1      0.1365447E-02     -0.7121684E-02
 T,EIJ(AB): I=   3 J=   2      0.2175796E-02     -0.6134705E-02
 T,EIJ(AB): I=   3 J=   3      0.8487891E-02     -0.2344263E-01
 T,EIJ(AB): I=   3 J=   4      0.5329051E-02     -0.1373757E-01
 T,EIJ(AB): I=   3 J=   5      0.5329051E-02     -0.1373757E-01
 T,EIJ(AB): I=   4 J=   1      0.1605991E-02     -0.8168639E-02
 T,EIJ(AB): I=   4 J=   2      0.7646598E-03     -0.1860619E-02
 T,EIJ(AB): I=   4 J=   3      0.5329051E-02     -0.1373757E-01
 T,EIJ(AB): I=   4 J=   4      0.1009835E-01     -0.2752407E-01
 T,EIJ(AB): I=   4 J=   5      0.6037890E-02     -0.1517145E-01
 T,EIJ(AB): I=   5 J=   1      0.1605991E-02     -0.8168639E-02
 T,EIJ(AB): I=   5 J=   2      0.7646598E-03     -0.1860619E-02
 T,EIJ(AB): I=   5 J=   3      0.5329051E-02     -0.1373757E-01
 T,EIJ(AB): I=   5 J=   4      0.6037890E-02     -0.1517145E-01
 T,EIJ(AB): I=   5 J=   5      0.1009835E-01     -0.2752407E-01
 Actual    scratch disk usage=  6639927784 words.
 GetIJB would need an additional  1727794847 words of memory to use all   8 processors.
 JobTyp=3 Pass  1:  I=   1 to   5 NPSUse=  1 ParTrn=F ParDer=F DoDerP=F.
 T,EIJ(BB): I=   1 J=   2      0.1498339E-03     -0.6768278E-03
 T,EIJ(BB): I=   1 J=   3      0.5798603E-03     -0.2496385E-02
 T,EIJ(BB): I=   1 J=   4      0.5629517E-03     -0.2417271E-02
 T,EIJ(BB): I=   1 J=   5      0.5629517E-03     -0.2417271E-02
 T,EIJ(BB): I=   2 J=   3      0.2790231E-03     -0.5928138E-03
 T,EIJ(BB): I=   2 J=   4      0.4255154E-03     -0.1088338E-02
 T,EIJ(BB): I=   2 J=   5      0.4255154E-03     -0.1088338E-02
 T,EIJ(BB): I=   3 J=   4      0.4038206E-02     -0.9927373E-02
 T,EIJ(BB): I=   3 J=   5      0.4038206E-02     -0.9927373E-02
 T,EIJ(BB): I=   4 J=   5      0.4657370E-02     -0.1115201E-01
 Spin components of T(2) and E(2):
     alpha-alpha T2 =       0.1571943278D-01 E2=     -0.4178400396D-01
     alpha-beta  T2 =       0.8938550839D-01 E2=     -0.2625771337D+00
     beta-beta   T2 =       0.1571943278D-01 E2=     -0.4178400396D-01
 ANorm=    0.1058689933D+01
 E2 =    -0.3461451417D+00 EUMP2 =    -0.19990614957672D+04

 Complete Basis Set (CBS) Extrapolation:
 M. R. Nyden and G. A. Petersson, JCP 75, 1843 (1981)
 G. A. Petersson and M. A. Al-Laham, JCP 94, 6081 (1991)
 G. A. Petersson, T. Tensfeldt, and J. A. Montgomery, JCP 94, 6091 (1991)
 J. A. Montgomery, J. W. Ochterski, and G. A. Petersson, JCP 101, 5900 (1994)
 
 Minimum Number of PNO for Extrapolation =  25
 Absolute Overlaps: IRadAn =         5
 LocTrn: ILocal=3 LocCor=F DoCore=F.
 Entering OneElI...
 Overlap between basis sets.
 Requested accuracy = 0.1000D-12
 PrsmSu:  NPrtUS=   1 ThrOK=F IAlg=1
 PRISM was handed  1608277446 working-precision words and    79 shell-pairs
 IPart=  0 NShTot=          79 NBatch=          16 AvBLen=         4.9
 CnvPC2: ToCart=F DoDens=F IPureD=0 IPureF=0.
 Transformed matrix in CnvPC2: 
                 1             2             3             4             5 
      1   0.100000D+01  0.182688D-02  0.113835D-01  0.000000D+00  0.000000D+00
      2   0.182688D-02  0.100000D+01  0.399707D+00  0.000000D+00  0.000000D+00
      3   0.113835D-01  0.399707D+00  0.100000D+01  0.000000D+00  0.000000D+00
      4   0.000000D+00  0.000000D+00  0.000000D+00  0.100000D+01  0.000000D+00
      5   0.000000D+00  0.000000D+00  0.000000D+00  0.000000D+00  0.100000D+01
      6   0.235913D-02  0.000000D+00  0.000000D+00  0.000000D+00  0.000000D+00
      7   0.705334D-01  0.262553D-01  0.313572D+00  0.000000D+00  0.000000D+00
      8   0.000000D+00  0.000000D+00  0.000000D+00  0.326517D+00  0.000000D+00
      9   0.000000D+00  0.000000D+00  0.000000D+00  0.000000D+00  0.326517D+00
     10   0.447740D-01  0.000000D+00  0.000000D+00  0.000000D+00  0.000000D+00
     11   0.201859D-01  0.000000D+00  0.000000D+00  0.000000D+00  0.000000D+00
     12   0.000000D+00  0.000000D+00  0.000000D+00  0.000000D+00  0.000000D+00
     13   0.000000D+00  0.000000D+00  0.000000D+00  0.000000D+00  0.000000D+00
     14   0.000000D+00  0.000000D+00  0.000000D+00  0.000000D+00  0.000000D+00
     15   0.000000D+00  0.000000D+00  0.000000D+00  0.000000D+00  0.000000D+00
     16   0.415741D+00 -0.353836D-03  0.313775D-02  0.000000D+00  0.000000D+00
     17   0.000000D+00  0.000000D+00  0.000000D+00  0.102782D-01  0.000000D+00
     18   0.000000D+00  0.000000D+00  0.000000D+00  0.000000D+00  0.102782D-01
     19   0.520894D+00  0.000000D+00  0.000000D+00  0.000000D+00  0.000000D+00
     20   0.475092D+00  0.000000D+00  0.000000D+00  0.000000D+00  0.000000D+00
     21   0.000000D+00  0.000000D+00  0.000000D+00  0.000000D+00  0.000000D+00
     22   0.000000D+00  0.000000D+00  0.000000D+00  0.000000D+00  0.000000D+00
     23   0.000000D+00  0.000000D+00  0.000000D+00  0.000000D+00  0.000000D+00
     24   0.000000D+00  0.000000D+00  0.000000D+00  0.000000D+00  0.000000D+00
     25   0.140167D-03  0.000000D+00  0.000000D+00  0.000000D+00  0.000000D+00
     26   0.472897D-02  0.504123D-03  0.327271D-02  0.000000D+00  0.000000D+00
     27   0.000000D+00  0.000000D+00  0.000000D+00  0.395318D-03  0.000000D+00
     28   0.000000D+00  0.000000D+00  0.000000D+00  0.000000D+00  0.395318D-03
     29   0.677001D-02  0.108240D-02  0.687796D-02  0.000000D+00  0.000000D+00
                 6             7             8             9            10 
      1   0.235913D-02  0.705334D-01  0.000000D+00  0.000000D+00  0.447740D-01
      2   0.000000D+00  0.262553D-01  0.000000D+00  0.000000D+00  0.000000D+00
      3   0.000000D+00  0.313572D+00  0.000000D+00  0.000000D+00  0.000000D+00
      4   0.000000D+00  0.000000D+00  0.326517D+00  0.000000D+00  0.000000D+00
      5   0.000000D+00  0.000000D+00  0.000000D+00  0.326517D+00  0.000000D+00
      6   0.100000D+01  0.000000D+00  0.000000D+00  0.000000D+00  0.326517D+00
      7   0.000000D+00  0.100000D+01  0.000000D+00  0.000000D+00  0.000000D+00
      8   0.000000D+00  0.000000D+00  0.100000D+01  0.000000D+00  0.000000D+00
      9   0.000000D+00  0.000000D+00  0.000000D+00  0.100000D+01  0.000000D+00
     10   0.326517D+00  0.000000D+00  0.000000D+00  0.000000D+00  0.100000D+01
     11   0.000000D+00  0.000000D+00  0.000000D+00  0.000000D+00  0.000000D+00
     12   0.000000D+00  0.000000D+00  0.000000D+00  0.000000D+00  0.000000D+00
     13   0.000000D+00  0.000000D+00  0.000000D+00  0.000000D+00  0.000000D+00
     14   0.000000D+00  0.000000D+00  0.000000D+00  0.000000D+00  0.000000D+00
     15   0.000000D+00  0.000000D+00  0.000000D+00  0.000000D+00  0.000000D+00
     16   0.000000D+00  0.172993D+00  0.000000D+00  0.000000D+00  0.000000D+00
     17   0.000000D+00  0.000000D+00  0.189903D+00  0.000000D+00  0.000000D+00
     18   0.000000D+00  0.000000D+00  0.000000D+00  0.189903D+00  0.000000D+00
     19   0.102782D-01  0.000000D+00  0.000000D+00  0.000000D+00  0.189903D+00
     20   0.000000D+00  0.000000D+00  0.000000D+00  0.000000D+00  0.000000D+00
     21   0.000000D+00  0.000000D+00  0.000000D+00  0.000000D+00  0.000000D+00
     22   0.000000D+00  0.000000D+00  0.000000D+00  0.000000D+00  0.000000D+00
     23   0.000000D+00  0.000000D+00  0.000000D+00  0.000000D+00  0.000000D+00
     24   0.000000D+00  0.000000D+00  0.000000D+00  0.000000D+00  0.000000D+00
     25   0.000000D+00  0.262395D-05  0.000000D+00  0.000000D+00 -0.866144D-05
     26  -0.135172D-02  0.269251D-01  0.000000D+00  0.000000D+00 -0.282865D-01
     27   0.000000D+00  0.000000D+00  0.845551D-02  0.000000D+00  0.000000D+00
     28   0.000000D+00  0.000000D+00  0.000000D+00  0.845551D-02  0.000000D+00
     29  -0.247458D-02  0.489369D-01  0.000000D+00  0.000000D+00 -0.467083D-01
                11            12            13            14            15 
      1   0.201859D-01  0.000000D+00  0.000000D+00  0.000000D+00  0.000000D+00
      2   0.000000D+00  0.000000D+00  0.000000D+00  0.000000D+00  0.000000D+00
      3   0.000000D+00  0.000000D+00  0.000000D+00  0.000000D+00  0.000000D+00
      4   0.000000D+00  0.000000D+00  0.000000D+00  0.000000D+00  0.000000D+00
      5   0.000000D+00  0.000000D+00  0.000000D+00  0.000000D+00  0.000000D+00
      6   0.000000D+00  0.000000D+00  0.000000D+00  0.000000D+00  0.000000D+00
      7   0.000000D+00  0.000000D+00  0.000000D+00  0.000000D+00  0.000000D+00
      8   0.000000D+00  0.000000D+00  0.000000D+00  0.000000D+00  0.000000D+00
      9   0.000000D+00  0.000000D+00  0.000000D+00  0.000000D+00  0.000000D+00
     10   0.000000D+00  0.000000D+00  0.000000D+00  0.000000D+00  0.000000D+00
     11   0.100000D+01  0.000000D+00  0.000000D+00  0.000000D+00  0.000000D+00
     12   0.000000D+00  0.100000D+01  0.000000D+00  0.000000D+00  0.000000D+00
     13   0.000000D+00  0.000000D+00  0.100000D+01  0.000000D+00  0.000000D+00
     14   0.000000D+00  0.000000D+00  0.000000D+00  0.100000D+01  0.000000D+00
     15   0.000000D+00  0.000000D+00  0.000000D+00  0.000000D+00  0.100000D+01
     16   0.000000D+00  0.000000D+00  0.000000D+00  0.000000D+00  0.000000D+00
     17   0.000000D+00  0.000000D+00  0.000000D+00  0.000000D+00  0.000000D+00
     18   0.000000D+00  0.000000D+00  0.000000D+00  0.000000D+00  0.000000D+00
     19   0.000000D+00  0.000000D+00  0.000000D+00  0.000000D+00  0.000000D+00
     20   0.784073D-01  0.000000D+00  0.000000D+00  0.000000D+00  0.000000D+00
     21   0.000000D+00  0.784073D-01  0.000000D+00  0.000000D+00  0.000000D+00
     22   0.000000D+00  0.000000D+00  0.784073D-01  0.000000D+00  0.000000D+00
     23   0.000000D+00  0.000000D+00  0.000000D+00  0.784073D-01  0.000000D+00
     24   0.000000D+00  0.000000D+00  0.000000D+00  0.000000D+00  0.784073D-01
     25   0.184979D-04  0.000000D+00  0.000000D+00  0.000000D+00  0.000000D+00
     26   0.172311D-01  0.000000D+00  0.000000D+00  0.000000D+00  0.000000D+00
     27   0.000000D+00 -0.912522D-02  0.000000D+00  0.000000D+00  0.000000D+00
     28   0.000000D+00  0.000000D+00 -0.912522D-02  0.000000D+00  0.000000D+00
     29   0.264785D-01  0.000000D+00  0.000000D+00  0.000000D+00  0.000000D+00
                16            17            18            19            20 
      1   0.415741D+00  0.000000D+00  0.000000D+00  0.520894D+00  0.475092D+00
      2  -0.353836D-03  0.000000D+00  0.000000D+00  0.000000D+00  0.000000D+00
      3   0.313775D-02  0.000000D+00  0.000000D+00  0.000000D+00  0.000000D+00
      4   0.000000D+00  0.102782D-01  0.000000D+00  0.000000D+00  0.000000D+00
      5   0.000000D+00  0.000000D+00  0.102782D-01  0.000000D+00  0.000000D+00
      6   0.000000D+00  0.000000D+00  0.000000D+00  0.102782D-01  0.000000D+00
      7   0.172993D+00  0.000000D+00  0.000000D+00  0.000000D+00  0.000000D+00
      8   0.000000D+00  0.189903D+00  0.000000D+00  0.000000D+00  0.000000D+00
      9   0.000000D+00  0.000000D+00  0.189903D+00  0.000000D+00  0.000000D+00
     10   0.000000D+00  0.000000D+00  0.000000D+00  0.189903D+00  0.000000D+00
     11   0.000000D+00  0.000000D+00  0.000000D+00  0.000000D+00  0.784073D-01
     12   0.000000D+00  0.000000D+00  0.000000D+00  0.000000D+00  0.000000D+00
     13   0.000000D+00  0.000000D+00  0.000000D+00  0.000000D+00  0.000000D+00
     14   0.000000D+00  0.000000D+00  0.000000D+00  0.000000D+00  0.000000D+00
     15   0.000000D+00  0.000000D+00  0.000000D+00  0.000000D+00  0.000000D+00
     16   0.100000D+01  0.000000D+00  0.000000D+00  0.000000D+00  0.000000D+00
     17   0.000000D+00  0.100000D+01  0.000000D+00  0.000000D+00  0.000000D+00
     18   0.000000D+00  0.000000D+00  0.100000D+01  0.000000D+00  0.000000D+00
     19   0.000000D+00  0.000000D+00  0.000000D+00  0.100000D+01  0.000000D+00
     20   0.000000D+00  0.000000D+00  0.000000D+00  0.000000D+00  0.100000D+01
     21   0.000000D+00  0.000000D+00  0.000000D+00  0.000000D+00  0.000000D+00
     22   0.000000D+00  0.000000D+00  0.000000D+00  0.000000D+00  0.000000D+00
     23   0.000000D+00  0.000000D+00  0.000000D+00  0.000000D+00  0.000000D+00
     24   0.000000D+00  0.000000D+00  0.000000D+00  0.000000D+00  0.000000D+00
     25   0.322146D-01  0.000000D+00  0.000000D+00 -0.551599D-01  0.866145D-01
     26   0.300050D+00  0.000000D+00  0.000000D+00 -0.444879D+00  0.496202D+00
     27   0.000000D+00  0.152673D+00  0.000000D+00  0.000000D+00  0.000000D+00
     28   0.000000D+00  0.000000D+00  0.152673D+00  0.000000D+00  0.000000D+00
     29   0.185803D+00  0.000000D+00  0.000000D+00 -0.247315D+00  0.917421D-01
                21            22            23            24            25 
      1   0.000000D+00  0.000000D+00  0.000000D+00  0.000000D+00  0.140167D-03
      2   0.000000D+00  0.000000D+00  0.000000D+00  0.000000D+00  0.000000D+00
      3   0.000000D+00  0.000000D+00  0.000000D+00  0.000000D+00  0.000000D+00
      4   0.000000D+00  0.000000D+00  0.000000D+00  0.000000D+00  0.000000D+00
      5   0.000000D+00  0.000000D+00  0.000000D+00  0.000000D+00  0.000000D+00
      6   0.000000D+00  0.000000D+00  0.000000D+00  0.000000D+00  0.000000D+00
      7   0.000000D+00  0.000000D+00  0.000000D+00  0.000000D+00  0.262395D-05
      8   0.000000D+00  0.000000D+00  0.000000D+00  0.000000D+00  0.000000D+00
      9   0.000000D+00  0.000000D+00  0.000000D+00  0.000000D+00  0.000000D+00
     10   0.000000D+00  0.000000D+00  0.000000D+00  0.000000D+00 -0.866144D-05
     11   0.000000D+00  0.000000D+00  0.000000D+00  0.000000D+00  0.184979D-04
     12   0.784073D-01  0.000000D+00  0.000000D+00  0.000000D+00  0.000000D+00
     13   0.000000D+00  0.784073D-01  0.000000D+00  0.000000D+00  0.000000D+00
     14   0.000000D+00  0.000000D+00  0.784073D-01  0.000000D+00  0.000000D+00
     15   0.000000D+00  0.000000D+00  0.000000D+00  0.784073D-01  0.000000D+00
     16   0.000000D+00  0.000000D+00  0.000000D+00  0.000000D+00  0.322146D-01
     17   0.000000D+00  0.000000D+00  0.000000D+00  0.000000D+00  0.000000D+00
     18   0.000000D+00  0.000000D+00  0.000000D+00  0.000000D+00  0.000000D+00
     19   0.000000D+00  0.000000D+00  0.000000D+00  0.000000D+00 -0.551599D-01
     20   0.000000D+00  0.000000D+00  0.000000D+00  0.000000D+00  0.866145D-01
     21   0.100000D+01  0.000000D+00  0.000000D+00  0.000000D+00  0.000000D+00
     22   0.000000D+00  0.100000D+01  0.000000D+00  0.000000D+00  0.000000D+00
     23   0.000000D+00  0.000000D+00  0.100000D+01  0.000000D+00  0.000000D+00
     24   0.000000D+00  0.000000D+00  0.000000D+00  0.100000D+01  0.000000D+00
     25   0.000000D+00  0.000000D+00  0.000000D+00  0.000000D+00  0.100000D+01
     26   0.000000D+00  0.000000D+00  0.000000D+00  0.000000D+00  0.236704D+00
     27  -0.306089D+00  0.000000D+00  0.000000D+00  0.000000D+00  0.000000D+00
     28   0.000000D+00 -0.306089D+00  0.000000D+00  0.000000D+00  0.000000D+00
     29   0.000000D+00  0.000000D+00  0.000000D+00  0.000000D+00  0.000000D+00
                26            27            28            29 
      1   0.472897D-02  0.000000D+00  0.000000D+00  0.677001D-02
      2   0.504123D-03  0.000000D+00  0.000000D+00  0.108240D-02
      3   0.327271D-02  0.000000D+00  0.000000D+00  0.687796D-02
      4   0.000000D+00  0.395318D-03  0.000000D+00  0.000000D+00
      5   0.000000D+00  0.000000D+00  0.395318D-03  0.000000D+00
      6  -0.135172D-02  0.000000D+00  0.000000D+00 -0.247458D-02
      7   0.269251D-01  0.000000D+00  0.000000D+00  0.489369D-01
      8   0.000000D+00  0.845551D-02  0.000000D+00  0.000000D+00
      9   0.000000D+00  0.000000D+00  0.845551D-02  0.000000D+00
     10  -0.282865D-01  0.000000D+00  0.000000D+00 -0.467083D-01
     11   0.172311D-01  0.000000D+00  0.000000D+00  0.264785D-01
     12   0.000000D+00 -0.912522D-02  0.000000D+00  0.000000D+00
     13   0.000000D+00  0.000000D+00 -0.912522D-02  0.000000D+00
     14   0.000000D+00  0.000000D+00  0.000000D+00  0.000000D+00
     15   0.000000D+00  0.000000D+00  0.000000D+00  0.000000D+00
     16   0.300050D+00  0.000000D+00  0.000000D+00  0.185803D+00
     17   0.000000D+00  0.152673D+00  0.000000D+00  0.000000D+00
     18   0.000000D+00  0.000000D+00  0.152673D+00  0.000000D+00
     19  -0.444879D+00  0.000000D+00  0.000000D+00 -0.247315D+00
     20   0.496202D+00  0.000000D+00  0.000000D+00  0.917421D-01
     21   0.000000D+00 -0.306089D+00  0.000000D+00  0.000000D+00
     22   0.000000D+00  0.000000D+00 -0.306089D+00  0.000000D+00
     23   0.000000D+00  0.000000D+00  0.000000D+00  0.000000D+00
     24   0.000000D+00  0.000000D+00  0.000000D+00  0.000000D+00
     25   0.236704D+00  0.000000D+00  0.000000D+00  0.000000D+00
     26   0.100000D+01  0.000000D+00  0.000000D+00  0.000000D+00
     27   0.000000D+00  0.100000D+01  0.000000D+00  0.000000D+00
     28   0.000000D+00  0.000000D+00  0.100000D+01  0.000000D+00
     29   0.000000D+00  0.000000D+00  0.000000D+00  0.100000D+01
 Entering OneElI...
 Overlap between basis sets.
 Requested accuracy = 0.1000D-12
 PrsmSu:  NPrtUS=   1 ThrOK=F IAlg=1
 PRISM was handed  1606700277 working-precision words and  1141 shell-pairs
 IPart=  0 NShTot=        1141 NBatch=         117 AvBLen=         9.8
 CnvPC2: ToCart=F DoDens=F IPureD=0 IPureF=0.
 Transformed matrix in CnvPC2: 
                 1             2             3             4             5 
      1   0.982562D+00  0.261557D-02  0.162277D-01  0.000000D+00  0.000000D+00
      2   0.387603D+00  0.302415D-02  0.186376D-01  0.000000D+00  0.000000D+00
      3   0.202474D+00  0.163871D-02  0.101114D-01  0.000000D+00  0.000000D+00
      4   0.574133D+00  0.000000D+00  0.000000D+00  0.000000D+00  0.000000D+00
      5   0.783350D+00  0.000000D+00  0.186320D-05  0.000000D+00  0.000000D+00
      6   0.942336D+00  0.113928D-03  0.853306D-03  0.000000D+00  0.000000D+00
      7   0.969386D+00  0.180751D-02  0.113995D-01  0.000000D+00  0.000000D+00
      8   0.839405D+00  0.423854D-02  0.260931D-01  0.000000D+00  0.000000D+00
      9   0.613799D+00  0.431142D-02  0.265262D-01  0.000000D+00  0.000000D+00
     10   0.000000D+00  0.000000D+00  0.000000D+00  0.000000D+00  0.000000D+00
     11   0.000000D+00  0.000000D+00  0.000000D+00  0.000000D+00  0.000000D+00
     12   0.000000D+00  0.000000D+00  0.000000D+00  0.000000D+00  0.000000D+00
     13   0.000000D+00  0.000000D+00  0.000000D+00  0.000000D+00  0.000000D+00
     14   0.000000D+00  0.000000D+00  0.000000D+00  0.000000D+00  0.000000D+00
     15   0.000000D+00  0.000000D+00  0.000000D+00  0.000000D+00  0.000000D+00
     16   0.000000D+00  0.000000D+00  0.000000D+00  0.000000D+00  0.000000D+00
     17   0.000000D+00  0.000000D+00  0.000000D+00  0.000000D+00  0.000000D+00
     18   0.000000D+00  0.000000D+00 -0.715508D-05  0.000000D+00  0.000000D+00
     19   0.000000D+00  0.000000D+00  0.000000D+00  0.126029D-03  0.000000D+00
     20   0.000000D+00  0.000000D+00  0.000000D+00  0.000000D+00  0.126029D-03
     21   0.000000D+00 -0.269185D-03 -0.205892D-02  0.000000D+00  0.000000D+00
     22   0.000000D+00  0.000000D+00  0.000000D+00  0.155648D-02  0.000000D+00
     23   0.000000D+00  0.000000D+00  0.000000D+00  0.000000D+00  0.155648D-02
     24   0.000000D+00 -0.397663D-02 -0.250001D-01  0.000000D+00  0.000000D+00
     25   0.000000D+00  0.000000D+00  0.000000D+00  0.334995D-02  0.000000D+00
     26   0.000000D+00  0.000000D+00  0.000000D+00  0.000000D+00  0.334995D-02
     27   0.000000D+00 -0.878605D-02 -0.536611D-01  0.000000D+00  0.000000D+00
     28   0.000000D+00  0.000000D+00  0.000000D+00  0.299282D-02  0.000000D+00
     29   0.000000D+00  0.000000D+00  0.000000D+00  0.000000D+00  0.299282D-02
     30   0.000000D+00 -0.783996D-02 -0.479466D-01  0.000000D+00  0.000000D+00
     31   0.000000D+00  0.000000D+00  0.000000D+00  0.000000D+00  0.000000D+00
     32   0.000000D+00  0.000000D+00  0.000000D+00  0.000000D+00  0.000000D+00
     33   0.000000D+00  0.000000D+00  0.000000D+00  0.000000D+00  0.000000D+00
     34   0.000000D+00  0.000000D+00  0.000000D+00  0.000000D+00  0.000000D+00
     35   0.000000D+00  0.000000D+00  0.000000D+00  0.000000D+00  0.000000D+00
     36   0.000000D+00  0.000000D+00  0.000000D+00  0.000000D+00  0.000000D+00
     37   0.000000D+00  0.000000D+00  0.000000D+00  0.000000D+00  0.000000D+00
     38   0.000000D+00  0.000000D+00  0.000000D+00  0.000000D+00  0.000000D+00
     39   0.000000D+00  0.000000D+00  0.000000D+00  0.000000D+00  0.000000D+00
     40   0.000000D+00  0.000000D+00  0.000000D+00  0.000000D+00  0.000000D+00
     41   0.000000D+00  0.589139D-05  0.838121D-04  0.000000D+00  0.000000D+00
     42   0.000000D+00  0.000000D+00  0.000000D+00 -0.853399D-05  0.000000D+00
     43   0.000000D+00  0.000000D+00  0.000000D+00  0.000000D+00 -0.853399D-05
     44   0.000000D+00  0.000000D+00  0.000000D+00  0.000000D+00  0.000000D+00
     45   0.000000D+00  0.000000D+00  0.000000D+00  0.000000D+00  0.000000D+00
     46   0.000000D+00  0.129082D-02  0.899306D-02  0.000000D+00  0.000000D+00
     47   0.000000D+00  0.000000D+00  0.000000D+00 -0.960946D-03  0.000000D+00
     48   0.000000D+00  0.000000D+00  0.000000D+00  0.000000D+00 -0.960946D-03
     49   0.000000D+00  0.000000D+00  0.000000D+00  0.000000D+00  0.000000D+00
     50   0.000000D+00  0.000000D+00  0.000000D+00  0.000000D+00  0.000000D+00
     51   0.000000D+00  0.925807D-02  0.565302D-01  0.000000D+00  0.000000D+00
     52   0.000000D+00  0.000000D+00  0.000000D+00 -0.611274D-02  0.000000D+00
     53   0.000000D+00  0.000000D+00  0.000000D+00  0.000000D+00 -0.611274D-02
     54   0.000000D+00  0.000000D+00  0.000000D+00  0.000000D+00  0.000000D+00
     55   0.000000D+00  0.000000D+00  0.000000D+00  0.000000D+00  0.000000D+00
     56   0.000000D+00  0.124681D-01  0.752972D-01  0.000000D+00  0.000000D+00
     57   0.000000D+00  0.000000D+00  0.000000D+00 -0.815054D-02  0.000000D+00
     58   0.000000D+00  0.000000D+00  0.000000D+00  0.000000D+00 -0.815054D-02
     59   0.000000D+00  0.000000D+00  0.000000D+00  0.000000D+00  0.000000D+00
     60   0.000000D+00  0.000000D+00  0.000000D+00  0.000000D+00  0.000000D+00
     61   0.000000D+00  0.000000D+00  0.000000D+00  0.000000D+00  0.000000D+00
     62   0.000000D+00  0.000000D+00  0.000000D+00  0.000000D+00  0.000000D+00
     63   0.000000D+00  0.000000D+00  0.000000D+00  0.000000D+00  0.000000D+00
     64   0.000000D+00  0.000000D+00  0.000000D+00  0.000000D+00  0.000000D+00
     65   0.000000D+00  0.000000D+00  0.000000D+00  0.000000D+00  0.000000D+00
     66   0.000000D+00  0.000000D+00  0.000000D+00  0.000000D+00  0.000000D+00
     67   0.000000D+00  0.000000D+00  0.000000D+00  0.000000D+00  0.000000D+00
     68   0.000000D+00  0.000000D+00 -0.183726D-05  0.000000D+00  0.000000D+00
     69   0.000000D+00  0.000000D+00  0.000000D+00  0.000000D+00  0.000000D+00
     70   0.000000D+00  0.000000D+00  0.000000D+00  0.000000D+00  0.000000D+00
     71   0.000000D+00  0.000000D+00  0.000000D+00  0.000000D+00  0.000000D+00
     72   0.000000D+00  0.000000D+00  0.000000D+00  0.000000D+00  0.000000D+00
     73   0.000000D+00  0.000000D+00  0.000000D+00  0.000000D+00  0.000000D+00
     74   0.000000D+00  0.000000D+00  0.000000D+00  0.000000D+00  0.000000D+00
     75   0.000000D+00 -0.380047D-03 -0.313265D-02  0.000000D+00  0.000000D+00
     76   0.000000D+00  0.000000D+00  0.000000D+00  0.467020D-03  0.000000D+00
     77   0.000000D+00  0.000000D+00  0.000000D+00  0.000000D+00  0.467020D-03
     78   0.000000D+00  0.000000D+00  0.000000D+00  0.000000D+00  0.000000D+00
     79   0.000000D+00  0.000000D+00  0.000000D+00  0.000000D+00  0.000000D+00
     80   0.000000D+00  0.000000D+00  0.000000D+00  0.000000D+00  0.000000D+00
     81   0.000000D+00  0.000000D+00  0.000000D+00  0.000000D+00  0.000000D+00
     82   0.000000D+00 -0.966537D-02 -0.588788D-01  0.000000D+00  0.000000D+00
     83   0.000000D+00  0.000000D+00  0.000000D+00  0.900612D-02  0.000000D+00
     84   0.000000D+00  0.000000D+00  0.000000D+00  0.000000D+00  0.900612D-02
     85   0.000000D+00  0.000000D+00  0.000000D+00  0.000000D+00  0.000000D+00
     86   0.000000D+00  0.000000D+00  0.000000D+00  0.000000D+00  0.000000D+00
     87   0.000000D+00  0.000000D+00  0.000000D+00  0.000000D+00  0.000000D+00
     88   0.000000D+00  0.000000D+00  0.000000D+00  0.000000D+00  0.000000D+00
     89   0.000000D+00 -0.155053D-01 -0.923070D-01  0.000000D+00  0.000000D+00
     90   0.000000D+00  0.000000D+00  0.000000D+00  0.141501D-01  0.000000D+00
     91   0.000000D+00  0.000000D+00  0.000000D+00  0.000000D+00  0.141501D-01
     92   0.000000D+00  0.000000D+00  0.000000D+00  0.000000D+00  0.000000D+00
     93   0.000000D+00  0.000000D+00  0.000000D+00  0.000000D+00  0.000000D+00
     94   0.000000D+00  0.000000D+00  0.000000D+00  0.000000D+00  0.000000D+00
     95   0.000000D+00  0.000000D+00  0.000000D+00  0.000000D+00  0.000000D+00
     96   0.000000D+00  0.000000D+00  0.000000D+00  0.000000D+00  0.000000D+00
     97   0.000000D+00  0.000000D+00  0.000000D+00  0.000000D+00  0.000000D+00
     98   0.000000D+00  0.000000D+00  0.000000D+00  0.000000D+00  0.000000D+00
     99   0.000000D+00  0.000000D+00  0.000000D+00  0.000000D+00  0.000000D+00
    100   0.000000D+00  0.000000D+00  0.000000D+00  0.000000D+00  0.000000D+00
    101   0.000000D+00  0.000000D+00  0.000000D+00  0.000000D+00  0.000000D+00
    102   0.000000D+00  0.000000D+00  0.000000D+00  0.000000D+00  0.000000D+00
    103   0.000000D+00  0.000000D+00  0.000000D+00  0.000000D+00  0.000000D+00
    104   0.000000D+00  0.000000D+00  0.000000D+00  0.000000D+00  0.000000D+00
    105   0.000000D+00  0.000000D+00  0.343323D-05  0.000000D+00  0.000000D+00
    106   0.000000D+00  0.000000D+00  0.000000D+00  0.000000D+00  0.000000D+00
    107   0.000000D+00  0.000000D+00  0.000000D+00  0.000000D+00  0.000000D+00
    108   0.000000D+00  0.000000D+00  0.000000D+00  0.000000D+00  0.000000D+00
    109   0.000000D+00  0.000000D+00  0.000000D+00  0.000000D+00  0.000000D+00
    110   0.000000D+00  0.000000D+00  0.000000D+00  0.000000D+00  0.000000D+00
    111   0.000000D+00  0.000000D+00  0.000000D+00  0.000000D+00  0.000000D+00
    112   0.000000D+00  0.000000D+00  0.000000D+00  0.000000D+00  0.000000D+00
    113   0.000000D+00  0.000000D+00  0.000000D+00  0.000000D+00  0.000000D+00
    114   0.000000D+00  0.676500D-03  0.537475D-02  0.000000D+00  0.000000D+00
    115   0.000000D+00  0.000000D+00  0.000000D+00 -0.103750D-02  0.000000D+00
    116   0.000000D+00  0.000000D+00  0.000000D+00  0.000000D+00 -0.103750D-02
    117   0.000000D+00  0.000000D+00  0.000000D+00  0.000000D+00  0.000000D+00
    118   0.000000D+00  0.000000D+00  0.000000D+00  0.000000D+00  0.000000D+00
    119   0.000000D+00  0.000000D+00  0.000000D+00  0.000000D+00  0.000000D+00
    120   0.000000D+00  0.000000D+00  0.000000D+00  0.000000D+00  0.000000D+00
    121   0.000000D+00  0.000000D+00  0.000000D+00  0.000000D+00  0.000000D+00
    122   0.000000D+00  0.000000D+00  0.000000D+00  0.000000D+00  0.000000D+00
    123   0.000000D+00  0.139288D-01  0.826046D-01  0.000000D+00  0.000000D+00
    124   0.000000D+00  0.000000D+00  0.000000D+00 -0.163543D-01  0.000000D+00
    125   0.000000D+00  0.000000D+00  0.000000D+00  0.000000D+00 -0.163543D-01
    126   0.000000D+00  0.000000D+00  0.000000D+00  0.000000D+00  0.000000D+00
    127   0.000000D+00  0.000000D+00  0.000000D+00  0.000000D+00  0.000000D+00
    128   0.000000D+00  0.000000D+00  0.000000D+00  0.000000D+00  0.000000D+00
    129   0.000000D+00  0.000000D+00  0.000000D+00  0.000000D+00  0.000000D+00
    130   0.000000D+00  0.000000D+00  0.000000D+00  0.000000D+00  0.000000D+00
    131   0.000000D+00  0.000000D+00  0.000000D+00  0.000000D+00  0.000000D+00
    132   0.000000D+00  0.000000D+00  0.000000D+00  0.000000D+00  0.000000D+00
    133   0.000000D+00  0.000000D+00  0.000000D+00  0.000000D+00  0.000000D+00
    134   0.000000D+00  0.000000D+00  0.000000D+00  0.000000D+00  0.000000D+00
    135   0.000000D+00  0.000000D+00  0.000000D+00  0.000000D+00  0.000000D+00
    136   0.000000D+00  0.000000D+00  0.000000D+00  0.000000D+00  0.000000D+00
    137   0.000000D+00  0.000000D+00  0.000000D+00  0.000000D+00  0.000000D+00
    138   0.000000D+00  0.000000D+00  0.000000D+00  0.000000D+00  0.000000D+00
    139   0.000000D+00  0.000000D+00  0.000000D+00  0.000000D+00  0.000000D+00
    140   0.000000D+00  0.000000D+00  0.000000D+00  0.000000D+00  0.000000D+00
    141   0.000000D+00  0.000000D+00  0.000000D+00  0.000000D+00  0.000000D+00
    142   0.000000D+00  0.000000D+00  0.000000D+00  0.000000D+00  0.000000D+00
    143   0.000000D+00 -0.112622D-02 -0.856681D-02  0.000000D+00  0.000000D+00
    144   0.000000D+00  0.000000D+00  0.000000D+00  0.203255D-02  0.000000D+00
    145   0.000000D+00  0.000000D+00  0.000000D+00  0.000000D+00  0.203255D-02
    146   0.000000D+00  0.000000D+00  0.000000D+00  0.000000D+00  0.000000D+00
    147   0.000000D+00  0.000000D+00  0.000000D+00  0.000000D+00  0.000000D+00
    148   0.000000D+00  0.000000D+00  0.000000D+00  0.000000D+00  0.000000D+00
    149   0.000000D+00  0.000000D+00  0.000000D+00  0.000000D+00  0.000000D+00
    150   0.000000D+00  0.000000D+00  0.000000D+00  0.000000D+00  0.000000D+00
    151   0.000000D+00  0.000000D+00  0.000000D+00  0.000000D+00  0.000000D+00
    152   0.000000D+00  0.000000D+00  0.000000D+00  0.000000D+00  0.000000D+00
    153   0.000000D+00  0.000000D+00  0.000000D+00  0.000000D+00  0.000000D+00
    154   0.000000D+00 -0.218998D-01 -0.125011D+00  0.000000D+00  0.000000D+00
    155   0.000000D+00  0.000000D+00  0.000000D+00  0.304261D-01  0.000000D+00
    156   0.000000D+00  0.000000D+00  0.000000D+00  0.000000D+00  0.304261D-01
    157   0.000000D+00  0.000000D+00  0.000000D+00  0.000000D+00  0.000000D+00
    158   0.000000D+00  0.000000D+00  0.000000D+00  0.000000D+00  0.000000D+00
    159   0.000000D+00  0.000000D+00  0.000000D+00  0.000000D+00  0.000000D+00
    160   0.000000D+00  0.000000D+00  0.000000D+00  0.000000D+00  0.000000D+00
    161   0.000000D+00  0.000000D+00  0.000000D+00  0.000000D+00  0.000000D+00
    162   0.000000D+00  0.000000D+00  0.000000D+00  0.000000D+00  0.000000D+00
    163   0.000000D+00  0.000000D+00  0.000000D+00  0.000000D+00  0.000000D+00
    164   0.000000D+00  0.000000D+00  0.000000D+00  0.000000D+00  0.000000D+00
    165   0.000000D+00  0.000000D+00  0.175484D-05  0.000000D+00  0.000000D+00
    166   0.000000D+00  0.000000D+00  0.000000D+00  0.000000D+00  0.000000D+00
    167   0.000000D+00  0.000000D+00  0.000000D+00  0.000000D+00  0.000000D+00
    168   0.000000D+00  0.000000D+00  0.000000D+00  0.000000D+00  0.000000D+00
    169   0.000000D+00  0.000000D+00  0.000000D+00  0.000000D+00  0.000000D+00
    170   0.000000D+00  0.000000D+00  0.000000D+00  0.000000D+00  0.000000D+00
    171   0.000000D+00  0.000000D+00  0.000000D+00  0.000000D+00  0.000000D+00
    172   0.000000D+00  0.000000D+00  0.000000D+00  0.000000D+00  0.000000D+00
    173   0.000000D+00  0.000000D+00  0.000000D+00  0.000000D+00  0.000000D+00
    174   0.000000D+00  0.000000D+00  0.000000D+00  0.000000D+00  0.000000D+00
    175   0.000000D+00  0.000000D+00  0.000000D+00  0.000000D+00  0.000000D+00
    176   0.000000D+00  0.000000D+00  0.000000D+00  0.000000D+00  0.000000D+00
    177   0.000000D+00  0.000000D+00  0.000000D+00  0.000000D+00  0.000000D+00
    178   0.000000D+00  0.247020D-01  0.137423D+00  0.000000D+00  0.000000D+00
    179   0.000000D+00  0.000000D+00  0.000000D+00 -0.396774D-01  0.000000D+00
    180   0.000000D+00  0.000000D+00  0.000000D+00  0.000000D+00 -0.396774D-01
    181   0.000000D+00  0.000000D+00  0.000000D+00  0.000000D+00  0.000000D+00
    182   0.000000D+00  0.000000D+00  0.000000D+00  0.000000D+00  0.000000D+00
    183   0.000000D+00  0.000000D+00  0.000000D+00  0.000000D+00  0.000000D+00
    184   0.000000D+00  0.000000D+00  0.000000D+00  0.000000D+00  0.000000D+00
    185   0.000000D+00  0.000000D+00  0.000000D+00  0.000000D+00  0.000000D+00
    186   0.000000D+00  0.000000D+00  0.000000D+00  0.000000D+00  0.000000D+00
    187   0.000000D+00  0.000000D+00  0.000000D+00  0.000000D+00  0.000000D+00
    188   0.000000D+00  0.000000D+00  0.000000D+00  0.000000D+00  0.000000D+00
    189   0.000000D+00  0.000000D+00  0.000000D+00  0.000000D+00  0.000000D+00
    190   0.000000D+00  0.000000D+00  0.000000D+00  0.000000D+00  0.000000D+00
    191   0.192581D-02  0.999789D+00  0.408650D+00  0.000000D+00  0.000000D+00
    192   0.133322D-01  0.287568D+00  0.988932D+00  0.000000D+00  0.000000D+00
    193   0.000000D+00  0.000000D+00  0.000000D+00  0.999224D+00  0.000000D+00
    194   0.000000D+00  0.000000D+00  0.000000D+00  0.000000D+00  0.999224D+00
    195   0.275740D-02  0.000000D+00  0.000000D+00  0.000000D+00  0.000000D+00
    196   0.709206D-01  0.117599D-01  0.315764D+00  0.000000D+00  0.000000D+00
    197   0.000000D+00  0.000000D+00  0.000000D+00  0.337691D+00  0.000000D+00
    198   0.000000D+00  0.000000D+00  0.000000D+00  0.000000D+00  0.337691D+00
    199   0.559807D-01  0.000000D+00  0.000000D+00  0.000000D+00  0.000000D+00
    200   0.774325D-01  0.000000D+00  0.000000D+00  0.000000D+00  0.000000D+00
    201   0.000000D+00  0.000000D+00  0.000000D+00  0.000000D+00  0.000000D+00
    202   0.000000D+00  0.000000D+00  0.000000D+00  0.000000D+00  0.000000D+00
    203   0.000000D+00  0.000000D+00  0.000000D+00  0.000000D+00  0.000000D+00
    204   0.000000D+00  0.000000D+00  0.000000D+00  0.000000D+00  0.000000D+00
    205   0.406361D+00  0.258524D-04  0.714738D-02  0.000000D+00  0.000000D+00
    206   0.401343D+00  0.629438D-02  0.386865D-01  0.000000D+00  0.000000D+00
    207   0.269447D+00  0.284266D-02  0.175259D-01  0.000000D+00  0.000000D+00
    208   0.000000D+00  0.000000D+00  0.000000D+00  0.558729D-02  0.000000D+00
    209   0.000000D+00  0.000000D+00  0.000000D+00  0.000000D+00  0.558729D-02
    210   0.527427D+00  0.000000D+00  0.000000D+00  0.000000D+00  0.000000D+00
    211   0.000000D+00  0.000000D+00  0.000000D+00  0.291983D-03  0.000000D+00
    212   0.000000D+00  0.000000D+00  0.000000D+00  0.000000D+00  0.291983D-03
    213   0.798636D-01  0.000000D+00  0.000000D+00  0.000000D+00  0.000000D+00
    214   0.000000D+00  0.000000D+00  0.000000D+00  0.109792D-02  0.000000D+00
    215   0.000000D+00  0.000000D+00  0.000000D+00  0.000000D+00  0.109792D-02
    216   0.234296D+00  0.000000D+00  0.000000D+00  0.000000D+00  0.000000D+00
    217   0.422595D-01  0.124642D+00  0.608035D+00  0.000000D+00  0.000000D+00
    218   0.688800D-01  0.807516D-01  0.435001D+00  0.000000D+00  0.000000D+00
    219   0.114541D+00  0.519927D-01  0.297145D+00  0.000000D+00  0.000000D+00
    220   0.190142D+00  0.333600D-01  0.197271D+00  0.000000D+00  0.000000D+00
    221   0.292863D+00  0.213634D-01  0.128789D+00  0.000000D+00  0.000000D+00
    222   0.385332D+00  0.136663D-01  0.832787D-01  0.000000D+00  0.000000D+00
    223   0.000000D+00  0.000000D+00  0.000000D+00  0.167963D+00  0.000000D+00
    224   0.000000D+00  0.000000D+00  0.000000D+00  0.000000D+00  0.167963D+00
    225   0.698004D-01  0.000000D+00  0.000000D+00  0.000000D+00  0.000000D+00
    226   0.000000D+00  0.000000D+00  0.000000D+00  0.974571D-01  0.000000D+00
    227   0.000000D+00  0.000000D+00  0.000000D+00  0.000000D+00  0.974571D-01
    228   0.132870D+00  0.000000D+00  0.000000D+00  0.000000D+00  0.000000D+00
    229   0.000000D+00  0.000000D+00  0.000000D+00  0.548549D-01  0.000000D+00
    230   0.000000D+00  0.000000D+00  0.000000D+00  0.000000D+00  0.548549D-01
    231   0.239940D+00  0.000000D+00  0.000000D+00  0.000000D+00  0.000000D+00
    232   0.000000D+00  0.000000D+00  0.000000D+00  0.302737D-01  0.000000D+00
    233   0.000000D+00  0.000000D+00  0.000000D+00  0.000000D+00  0.302737D-01
    234   0.382518D+00  0.000000D+00  0.000000D+00  0.000000D+00  0.000000D+00
    235   0.000000D+00  0.000000D+00  0.000000D+00  0.165011D-01  0.000000D+00
    236   0.000000D+00  0.000000D+00  0.000000D+00  0.000000D+00  0.165011D-01
    237   0.507991D+00  0.000000D+00  0.000000D+00  0.000000D+00  0.000000D+00
    238   0.000000D+00  0.000000D+00  0.000000D+00  0.892489D-02  0.000000D+00
    239   0.000000D+00  0.000000D+00  0.000000D+00  0.000000D+00  0.892489D-02
    240   0.554099D+00  0.000000D+00  0.000000D+00  0.000000D+00  0.000000D+00
    241   0.449314D-01  0.000000D+00  0.000000D+00  0.000000D+00  0.000000D+00
    242   0.000000D+00  0.000000D+00  0.000000D+00  0.000000D+00  0.000000D+00
    243   0.000000D+00  0.000000D+00  0.000000D+00  0.000000D+00  0.000000D+00
    244   0.000000D+00  0.000000D+00  0.000000D+00  0.000000D+00  0.000000D+00
    245   0.000000D+00  0.000000D+00  0.000000D+00  0.000000D+00  0.000000D+00
    246   0.123162D+00  0.000000D+00  0.000000D+00  0.000000D+00  0.000000D+00
    247   0.000000D+00  0.000000D+00  0.000000D+00  0.000000D+00  0.000000D+00
    248   0.000000D+00  0.000000D+00  0.000000D+00  0.000000D+00  0.000000D+00
    249   0.000000D+00  0.000000D+00  0.000000D+00  0.000000D+00  0.000000D+00
    250   0.000000D+00  0.000000D+00  0.000000D+00  0.000000D+00  0.000000D+00
    251   0.276584D+00  0.000000D+00  0.000000D+00  0.000000D+00  0.000000D+00
    252   0.000000D+00  0.000000D+00  0.000000D+00  0.000000D+00  0.000000D+00
    253   0.000000D+00  0.000000D+00  0.000000D+00  0.000000D+00  0.000000D+00
    254   0.000000D+00  0.000000D+00  0.000000D+00  0.000000D+00  0.000000D+00
    255   0.000000D+00  0.000000D+00  0.000000D+00  0.000000D+00  0.000000D+00
    256   0.436016D+00  0.000000D+00  0.000000D+00  0.000000D+00  0.000000D+00
    257   0.000000D+00  0.000000D+00  0.000000D+00  0.000000D+00  0.000000D+00
    258   0.000000D+00  0.000000D+00  0.000000D+00  0.000000D+00  0.000000D+00
    259   0.000000D+00  0.000000D+00  0.000000D+00  0.000000D+00  0.000000D+00
    260   0.000000D+00  0.000000D+00  0.000000D+00  0.000000D+00  0.000000D+00
    261   0.467300D+00  0.000000D+00  0.000000D+00  0.000000D+00  0.000000D+00
    262   0.000000D+00  0.000000D+00  0.000000D+00  0.000000D+00  0.000000D+00
    263   0.000000D+00  0.000000D+00  0.000000D+00  0.000000D+00  0.000000D+00
    264   0.000000D+00  0.000000D+00  0.000000D+00  0.000000D+00  0.000000D+00
    265   0.000000D+00  0.000000D+00  0.000000D+00  0.000000D+00  0.000000D+00
    266   0.359128D+00  0.000000D+00  0.000000D+00  0.000000D+00  0.000000D+00
    267   0.000000D+00  0.000000D+00  0.000000D+00  0.000000D+00  0.000000D+00
    268   0.000000D+00  0.000000D+00  0.000000D+00  0.000000D+00  0.000000D+00
    269   0.000000D+00  0.000000D+00  0.000000D+00  0.000000D+00  0.000000D+00
    270   0.000000D+00  0.000000D+00  0.000000D+00  0.000000D+00  0.000000D+00
    271   0.211765D+00  0.000000D+00  0.000000D+00  0.000000D+00  0.000000D+00
    272   0.000000D+00  0.000000D+00  0.000000D+00  0.000000D+00  0.000000D+00
    273   0.000000D+00  0.000000D+00  0.000000D+00  0.000000D+00  0.000000D+00
    274   0.000000D+00  0.000000D+00  0.000000D+00  0.000000D+00  0.000000D+00
    275   0.000000D+00  0.000000D+00  0.000000D+00  0.000000D+00  0.000000D+00
    276   0.326992D-01  0.000000D+00  0.000000D+00  0.000000D+00  0.000000D+00
    277   0.000000D+00  0.000000D+00  0.000000D+00  0.000000D+00  0.000000D+00
    278   0.000000D+00  0.000000D+00  0.000000D+00  0.000000D+00  0.000000D+00
    279   0.000000D+00  0.000000D+00  0.000000D+00  0.000000D+00  0.000000D+00
    280   0.000000D+00  0.000000D+00  0.000000D+00  0.000000D+00  0.000000D+00
    281   0.000000D+00  0.000000D+00  0.000000D+00  0.000000D+00  0.000000D+00
    282   0.000000D+00  0.000000D+00  0.000000D+00  0.000000D+00  0.000000D+00
    283   0.104559D+00  0.000000D+00  0.000000D+00  0.000000D+00  0.000000D+00
    284   0.000000D+00  0.000000D+00  0.000000D+00  0.000000D+00  0.000000D+00
    285   0.000000D+00  0.000000D+00  0.000000D+00  0.000000D+00  0.000000D+00
    286   0.000000D+00  0.000000D+00  0.000000D+00  0.000000D+00  0.000000D+00
    287   0.000000D+00  0.000000D+00  0.000000D+00  0.000000D+00  0.000000D+00
    288   0.000000D+00  0.000000D+00  0.000000D+00  0.000000D+00  0.000000D+00
    289   0.000000D+00  0.000000D+00  0.000000D+00  0.000000D+00  0.000000D+00
    290   0.242807D+00  0.000000D+00  0.000000D+00  0.000000D+00  0.000000D+00
    291   0.000000D+00  0.000000D+00  0.000000D+00  0.000000D+00  0.000000D+00
    292   0.000000D+00  0.000000D+00  0.000000D+00  0.000000D+00  0.000000D+00
    293   0.000000D+00  0.000000D+00  0.000000D+00  0.000000D+00  0.000000D+00
    294   0.000000D+00  0.000000D+00  0.000000D+00  0.000000D+00  0.000000D+00
    295   0.000000D+00  0.000000D+00  0.000000D+00  0.000000D+00  0.000000D+00
    296   0.000000D+00  0.000000D+00  0.000000D+00  0.000000D+00  0.000000D+00
    297   0.350354D+00  0.000000D+00  0.000000D+00  0.000000D+00  0.000000D+00
    298   0.000000D+00  0.000000D+00  0.000000D+00  0.000000D+00  0.000000D+00
    299   0.000000D+00  0.000000D+00  0.000000D+00  0.000000D+00  0.000000D+00
    300   0.000000D+00  0.000000D+00  0.000000D+00  0.000000D+00  0.000000D+00
    301   0.000000D+00  0.000000D+00  0.000000D+00  0.000000D+00  0.000000D+00
    302   0.000000D+00  0.000000D+00  0.000000D+00  0.000000D+00  0.000000D+00
    303   0.000000D+00  0.000000D+00  0.000000D+00  0.000000D+00  0.000000D+00
    304   0.321022D+00  0.000000D+00  0.000000D+00  0.000000D+00  0.000000D+00
    305   0.000000D+00  0.000000D+00  0.000000D+00  0.000000D+00  0.000000D+00
    306   0.000000D+00  0.000000D+00  0.000000D+00  0.000000D+00  0.000000D+00
    307   0.000000D+00  0.000000D+00  0.000000D+00  0.000000D+00  0.000000D+00
    308   0.000000D+00  0.000000D+00  0.000000D+00  0.000000D+00  0.000000D+00
    309   0.000000D+00  0.000000D+00  0.000000D+00  0.000000D+00  0.000000D+00
    310   0.000000D+00  0.000000D+00  0.000000D+00  0.000000D+00  0.000000D+00
    311   0.204353D+00  0.000000D+00  0.000000D+00  0.000000D+00  0.000000D+00
    312   0.000000D+00  0.000000D+00  0.000000D+00  0.000000D+00  0.000000D+00
    313   0.000000D+00  0.000000D+00  0.000000D+00  0.000000D+00  0.000000D+00
    314   0.000000D+00  0.000000D+00  0.000000D+00  0.000000D+00  0.000000D+00
    315   0.000000D+00  0.000000D+00  0.000000D+00  0.000000D+00  0.000000D+00
    316   0.000000D+00  0.000000D+00  0.000000D+00  0.000000D+00  0.000000D+00
    317   0.000000D+00  0.000000D+00  0.000000D+00  0.000000D+00  0.000000D+00
    318   0.309338D-02  0.000000D+00  0.000000D+00  0.000000D+00  0.000000D+00
    319   0.000000D+00  0.000000D+00  0.000000D+00  0.000000D+00  0.000000D+00
    320   0.000000D+00  0.000000D+00  0.000000D+00  0.000000D+00  0.000000D+00
    321   0.000000D+00  0.000000D+00  0.000000D+00  0.000000D+00  0.000000D+00
    322   0.000000D+00  0.000000D+00  0.000000D+00  0.000000D+00  0.000000D+00
    323   0.000000D+00  0.000000D+00  0.000000D+00  0.000000D+00  0.000000D+00
    324   0.000000D+00  0.000000D+00  0.000000D+00  0.000000D+00  0.000000D+00
    325   0.000000D+00  0.000000D+00  0.000000D+00  0.000000D+00  0.000000D+00
    326   0.000000D+00  0.000000D+00  0.000000D+00  0.000000D+00  0.000000D+00
    327   0.275620D-01  0.000000D+00  0.000000D+00  0.000000D+00  0.000000D+00
    328   0.000000D+00  0.000000D+00  0.000000D+00  0.000000D+00  0.000000D+00
    329   0.000000D+00  0.000000D+00  0.000000D+00  0.000000D+00  0.000000D+00
    330   0.000000D+00  0.000000D+00  0.000000D+00  0.000000D+00  0.000000D+00
    331   0.000000D+00  0.000000D+00  0.000000D+00  0.000000D+00  0.000000D+00
    332   0.000000D+00  0.000000D+00  0.000000D+00  0.000000D+00  0.000000D+00
    333   0.000000D+00  0.000000D+00  0.000000D+00  0.000000D+00  0.000000D+00
    334   0.000000D+00  0.000000D+00  0.000000D+00  0.000000D+00  0.000000D+00
    335   0.000000D+00  0.000000D+00  0.000000D+00  0.000000D+00  0.000000D+00
    336   0.150699D+00  0.000000D+00  0.000000D+00  0.000000D+00  0.000000D+00
    337   0.000000D+00  0.000000D+00  0.000000D+00  0.000000D+00  0.000000D+00
    338   0.000000D+00  0.000000D+00  0.000000D+00  0.000000D+00  0.000000D+00
    339   0.000000D+00  0.000000D+00  0.000000D+00  0.000000D+00  0.000000D+00
    340   0.000000D+00  0.000000D+00  0.000000D+00  0.000000D+00  0.000000D+00
    341   0.000000D+00  0.000000D+00  0.000000D+00  0.000000D+00  0.000000D+00
    342   0.000000D+00  0.000000D+00  0.000000D+00  0.000000D+00  0.000000D+00
    343   0.000000D+00  0.000000D+00  0.000000D+00  0.000000D+00  0.000000D+00
    344   0.000000D+00  0.000000D+00  0.000000D+00  0.000000D+00  0.000000D+00
    345   0.255281D+00  0.000000D+00  0.000000D+00  0.000000D+00  0.000000D+00
    346   0.000000D+00  0.000000D+00  0.000000D+00  0.000000D+00  0.000000D+00
    347   0.000000D+00  0.000000D+00  0.000000D+00  0.000000D+00  0.000000D+00
    348   0.000000D+00  0.000000D+00  0.000000D+00  0.000000D+00  0.000000D+00
    349   0.000000D+00  0.000000D+00  0.000000D+00  0.000000D+00  0.000000D+00
    350   0.000000D+00  0.000000D+00  0.000000D+00  0.000000D+00  0.000000D+00
    351   0.000000D+00  0.000000D+00  0.000000D+00  0.000000D+00  0.000000D+00
    352   0.000000D+00  0.000000D+00  0.000000D+00  0.000000D+00  0.000000D+00
    353   0.000000D+00  0.000000D+00  0.000000D+00  0.000000D+00  0.000000D+00
    354   0.145610D+00  0.000000D+00  0.000000D+00  0.000000D+00  0.000000D+00
    355   0.000000D+00  0.000000D+00  0.000000D+00  0.000000D+00  0.000000D+00
    356   0.000000D+00  0.000000D+00  0.000000D+00  0.000000D+00  0.000000D+00
    357   0.000000D+00  0.000000D+00  0.000000D+00  0.000000D+00  0.000000D+00
    358   0.000000D+00  0.000000D+00  0.000000D+00  0.000000D+00  0.000000D+00
    359   0.000000D+00  0.000000D+00  0.000000D+00  0.000000D+00  0.000000D+00
    360   0.000000D+00  0.000000D+00  0.000000D+00  0.000000D+00  0.000000D+00
    361   0.000000D+00  0.000000D+00  0.000000D+00  0.000000D+00  0.000000D+00
    362   0.000000D+00  0.000000D+00  0.000000D+00  0.000000D+00  0.000000D+00
    363   0.569245D-01  0.000000D+00  0.000000D+00  0.000000D+00  0.000000D+00
    364   0.000000D+00  0.000000D+00  0.000000D+00  0.000000D+00  0.000000D+00
    365   0.000000D+00  0.000000D+00  0.000000D+00  0.000000D+00  0.000000D+00
    366   0.000000D+00  0.000000D+00  0.000000D+00  0.000000D+00  0.000000D+00
    367   0.000000D+00  0.000000D+00  0.000000D+00  0.000000D+00  0.000000D+00
    368   0.000000D+00  0.000000D+00  0.000000D+00  0.000000D+00  0.000000D+00
    369   0.000000D+00  0.000000D+00  0.000000D+00  0.000000D+00  0.000000D+00
    370   0.000000D+00  0.000000D+00  0.000000D+00  0.000000D+00  0.000000D+00
    371   0.000000D+00  0.000000D+00  0.000000D+00  0.000000D+00  0.000000D+00
    372   0.000000D+00  0.000000D+00  0.000000D+00  0.000000D+00  0.000000D+00
    373   0.000000D+00  0.000000D+00  0.000000D+00  0.000000D+00  0.000000D+00
    374   0.139506D+00  0.000000D+00  0.000000D+00  0.000000D+00  0.000000D+00
    375   0.000000D+00  0.000000D+00  0.000000D+00  0.000000D+00  0.000000D+00
    376   0.000000D+00  0.000000D+00  0.000000D+00  0.000000D+00  0.000000D+00
    377   0.000000D+00  0.000000D+00  0.000000D+00  0.000000D+00  0.000000D+00
    378   0.000000D+00  0.000000D+00  0.000000D+00  0.000000D+00  0.000000D+00
    379   0.000000D+00  0.000000D+00  0.000000D+00  0.000000D+00  0.000000D+00
    380   0.000000D+00  0.000000D+00  0.000000D+00  0.000000D+00  0.000000D+00
    381   0.000000D+00  0.000000D+00  0.000000D+00  0.000000D+00  0.000000D+00
    382   0.000000D+00  0.000000D+00  0.000000D+00  0.000000D+00  0.000000D+00
    383   0.000000D+00  0.000000D+00  0.000000D+00  0.000000D+00  0.000000D+00
    384   0.000000D+00  0.000000D+00  0.000000D+00  0.000000D+00  0.000000D+00
    385   0.181213D+00  0.000000D+00  0.000000D+00  0.000000D+00  0.000000D+00
    386   0.000000D+00  0.000000D+00  0.000000D+00  0.000000D+00  0.000000D+00
    387   0.000000D+00  0.000000D+00  0.000000D+00  0.000000D+00  0.000000D+00
    388   0.000000D+00  0.000000D+00  0.000000D+00  0.000000D+00  0.000000D+00
[...]
                 (PI) (PI) (SG) (DLTA) (DLTA) (SG) (PI) (PI) (?A)
                 (?A) (DLTA) (DLTA) (PHI) (PHI) (SG) (PI) (PI)
                 (SG) (SG) (DLTA) (DLTA) (SG) (PI) (PI) (?C) (?C)
                 (PI) (PI) (?B) (?B) (PHI) (PHI) (SG) (SG) (SG)
                 (DLTA) (DLTA) (SG) (PI) (PI) (PHI) (PHI) (SG)
                 (PI) (PI) (SG) (DLTA) (DLTA) (?A) (?A) (SG) (?B)
                 (?B) (DLTA) (DLTA) (PI) (PI) (SG) (DLTA) (DLTA)
                 (PHI) (PHI) (PI) (PI) (SG) (?A) (?A) (DLTA) (DLTA)
                 (SG) (SG) (PHI) (PHI) (?B) (?B) (PI) (PI) (PHI)
                 (PHI) (PI) (PI) (SG) (DLTA) (DLTA) (?A) (?A) (SG)
                 (PI) (PI) (PHI) (PHI) (PI) (PI) (SG) (?A) (?A)
                 (SG) (DLTA) (DLTA) (?B) (?B) (DLTA) (DLTA) (SG)
                 (?B) (?B) (?A) (?A) (PI) (PI) (SG) (?A) (?A) (PHI)
                 (PHI) (PI) (PI) (DLTA) (DLTA) (PHI) (PHI) (?A)
                 (?A) (?B) (?B) (SG) (PI) (PI) (DLTA) (DLTA) (PHI)
                 (PHI) (PI) (PI) (PHI) (PHI) (SG) (?A) (?A) (DLTA)
                 (DLTA) (SG) (PI) (PI) (PI) (PI) (DLTA) (DLTA)
                 (PHI) (PHI) (SG) (SG) (SG) (PI) (PI) (?A) (?A)
                 (DLTA) (DLTA) (PHI) (PHI) (SG) (PI) (PI) (DLTA)
                 (DLTA) (DLTA) (DLTA) (PI) (PI) (SG) (PHI) (PHI)
                 (PHI) (PHI) (SG) (PI) (PI) (DLTA) (DLTA) (PI)
                 (PI) (SG) (DLTA) (DLTA) (DLTA) (DLTA) (SG) (SG)
                 (PI) (PI) (PI) (PI) (SG) (DLTA) (DLTA) (PI) (PI)
                 (SG) (PI) (PI) (SG) (SG) (?B) (?B) (SG) (?A) (?A)
                 (PHI) (PHI) (SG) (DLTA) (DLTA) (PI) (PI) (PHI)
                 (PHI) (SG) (PI) (PI) (SG) (DLTA) (DLTA) (PI) (PI)
                 (SG) (SG) (?A) (?A) (PHI) (PHI) (?B) (?B) (SG)
                 (?A) (?A) (DLTA) (DLTA) (PI) (PI) (PHI) (PHI)
                 (?A) (?A) (DLTA) (DLTA) (SG) (PI) (PI) (PI) (PI)
                 (DLTA) (DLTA) (PHI) (PHI) (SG) (DLTA) (DLTA) (PI)
                 (PI) (SG) (PI) (PI) (SG) (PI) (PI) (?A) (?A) (PHI)
                 (PHI) (PHI) (PHI) (SG) (DLTA) (DLTA) (PI) (PI)
                 (SG) (DLTA) (DLTA) (SG) (DLTA) (DLTA) (SG) (?B)
                 (?B) (SG) (SG) (?A) (?A) (PI) (PI) (PHI) (PHI)
                 (DLTA) (DLTA) (PI) (PI) (PI) (PI) (?B) (?B) (?A)
                 (?A) (SG) (PHI) (PHI) (SG) (DLTA) (DLTA) (PI)
                 (PI) (SG) (?B) (?B) (SG) (SG) (?C) (?C) (?A) (?A)
                 (PHI) (PHI) (DLTA) (DLTA) (PI) (PI) (SG) (SG)
                 (PHI) (PHI) (SG) (SG) (?B) (?B) (?A) (?A) (PHI)
                 (PHI) (DLTA) (DLTA) (DLTA) (DLTA) (PI) (PI) (SG)
                 (SG) (PI) (PI) (DLTA) (DLTA) (SG) (PI) (PI) (?B)
                 (?B) (?A) (?A) (PI) (PI) (?A) (?A) (PHI) (PHI)
                 (PHI) (PHI) (SG) (DLTA) (DLTA) (PI) (PI) (SG)
                 (DLTA) (DLTA) (PI) (PI) (SG) (PHI) (PHI) (DLTA)
                 (DLTA) (?A) (?A) (SG) (PHI) (PHI) (PI) (PI) (DLTA)
                 (DLTA) (PI) (PI) (SG) (DLTA) (DLTA) (PI) (PI)
                 (SG) (SG) (PI) (PI) (SG) (SG) (SG)
 The electronic state is 1-SG.
 Alpha  occ. eigenvalues -- -378.84493 -48.19774 -42.52597 -42.52597 -42.52080
 Alpha  occ. eigenvalues --  -20.48968  -6.42654  -4.51966  -4.51966  -4.51323
 Alpha  occ. eigenvalues --   -1.26968  -1.23486  -1.23486  -1.22694  -1.22694
 Alpha  occ. eigenvalues --   -1.12273  -0.58922  -0.45340  -0.40704  -0.40704
 Alpha virt. eigenvalues --    0.00546   0.01180   0.01180   0.02067   0.03432
 Alpha virt. eigenvalues --    0.03432   0.03926   0.05227   0.07432   0.09262
 Alpha virt. eigenvalues --    0.09262   0.09481   0.09481   0.09811   0.11090
 Alpha virt. eigenvalues --    0.11090   0.12976   0.16590   0.16590   0.16802
 Alpha virt. eigenvalues --    0.19808   0.20488   0.23753   0.23753   0.24896
 Alpha virt. eigenvalues --    0.24896   0.25186   0.25186   0.25330   0.26677
 Alpha virt. eigenvalues --    0.26677   0.28040   0.28040   0.29292   0.29292
 Alpha virt. eigenvalues --    0.30294   0.38019   0.39247   0.39247   0.39591
 Alpha virt. eigenvalues --    0.41988   0.42430   0.42430   0.45901   0.45901
 Alpha virt. eigenvalues --    0.47038   0.47038   0.47343   0.49006   0.49006
 Alpha virt. eigenvalues --    0.51341   0.51341   0.53816   0.56233   0.56233
 Alpha virt. eigenvalues --    0.57448   0.58320   0.58320   0.60899   0.60899
 Alpha virt. eigenvalues --    0.62770   0.62770   0.62910   0.62910   0.65065
 Alpha virt. eigenvalues --    0.66194   0.66194   0.68447   0.72204   0.72204
 Alpha virt. eigenvalues --    0.80223   0.81512   0.82155   0.82155   0.83422
 Alpha virt. eigenvalues --    0.83422   0.89248   0.89248   0.90706   0.92475
 Alpha virt. eigenvalues --    0.92475   0.92532   0.92532   0.93259   0.93259
 Alpha virt. eigenvalues --    0.96962   0.96962   0.97597   1.03986   1.05467
 Alpha virt. eigenvalues --    1.05467   1.05692   1.05836   1.05836   1.06788
 Alpha virt. eigenvalues --    1.06788   1.13099   1.17152   1.17152   1.20567
 Alpha virt. eigenvalues --    1.20567   1.22317   1.22317   1.23652   1.25047
 Alpha virt. eigenvalues --    1.25047   1.26991   1.26991   1.27736   1.27736
 Alpha virt. eigenvalues --    1.30859   1.30859   1.31078   1.31078   1.32102
 Alpha virt. eigenvalues --    1.32102   1.36567   1.36567   1.40177   1.40177
 Alpha virt. eigenvalues --    1.42071   1.42997   1.42997   1.43760   1.43760
 Alpha virt. eigenvalues --    1.44198   1.44198   1.44631   1.46593   1.46593
 Alpha virt. eigenvalues --    1.49394   1.56531   1.56531   1.61468   1.61468
 Alpha virt. eigenvalues --    1.62928   1.65546   1.65546   1.66599   1.71483
 Alpha virt. eigenvalues --    1.71483   1.72266   1.75178   1.75178   1.76066
 Alpha virt. eigenvalues --    1.76066   1.81882   1.81882   1.85565   1.89078
 Alpha virt. eigenvalues --    1.95432   1.95432   1.96136   2.00513   2.00513
 Alpha virt. eigenvalues --    2.02829   2.02829   2.02876   2.02876   2.04037
 Alpha virt. eigenvalues --    2.04037   2.06305   2.06305   2.09689   2.15495
 Alpha virt. eigenvalues --    2.15495   2.24220   2.24220   2.28202   2.28202
 Alpha virt. eigenvalues --    2.29510   2.29510   2.37060   2.37060   2.37819
 Alpha virt. eigenvalues --    2.38631   2.38631   2.39534   2.39534   2.42978
 Alpha virt. eigenvalues --    2.46281   2.46281   2.50113   2.50113   2.51870
 Alpha virt. eigenvalues --    2.56630   2.57481   2.57481   2.58353   2.58353
 Alpha virt. eigenvalues --    2.58580   2.58580   2.64568   2.64568   2.74015
 Alpha virt. eigenvalues --    2.74015   2.77536   2.77536   2.81667   2.82848
 Alpha virt. eigenvalues --    2.82848   2.86992   2.86992   2.89419   2.89419
 Alpha virt. eigenvalues --    2.91305   2.92518   2.92518   2.92855   2.92855
 Alpha virt. eigenvalues --    2.93575   2.96241   2.96241   3.03848   3.03848
 Alpha virt. eigenvalues --    3.05654   3.10516   3.10516   3.15045   3.15045
 Alpha virt. eigenvalues --    3.16779   3.16779   3.16867   3.16867   3.18503
 Alpha virt. eigenvalues --    3.18503   3.19228   3.19939   3.19939   3.20778
 Alpha virt. eigenvalues --    3.20778   3.21242   3.22737   3.22737   3.30093
 Alpha virt. eigenvalues --    3.30093   3.31186   3.31186   3.35852   3.39094
 Alpha virt. eigenvalues --    3.39094   3.42920   3.42920   3.48637   3.48637
 Alpha virt. eigenvalues --    3.48731   3.48731   3.61923   3.61923   3.62181
 Alpha virt. eigenvalues --    3.62181   3.68707   3.69170   3.69170   3.72990
 Alpha virt. eigenvalues --    3.73878   3.73878   3.80551   3.80551   3.83850
 Alpha virt. eigenvalues --    3.83850   3.89601   3.89601   3.96950   4.01884
 Alpha virt. eigenvalues --    4.01884   4.02575   4.02575   4.03842   4.07011
 Alpha virt. eigenvalues --    4.07011   4.13115   4.13115   4.15322   4.27574
 Alpha virt. eigenvalues --    4.27574   4.27872   4.27872   4.28771   4.30999
 Alpha virt. eigenvalues --    4.30999   4.33233   4.33233   4.38758   4.38758
 Alpha virt. eigenvalues --    4.44252   4.44252   4.45564   4.45564   4.47891
 Alpha virt. eigenvalues --    4.47891   4.52948   4.59314   4.59314   4.64642
 Alpha virt. eigenvalues --    4.67471   4.67471   4.71134   4.71134   4.74417
 Alpha virt. eigenvalues --    4.74417   4.81276   4.81276   4.85876   4.94127
 Alpha virt. eigenvalues --    4.94127   4.94141   4.94141   5.03301   5.03301
 Alpha virt. eigenvalues --    5.05277   5.05523   5.05523   5.15729   5.15729
 Alpha virt. eigenvalues --    5.16351   5.16351   5.16465   5.16465   5.27892
 Alpha virt. eigenvalues --    5.27892   5.37533   5.38506   5.38506   5.41911
 Alpha virt. eigenvalues --    5.41911   5.44014   5.47377   5.47377   5.49353
 Alpha virt. eigenvalues --    5.49353   5.51523   5.70312   5.70312   5.73344
 Alpha virt. eigenvalues --    5.73735   5.73735   5.74354   5.74354   6.01597
 Alpha virt. eigenvalues --    6.09873   6.09873   6.10797   6.10797   6.13290
 Alpha virt. eigenvalues --    6.13290   6.23332   6.26867   6.26867   6.30888
 Alpha virt. eigenvalues --    6.30888   6.33934   6.33934   6.42082   6.47507
 Alpha virt. eigenvalues --    6.47507   6.49917   6.49917   6.58392   6.58392
 Alpha virt. eigenvalues --    6.62091   6.62091   6.62599   6.62599   6.71311
 Alpha virt. eigenvalues --    6.71311   6.71499   6.71499   6.79659   6.79659
 Alpha virt. eigenvalues --    6.80430   6.95936   6.95936   6.98166   6.98166
 Alpha virt. eigenvalues --    6.99300   7.01475   7.01475   7.04271   7.04271
 Alpha virt. eigenvalues --    7.25738   7.25738   7.36218   7.39233   7.39233
 Alpha virt. eigenvalues --    7.40458   7.41813   7.41813   7.60455   7.60455
 Alpha virt. eigenvalues --    7.61085   7.61085   7.61990   7.68829   7.68829
 Alpha virt. eigenvalues --    7.70920   7.70920   7.74118   7.74118   7.76932
 Alpha virt. eigenvalues --    7.88543   7.88543   7.97529   7.97529   8.04172
 Alpha virt. eigenvalues --    8.04172   8.06862   8.06862   8.08473   8.08473
 Alpha virt. eigenvalues --    8.16338   8.16338   8.17673   8.17673   8.18228
 Alpha virt. eigenvalues --    8.28736   8.28736   8.32717   8.32717   8.43705
 Alpha virt. eigenvalues --    8.43705   8.54698   8.54698   8.55654   8.55654
 Alpha virt. eigenvalues --    8.69227   8.70178   8.70178   8.74643   8.74643
 Alpha virt. eigenvalues --    8.76093   8.94808   8.94808   9.05555   9.05555
 Alpha virt. eigenvalues --    9.07254   9.07254   9.08359   9.08359   9.19663
 Alpha virt. eigenvalues --    9.36392   9.61416   9.61481   9.61481   9.72740
 Alpha virt. eigenvalues --    9.72740   9.73029   9.73029   9.84087   9.84087
 Alpha virt. eigenvalues --    9.91064   9.97926   9.97926  10.02960  10.02960
 Alpha virt. eigenvalues --   10.27569  10.27569  10.29863  10.29863  10.47528
 Alpha virt. eigenvalues --   10.49081  10.49081  10.73901  10.73901  10.77112
 Alpha virt. eigenvalues --   10.88035  10.88035  10.89782  10.89782  11.01628
 Alpha virt. eigenvalues --   11.01628  11.19712  11.24995  11.24995  11.33525
 Alpha virt. eigenvalues --   11.33525  11.42330  11.57197  11.67889  11.67889
 Alpha virt. eigenvalues --   11.92457  11.92457  11.98820  12.11157  12.11157
 Alpha virt. eigenvalues --   12.72083  12.72083  12.94083  13.21556  13.21556
 Alpha virt. eigenvalues --   13.38867  13.38867  13.47020  13.47020  13.61445
 Alpha virt. eigenvalues --   13.63824  13.63824  13.83175  13.83175  13.83805
 Alpha virt. eigenvalues --   14.20903  14.20903  14.29263  14.29263  14.32587
 Alpha virt. eigenvalues --   14.32587  14.43464  14.73383  14.73383  15.14519
 Alpha virt. eigenvalues --   15.32665  15.32665  16.05452  16.05452  16.26646
 Alpha virt. eigenvalues --   16.62628  16.76283  16.76283  17.07440  17.07440
 Alpha virt. eigenvalues --   17.19444  17.19444  17.25758  17.36229  17.36229
 Alpha virt. eigenvalues --   17.43061  17.43061  17.74683  17.74683  17.75213
 Alpha virt. eigenvalues --   17.75213  17.92952  17.92952  18.01842  18.01842
 Alpha virt. eigenvalues --   18.05495  18.15293  18.15293  18.27907  18.27907
 Alpha virt. eigenvalues --   18.32189  18.32189  18.42209  18.42209  18.59864
 Alpha virt. eigenvalues --   19.15588  19.15588  19.25243  19.25243  19.33858
 Alpha virt. eigenvalues --   19.57407  19.57407  19.90883  20.00268  20.00268
 Alpha virt. eigenvalues --   20.02381  20.02381  20.32868  20.32868  20.49805
 Alpha virt. eigenvalues --   20.49805  20.76774  20.81771  20.81771  20.98159
 Alpha virt. eigenvalues --   20.98159  21.00864  21.33774  21.33774  21.36549
 Alpha virt. eigenvalues --   22.68223  22.68223  22.86148  22.90845  22.90845
 Alpha virt. eigenvalues --   22.91511  22.91511  22.95396  22.95396  22.96628
 Alpha virt. eigenvalues --   22.96628  23.02759  23.02759  23.19794  23.19794
 Alpha virt. eigenvalues --   23.43378  23.43378  23.52784  23.52784  23.57724
 Alpha virt. eigenvalues --   23.57724  23.71730  23.71730  24.02960  24.30255
 Alpha virt. eigenvalues --   24.30255  24.35759  24.69661  24.69661  24.90545
 Alpha virt. eigenvalues --   24.90545  25.34782  25.38175  25.38175  25.38490
 Alpha virt. eigenvalues --   25.38490  25.39666  25.39666  25.42872  25.42872
 Alpha virt. eigenvalues --   25.57705  25.57705  25.70683  25.70683  25.84825
 Alpha virt. eigenvalues --   25.84825  25.94326  26.67829  33.43366  33.43366
 Alpha virt. eigenvalues --   34.00813  34.00813  34.04006  34.04006  34.11737
 Alpha virt. eigenvalues --   34.11737  34.19117  34.19117  34.22807  34.22807
 Alpha virt. eigenvalues --   34.34858  34.34858  34.46389  34.46389  34.57035
 Alpha virt. eigenvalues --   34.95614  35.09736  35.09736  38.27940  38.27940
 Alpha virt. eigenvalues --   38.66649  38.73779  38.73779  38.99716  38.99716
 Alpha virt. eigenvalues --   39.04123  39.04123  39.04162  39.04162  39.15049
 Alpha virt. eigenvalues --   39.15049  39.22899  39.22899  39.39674  39.39674
 Alpha virt. eigenvalues --   39.57803  39.63460  39.63460  39.70405  39.70405
 Alpha virt. eigenvalues --   39.88973  39.91507  39.91507  40.27611  40.27611
 Alpha virt. eigenvalues --   40.77387  41.86641  41.86641  42.55048  42.55048
 Alpha virt. eigenvalues --   42.91780  42.91780  43.12420  43.15409  43.15409
 Alpha virt. eigenvalues --   43.21403  43.21403  43.46425  43.46425  43.96828
 Alpha virt. eigenvalues --   43.96828  44.02418  47.09044  47.09044  47.58722
 Alpha virt. eigenvalues --   47.58722  48.28355  50.13823  53.79736  53.79736
 Alpha virt. eigenvalues --   55.52220 109.19259 452.07261
          Condensed to atoms (all electrons):
              1          2          3
     1  H    0.634554   0.282706   0.015910
     2  Ga   0.282706  30.074723   0.106776
     3  O    0.015910   0.106776   8.479939
 Mulliken atomic charges:
              1
     1  H    0.066830
     2  Ga   0.535795
     3  O   -0.602625
 Sum of Mulliken atomic charges =   0.00000
 Mulliken charges with hydrogens summed into heavy atoms:
              1
     2  Ga   0.602625
     3  O   -0.602625
 Sum of Mulliken charges with hydrogens summed into heavy atoms =   0.00000
          Atomic-Atomic Spin Densities.
              1          2          3
     1  H    0.000000   0.000000   0.000000
     2  Ga   0.000000   0.000000   0.000000
     3  O    0.000000   0.000000   0.000000
 Mulliken atomic spin densities:
              1
     1  H    0.000000
     2  Ga   0.000000
     3  O    0.000000
 Sum of Mulliken atomic spin densities =   0.00000
 Electronic spatial extent (au):  <R**2>=            124.0798
 Charge=              0.0000 electrons
 Dipole moment (field-independent basis, Debye):
    X=              0.0000    Y=              0.0000    Z=              5.7059  Tot=              5.7059
 Quadrupole moment (field-independent basis, Debye-Ang):
   XX=            -19.4860   YY=            -19.4860   ZZ=            -29.0279
   XY=              0.0000   XZ=              0.0000   YZ=              0.0000
 Traceless Quadrupole moment (field-independent basis, Debye-Ang):
   XX=              3.1807   YY=              3.1807   ZZ=             -6.3613
   XY=              0.0000   XZ=              0.0000   YZ=              0.0000
 Octapole moment (field-independent basis, Debye-Ang**2):
  XXX=              0.0000  YYY=              0.0000  ZZZ=             15.3928  XYY=              0.0000
  XXY=              0.0000  XXZ=              4.3227  XZZ=              0.0000  YZZ=              0.0000
  YYZ=              4.3227  XYZ=              0.0000
 Hexadecapole moment (field-independent basis, Debye-Ang**3):
 XXXX=            -19.7583 YYYY=            -19.7583 ZZZZ=           -138.1893 XXXY=              0.0000
 XXXZ=              0.0000 YYYX=              0.0000 YYYZ=              0.0000 ZZZX=              0.0000
 ZZZY=              0.0000 XXYY=             -6.5861 XXZZ=            -25.4975 YYZZ=            -25.4975
 XXYZ=              0.0000 YYXZ=              0.0000 ZZXY=              0.0000
 N-N= 9.187006615519D+01 E-N=-7.456998082144D+03  KE= 2.998012518157D+03
                          Isotropic Fermi Contact Couplings
        Atom                 a.u.       MegaHertz       Gauss      10(-4) cm-1
     1  H(1)               0.00000       0.00000       0.00000       0.00000
     2  Ga(69)             0.00000       0.00000       0.00000       0.00000
     3  O(17)              0.00000       0.00000       0.00000       0.00000
 --------------------------------------------------------
       Center         ----  Spin Dipole Couplings  ----
                      3XX-RR        3YY-RR        3ZZ-RR
 --------------------------------------------------------
     1   Atom        0.000000      0.000000      0.000000
     2   Atom        0.000000      0.000000      0.000000
     3   Atom        0.000000      0.000000      0.000000
 --------------------------------------------------------
                        XY            XZ            YZ
 --------------------------------------------------------
     1   Atom        0.000000      0.000000      0.000000
     2   Atom        0.000000      0.000000      0.000000
     3   Atom        0.000000      0.000000      0.000000
 --------------------------------------------------------


 ---------------------------------------------------------------------------------
              Anisotropic Spin Dipole Couplings in Principal Axis System
 ---------------------------------------------------------------------------------

       Atom             a.u.   MegaHertz   Gauss  10(-4) cm-1        Axes

              Baa     0.0000     0.000     0.000     0.000  1.0000  0.0000  0.0000
     1 H(1)   Bbb     0.0000     0.000     0.000     0.000  0.0000  1.0000  0.0000
              Bcc     0.0000     0.000     0.000     0.000  0.0000  0.0000  1.0000
 
              Baa     0.0000     0.000     0.000     0.000  1.0000  0.0000  0.0000
     2 Ga(69) Bbb     0.0000     0.000     0.000     0.000  0.0000  1.0000  0.0000
              Bcc     0.0000     0.000     0.000     0.000  0.0000  0.0000  1.0000
 
              Baa     0.0000     0.000     0.000     0.000  1.0000  0.0000  0.0000
     3 O(17)  Bbb     0.0000     0.000     0.000     0.000  0.0000  1.0000  0.0000
              Bcc     0.0000     0.000     0.000     0.000  0.0000  0.0000  1.0000
 

 ---------------------------------------------------------------------------------


 Test job not archived.
 1\1\GINC-C33\SP\ROMP2-RW\Gen\Ga1H1O1\GPETERSSON\15-May-2013\0\\# ROMP2
 (RW) Gen GFinput Int=NoBasisTransform Int(Grid=Ultrafine) IOp(3/32=2,5
 /6=10,8/11=1,9/33=1) Maxdisk=128GB CBSextrapolate(Nmin=25,MinPop)\\H-G
 a=O\\0,1\H\Ga,1,1.52078\X,2,1.,1,90.\O,2,1.64567,3,90.,1,180.,0\\Versi
 on=EM64L-G09RevA.02\State=1-SG\HF=-1998.7153506\MP2=-1999.0614958\E2(C
 BS)=-0.3500491\CBS-Int=-0.3482177\OIii=1.899996\RMSD=2.334e-11\PG=C*V 
 [C*(O1Ga1H1)]\\@


 In the race for quality, there is no finish line.
                               -- David T. Kearns
 Job cpu time: 14 days  3 hours 16 minutes  6.6 seconds.
 File lengths (MBytes):  RWF=  51036 Int=      0 D2E=      0 Chk=     40 Scr=      1
 Normal termination of Gaussian 09 at Wed May 15 06:45:24 2013.
