 Entering Gaussian System, Link 0=gdv
 AtFile(1): 7ZaPa-NR.gbs
 Initial command:
 /share/apps/gaussian/gdvh12/gdv/l1.exe /localscratch/940768/Gau-31759.inp -scrdir=/localscratch/940768/
 Entering Link 1 = /share/apps/gaussian/gdvh12/gdv/l1.exe PID=     31760.
  
 Copyright (c) 1988,1990,1992,1993,1995,1998,2003,2009,2011,
            Gaussian, Inc.  All Rights Reserved.
  
 This is the private, development version of
 the Gaussian(R) DV system of programs. It is based on
 the Gaussian(R) 09 system (copyright 2009, Gaussian, Inc.),
 the Gaussian(R) 03 system (copyright 2003, Gaussian, Inc.),
 the Gaussian(R) 98 system (copyright 1998, Gaussian, Inc.),
 the Gaussian(R) 94 system (copyright 1995, Gaussian, Inc.),
 the Gaussian 92(TM) system (copyright 1992, Gaussian, Inc.),
 the Gaussian 90(TM) system (copyright 1990, Gaussian, Inc.),
 the Gaussian 88(TM) system (copyright 1988, Gaussian, Inc.),
 the Gaussian 86(TM) system (copyright 1986, Carnegie Mellon
 University), and the Gaussian 82(TM) system (copyright 1983,
 Carnegie Mellon University). Gaussian is a federally registered
 trademark of Gaussian, Inc.
  
 This software contains proprietary and confidential information,
 including trade secrets, belonging to Gaussian, Inc.
  
 This software is provided under written license and may be
 used, copied, transmitted, or stored only in accord with that
 written license.
  
 The following legend is applicable only to US Government
 contracts under FAR:
  
                    RESTRICTED RIGHTS LEGEND
  
 Use, reproduction and disclosure by the US Government is
 subject to restrictions as set forth in subparagraphs (a)
 and (c) of the Commercial Computer Software - Restricted
 Rights clause in FAR 52.227-19.
  
 Gaussian, Inc.
 340 Quinnipiac St., Bldg. 40, Wallingford CT 06492
  
  
 ---------------------------------------------------------------
 Warning -- This program may not be used in any manner that
 competes with the business of Gaussian, Inc. or will provide
 assistance to any competitor of Gaussian, Inc.  The licensee
 of this program is prohibited from giving any competitor of
 Gaussian, Inc. access to this program.  By using this program,
 the user acknowledges that Gaussian, Inc. is engaged in the
 business of creating and licensing software in the field of
 computational chemistry and represents and warrants to the
 licensee that it is not a competitor of Gaussian, Inc. and that
 it will not use this program in any manner prohibited above.
 ---------------------------------------------------------------
  

 Cite this work as:
 Gaussian Development Version, Revision H.12,
 M. J. Frisch, G. W. Trucks, H. B. Schlegel, G. E. Scuseria, 
 M. A. Robb, J. R. Cheeseman, G. Scalmani, V. Barone, B. Mennucci, 
 G. A. Petersson, H. Nakatsuji, M. Caricato, X. Li, H. P. Hratchian, 
 A. F. Izmaylov, J. Bloino, G. Zheng, J. L. Sonnenberg, M. Hada, 
 M. Ehara, K. Toyota, R. Fukuda, J. Hasegawa, M. Ishida, T. Nakajima, 
 Y. Honda, O. Kitao, H. Nakai, T. Vreven, J. A. Montgomery, Jr., 
 J. E. Peralta, F. Ogliaro, M. Bearpark, J. J. Heyd, E. Brothers, 
 K. N. Kudin, V. N. Staroverov, T. Keith, R. Kobayashi, J. Normand, 
 K. Raghavachari, A. Rendell, J. C. Burant, S. S. Iyengar, J. Tomasi, 
 M. Cossi, N. Rega, J. M. Millam, M. Klene, J. E. Knox, J. B. Cross, 
 V. Bakken, C. Adamo, J. Jaramillo, R. Gomperts, R. E. Stratmann, 
 O. Yazyev, A. J. Austin, R. Cammi, C. Pomelli, J. W. Ochterski, 
 R. L. Martin, K. Morokuma, V. G. Zakrzewski, G. A. Voth, 
 P. Salvador, J. J. Dannenberg, S. Dapprich, P. V. Parandekar, 
 N. J. Mayhall, A. D. Daniels, O. Farkas, J. B. Foresman, 
 J. V. Ortiz, J. Cioslowski, and D. J. Fox, 
 Gaussian, Inc., Wallingford CT, 2010.
 
 ******************************************
 Gaussian DV:  EM64L-GDVRevH.12  9-Jun-2011
                14-Jun-2013 
 ******************************************
 % Mem=12GB
 % Nproc=8
 Will use up to    8 processors via shared memory.
 ----------------------------------------------------------------------
 # ROMP2(RW) Gen GFinput Int=NoBasisTransform Int(Grid=Ultrafine) IOp(3
 /32=2,5/6=10,8/11=1,9/33=1) Maxdisk=128GB CBSextrapolate(Nmin=25,MinPo
 p)
 ----------------------------------------------------------------------
 1/38=1/1;
 2/12=2,17=6,18=5,40=1/2;
 3/5=7,11=2,16=1,24=10,25=1,30=1,32=2,60=-1,75=-5,116=101/1,2,3;
 4//1;
 5/5=2,6=10,38=5/2;
 8/5=-1,10=91,11=1/1;
 9/16=-3,33=1,75=2,81=25,83=4/6,4;
 6/7=2,8=2,9=2,10=2/1;
 99/5=1,9=1/99;
 ---
 Kr2
 ---
 Charge =  0 Multiplicity = 1
 Symbolic Z-Matrix:
 Kr
 Kr                   1     4.0008 
 
                          Input orientation:                          
 ---------------------------------------------------------------------
 Center     Atomic      Atomic             Coordinates (Angstroms)
 Number     Number       Type             X           Y           Z
 ---------------------------------------------------------------------
      1         36           0        0.000000    0.000000    0.000000
      2         36           0        0.000000    0.000000    4.000800
 ---------------------------------------------------------------------
 Stoichiometry    Kr2
 Framework group  D*H[C*(Kr.Kr)]
 Deg. of freedom     1
 Full point group                 D*H     NOp   8
 Largest Abelian subgroup         D2H     NOp   8
 Largest concise Abelian subgroup C2      NOp   2
                         Standard orientation:                         
 ---------------------------------------------------------------------
 Center     Atomic      Atomic             Coordinates (Angstroms)
 Number     Number       Type             X           Y           Z
 ---------------------------------------------------------------------
      1         36           0        0.000000    0.000000    2.000400
      2         36           0        0.000000    0.000000   -2.000400
 ---------------------------------------------------------------------
 Rotational constants (GHZ):      0.0000000      0.7525442      0.7525442
 General basis read from cards:  (5D, 7F)
 AO basis set in the form of general basis input (Overlap normalization):
      1 0
 S  18 1.00       0.000000000000
      0.1294649435D+09  0.2491657787D-06
      0.2410040767D+08  0.1568181824D-05
      0.5506206366D+07  0.8918448035D-05
      0.1491364493D+07  0.4041159871D-04
      0.4647057437D+06  0.1558057739D-03
      0.1623494198D+06  0.5252672917D-03
      0.6221809428D+05  0.1592856209D-02
      0.2568227261D+05  0.4433915414D-02
      0.1124720636D+05  0.1148602769D-01
      0.5162066917D+04  0.2783714811D-01
      0.2458763136D+04  0.6266499644D-01
      0.1206109375D+04  0.1278526086D+00
      0.6056983820D+03  0.2241271508D+00
      0.3099931000D+03  0.3043891364D+00
      0.1611189200D+03  0.2637554986D+00
      0.8480144300D+02  0.1068031531D+00
      0.4508365800D+02  0.1228447082D-01
      0.2414729200D+02  0.9994324215D-03
 S  16 1.00       0.000000000000
      0.2568227261D+05 -0.7420443364D-05
      0.1124720636D+05 -0.3792524831D-04
      0.5162066917D+04 -0.2343954689D-03
      0.2458763136D+04 -0.1100521629D-02
      0.1206109375D+04 -0.4787420588D-02
      0.6056983820D+03 -0.1726362484D-01
      0.3099931000D+03 -0.4994969972D-01
      0.1611189200D+03 -0.8865712825D-01
      0.8480144300D+02 -0.2863975395D-01
      0.4508365800D+02  0.2532152742D+00
      0.2414729200D+02  0.4972298489D+00
      0.1299109900D+02  0.3044747100D+00
      0.6993755000D+01  0.6095123892D-01
      0.3749111000D+01  0.1721081655D-01
      0.1988461000D+01  0.8998537302D-02
      0.1034876000D+01  0.1306005486D-02
 P  18 1.00       0.000000000000
      0.1569551549D+06  0.2778496189D-05
      0.4170450730D+05  0.2211126554D-04
      0.1331861841D+05  0.1420242200D-03
      0.4929742328D+04  0.6986152227D-03
      0.2050263531D+04  0.2805088468D-02
      0.9333599600D+03  0.9468682887D-02
      0.4550601780D+03  0.2745153727D-01
      0.2333877210D+03  0.6884883423D-01
      0.1240965460D+03  0.1456850372D+00
      0.6761782300D+02  0.2479592446D+00
      0.3740972900D+02  0.3152478180D+00
      0.2086302600D+02  0.2499972319D+00
      0.1166065000D+02  0.9974008059D-01
      0.6500262000D+01  0.1660028995D-01
      0.3598558000D+01  0.1597212703D-02
      0.1969928000D+01  0.3738503110D-03
      0.1061277000D+01  0.8473335367D-05
      0.5594810000D+00  0.1019429281D-04
 S  11 1.00       0.000000000000
      0.3099931000D+03  0.5397195858D-03
      0.1611189200D+03  0.2395718810D-02
      0.8480144300D+02  0.2982733932D-02
      0.4508365800D+02 -0.2678846981D-01
      0.2414729200D+02 -0.1575511171D+00
      0.1299109900D+02 -0.1706364253D+00
      0.6993755000D+01  0.1919414538D+00
      0.3749111000D+01  0.5857809675D+00
      0.1988461000D+01  0.3972988088D+00
      0.1034876000D+01  0.5484659396D-01
      0.5229870000D+00  0.3956387229D-02
 P  14 1.00       0.000000000000
      0.9333599600D+03 -0.3415866614D-04
      0.4550601780D+03 -0.2243646230D-03
      0.2333877210D+03 -0.1196535350D-02
      0.1240965460D+03 -0.4640887865D-02
      0.6761782300D+02 -0.1247370114D-01
      0.3740972900D+02 -0.2340825886D-01
      0.2086302600D+02  0.2824934740D-02
      0.1166065000D+02  0.1359709406D+00
      0.6500262000D+01  0.3193757957D+00
      0.3598558000D+01  0.3858126727D+00
      0.1969928000D+01  0.2211945914D+00
      0.1061277000D+01  0.4553515152D-01
      0.5594810000D+00  0.3565749595D-02
      0.2865640000D+00  0.2992238096D-03
 D  16 1.00       0.000000000000
      0.6380643529D+04  0.3823993872D-05
      0.1983961156D+04  0.3992138850D-04
      0.7630061130D+03  0.2717750695D-03
      0.3396398580D+03  0.1322150836D-02
      0.1666246250D+03  0.5134326489D-02
      0.8704068000D+02  0.1630303132D-01
      0.4731873800D+02  0.4254962930D-01
      0.2639390400D+02  0.9423725230D-01
      0.1497842400D+02  0.1697147912D+00
      0.8599788000D+01  0.2376768007D+00
      0.4967115000D+01  0.2679572605D+00
      0.2861238000D+01  0.2393017055D+00
      0.1619989000D+01  0.1493160664D+00
      0.8806930000D+00  0.5446745555D-01
      0.4438560000D+00  0.8716112304D-02
      0.1973130000D+00  0.6986690979D-03
 S   8 1.00       0.000000000000
      0.1299109900D+02  0.1859005077D-02
      0.6993755000D+01 -0.2827392026D-02
      0.3749111000D+01 -0.7067792301D-01
      0.1988461000D+01 -0.2253666539D+00
      0.1034876000D+01  0.5097461731D-01
      0.5229870000D+00  0.4971444028D+00
      0.2533130000D+00  0.5163716768D+00
      0.1157290000D+00  0.1356388737D+00
 S   1 1.00       0.000000000000
      0.5287214400D-01  0.1000000000D+01
 P  10 1.00       0.000000000000
      0.2086302600D+02 -0.2853573752D-03
      0.1166065000D+02 -0.3938632820D-02
      0.6500262000D+01 -0.8781081167D-02
      0.3598558000D+01 -0.2875430730D-01
      0.1969928000D+01 -0.2019055701D-01
      0.1061277000D+01  0.1369095910D+00
      0.5594810000D+00  0.3286060312D+00
      0.2865640000D+00  0.3826804045D+00
      0.1413210000D+00  0.2493010019D+00
      0.6633900000D-01  0.5438067795D-01
 P   1 1.00       0.000000000000
      0.3114089900D-01  0.1000000000D+01
 S   1 1.00       0.000000000000
      0.4304541000D+01  0.1000000000D+01
 S   1 1.00       0.000000000000
      0.2632033000D+01  0.1000000000D+01
 S   1 1.00       0.000000000000
      0.1609369000D+01  0.1000000000D+01
 S   1 1.00       0.000000000000
      0.9840560000D+00  0.1000000000D+01
 S   1 1.00       0.000000000000
      0.6017060000D+00  0.1000000000D+01
 S   1 1.00       0.000000000000
      0.3679160000D+00  0.1000000000D+01
 P   1 1.00       0.000000000000
      0.3749897000D+01  0.1000000000D+01
 P   1 1.00       0.000000000000
      0.2282253000D+01  0.1000000000D+01
 P   1 1.00       0.000000000000
      0.1389019000D+01  0.1000000000D+01
 P   1 1.00       0.000000000000
      0.8453810000D+00  0.1000000000D+01
 P   1 1.00       0.000000000000
      0.5145140000D+00  0.1000000000D+01
 P   1 1.00       0.000000000000
      0.3131420000D+00  0.1000000000D+01
 D   1 1.00       0.000000000000
      0.2954387000D+01  0.1000000000D+01
 D   1 1.00       0.000000000000
      0.1674729000D+01  0.1000000000D+01
 D   1 1.00       0.000000000000
      0.9493390000D+00  0.1000000000D+01
 D   1 1.00       0.000000000000
      0.5381440000D+00  0.1000000000D+01
 D   1 1.00       0.000000000000
      0.3050530000D+00  0.1000000000D+01
 D   1 1.00       0.000000000000
      0.1729230000D+00  0.1000000000D+01
 D   1 1.00       0.000000000000
      0.9802350000D-01  0.1000000000D+01
 F   1 1.00       0.000000000000
      0.3194854000D+01  0.1000000000D+01
 F   1 1.00       0.000000000000
      0.1769232000D+01  0.1000000000D+01
 F   1 1.00       0.000000000000
      0.9797570000D+00  0.1000000000D+01
 F   1 1.00       0.000000000000
      0.5425650000D+00  0.1000000000D+01
 F   1 1.00       0.000000000000
      0.3004590000D+00  0.1000000000D+01
 F   1 1.00       0.000000000000
      0.1663870000D+00  0.1000000000D+01
 G   1 1.00       0.000000000000
      0.1625914000D+01  0.1000000000D+01
 G   1 1.00       0.000000000000
      0.1023094000D+01  0.1000000000D+01
 G   1 1.00       0.000000000000
      0.6437740000D+00  0.1000000000D+01
 G   1 1.00       0.000000000000
      0.4050900000D+00  0.1000000000D+01
 G   1 1.00       0.000000000000
      0.2549000000D+00  0.1000000000D+01
 H   1 1.00       0.000000000000
      0.1567377000D+01  0.1000000000D+01
 H   1 1.00       0.000000000000
      0.9365840000D+00  0.1000000000D+01
 H   1 1.00       0.000000000000
      0.5596540000D+00  0.1000000000D+01
 H   1 1.00       0.000000000000
      0.3344200000D+00  0.1000000000D+01
 I   1 1.00       0.000000000000
      0.1477946000D+01  0.1000000000D+01
 I   1 1.00       0.000000000000
      0.7966370000D+00  0.1000000000D+01
 I   1 1.00       0.000000000000
      0.4294000000D+00  0.1000000000D+01
 J   1 1.00       0.000000000000
      0.1254803538D+01  0.1000000000D+01
 ****
      2 0
 S  18 1.00       0.000000000000
      0.1294649435D+09  0.2491657787D-06
      0.2410040767D+08  0.1568181824D-05
      0.5506206366D+07  0.8918448035D-05
      0.1491364493D+07  0.4041159871D-04
      0.4647057437D+06  0.1558057739D-03
      0.1623494198D+06  0.5252672917D-03
      0.6221809428D+05  0.1592856209D-02
      0.2568227261D+05  0.4433915414D-02
      0.1124720636D+05  0.1148602769D-01
      0.5162066917D+04  0.2783714811D-01
      0.2458763136D+04  0.6266499644D-01
      0.1206109375D+04  0.1278526086D+00
      0.6056983820D+03  0.2241271508D+00
      0.3099931000D+03  0.3043891364D+00
      0.1611189200D+03  0.2637554986D+00
      0.8480144300D+02  0.1068031531D+00
      0.4508365800D+02  0.1228447082D-01
      0.2414729200D+02  0.9994324215D-03
 S  16 1.00       0.000000000000
      0.2568227261D+05 -0.7420443364D-05
      0.1124720636D+05 -0.3792524831D-04
      0.5162066917D+04 -0.2343954689D-03
      0.2458763136D+04 -0.1100521629D-02
      0.1206109375D+04 -0.4787420588D-02
      0.6056983820D+03 -0.1726362484D-01
      0.3099931000D+03 -0.4994969972D-01
      0.1611189200D+03 -0.8865712825D-01
      0.8480144300D+02 -0.2863975395D-01
      0.4508365800D+02  0.2532152742D+00
      0.2414729200D+02  0.4972298489D+00
      0.1299109900D+02  0.3044747100D+00
      0.6993755000D+01  0.6095123892D-01
      0.3749111000D+01  0.1721081655D-01
      0.1988461000D+01  0.8998537302D-02
      0.1034876000D+01  0.1306005486D-02
 P  18 1.00       0.000000000000
      0.1569551549D+06  0.2778496189D-05
      0.4170450730D+05  0.2211126554D-04
      0.1331861841D+05  0.1420242200D-03
      0.4929742328D+04  0.6986152227D-03
      0.2050263531D+04  0.2805088468D-02
      0.9333599600D+03  0.9468682887D-02
      0.4550601780D+03  0.2745153727D-01
      0.2333877210D+03  0.6884883423D-01
      0.1240965460D+03  0.1456850372D+00
      0.6761782300D+02  0.2479592446D+00
      0.3740972900D+02  0.3152478180D+00
      0.2086302600D+02  0.2499972319D+00
      0.1166065000D+02  0.9974008059D-01
      0.6500262000D+01  0.1660028995D-01
      0.3598558000D+01  0.1597212703D-02
      0.1969928000D+01  0.3738503110D-03
      0.1061277000D+01  0.8473335367D-05
      0.5594810000D+00  0.1019429281D-04
 S  11 1.00       0.000000000000
      0.3099931000D+03  0.5397195858D-03
      0.1611189200D+03  0.2395718810D-02
      0.8480144300D+02  0.2982733932D-02
      0.4508365800D+02 -0.2678846981D-01
      0.2414729200D+02 -0.1575511171D+00
      0.1299109900D+02 -0.1706364253D+00
      0.6993755000D+01  0.1919414538D+00
      0.3749111000D+01  0.5857809675D+00
      0.1988461000D+01  0.3972988088D+00
      0.1034876000D+01  0.5484659396D-01
      0.5229870000D+00  0.3956387229D-02
 P  14 1.00       0.000000000000
      0.9333599600D+03 -0.3415866614D-04
      0.4550601780D+03 -0.2243646230D-03
      0.2333877210D+03 -0.1196535350D-02
      0.1240965460D+03 -0.4640887865D-02
      0.6761782300D+02 -0.1247370114D-01
      0.3740972900D+02 -0.2340825886D-01
      0.2086302600D+02  0.2824934740D-02
      0.1166065000D+02  0.1359709406D+00
      0.6500262000D+01  0.3193757957D+00
      0.3598558000D+01  0.3858126727D+00
      0.1969928000D+01  0.2211945914D+00
      0.1061277000D+01  0.4553515152D-01
      0.5594810000D+00  0.3565749595D-02
      0.2865640000D+00  0.2992238096D-03
 D  16 1.00       0.000000000000
      0.6380643529D+04  0.3823993872D-05
      0.1983961156D+04  0.3992138850D-04
      0.7630061130D+03  0.2717750695D-03
      0.3396398580D+03  0.1322150836D-02
      0.1666246250D+03  0.5134326489D-02
      0.8704068000D+02  0.1630303132D-01
      0.4731873800D+02  0.4254962930D-01
      0.2639390400D+02  0.9423725230D-01
      0.1497842400D+02  0.1697147912D+00
      0.8599788000D+01  0.2376768007D+00
      0.4967115000D+01  0.2679572605D+00
      0.2861238000D+01  0.2393017055D+00
      0.1619989000D+01  0.1493160664D+00
      0.8806930000D+00  0.5446745555D-01
      0.4438560000D+00  0.8716112304D-02
      0.1973130000D+00  0.6986690979D-03
 S   8 1.00       0.000000000000
      0.1299109900D+02  0.1859005077D-02
      0.6993755000D+01 -0.2827392026D-02
      0.3749111000D+01 -0.7067792301D-01
      0.1988461000D+01 -0.2253666539D+00
      0.1034876000D+01  0.5097461731D-01
      0.5229870000D+00  0.4971444028D+00
      0.2533130000D+00  0.5163716768D+00
      0.1157290000D+00  0.1356388737D+00
 S   1 1.00       0.000000000000
      0.5287214400D-01  0.1000000000D+01
 P  10 1.00       0.000000000000
      0.2086302600D+02 -0.2853573752D-03
      0.1166065000D+02 -0.3938632820D-02
      0.6500262000D+01 -0.8781081167D-02
      0.3598558000D+01 -0.2875430730D-01
      0.1969928000D+01 -0.2019055701D-01
      0.1061277000D+01  0.1369095910D+00
      0.5594810000D+00  0.3286060312D+00
      0.2865640000D+00  0.3826804045D+00
      0.1413210000D+00  0.2493010019D+00
      0.6633900000D-01  0.5438067795D-01
 P   1 1.00       0.000000000000
      0.3114089900D-01  0.1000000000D+01
 S   1 1.00       0.000000000000
      0.4304541000D+01  0.1000000000D+01
 S   1 1.00       0.000000000000
      0.2632033000D+01  0.1000000000D+01
 S   1 1.00       0.000000000000
      0.1609369000D+01  0.1000000000D+01
 S   1 1.00       0.000000000000
      0.9840560000D+00  0.1000000000D+01
 S   1 1.00       0.000000000000
      0.6017060000D+00  0.1000000000D+01
 S   1 1.00       0.000000000000
      0.3679160000D+00  0.1000000000D+01
 P   1 1.00       0.000000000000
      0.3749897000D+01  0.1000000000D+01
 P   1 1.00       0.000000000000
      0.2282253000D+01  0.1000000000D+01
 P   1 1.00       0.000000000000
      0.1389019000D+01  0.1000000000D+01
 P   1 1.00       0.000000000000
      0.8453810000D+00  0.1000000000D+01
 P   1 1.00       0.000000000000
      0.5145140000D+00  0.1000000000D+01
 P   1 1.00       0.000000000000
      0.3131420000D+00  0.1000000000D+01
 D   1 1.00       0.000000000000
      0.2954387000D+01  0.1000000000D+01
 D   1 1.00       0.000000000000
      0.1674729000D+01  0.1000000000D+01
 D   1 1.00       0.000000000000
      0.9493390000D+00  0.1000000000D+01
 D   1 1.00       0.000000000000
      0.5381440000D+00  0.1000000000D+01
 D   1 1.00       0.000000000000
      0.3050530000D+00  0.1000000000D+01
 D   1 1.00       0.000000000000
      0.1729230000D+00  0.1000000000D+01
 D   1 1.00       0.000000000000
      0.9802350000D-01  0.1000000000D+01
 F   1 1.00       0.000000000000
      0.3194854000D+01  0.1000000000D+01
 F   1 1.00       0.000000000000
      0.1769232000D+01  0.1000000000D+01
 F   1 1.00       0.000000000000
      0.9797570000D+00  0.1000000000D+01
 F   1 1.00       0.000000000000
      0.5425650000D+00  0.1000000000D+01
 F   1 1.00       0.000000000000
      0.3004590000D+00  0.1000000000D+01
 F   1 1.00       0.000000000000
      0.1663870000D+00  0.1000000000D+01
 G   1 1.00       0.000000000000
      0.1625914000D+01  0.1000000000D+01
 G   1 1.00       0.000000000000
      0.1023094000D+01  0.1000000000D+01
 G   1 1.00       0.000000000000
      0.6437740000D+00  0.1000000000D+01
 G   1 1.00       0.000000000000
      0.4050900000D+00  0.1000000000D+01
 G   1 1.00       0.000000000000
      0.2549000000D+00  0.1000000000D+01
 H   1 1.00       0.000000000000
      0.1567377000D+01  0.1000000000D+01
 H   1 1.00       0.000000000000
      0.9365840000D+00  0.1000000000D+01
 H   1 1.00       0.000000000000
      0.5596540000D+00  0.1000000000D+01
 H   1 1.00       0.000000000000
      0.3344200000D+00  0.1000000000D+01
 I   1 1.00       0.000000000000
      0.1477946000D+01  0.1000000000D+01
 I   1 1.00       0.000000000000
      0.7966370000D+00  0.1000000000D+01
 I   1 1.00       0.000000000000
      0.4294000000D+00  0.1000000000D+01
 J   1 1.00       0.000000000000
      0.1254803538D+01  0.1000000000D+01
 ****

 There are   157 symmetry adapted cartesian basis functions of AG  symmetry.
 There are    65 symmetry adapted cartesian basis functions of B1G symmetry.
 There are   103 symmetry adapted cartesian basis functions of B2G symmetry.
 There are   103 symmetry adapted cartesian basis functions of B3G symmetry.
 There are    65 symmetry adapted cartesian basis functions of AU  symmetry.
 There are   157 symmetry adapted cartesian basis functions of B1U symmetry.
 There are   103 symmetry adapted cartesian basis functions of B2U symmetry.
 There are   103 symmetry adapted cartesian basis functions of B3U symmetry.
 There are    92 symmetry adapted basis functions of AG  symmetry.
 There are    44 symmetry adapted basis functions of B1G symmetry.
 There are    65 symmetry adapted basis functions of B2G symmetry.
 There are    65 symmetry adapted basis functions of B3G symmetry.
 There are    44 symmetry adapted basis functions of AU  symmetry.
 There are    92 symmetry adapted basis functions of B1U symmetry.
 There are    65 symmetry adapted basis functions of B2U symmetry.
 There are    65 symmetry adapted basis functions of B3U symmetry.
   532 basis functions,  1368 primitive gaussians,   856 cartesian basis functions
    36 alpha electrons       36 beta electrons
       nuclear repulsion energy       171.4191317568 Hartrees.
 NAtoms=    2 NActive=    2 NUniq=    1 SFac= 4.00D+00 NAtFMM=   60 NAOKFM=F Big=F
 Integral buffers will be    131072 words long.
 Raffenetti 2 integral format.
 Two-electron integral symmetry is turned on.
 One-electron integrals computed using PRISM.
 PrsmSu:  requested number of processors reduced to:   2 ShMem   1 Linda.
 NBasis=   532 RedAO= F EigKep=  0.00D+00  NBF=    92    44    65    65    44    92    65    65
 NBsUse=   532 1.00D-04 EigRej=  0.00D+00 NBFU=    92    44    65    65    44    92    65    65
 ExpMin= 3.11D-02 ExpMax= 1.29D+08 ExpMxC= 1.12D+04 IAcc=3 IRadAn=         5 AccDes= 0.00D+00
 Harris functional with IExCor=  205 and IRadAn=       5 diagonalized for initial guess.
 HarFok:  IExCor=  205 AccDes= 0.00D+00 IRadAn=         5 IDoV= 1 UseB2=F ITyADJ=14
 ICtDFT=  3500011 ScaDFX=  1.000000  1.000000  1.000000  1.000000
 FoFCou: FMM=F IPFlag=           0 FMFlag=      100000 FMFlg1=           0
         NFxFlg=           0 DoJE=T BraDBF=F KetDBF=T FulRan=T
         wScrn=  0.000000 ICntrl=     500 IOpCl=  0 I1Cent=   200000004 NGrid=           0
         NMat0=    1 NMatS0=      1 NMatT0=    0 NMatD0=    1 NMtDS0=    0 NMtDT0=    0
 Petite list used in FoFCou.
 Initial guess orbital symmetries:
       Occupied  (SGU) (SGG) (SGU) (SGG) (SGU) (SGG) (PIG) (PIG)
                 (PIU) (PIU) (SGU) (SGG) (SGU) (SGG) (PIG) (PIG)
                 (PIU) (PIU) (SGG) (SGU) (PIG) (PIG) (PIU) (PIU)
                 (DLTU) (DLTG) (DLTU) (DLTG) (SGG) (SGU) (SGG)
                 (PIU) (PIU) (PIG) (PIG) (SGU)
       Virtual   (SGG) (SGU) (PIU) (PIU) (SGG) (PIG) (PIG) (PIU)
                 (PIU) (SGG) (DLTG) (DLTG) (SGU) (DLTU) (DLTU)
                 (PIG) (PIG) (SGU) (SGG) (PIU) (PIU) (PIG) (PIG)
                 (SGU) (DLTG) (DLTG) (SGG) (PIU) (PIU) (DLTU) (DLTU)
                 (DLTG) (DLTG) (SGU) (PIG) (PIG) (SGG) (PIU) (PIU)
                 (PHIU) (PHIU) (PHIG) (PHIG) (DLTU) (DLTU) (SGU)
                 (SGG) (PIG) (PIG) (SGU) (PIU) (PIU) (DLTG) (DLTG)
                 (SGG) (PHIU) (PHIU) (?A) (?A) (?B) (?B) (PHIG)
                 (PHIG) (DLTG) (DLTG) (DLTU) (DLTU) (PIU) (PIU)
                 (SGU) (SGG) (PIG) (PIG) (DLTU) (DLTU) (PIG) (PIG)
                 (DLTG) (DLTG) (PHIU) (PHIU) (PHIG) (PHIG) (SGU)
                 (PIU) (PIU) (DLTU) (DLTU) (SGU) (SGG) (PIG) (PIG)
                 (PIU) (PIU) (SGG) (PIG) (PIG) (DLTG) (DLTG) (PIU)
                 (PIU) (PHIU) (PHIU) (SGG) (?A) (?A) (?C) (?C)
                 (?D) (?D) (?B) (?B) (PHIG) (PHIG) (SGU) (SGG)
                 (DLTU) (DLTU) (SGU) (PIG) (PIG) (SGU) (DLTG) (DLTG)
                 (PHIU) (PHIU) (?A) (?A) (?B) (?B) (PHIG) (PHIG)
                 (PIU) (PIU) (DLTG) (DLTG) (SGG) (DLTU) (DLTU)
                 (PIU) (PIU) (PIG) (PIG) (SGU) (DLTU) (DLTU) (SGG)
                 (DLTG) (DLTG) (PHIU) (PHIU) (PHIG) (PHIG) (PIG)
                 (PIG) (PIU) (PIU) (DLTU) (DLTU) (SGU) (SGG) (PIG)
                 (PIG) (SGU) (PIU) (PIU) (DLTG) (DLTG) (PHIU) (PHIU)
                 (?E) (?E) (?E) (?C) (?C) (?F) (?G) (?F) (?G) (?D)
                 (?D) (?B) (?B) (PHIG) (PHIG) (DLTU) (DLTU) (PIG)
                 (PIG) (SGU) (PIU) (PIU) (PIG) (PIG) (SGG) (DLTG)
                 (DLTG) (PHIU) (PHIU) (PIU) (PIU) (?A) (?A) (?C)
                 (?C) (?D) (?D) (?B) (?B) (PHIG) (PHIG) (SGG) (DLTU)
                 (DLTU) (SGU) (PIG) (PIG) (SGU) (PHIU) (PHIU) (DLTG)
                 (DLTG) (?A) (?A) (?B) (?B) (PHIG) (PHIG) (PIU)
                 (PIU) (DLTU) (DLTU) (SGU) (SGG) (PIG) (PIG) (DLTG)
                 (DLTG) (PHIU) (PHIU) (PHIG) (PHIG) (DLTG) (DLTG)
                 (DLTU) (DLTU) (PIU) (PIU) (SGU) (PIU) (PIU) (DLTU)
                 (DLTU) (SGG) (SGU) (PIG) (PIG) (PIG) (PIG) (SGG)
                 (SGG) (SGU) (PIU) (PIU) (DLTG) (DLTG) (SGG) (PHIU)
                 (PHIU) (?A) (?A) (?C) (?C) (?F) (?G) (?F) (?G)
                 (?D) (?D) (?B) (?B) (PHIG) (PHIG) (DLTU) (DLTU)
                 (PIG) (PIG) (SGU) (DLTG) (DLTG) (PHIU) (PHIU)
                 (?A) (?A) (?H) (?H) (?H) (?H) (?D) (?D) (?B) (?B)
                 (SGG) (PHIG) (PHIG) (DLTU) (DLTU) (PIG) (PIG)
                 (PHIU) (PHIU) (DLTG) (DLTG) (?A) (?A) (?H) (?H)
                 (?H) (PHIG) (PHIG) (PIU) (PIU) (SGG) (DLTU) (DLTU)
                 (SGU) (PIG) (PIG) (PIU) (PIU) (PIG) (PIG) (SGG)
                 (SGU) (DLTG) (DLTG) (PHIU) (PHIU) (PHIG) (PHIG)
                 (PIU) (PIU) (DLTU) (DLTU) (PIG) (PIG) (SGU) (SGG)
                 (DLTG) (DLTG) (PIU) (PIU) (DLTU) (DLTU) (SGU)
                 (PIG) (PIG) (SGG) (?H) (?H) (?H) (?H) (?H) (?H)
                 (?H) (?H) (?H) (?H) (?H) (?H) (?H) (?H) (?H) (?H)
                 (?H) (?H) (?H) (?H) (?H) (?H) (?H) (?H) (?H) (?H)
                 (?H) (?H) (?H) (?H) (SGG) (SGU) (PHIU) (PHIU)
                 (DLTG) (DLTG) (?A) (?A) (?B) (?B) (PHIG) (PHIG)
                 (PIU) (PIU) (DLTU) (DLTU) (SGG) (SGU) (PIG) (PIG)
                 (DLTG) (DLTG) (PIU) (PIU) (PHIU) (PHIU) (?A) (?A)
                 (SGG) (?C) (?C) (?F) (?G) (?F) (?G) (?D) (?D)
                 (?B) (?B) (PHIG) (PHIG) (DLTU) (DLTU) (PIG) (PIG)
                 (SGU) (DLTG) (DLTG) (PHIU) (PHIU) (?A) (?A) (?C)
                 (?C) (?D) (?D) (?B) (?B) (PIU) (PIU) (PHIG) (PHIG)
                 (DLTU) (DLTU) (SGG) (SGU) (PIG) (PIG) (DLTG) (DLTG)
                 (PHIU) (PHIU) (PHIG) (PHIG) (PIU) (PIU) (DLTU)
                 (DLTU) (SGG) (PIG) (PIG) (SGU) (PIU) (PIU) (PIG)
                 (PIG) (SGG) (SGU) (DLTG) (DLTG) (PIU) (PIU) (DLTU)
                 (DLTU) (PIG) (PIG) (SGU) (SGG) (SGG) (SGU) (PIU)
                 (PIU) (PIG) (PIG) (SGG) (SGU) (SGG) (SGU)
 The electronic state of the initial guess is 1-SGG.
 Requested convergence on RMS density matrix=1.00D-10 within 128 cycles.
 Requested convergence on MAX density matrix=1.00D-08.
 Requested convergence on             energy=1.00D-08.
 No special actions if energy rises.
 DSYEVD returned Info=         185 IAlg= 4 N=    92 NDim=   532 NE2=     3023305 trying DSYEV.
 Initial convergence to 1.0D-05 achieved.  Increase integral accuracy.
 SCF Done:  E(ROHF) =  -5504.10926353     A.U. after   13 cycles
            NFock= 13  Conv=0.19D-10     -V/T= 2.0000
 <Sx>= 0.0000 <Sy>= 0.0000 <Sz>= 0.0000 <S**2>= 0.0000 S= 0.0000
 <L.S>= 0.000000000000E+00
 Annihilation of the first spin contaminant:
 S**2 before annihilation     0.0000,   after     0.0000
 GenMOA:  NOpAll=  8 NOp2=8 NOpUse=  8 JSym2X=1
 <Sx>= 0.0000 <Sy>= 0.0000 <Sz>= 0.0000 <S**2>= 0.0000 S= 0.0000
 Range of M.O.s used for correlation:    29   532
 NBasis=   532 NAE=    36 NBE=    36 NFC=    28 NFV=     0
 NROrb=    504 NOA=     8 NOB=     8 NVA=   496 NVB=   496

 **** Warning!!: The largest alpha MO coefficient is  0.77202100D+02


 **** Warning!!: The largest beta MO coefficient is  0.77202100D+02

 Singles contribution to E2=   -0.4428008215D-11
 Disk-based method using OVN memory for  8 occupieds at a time.
 Permanent disk used for amplitudes and <ij||ab> integrals=    45239168 words.
 Estimated scratch disk usage=  1760067200 words.
 IUseRI=2 ITolRI= 6 IR12RI=0
 Actual    scratch disk usage=  1758728832 words.
 GetIJB would need an additional  1752664310 words of memory to use all   8 processors.
 JobTyp=2 Pass  1:  I=   1 to   8 NPSUse=  1 ParTrn=F ParDer=F DoDerP=F.
 (rs|ai) integrals will be sorted in core.
 T,EIJ(AA): I=   1 J=   2      0.1970983E-06     -0.6995356E-06
 T,EIJ(AA): I=   1 J=   3      0.1766564E-03     -0.7013916E-03
 T,EIJ(AA): I=   1 J=   4      0.1806579E-03     -0.7157440E-03
 T,EIJ(AA): I=   1 J=   5      0.1806579E-03     -0.7157440E-03
 T,EIJ(AA): I=   1 J=   6      0.1812082E-03     -0.7193880E-03
 T,EIJ(AA): I=   1 J=   7      0.1812082E-03     -0.7193880E-03
 T,EIJ(AA): I=   1 J=   8      0.1815394E-03     -0.7247207E-03
 T,EIJ(AA): I=   2 J=   3      0.1866648E-03     -0.7287310E-03
 T,EIJ(AA): I=   2 J=   4      0.1836627E-03     -0.7241904E-03
 T,EIJ(AA): I=   2 J=   5      0.1836627E-03     -0.7241904E-03
 T,EIJ(AA): I=   2 J=   6      0.1842044E-03     -0.7278316E-03
 T,EIJ(AA): I=   2 J=   7      0.1842044E-03     -0.7278316E-03
 T,EIJ(AA): I=   2 J=   8      0.1860440E-03     -0.7382828E-03
 T,EIJ(AA): I=   3 J=   4      0.1167097E-02     -0.3051867E-02
 T,EIJ(AA): I=   3 J=   5      0.1167097E-02     -0.3051867E-02
 T,EIJ(AA): I=   3 J=   6      0.1170338E-02     -0.3070785E-02
 T,EIJ(AA): I=   3 J=   7      0.1170338E-02     -0.3070785E-02
 T,EIJ(AA): I=   3 J=   8      0.4900583E-04     -0.1003749E-03
 T,EIJ(AA): I=   4 J=   5      0.1177345E-02     -0.3088537E-02
 T,EIJ(AA): I=   4 J=   6      0.9931261E-05     -0.1879894E-04
 T,EIJ(AA): I=   4 J=   7      0.1183298E-02     -0.3109764E-02
 T,EIJ(AA): I=   4 J=   8      0.1201088E-02     -0.3166214E-02
 T,EIJ(AA): I=   5 J=   6      0.1183298E-02     -0.3109764E-02
 T,EIJ(AA): I=   5 J=   7      0.9931261E-05     -0.1879894E-04
 T,EIJ(AA): I=   5 J=   8      0.1201088E-02     -0.3166214E-02
 T,EIJ(AA): I=   6 J=   7      0.1192678E-02     -0.3135361E-02
 T,EIJ(AA): I=   6 J=   8      0.1216090E-02     -0.3198207E-02
 T,EIJ(AA): I=   7 J=   8      0.1216090E-02     -0.3198207E-02
 T,EIJ(AB): I=   1 J=   1      0.8579481E-03     -0.4564261E-02
 T,EIJ(AB): I=   1 J=   2      0.8589556E-03     -0.4577560E-02
 T,EIJ(AB): I=   1 J=   3      0.7754333E-03     -0.3695123E-02
 T,EIJ(AB): I=   1 J=   4      0.7882228E-03     -0.3756187E-02
 T,EIJ(AB): I=   1 J=   5      0.7882228E-03     -0.3756187E-02
 T,EIJ(AB): I=   1 J=   6      0.7959100E-03     -0.3791653E-02
 T,EIJ(AB): I=   1 J=   7      0.7959100E-03     -0.3791653E-02
 T,EIJ(AB): I=   1 J=   8      0.8152604E-03     -0.3881310E-02
 T,EIJ(AB): I=   2 J=   1      0.8589556E-03     -0.4577560E-02
 T,EIJ(AB): I=   2 J=   2      0.8647173E-03     -0.4601952E-02
 T,EIJ(AB): I=   2 J=   3      0.7773688E-03     -0.3704089E-02
 T,EIJ(AB): I=   2 J=   4      0.7957826E-03     -0.3783771E-02
 T,EIJ(AB): I=   2 J=   5      0.7957826E-03     -0.3783771E-02
 T,EIJ(AB): I=   2 J=   6      0.8037783E-03     -0.3820062E-02
 T,EIJ(AB): I=   2 J=   7      0.8037783E-03     -0.3820062E-02
 T,EIJ(AB): I=   2 J=   8      0.8211938E-03     -0.3898877E-02
 T,EIJ(AB): I=   3 J=   1      0.7754333E-03     -0.3695123E-02
 T,EIJ(AB): I=   3 J=   2      0.7773688E-03     -0.3704089E-02
 T,EIJ(AB): I=   3 J=   3      0.3260696E-02     -0.9704629E-02
 T,EIJ(AB): I=   3 J=   4      0.1453087E-02     -0.4284959E-02
 T,EIJ(AB): I=   3 J=   5      0.1453087E-02     -0.4284959E-02
 T,EIJ(AB): I=   3 J=   6      0.1441952E-02     -0.4284185E-02
 T,EIJ(AB): I=   3 J=   7      0.1441952E-02     -0.4284185E-02
 T,EIJ(AB): I=   3 J=   8      0.3221082E-02     -0.9831580E-02
 T,EIJ(AB): I=   4 J=   1      0.7882228E-03     -0.3756187E-02
 T,EIJ(AB): I=   4 J=   2      0.7957826E-03     -0.3783771E-02
 T,EIJ(AB): I=   4 J=   3      0.1453087E-02     -0.4284959E-02
 T,EIJ(AB): I=   4 J=   4      0.3228465E-02     -0.9770760E-02
 T,EIJ(AB): I=   4 J=   5      0.1460274E-02     -0.4329901E-02
 T,EIJ(AB): I=   4 J=   6      0.3245577E-02     -0.9843757E-02
 T,EIJ(AB): I=   4 J=   7      0.1468762E-02     -0.4363435E-02
 T,EIJ(AB): I=   4 J=   8      0.1497025E-02     -0.4457801E-02
 T,EIJ(AB): I=   5 J=   1      0.7882228E-03     -0.3756187E-02
 T,EIJ(AB): I=   5 J=   2      0.7957826E-03     -0.3783771E-02
 T,EIJ(AB): I=   5 J=   3      0.1453087E-02     -0.4284959E-02
 T,EIJ(AB): I=   5 J=   4      0.1460274E-02     -0.4329901E-02
 T,EIJ(AB): I=   5 J=   5      0.3228465E-02     -0.9770760E-02
 T,EIJ(AB): I=   5 J=   6      0.1468762E-02     -0.4363435E-02
 T,EIJ(AB): I=   5 J=   7      0.3245577E-02     -0.9843757E-02
 T,EIJ(AB): I=   5 J=   8      0.1497025E-02     -0.4457801E-02
 T,EIJ(AB): I=   6 J=   1      0.7959100E-03     -0.3791653E-02
 T,EIJ(AB): I=   6 J=   2      0.8037783E-03     -0.3820062E-02
 T,EIJ(AB): I=   6 J=   3      0.1441952E-02     -0.4284185E-02
 T,EIJ(AB): I=   6 J=   4      0.3245577E-02     -0.9843757E-02
 T,EIJ(AB): I=   6 J=   5      0.1468762E-02     -0.4363435E-02
 T,EIJ(AB): I=   6 J=   6      0.3273862E-02     -0.9929583E-02
 T,EIJ(AB): I=   6 J=   7      0.1482101E-02     -0.4402638E-02
 T,EIJ(AB): I=   6 J=   8      0.1508418E-02     -0.4486333E-02
 T,EIJ(AB): I=   7 J=   1      0.7959100E-03     -0.3791653E-02
 T,EIJ(AB): I=   7 J=   2      0.8037783E-03     -0.3820062E-02
 T,EIJ(AB): I=   7 J=   3      0.1441952E-02     -0.4284185E-02
 T,EIJ(AB): I=   7 J=   4      0.1468762E-02     -0.4363435E-02
 T,EIJ(AB): I=   7 J=   5      0.3245577E-02     -0.9843757E-02
 T,EIJ(AB): I=   7 J=   6      0.1482101E-02     -0.4402638E-02
 T,EIJ(AB): I=   7 J=   7      0.3273862E-02     -0.9929583E-02
 T,EIJ(AB): I=   7 J=   8      0.1508418E-02     -0.4486333E-02
 T,EIJ(AB): I=   8 J=   1      0.8152604E-03     -0.3881310E-02
 T,EIJ(AB): I=   8 J=   2      0.8211938E-03     -0.3898877E-02
 T,EIJ(AB): I=   8 J=   3      0.3221082E-02     -0.9831580E-02
 T,EIJ(AB): I=   8 J=   4      0.1497025E-02     -0.4457801E-02
 T,EIJ(AB): I=   8 J=   5      0.1497025E-02     -0.4457801E-02
 T,EIJ(AB): I=   8 J=   6      0.1508418E-02     -0.4486333E-02
 T,EIJ(AB): I=   8 J=   7      0.1508418E-02     -0.4486333E-02
 T,EIJ(AB): I=   8 J=   8      0.3361896E-02     -0.1022460E-01
 Actual    scratch disk usage=  1758728832 words.
 GetIJB would need an additional  1752664310 words of memory to use all   8 processors.
 JobTyp=3 Pass  1:  I=   1 to   8 NPSUse=  1 ParTrn=F ParDer=F DoDerP=F.
 (rs|ai) integrals will be sorted in core.
 T,EIJ(BB): I=   1 J=   2      0.1970983E-06     -0.6995356E-06
 T,EIJ(BB): I=   1 J=   3      0.1766564E-03     -0.7013916E-03
 T,EIJ(BB): I=   1 J=   4      0.1806579E-03     -0.7157440E-03
 T,EIJ(BB): I=   1 J=   5      0.1806579E-03     -0.7157440E-03
 T,EIJ(BB): I=   1 J=   6      0.1812082E-03     -0.7193880E-03
 T,EIJ(BB): I=   1 J=   7      0.1812082E-03     -0.7193880E-03
 T,EIJ(BB): I=   1 J=   8      0.1815394E-03     -0.7247207E-03
 T,EIJ(BB): I=   2 J=   3      0.1866648E-03     -0.7287310E-03
 T,EIJ(BB): I=   2 J=   4      0.1836627E-03     -0.7241904E-03
 T,EIJ(BB): I=   2 J=   5      0.1836627E-03     -0.7241904E-03
 T,EIJ(BB): I=   2 J=   6      0.1842044E-03     -0.7278316E-03
 T,EIJ(BB): I=   2 J=   7      0.1842044E-03     -0.7278316E-03
 T,EIJ(BB): I=   2 J=   8      0.1860440E-03     -0.7382828E-03
 T,EIJ(BB): I=   3 J=   4      0.1167097E-02     -0.3051867E-02
 T,EIJ(BB): I=   3 J=   5      0.1167097E-02     -0.3051867E-02
 T,EIJ(BB): I=   3 J=   6      0.1170338E-02     -0.3070785E-02
 T,EIJ(BB): I=   3 J=   7      0.1170338E-02     -0.3070785E-02
 T,EIJ(BB): I=   3 J=   8      0.4900583E-04     -0.1003749E-03
 T,EIJ(BB): I=   4 J=   5      0.1177345E-02     -0.3088537E-02
 T,EIJ(BB): I=   4 J=   6      0.9931261E-05     -0.1879894E-04
 T,EIJ(BB): I=   4 J=   7      0.1183298E-02     -0.3109764E-02
 T,EIJ(BB): I=   4 J=   8      0.1201088E-02     -0.3166214E-02
 T,EIJ(BB): I=   5 J=   6      0.1183298E-02     -0.3109764E-02
 T,EIJ(BB): I=   5 J=   7      0.9931261E-05     -0.1879894E-04
 T,EIJ(BB): I=   5 J=   8      0.1201088E-02     -0.3166214E-02
 T,EIJ(BB): I=   6 J=   7      0.1192678E-02     -0.3135361E-02
 T,EIJ(BB): I=   6 J=   8      0.1216090E-02     -0.3198207E-02
 T,EIJ(BB): I=   7 J=   8      0.1216090E-02     -0.3198207E-02
 Spin components of T(2) and E(2):
     alpha-alpha T2 =       0.1650527930D-01 E2=     -0.4622368007D-01
     alpha-beta  T2 =       0.9696731366D-01 E2=     -0.3326268529D+00
     beta-beta   T2 =       0.1650527930D-01 E2=     -0.4622368007D-01
 ANorm=    0.1063004173D+01
 E2 =    -0.4250742131D+00 EUMP2 =    -0.55045343377450D+04

 Complete Basis Set (CBS) Extrapolation:
 M. R. Nyden and G. A. Petersson, JCP 75, 1843 (1981)
 G. A. Petersson and M. A. Al-Laham, JCP 94, 6081 (1991)
 G. A. Petersson, T. Tensfeldt, and J. A. Montgomery, JCP 94, 6091 (1991)
 J. A. Montgomery, J. W. Ochterski, and G. A. Petersson, JCP 101, 5900 (1994)
 
 Minimum Number of PNO for Extrapolation =  25
 Absolute Overlaps: IRadAn =         5
 LocTrn: ILocal=3 LocCor=F DoCore=F.
 Entering OneElI...
 Overlap between basis sets.
 Requested accuracy = 0.1000D-12
 PrsmSu:  NPrtUS=   1 ThrOK=F IAlg=1 NPAlg=1 LenDen=           0.
 Prism:   IPart=     0 DynPar=F LinDyn=F Incr=           1.
 PRISM was handed  1609285846 working-precision words and   112 shell-pairs
 IPart=  0 NShTot=         112 NBatch=          14 AvBLen=         8.0
 PrSmSu:  NxtVal=              2.
 CnvPC2: ToCart=F DoDens=F IPureD=0 IPureF=0.
 Transformed matrix in CnvPC2: 
                 1             2             3             4             5 
      1   0.100000D+01  0.408139D+00  0.000000D+00  0.000000D+00  0.000000D+00
      2   0.408139D+00  0.100000D+01  0.000000D+00  0.000000D+00  0.000000D+00
      3   0.000000D+00  0.000000D+00  0.100000D+01  0.000000D+00  0.000000D+00
      4   0.000000D+00  0.000000D+00  0.000000D+00  0.100000D+01  0.000000D+00
      5   0.000000D+00  0.000000D+00  0.000000D+00  0.000000D+00  0.100000D+01
      6   0.333304D-01  0.372516D+00  0.000000D+00  0.000000D+00  0.000000D+00
      7   0.000000D+00  0.000000D+00  0.385270D+00  0.000000D+00  0.000000D+00
      8   0.000000D+00  0.000000D+00  0.000000D+00  0.385270D+00  0.000000D+00
      9   0.000000D+00  0.000000D+00  0.000000D+00  0.000000D+00  0.385270D+00
     10   0.000000D+00  0.000000D+00  0.000000D+00  0.000000D+00  0.000000D+00
     11   0.000000D+00  0.000000D+00  0.000000D+00  0.000000D+00  0.000000D+00
     12   0.000000D+00  0.000000D+00  0.000000D+00  0.000000D+00  0.000000D+00
     13   0.000000D+00  0.000000D+00  0.000000D+00  0.000000D+00  0.000000D+00
     14   0.000000D+00  0.000000D+00  0.000000D+00  0.000000D+00  0.000000D+00
     15  -0.403281D-03  0.707882D-02  0.000000D+00  0.000000D+00  0.000000D+00
     16   0.000000D+00  0.000000D+00  0.163038D-01  0.000000D+00  0.000000D+00
     17   0.000000D+00  0.000000D+00  0.000000D+00  0.163038D-01  0.000000D+00
     18   0.000000D+00  0.000000D+00  0.000000D+00  0.000000D+00  0.163038D-01
     19   0.000000D+00  0.000000D+00  0.000000D+00  0.000000D+00  0.000000D+00
     20   0.000000D+00  0.000000D+00  0.000000D+00  0.000000D+00  0.000000D+00
     21   0.000000D+00  0.000000D+00  0.000000D+00  0.000000D+00  0.000000D+00
     22   0.000000D+00  0.000000D+00  0.000000D+00  0.000000D+00  0.000000D+00
     23   0.000000D+00  0.000000D+00  0.000000D+00  0.000000D+00  0.000000D+00
     24   0.000000D+00  0.000000D+00  0.000000D+00  0.000000D+00  0.000000D+00
     25   0.000000D+00  0.000000D+00  0.000000D+00  0.000000D+00  0.000000D+00
     26   0.000000D+00  0.000000D+00  0.000000D+00  0.000000D+00  0.000000D+00
     27   0.000000D+00  0.000000D+00  0.000000D+00  0.000000D+00  0.000000D+00
     28   0.000000D+00  0.000000D+00  0.000000D+00  0.000000D+00  0.000000D+00
     29   0.000000D+00  0.000000D+00  0.000000D+00  0.000000D+00  0.000000D+00
     30   0.000000D+00  0.000000D+00  0.000000D+00  0.000000D+00  0.000000D+00
     31   0.000000D+00  0.000000D+00  0.000000D+00  0.000000D+00  0.000000D+00
     32   0.000000D+00  0.000000D+00  0.000000D+00  0.000000D+00  0.000000D+00
     33   0.000000D+00  0.000000D+00  0.000000D+00  0.000000D+00  0.000000D+00
     34   0.000000D+00  0.000000D+00  0.000000D+00  0.000000D+00  0.000000D+00
     35   0.000000D+00  0.000000D+00  0.000000D+00  0.000000D+00  0.000000D+00
     36   0.000000D+00  0.000000D+00  0.000000D+00  0.000000D+00  0.000000D+00
     37   0.000000D+00  0.000000D+00  0.000000D+00  0.000000D+00  0.000000D+00
     38   0.000000D+00  0.000000D+00  0.000000D+00  0.000000D+00  0.000000D+00
     39   0.000000D+00  0.000000D+00  0.000000D+00  0.000000D+00  0.000000D+00
     40   0.000000D+00  0.000000D+00  0.000000D+00  0.000000D+00  0.000000D+00
     41   0.000000D+00  0.000000D+00  0.000000D+00  0.000000D+00  0.000000D+00
     42   0.168094D-04  0.106088D-03  0.000000D+00  0.000000D+00 -0.366485D-04
     43   0.000000D+00  0.000000D+00  0.367256D-05  0.000000D+00  0.000000D+00
     44   0.000000D+00  0.000000D+00  0.000000D+00  0.367256D-05  0.000000D+00
     45   0.000000D+00  0.000000D+00  0.000000D+00  0.000000D+00  0.000000D+00
     46   0.000000D+00  0.000000D+00  0.000000D+00  0.000000D+00  0.000000D+00
                 6             7             8             9            10 
      1   0.333304D-01  0.000000D+00  0.000000D+00  0.000000D+00  0.000000D+00
      2   0.372516D+00  0.000000D+00  0.000000D+00  0.000000D+00  0.000000D+00
      3   0.000000D+00  0.385270D+00  0.000000D+00  0.000000D+00  0.000000D+00
      4   0.000000D+00  0.000000D+00  0.385270D+00  0.000000D+00  0.000000D+00
      5   0.000000D+00  0.000000D+00  0.000000D+00  0.385270D+00  0.000000D+00
      6   0.100000D+01  0.000000D+00  0.000000D+00  0.000000D+00  0.000000D+00
      7   0.000000D+00  0.100000D+01  0.000000D+00  0.000000D+00  0.000000D+00
      8   0.000000D+00  0.000000D+00  0.100000D+01  0.000000D+00  0.000000D+00
      9   0.000000D+00  0.000000D+00  0.000000D+00  0.100000D+01  0.000000D+00
     10   0.000000D+00  0.000000D+00  0.000000D+00  0.000000D+00  0.100000D+01
     11   0.000000D+00  0.000000D+00  0.000000D+00  0.000000D+00  0.000000D+00
     12   0.000000D+00  0.000000D+00  0.000000D+00  0.000000D+00  0.000000D+00
     13   0.000000D+00  0.000000D+00  0.000000D+00  0.000000D+00  0.000000D+00
     14   0.000000D+00  0.000000D+00  0.000000D+00  0.000000D+00  0.000000D+00
     15   0.210650D+00  0.000000D+00  0.000000D+00  0.000000D+00  0.000000D+00
     16   0.000000D+00  0.226928D+00  0.000000D+00  0.000000D+00  0.000000D+00
     17   0.000000D+00  0.000000D+00  0.226928D+00  0.000000D+00  0.000000D+00
     18   0.000000D+00  0.000000D+00  0.000000D+00  0.226928D+00  0.000000D+00
     19   0.000000D+00  0.000000D+00  0.000000D+00  0.000000D+00  0.348673D-01
     20   0.000000D+00  0.000000D+00  0.000000D+00  0.000000D+00  0.000000D+00
     21   0.000000D+00  0.000000D+00  0.000000D+00  0.000000D+00  0.000000D+00
     22   0.000000D+00  0.000000D+00  0.000000D+00  0.000000D+00  0.000000D+00
     23   0.000000D+00  0.000000D+00  0.000000D+00  0.000000D+00  0.000000D+00
     24   0.000000D+00  0.000000D+00  0.000000D+00  0.000000D+00  0.000000D+00
     25   0.000000D+00  0.000000D+00  0.000000D+00  0.000000D+00  0.000000D+00
     26   0.000000D+00  0.000000D+00  0.000000D+00  0.000000D+00  0.000000D+00
     27   0.000000D+00  0.000000D+00  0.000000D+00  0.000000D+00  0.000000D+00
     28   0.000000D+00  0.000000D+00  0.000000D+00  0.000000D+00  0.000000D+00
     29   0.000000D+00  0.000000D+00  0.000000D+00  0.000000D+00  0.000000D+00
     30   0.000000D+00  0.000000D+00  0.000000D+00  0.000000D+00  0.000000D+00
     31   0.000000D+00  0.000000D+00  0.000000D+00  0.000000D+00  0.000000D+00
     32   0.000000D+00  0.000000D+00  0.000000D+00  0.000000D+00  0.000000D+00
     33   0.000000D+00  0.000000D+00  0.000000D+00  0.000000D+00  0.000000D+00
     34   0.000000D+00  0.000000D+00  0.000000D+00  0.000000D+00  0.000000D+00
     35   0.000000D+00  0.000000D+00  0.000000D+00  0.000000D+00  0.000000D+00
     36   0.000000D+00  0.000000D+00  0.000000D+00  0.000000D+00  0.000000D+00
     37   0.000000D+00  0.000000D+00  0.000000D+00  0.000000D+00  0.000000D+00
     38   0.000000D+00  0.000000D+00  0.000000D+00  0.000000D+00  0.000000D+00
     39   0.000000D+00  0.000000D+00  0.000000D+00  0.000000D+00  0.000000D+00
     40   0.000000D+00  0.000000D+00  0.000000D+00  0.000000D+00  0.000000D+00
     41   0.237559D-05  0.000000D+00  0.000000D+00 -0.311209D-05  0.239972D-05
     42   0.719303D-03  0.000000D+00  0.000000D+00 -0.632130D-03  0.309733D-03
     43   0.000000D+00  0.668704D-04  0.000000D+00  0.000000D+00  0.000000D+00
     44   0.000000D+00  0.000000D+00  0.668704D-04  0.000000D+00  0.000000D+00
     45   0.000000D+00  0.000000D+00  0.000000D+00  0.000000D+00  0.000000D+00
     46   0.000000D+00  0.000000D+00  0.000000D+00  0.000000D+00  0.000000D+00
                11            12            13            14            15 
      1   0.000000D+00  0.000000D+00  0.000000D+00  0.000000D+00 -0.403281D-03
      2   0.000000D+00  0.000000D+00  0.000000D+00  0.000000D+00  0.707882D-02
      3   0.000000D+00  0.000000D+00  0.000000D+00  0.000000D+00  0.000000D+00
      4   0.000000D+00  0.000000D+00  0.000000D+00  0.000000D+00  0.000000D+00
      5   0.000000D+00  0.000000D+00  0.000000D+00  0.000000D+00  0.000000D+00
      6   0.000000D+00  0.000000D+00  0.000000D+00  0.000000D+00  0.210650D+00
      7   0.000000D+00  0.000000D+00  0.000000D+00  0.000000D+00  0.000000D+00
      8   0.000000D+00  0.000000D+00  0.000000D+00  0.000000D+00  0.000000D+00
      9   0.000000D+00  0.000000D+00  0.000000D+00  0.000000D+00  0.000000D+00
     10   0.000000D+00  0.000000D+00  0.000000D+00  0.000000D+00  0.000000D+00
     11   0.100000D+01  0.000000D+00  0.000000D+00  0.000000D+00  0.000000D+00
     12   0.000000D+00  0.100000D+01  0.000000D+00  0.000000D+00  0.000000D+00
     13   0.000000D+00  0.000000D+00  0.100000D+01  0.000000D+00  0.000000D+00
     14   0.000000D+00  0.000000D+00  0.000000D+00  0.100000D+01  0.000000D+00
     15   0.000000D+00  0.000000D+00  0.000000D+00  0.000000D+00  0.100000D+01
     16   0.000000D+00  0.000000D+00  0.000000D+00  0.000000D+00  0.000000D+00
     17   0.000000D+00  0.000000D+00  0.000000D+00  0.000000D+00  0.000000D+00
     18   0.000000D+00  0.000000D+00  0.000000D+00  0.000000D+00  0.000000D+00
     19   0.000000D+00  0.000000D+00  0.000000D+00  0.000000D+00  0.000000D+00
     20   0.348673D-01  0.000000D+00  0.000000D+00  0.000000D+00  0.000000D+00
     21   0.000000D+00  0.348673D-01  0.000000D+00  0.000000D+00  0.000000D+00
     22   0.000000D+00  0.000000D+00  0.348673D-01  0.000000D+00  0.000000D+00
     23   0.000000D+00  0.000000D+00  0.000000D+00  0.348673D-01  0.000000D+00
     24   0.000000D+00  0.000000D+00  0.000000D+00  0.000000D+00  0.000000D+00
     25   0.000000D+00  0.000000D+00  0.000000D+00  0.000000D+00  0.000000D+00
     26   0.000000D+00  0.000000D+00  0.000000D+00  0.000000D+00  0.000000D+00
     27   0.000000D+00  0.000000D+00  0.000000D+00  0.000000D+00  0.000000D+00
     28   0.000000D+00  0.000000D+00  0.000000D+00  0.000000D+00  0.000000D+00
     29   0.000000D+00  0.000000D+00  0.000000D+00  0.000000D+00  0.000000D+00
     30   0.000000D+00  0.000000D+00  0.000000D+00  0.000000D+00  0.000000D+00
     31   0.000000D+00  0.000000D+00  0.000000D+00  0.000000D+00  0.000000D+00
     32   0.000000D+00  0.000000D+00  0.000000D+00  0.000000D+00  0.000000D+00
     33   0.000000D+00  0.000000D+00  0.000000D+00  0.000000D+00  0.000000D+00
     34   0.000000D+00  0.000000D+00  0.000000D+00  0.000000D+00  0.000000D+00
     35   0.000000D+00  0.000000D+00  0.000000D+00  0.000000D+00  0.000000D+00
     36   0.000000D+00  0.000000D+00  0.000000D+00  0.000000D+00  0.000000D+00
     37   0.000000D+00  0.000000D+00  0.000000D+00  0.000000D+00  0.000000D+00
     38   0.000000D+00  0.000000D+00  0.000000D+00  0.000000D+00  0.777053D-03
     39   0.000000D+00  0.000000D+00  0.000000D+00  0.000000D+00  0.000000D+00
     40   0.000000D+00  0.000000D+00  0.000000D+00  0.000000D+00  0.000000D+00
     41   0.000000D+00  0.000000D+00  0.000000D+00  0.000000D+00  0.152295D-02
     42   0.000000D+00  0.000000D+00  0.000000D+00  0.000000D+00  0.250424D-01
     43  -0.602946D-04  0.000000D+00  0.000000D+00  0.000000D+00  0.000000D+00
     44   0.000000D+00 -0.602946D-04  0.000000D+00  0.000000D+00  0.000000D+00
     45   0.000000D+00  0.000000D+00  0.346426D-05  0.000000D+00  0.000000D+00
     46   0.000000D+00  0.000000D+00  0.000000D+00  0.346426D-05  0.000000D+00
                16            17            18            19            20 
      1   0.000000D+00  0.000000D+00  0.000000D+00  0.000000D+00  0.000000D+00
      2   0.000000D+00  0.000000D+00  0.000000D+00  0.000000D+00  0.000000D+00
      3   0.163038D-01  0.000000D+00  0.000000D+00  0.000000D+00  0.000000D+00
      4   0.000000D+00  0.163038D-01  0.000000D+00  0.000000D+00  0.000000D+00
      5   0.000000D+00  0.000000D+00  0.163038D-01  0.000000D+00  0.000000D+00
      6   0.000000D+00  0.000000D+00  0.000000D+00  0.000000D+00  0.000000D+00
      7   0.226928D+00  0.000000D+00  0.000000D+00  0.000000D+00  0.000000D+00
      8   0.000000D+00  0.226928D+00  0.000000D+00  0.000000D+00  0.000000D+00
      9   0.000000D+00  0.000000D+00  0.226928D+00  0.000000D+00  0.000000D+00
     10   0.000000D+00  0.000000D+00  0.000000D+00  0.348673D-01  0.000000D+00
     11   0.000000D+00  0.000000D+00  0.000000D+00  0.000000D+00  0.348673D-01
     12   0.000000D+00  0.000000D+00  0.000000D+00  0.000000D+00  0.000000D+00
     13   0.000000D+00  0.000000D+00  0.000000D+00  0.000000D+00  0.000000D+00
     14   0.000000D+00  0.000000D+00  0.000000D+00  0.000000D+00  0.000000D+00
     15   0.000000D+00  0.000000D+00  0.000000D+00  0.000000D+00  0.000000D+00
     16   0.100000D+01  0.000000D+00  0.000000D+00  0.000000D+00  0.000000D+00
     17   0.000000D+00  0.100000D+01  0.000000D+00  0.000000D+00  0.000000D+00
     18   0.000000D+00  0.000000D+00  0.100000D+01  0.000000D+00  0.000000D+00
     19   0.000000D+00  0.000000D+00  0.000000D+00  0.100000D+01  0.000000D+00
     20   0.000000D+00  0.000000D+00  0.000000D+00  0.000000D+00  0.100000D+01
     21   0.000000D+00  0.000000D+00  0.000000D+00  0.000000D+00  0.000000D+00
     22   0.000000D+00  0.000000D+00  0.000000D+00  0.000000D+00  0.000000D+00
     23   0.000000D+00  0.000000D+00  0.000000D+00  0.000000D+00  0.000000D+00
     24   0.000000D+00  0.000000D+00  0.000000D+00  0.168094D-04  0.000000D+00
     25   0.000000D+00  0.000000D+00  0.000000D+00  0.106088D-03  0.000000D+00
     26   0.000000D+00  0.000000D+00  0.000000D+00  0.000000D+00 -0.367256D-05
     27   0.000000D+00  0.000000D+00  0.000000D+00  0.000000D+00  0.000000D+00
     28   0.000000D+00  0.000000D+00  0.000000D+00  0.366485D-04  0.000000D+00
     29   0.000000D+00  0.000000D+00 -0.237559D-05  0.719303D-03  0.000000D+00
     30   0.000000D+00  0.000000D+00  0.000000D+00  0.000000D+00 -0.668704D-04
     31   0.000000D+00  0.000000D+00  0.000000D+00  0.000000D+00  0.000000D+00
     32   0.000000D+00  0.000000D+00 -0.311209D-05  0.632130D-03  0.000000D+00
     33   0.000000D+00  0.000000D+00 -0.239972D-05  0.309733D-03  0.000000D+00
     34   0.000000D+00  0.000000D+00  0.000000D+00  0.000000D+00 -0.602946D-04
     35   0.000000D+00  0.000000D+00  0.000000D+00  0.000000D+00  0.000000D+00
     36   0.000000D+00  0.000000D+00  0.000000D+00  0.000000D+00  0.000000D+00
     37   0.000000D+00  0.000000D+00  0.000000D+00  0.000000D+00  0.000000D+00
     38   0.000000D+00  0.000000D+00 -0.152295D-02  0.250424D-01  0.000000D+00
     39   0.201183D-03  0.000000D+00  0.000000D+00  0.000000D+00 -0.645350D-02
     40   0.000000D+00  0.201183D-03  0.000000D+00  0.000000D+00  0.000000D+00
     41   0.000000D+00  0.000000D+00 -0.287904D-02  0.379880D-01  0.000000D+00
     42   0.000000D+00  0.000000D+00 -0.379880D-01  0.151490D+00  0.000000D+00
     43   0.645350D-02  0.000000D+00  0.000000D+00  0.000000D+00 -0.676576D-01
     44   0.000000D+00  0.645350D-02  0.000000D+00  0.000000D+00  0.000000D+00
     45   0.000000D+00  0.000000D+00  0.000000D+00  0.000000D+00  0.000000D+00
     46   0.000000D+00  0.000000D+00  0.000000D+00  0.000000D+00  0.000000D+00
                21            22            23            24            25 
      1   0.000000D+00  0.000000D+00  0.000000D+00  0.000000D+00  0.000000D+00
      2   0.000000D+00  0.000000D+00  0.000000D+00  0.000000D+00  0.000000D+00
      3   0.000000D+00  0.000000D+00  0.000000D+00  0.000000D+00  0.000000D+00
      4   0.000000D+00  0.000000D+00  0.000000D+00  0.000000D+00  0.000000D+00
      5   0.000000D+00  0.000000D+00  0.000000D+00  0.000000D+00  0.000000D+00
      6   0.000000D+00  0.000000D+00  0.000000D+00  0.000000D+00  0.000000D+00
      7   0.000000D+00  0.000000D+00  0.000000D+00  0.000000D+00  0.000000D+00
      8   0.000000D+00  0.000000D+00  0.000000D+00  0.000000D+00  0.000000D+00
      9   0.000000D+00  0.000000D+00  0.000000D+00  0.000000D+00  0.000000D+00
     10   0.000000D+00  0.000000D+00  0.000000D+00  0.000000D+00  0.000000D+00
     11   0.000000D+00  0.000000D+00  0.000000D+00  0.000000D+00  0.000000D+00
     12   0.348673D-01  0.000000D+00  0.000000D+00  0.000000D+00  0.000000D+00
     13   0.000000D+00  0.348673D-01  0.000000D+00  0.000000D+00  0.000000D+00
     14   0.000000D+00  0.000000D+00  0.348673D-01  0.000000D+00  0.000000D+00
     15   0.000000D+00  0.000000D+00  0.000000D+00  0.000000D+00  0.000000D+00
     16   0.000000D+00  0.000000D+00  0.000000D+00  0.000000D+00  0.000000D+00
     17   0.000000D+00  0.000000D+00  0.000000D+00  0.000000D+00  0.000000D+00
     18   0.000000D+00  0.000000D+00  0.000000D+00  0.000000D+00  0.000000D+00
     19   0.000000D+00  0.000000D+00  0.000000D+00  0.168094D-04  0.106088D-03
     20   0.000000D+00  0.000000D+00  0.000000D+00  0.000000D+00  0.000000D+00
     21   0.100000D+01  0.000000D+00  0.000000D+00  0.000000D+00  0.000000D+00
     22   0.000000D+00  0.100000D+01  0.000000D+00  0.000000D+00  0.000000D+00
     23   0.000000D+00  0.000000D+00  0.100000D+01  0.000000D+00  0.000000D+00
     24   0.000000D+00  0.000000D+00  0.000000D+00  0.100000D+01  0.408139D+00
     25   0.000000D+00  0.000000D+00  0.000000D+00  0.408139D+00  0.100000D+01
     26   0.000000D+00  0.000000D+00  0.000000D+00  0.000000D+00  0.000000D+00
     27  -0.367256D-05  0.000000D+00  0.000000D+00  0.000000D+00  0.000000D+00
     28   0.000000D+00  0.000000D+00  0.000000D+00  0.000000D+00  0.000000D+00
     29   0.000000D+00  0.000000D+00  0.000000D+00  0.333304D-01  0.372516D+00
     30   0.000000D+00  0.000000D+00  0.000000D+00  0.000000D+00  0.000000D+00
     31  -0.668704D-04  0.000000D+00  0.000000D+00  0.000000D+00  0.000000D+00
     32   0.000000D+00  0.000000D+00  0.000000D+00  0.000000D+00  0.000000D+00
     33   0.000000D+00  0.000000D+00  0.000000D+00  0.000000D+00  0.000000D+00
     34   0.000000D+00  0.000000D+00  0.000000D+00  0.000000D+00  0.000000D+00
     35  -0.602946D-04  0.000000D+00  0.000000D+00  0.000000D+00  0.000000D+00
     36   0.000000D+00  0.346426D-05  0.000000D+00  0.000000D+00  0.000000D+00
     37   0.000000D+00  0.000000D+00  0.346426D-05  0.000000D+00  0.000000D+00
     38   0.000000D+00  0.000000D+00  0.000000D+00 -0.403281D-03  0.707882D-02
     39   0.000000D+00  0.000000D+00  0.000000D+00  0.000000D+00  0.000000D+00
     40  -0.645350D-02  0.000000D+00  0.000000D+00  0.000000D+00  0.000000D+00
     41   0.000000D+00  0.000000D+00  0.000000D+00  0.000000D+00  0.000000D+00
     42   0.000000D+00  0.000000D+00  0.000000D+00  0.000000D+00  0.000000D+00
     43   0.000000D+00  0.000000D+00  0.000000D+00  0.000000D+00  0.000000D+00
     44  -0.676576D-01  0.000000D+00  0.000000D+00  0.000000D+00  0.000000D+00
     45   0.000000D+00  0.776141D-02  0.000000D+00  0.000000D+00  0.000000D+00
     46   0.000000D+00  0.000000D+00  0.776141D-02  0.000000D+00  0.000000D+00
                26            27            28            29            30 
      1   0.000000D+00  0.000000D+00  0.000000D+00  0.000000D+00  0.000000D+00
      2   0.000000D+00  0.000000D+00  0.000000D+00  0.000000D+00  0.000000D+00
      3   0.000000D+00  0.000000D+00  0.000000D+00  0.000000D+00  0.000000D+00
      4   0.000000D+00  0.000000D+00  0.000000D+00  0.000000D+00  0.000000D+00
      5   0.000000D+00  0.000000D+00  0.000000D+00  0.000000D+00  0.000000D+00
      6   0.000000D+00  0.000000D+00  0.000000D+00  0.000000D+00  0.000000D+00
      7   0.000000D+00  0.000000D+00  0.000000D+00  0.000000D+00  0.000000D+00
      8   0.000000D+00  0.000000D+00  0.000000D+00  0.000000D+00  0.000000D+00
      9   0.000000D+00  0.000000D+00  0.000000D+00  0.000000D+00  0.000000D+00
     10   0.000000D+00  0.000000D+00  0.000000D+00  0.000000D+00  0.000000D+00
     11   0.000000D+00  0.000000D+00  0.000000D+00  0.000000D+00  0.000000D+00
     12   0.000000D+00  0.000000D+00  0.000000D+00  0.000000D+00  0.000000D+00
     13   0.000000D+00  0.000000D+00  0.000000D+00  0.000000D+00  0.000000D+00
     14   0.000000D+00  0.000000D+00  0.000000D+00  0.000000D+00  0.000000D+00
     15   0.000000D+00  0.000000D+00  0.000000D+00  0.000000D+00  0.000000D+00
     16   0.000000D+00  0.000000D+00  0.000000D+00  0.000000D+00  0.000000D+00
     17   0.000000D+00  0.000000D+00  0.000000D+00  0.000000D+00  0.000000D+00
     18   0.000000D+00  0.000000D+00  0.000000D+00 -0.237559D-05  0.000000D+00
     19   0.000000D+00  0.000000D+00  0.366485D-04  0.719303D-03  0.000000D+00
     20  -0.367256D-05  0.000000D+00  0.000000D+00  0.000000D+00 -0.668704D-04
     21   0.000000D+00 -0.367256D-05  0.000000D+00  0.000000D+00  0.000000D+00
     22   0.000000D+00  0.000000D+00  0.000000D+00  0.000000D+00  0.000000D+00
     23   0.000000D+00  0.000000D+00  0.000000D+00  0.000000D+00  0.000000D+00
     24   0.000000D+00  0.000000D+00  0.000000D+00  0.333304D-01  0.000000D+00
     25   0.000000D+00  0.000000D+00  0.000000D+00  0.372516D+00  0.000000D+00
     26   0.100000D+01  0.000000D+00  0.000000D+00  0.000000D+00  0.385270D+00
     27   0.000000D+00  0.100000D+01  0.000000D+00  0.000000D+00  0.000000D+00
     28   0.000000D+00  0.000000D+00  0.100000D+01  0.000000D+00  0.000000D+00
     29   0.000000D+00  0.000000D+00  0.000000D+00  0.100000D+01  0.000000D+00
     30   0.385270D+00  0.000000D+00  0.000000D+00  0.000000D+00  0.100000D+01
     31   0.000000D+00  0.385270D+00  0.000000D+00  0.000000D+00  0.000000D+00
     32   0.000000D+00  0.000000D+00  0.385270D+00  0.000000D+00  0.000000D+00
     33   0.000000D+00  0.000000D+00  0.000000D+00  0.000000D+00  0.000000D+00
     34   0.000000D+00  0.000000D+00  0.000000D+00  0.000000D+00  0.000000D+00
     35   0.000000D+00  0.000000D+00  0.000000D+00  0.000000D+00  0.000000D+00
     36   0.000000D+00  0.000000D+00  0.000000D+00  0.000000D+00  0.000000D+00
     37   0.000000D+00  0.000000D+00  0.000000D+00  0.000000D+00  0.000000D+00
     38   0.000000D+00  0.000000D+00  0.000000D+00  0.210650D+00  0.000000D+00
     39   0.163038D-01  0.000000D+00  0.000000D+00  0.000000D+00  0.226928D+00
     40   0.000000D+00  0.163038D-01  0.000000D+00  0.000000D+00  0.000000D+00
     41   0.000000D+00  0.000000D+00  0.163038D-01  0.000000D+00  0.000000D+00
     42   0.000000D+00  0.000000D+00  0.000000D+00  0.000000D+00  0.000000D+00
     43   0.000000D+00  0.000000D+00  0.000000D+00  0.000000D+00  0.000000D+00
     44   0.000000D+00  0.000000D+00  0.000000D+00  0.000000D+00  0.000000D+00
     45   0.000000D+00  0.000000D+00  0.000000D+00  0.000000D+00  0.000000D+00
     46   0.000000D+00  0.000000D+00  0.000000D+00  0.000000D+00  0.000000D+00
                31            32            33            34            35 
      1   0.000000D+00  0.000000D+00  0.000000D+00  0.000000D+00  0.000000D+00
      2   0.000000D+00  0.000000D+00  0.000000D+00  0.000000D+00  0.000000D+00
      3   0.000000D+00  0.000000D+00  0.000000D+00  0.000000D+00  0.000000D+00
      4   0.000000D+00  0.000000D+00  0.000000D+00  0.000000D+00  0.000000D+00
      5   0.000000D+00  0.000000D+00  0.000000D+00  0.000000D+00  0.000000D+00
      6   0.000000D+00  0.000000D+00  0.000000D+00  0.000000D+00  0.000000D+00
      7   0.000000D+00  0.000000D+00  0.000000D+00  0.000000D+00  0.000000D+00
      8   0.000000D+00  0.000000D+00  0.000000D+00  0.000000D+00  0.000000D+00
      9   0.000000D+00  0.000000D+00  0.000000D+00  0.000000D+00  0.000000D+00
     10   0.000000D+00  0.000000D+00  0.000000D+00  0.000000D+00  0.000000D+00
     11   0.000000D+00  0.000000D+00  0.000000D+00  0.000000D+00  0.000000D+00
     12   0.000000D+00  0.000000D+00  0.000000D+00  0.000000D+00  0.000000D+00
     13   0.000000D+00  0.000000D+00  0.000000D+00  0.000000D+00  0.000000D+00
     14   0.000000D+00  0.000000D+00  0.000000D+00  0.000000D+00  0.000000D+00
     15   0.000000D+00  0.000000D+00  0.000000D+00  0.000000D+00  0.000000D+00
     16   0.000000D+00  0.000000D+00  0.000000D+00  0.000000D+00  0.000000D+00
     17   0.000000D+00  0.000000D+00  0.000000D+00  0.000000D+00  0.000000D+00
     18   0.000000D+00 -0.311209D-05 -0.239972D-05  0.000000D+00  0.000000D+00
     19   0.000000D+00  0.632130D-03  0.309733D-03  0.000000D+00  0.000000D+00
     20   0.000000D+00  0.000000D+00  0.000000D+00 -0.602946D-04  0.000000D+00
     21  -0.668704D-04  0.000000D+00  0.000000D+00  0.000000D+00 -0.602946D-04
     22   0.000000D+00  0.000000D+00  0.000000D+00  0.000000D+00  0.000000D+00
     23   0.000000D+00  0.000000D+00  0.000000D+00  0.000000D+00  0.000000D+00
     24   0.000000D+00  0.000000D+00  0.000000D+00  0.000000D+00  0.000000D+00
     25   0.000000D+00  0.000000D+00  0.000000D+00  0.000000D+00  0.000000D+00
     26   0.000000D+00  0.000000D+00  0.000000D+00  0.000000D+00  0.000000D+00
     27   0.385270D+00  0.000000D+00  0.000000D+00  0.000000D+00  0.000000D+00
     28   0.000000D+00  0.385270D+00  0.000000D+00  0.000000D+00  0.000000D+00
     29   0.000000D+00  0.000000D+00  0.000000D+00  0.000000D+00  0.000000D+00
     30   0.000000D+00  0.000000D+00  0.000000D+00  0.000000D+00  0.000000D+00
     31   0.100000D+01  0.000000D+00  0.000000D+00  0.000000D+00  0.000000D+00
     32   0.000000D+00  0.100000D+01  0.000000D+00  0.000000D+00  0.000000D+00
     33   0.000000D+00  0.000000D+00  0.100000D+01  0.000000D+00  0.000000D+00
     34   0.000000D+00  0.000000D+00  0.000000D+00  0.100000D+01  0.000000D+00
     35   0.000000D+00  0.000000D+00  0.000000D+00  0.000000D+00  0.100000D+01
     36   0.000000D+00  0.000000D+00  0.000000D+00  0.000000D+00  0.000000D+00
     37   0.000000D+00  0.000000D+00  0.000000D+00  0.000000D+00  0.000000D+00
     38   0.000000D+00  0.000000D+00  0.000000D+00  0.000000D+00  0.000000D+00
     39   0.000000D+00  0.000000D+00  0.000000D+00  0.000000D+00  0.000000D+00
     40   0.226928D+00  0.000000D+00  0.000000D+00  0.000000D+00  0.000000D+00
     41   0.000000D+00  0.226928D+00  0.000000D+00  0.000000D+00  0.000000D+00
     42   0.000000D+00  0.000000D+00  0.348673D-01  0.000000D+00  0.000000D+00
     43   0.000000D+00  0.000000D+00  0.000000D+00  0.348673D-01  0.000000D+00
     44   0.000000D+00  0.000000D+00  0.000000D+00  0.000000D+00  0.348673D-01
     45   0.000000D+00  0.000000D+00  0.000000D+00  0.000000D+00  0.000000D+00
     46   0.000000D+00  0.000000D+00  0.000000D+00  0.000000D+00  0.000000D+00
                36            37            38            39            40 
      1   0.000000D+00  0.000000D+00  0.000000D+00  0.000000D+00  0.000000D+00
      2   0.000000D+00  0.000000D+00  0.000000D+00  0.000000D+00  0.000000D+00
      3   0.000000D+00  0.000000D+00  0.000000D+00  0.000000D+00  0.000000D+00
      4   0.000000D+00  0.000000D+00  0.000000D+00  0.000000D+00  0.000000D+00
      5   0.000000D+00  0.000000D+00  0.000000D+00  0.000000D+00  0.000000D+00
      6   0.000000D+00  0.000000D+00  0.000000D+00  0.000000D+00  0.000000D+00
      7   0.000000D+00  0.000000D+00  0.000000D+00  0.000000D+00  0.000000D+00
      8   0.000000D+00  0.000000D+00  0.000000D+00  0.000000D+00  0.000000D+00
      9   0.000000D+00  0.000000D+00  0.000000D+00  0.000000D+00  0.000000D+00
     10   0.000000D+00  0.000000D+00  0.000000D+00  0.000000D+00  0.000000D+00
     11   0.000000D+00  0.000000D+00  0.000000D+00  0.000000D+00  0.000000D+00
     12   0.000000D+00  0.000000D+00  0.000000D+00  0.000000D+00  0.000000D+00
     13   0.000000D+00  0.000000D+00  0.000000D+00  0.000000D+00  0.000000D+00
     14   0.000000D+00  0.000000D+00  0.000000D+00  0.000000D+00  0.000000D+00
     15   0.000000D+00  0.000000D+00  0.777053D-03  0.000000D+00  0.000000D+00
     16   0.000000D+00  0.000000D+00  0.000000D+00  0.201183D-03  0.000000D+00
     17   0.000000D+00  0.000000D+00  0.000000D+00  0.000000D+00  0.201183D-03
     18   0.000000D+00  0.000000D+00 -0.152295D-02  0.000000D+00  0.000000D+00
     19   0.000000D+00  0.000000D+00  0.250424D-01  0.000000D+00  0.000000D+00
     20   0.000000D+00  0.000000D+00  0.000000D+00 -0.645350D-02  0.000000D+00
     21   0.000000D+00  0.000000D+00  0.000000D+00  0.000000D+00 -0.645350D-02
     22   0.346426D-05  0.000000D+00  0.000000D+00  0.000000D+00  0.000000D+00
     23   0.000000D+00  0.346426D-05  0.000000D+00  0.000000D+00  0.000000D+00
     24   0.000000D+00  0.000000D+00 -0.403281D-03  0.000000D+00  0.000000D+00
     25   0.000000D+00  0.000000D+00  0.707882D-02  0.000000D+00  0.000000D+00
     26   0.000000D+00  0.000000D+00  0.000000D+00  0.163038D-01  0.000000D+00
     27   0.000000D+00  0.000000D+00  0.000000D+00  0.000000D+00  0.163038D-01
     28   0.000000D+00  0.000000D+00  0.000000D+00  0.000000D+00  0.000000D+00
     29   0.000000D+00  0.000000D+00  0.210650D+00  0.000000D+00  0.000000D+00
     30   0.000000D+00  0.000000D+00  0.000000D+00  0.226928D+00  0.000000D+00
     31   0.000000D+00  0.000000D+00  0.000000D+00  0.000000D+00  0.226928D+00
     32   0.000000D+00  0.000000D+00  0.000000D+00  0.000000D+00  0.000000D+00
     33   0.000000D+00  0.000000D+00  0.000000D+00  0.000000D+00  0.000000D+00
     34   0.000000D+00  0.000000D+00  0.000000D+00  0.000000D+00  0.000000D+00
     35   0.000000D+00  0.000000D+00  0.000000D+00  0.000000D+00  0.000000D+00
     36   0.100000D+01  0.000000D+00  0.000000D+00  0.000000D+00  0.000000D+00
     37   0.000000D+00  0.100000D+01  0.000000D+00  0.000000D+00  0.000000D+00
     38   0.000000D+00  0.000000D+00  0.100000D+01  0.000000D+00  0.000000D+00
     39   0.000000D+00  0.000000D+00  0.000000D+00  0.100000D+01  0.000000D+00
     40   0.000000D+00  0.000000D+00  0.000000D+00  0.000000D+00  0.100000D+01
     41   0.000000D+00  0.000000D+00  0.000000D+00  0.000000D+00  0.000000D+00
     42   0.000000D+00  0.000000D+00  0.000000D+00  0.000000D+00  0.000000D+00
     43   0.000000D+00  0.000000D+00  0.000000D+00  0.000000D+00  0.000000D+00
     44   0.000000D+00  0.000000D+00  0.000000D+00  0.000000D+00  0.000000D+00
     45   0.348673D-01  0.000000D+00  0.000000D+00  0.000000D+00  0.000000D+00
     46   0.000000D+00  0.348673D-01  0.000000D+00  0.000000D+00  0.000000D+00
                41            42            43            44            45 
      1   0.000000D+00  0.168094D-04  0.000000D+00  0.000000D+00  0.000000D+00
      2   0.000000D+00  0.106088D-03  0.000000D+00  0.000000D+00  0.000000D+00
      3   0.000000D+00  0.000000D+00  0.367256D-05  0.000000D+00  0.000000D+00
      4   0.000000D+00  0.000000D+00  0.000000D+00  0.367256D-05  0.000000D+00
      5   0.000000D+00 -0.366485D-04  0.000000D+00  0.000000D+00  0.000000D+00
      6   0.237559D-05  0.719303D-03  0.000000D+00  0.000000D+00  0.000000D+00
      7   0.000000D+00  0.000000D+00  0.668704D-04  0.000000D+00  0.000000D+00
      8   0.000000D+00  0.000000D+00  0.000000D+00  0.668704D-04  0.000000D+00
      9  -0.311209D-05 -0.632130D-03  0.000000D+00  0.000000D+00  0.000000D+00
     10   0.239972D-05  0.309733D-03  0.000000D+00  0.000000D+00  0.000000D+00
     11   0.000000D+00  0.000000D+00 -0.602946D-04  0.000000D+00  0.000000D+00
     12   0.000000D+00  0.000000D+00  0.000000D+00 -0.602946D-04  0.000000D+00
     13   0.000000D+00  0.000000D+00  0.000000D+00  0.000000D+00  0.346426D-05
     14   0.000000D+00  0.000000D+00  0.000000D+00  0.000000D+00  0.000000D+00
     15   0.152295D-02  0.250424D-01  0.000000D+00  0.000000D+00  0.000000D+00
     16   0.000000D+00  0.000000D+00  0.645350D-02  0.000000D+00  0.000000D+00
     17   0.000000D+00  0.000000D+00  0.000000D+00  0.645350D-02  0.000000D+00
     18  -0.287904D-02 -0.379880D-01  0.000000D+00  0.000000D+00  0.000000D+00
     19   0.379880D-01  0.151490D+00  0.000000D+00  0.000000D+00  0.000000D+00
     20   0.000000D+00  0.000000D+00 -0.676576D-01  0.000000D+00  0.000000D+00
     21   0.000000D+00  0.000000D+00  0.000000D+00 -0.676576D-01  0.000000D+00
     22   0.000000D+00  0.000000D+00  0.000000D+00  0.000000D+00  0.776141D-02
     23   0.000000D+00  0.000000D+00  0.000000D+00  0.000000D+00  0.000000D+00
     24   0.000000D+00  0.000000D+00  0.000000D+00  0.000000D+00  0.000000D+00
     25   0.000000D+00  0.000000D+00  0.000000D+00  0.000000D+00  0.000000D+00
     26   0.000000D+00  0.000000D+00  0.000000D+00  0.000000D+00  0.000000D+00
     27   0.000000D+00  0.000000D+00  0.000000D+00  0.000000D+00  0.000000D+00
     28   0.163038D-01  0.000000D+00  0.000000D+00  0.000000D+00  0.000000D+00
     29   0.000000D+00  0.000000D+00  0.000000D+00  0.000000D+00  0.000000D+00
     30   0.000000D+00  0.000000D+00  0.000000D+00  0.000000D+00  0.000000D+00
     31   0.000000D+00  0.000000D+00  0.000000D+00  0.000000D+00  0.000000D+00
     32   0.226928D+00  0.000000D+00  0.000000D+00  0.000000D+00  0.000000D+00
     33   0.000000D+00  0.348673D-01  0.000000D+00  0.000000D+00  0.000000D+00
     34   0.000000D+00  0.000000D+00  0.348673D-01  0.000000D+00  0.000000D+00
     35   0.000000D+00  0.000000D+00  0.000000D+00  0.348673D-01  0.000000D+00
     36   0.000000D+00  0.000000D+00  0.000000D+00  0.000000D+00  0.348673D-01
     37   0.000000D+00  0.000000D+00  0.000000D+00  0.000000D+00  0.000000D+00
     38   0.000000D+00  0.000000D+00  0.000000D+00  0.000000D+00  0.000000D+00
     39   0.000000D+00  0.000000D+00  0.000000D+00  0.000000D+00  0.000000D+00
     40   0.000000D+00  0.000000D+00  0.000000D+00  0.000000D+00  0.000000D+00
     41   0.100000D+01  0.000000D+00  0.000000D+00  0.000000D+00  0.000000D+00
     42   0.000000D+00  0.100000D+01  0.000000D+00  0.000000D+00  0.000000D+00
     43   0.000000D+00  0.000000D+00  0.100000D+01  0.000000D+00  0.000000D+00
     44   0.000000D+00  0.000000D+00  0.000000D+00  0.100000D+01  0.000000D+00
     45   0.000000D+00  0.000000D+00  0.000000D+00  0.000000D+00  0.100000D+01
     46   0.000000D+00  0.000000D+00  0.000000D+00  0.000000D+00  0.000000D+00
                46 
      1   0.000000D+00
      2   0.000000D+00
      3   0.000000D+00
      4   0.000000D+00
      5   0.000000D+00
      6   0.000000D+00
      7   0.000000D+00
      8   0.000000D+00
      9   0.000000D+00
     10   0.000000D+00
     11   0.000000D+00
     12   0.000000D+00
     13   0.000000D+00
     14   0.346426D-05
     15   0.000000D+00
     16   0.000000D+00
     17   0.000000D+00
     18   0.000000D+00
     19   0.000000D+00
     20   0.000000D+00
     21   0.000000D+00
     22   0.000000D+00
     23   0.776141D-02
     24   0.000000D+00
     25   0.000000D+00
     26   0.000000D+00
     27   0.000000D+00
     28   0.000000D+00
     29   0.000000D+00
     30   0.000000D+00
     31   0.000000D+00
     32   0.000000D+00
     33   0.000000D+00
     34   0.000000D+00
     35   0.000000D+00
     36   0.000000D+00
     37   0.348673D-01
     38   0.000000D+00
     39   0.000000D+00
     40   0.000000D+00
     41   0.000000D+00
     42   0.000000D+00
     43   0.000000D+00
     44   0.000000D+00
     45   0.000000D+00
     46   0.100000D+01
 Entering OneElI...
 Overlap between basis sets.
 Requested accuracy = 0.1000D-12
 PrsmSu:  NPrtUS=   1 ThrOK=F IAlg=1 NPAlg=1 LenDen=           0.
 Prism:   IPart=     0 DynPar=F LinDyn=F Incr=           9.
 PRISM was handed  1608301565 working-precision words and   994 shell-pairs
 IPart=  0 NShTot=         994 NBatch=          95 AvBLen=        10.5
 PrSmSu:  NxtVal=             10.
 CnvPC2: ToCart=F DoDens=F IPureD=0 IPureF=0.
 Transformed matrix in CnvPC2: 
                 1             2             3             4             5 
      1   0.999800D+00  0.415277D+00  0.000000D+00  0.000000D+00  0.000000D+00
      2   0.290563D+00  0.986617D+00  0.000000D+00  0.000000D+00  0.000000D+00
      3   0.000000D+00  0.000000D+00  0.999280D+00  0.000000D+00  0.000000D+00
      4   0.000000D+00  0.000000D+00  0.000000D+00  0.999280D+00  0.000000D+00
      5   0.000000D+00  0.000000D+00  0.000000D+00  0.000000D+00  0.999280D+00
      6   0.142504D-01  0.334739D+00  0.000000D+00  0.000000D+00  0.000000D+00
      7   0.000000D+00  0.000000D+00  0.365517D+00  0.000000D+00  0.000000D+00
      8   0.000000D+00  0.000000D+00  0.000000D+00  0.365517D+00  0.000000D+00
      9   0.000000D+00  0.000000D+00  0.000000D+00  0.000000D+00  0.365517D+00
     10   0.000000D+00  0.000000D+00  0.000000D+00  0.000000D+00  0.000000D+00
     11   0.000000D+00  0.000000D+00  0.000000D+00  0.000000D+00  0.000000D+00
     12   0.000000D+00  0.000000D+00  0.000000D+00  0.000000D+00  0.000000D+00
     13   0.000000D+00  0.000000D+00  0.000000D+00  0.000000D+00  0.000000D+00
     14   0.000000D+00  0.000000D+00  0.000000D+00  0.000000D+00  0.000000D+00
     15   0.521351D-03  0.204830D-01  0.000000D+00  0.000000D+00  0.000000D+00
     16   0.514636D-02  0.309020D-01  0.000000D+00  0.000000D+00  0.000000D+00
     17   0.000000D+00  0.000000D+00  0.136308D-01  0.000000D+00  0.000000D+00
     18   0.000000D+00  0.000000D+00  0.000000D+00  0.136308D-01  0.000000D+00
     19   0.000000D+00  0.000000D+00  0.000000D+00  0.000000D+00  0.136308D-01
     20   0.000000D+00  0.000000D+00  0.111328D-02  0.000000D+00  0.000000D+00
     21   0.000000D+00  0.000000D+00  0.000000D+00  0.111328D-02  0.000000D+00
     22   0.000000D+00  0.000000D+00  0.000000D+00  0.000000D+00  0.111328D-02
     23   0.134755D+00  0.631677D+00  0.000000D+00  0.000000D+00  0.000000D+00
     24   0.944384D-01  0.484426D+00  0.000000D+00  0.000000D+00  0.000000D+00
     25   0.658455D-01  0.358460D+00  0.000000D+00  0.000000D+00  0.000000D+00
     26   0.457634D-01  0.258842D+00  0.000000D+00  0.000000D+00  0.000000D+00
     27   0.317435D-01  0.183927D+00  0.000000D+00  0.000000D+00  0.000000D+00
     28   0.219919D-01  0.129356D+00  0.000000D+00  0.000000D+00  0.000000D+00
     29   0.000000D+00  0.000000D+00  0.304979D+00  0.000000D+00  0.000000D+00
     30   0.000000D+00  0.000000D+00  0.000000D+00  0.304979D+00  0.000000D+00
     31   0.000000D+00  0.000000D+00  0.000000D+00  0.000000D+00  0.304979D+00
     32   0.000000D+00  0.000000D+00  0.188218D+00  0.000000D+00  0.000000D+00
     33   0.000000D+00  0.000000D+00  0.000000D+00  0.188218D+00  0.000000D+00
     34   0.000000D+00  0.000000D+00  0.000000D+00  0.000000D+00  0.188218D+00
     35   0.000000D+00  0.000000D+00  0.110731D+00  0.000000D+00  0.000000D+00
     36   0.000000D+00  0.000000D+00  0.000000D+00  0.110731D+00  0.000000D+00
     37   0.000000D+00  0.000000D+00  0.000000D+00  0.000000D+00  0.110731D+00
     38   0.000000D+00  0.000000D+00  0.630455D-01  0.000000D+00  0.000000D+00
     39   0.000000D+00  0.000000D+00  0.000000D+00  0.630455D-01  0.000000D+00
     40   0.000000D+00  0.000000D+00  0.000000D+00  0.000000D+00  0.630455D-01
     41   0.000000D+00  0.000000D+00  0.351330D-01  0.000000D+00  0.000000D+00
     42   0.000000D+00  0.000000D+00  0.000000D+00  0.351330D-01  0.000000D+00
     43   0.000000D+00  0.000000D+00  0.000000D+00  0.000000D+00  0.351330D-01
     44   0.000000D+00  0.000000D+00  0.193121D-01  0.000000D+00  0.000000D+00
     45   0.000000D+00  0.000000D+00  0.000000D+00  0.193121D-01  0.000000D+00
     46   0.000000D+00  0.000000D+00  0.000000D+00  0.000000D+00  0.193121D-01
     47   0.000000D+00  0.000000D+00  0.000000D+00  0.000000D+00  0.000000D+00
     48   0.000000D+00  0.000000D+00  0.000000D+00  0.000000D+00  0.000000D+00
     49   0.000000D+00  0.000000D+00  0.000000D+00  0.000000D+00  0.000000D+00
     50   0.000000D+00  0.000000D+00  0.000000D+00  0.000000D+00  0.000000D+00
     51   0.000000D+00  0.000000D+00  0.000000D+00  0.000000D+00  0.000000D+00
     52   0.000000D+00  0.000000D+00  0.000000D+00  0.000000D+00  0.000000D+00
     53   0.000000D+00  0.000000D+00  0.000000D+00  0.000000D+00  0.000000D+00
     54   0.000000D+00  0.000000D+00  0.000000D+00  0.000000D+00  0.000000D+00
     55   0.000000D+00  0.000000D+00  0.000000D+00  0.000000D+00  0.000000D+00
     56   0.000000D+00  0.000000D+00  0.000000D+00  0.000000D+00  0.000000D+00
     57   0.000000D+00  0.000000D+00  0.000000D+00  0.000000D+00  0.000000D+00
     58   0.000000D+00  0.000000D+00  0.000000D+00  0.000000D+00  0.000000D+00
     59   0.000000D+00  0.000000D+00  0.000000D+00  0.000000D+00  0.000000D+00
     60   0.000000D+00  0.000000D+00  0.000000D+00  0.000000D+00  0.000000D+00
     61   0.000000D+00  0.000000D+00  0.000000D+00  0.000000D+00  0.000000D+00
     62   0.000000D+00  0.000000D+00  0.000000D+00  0.000000D+00  0.000000D+00
     63   0.000000D+00  0.000000D+00  0.000000D+00  0.000000D+00  0.000000D+00
     64   0.000000D+00  0.000000D+00  0.000000D+00  0.000000D+00  0.000000D+00
     65   0.000000D+00  0.000000D+00  0.000000D+00  0.000000D+00  0.000000D+00
     66   0.000000D+00  0.000000D+00  0.000000D+00  0.000000D+00  0.000000D+00
     67   0.000000D+00  0.000000D+00  0.000000D+00  0.000000D+00  0.000000D+00
     68   0.000000D+00  0.000000D+00  0.000000D+00  0.000000D+00  0.000000D+00
     69   0.000000D+00  0.000000D+00  0.000000D+00  0.000000D+00  0.000000D+00
[...]
   34    | -0.007812  0.000000 -0.007090 -0.000004 -0.007812  0.000000
         |
   35    | -0.000019 -0.007812 -0.000043 -0.008791 -0.000017 -0.000001
   35    | -0.000019 -0.007812 -0.000043 -0.008791 -0.000017 -0.000001
         |
   36    | -0.000017 -0.007812 -0.000043 -0.008791 -0.000019 -0.000001
   36    | -0.000017 -0.007812 -0.000043 -0.008791 -0.000019 -0.000001
         |

 AB - AA |     35        36
 BA - BB |     35        36
------------------------------
   29    | -0.000019 -0.000016
   29    | -0.000019 -0.000016
         |
   30    | -0.001650 -0.001650
   30    | -0.001650 -0.001650
         |
   31    | -0.000040 -0.000040
   31    | -0.000040 -0.000040
         |
   32    | -0.006055 -0.006055
   32    | -0.006055 -0.006055
         |
   33    | -0.000016 -0.000019
   33    | -0.000016 -0.000019
         |
   34    | -0.000001 -0.000001
   34    | -0.000001 -0.000001
         |
   35    | -0.019895 -0.006232
   35    |  0.000000 -0.006232
         |
   36    | -0.008827 -0.019895
   36    | -0.008827  0.000000
         |

                     Sum of ab pair energies =    -0.239492 A.U.
                     Sum of ba pair energies =    -0.098627 A.U.
                     Sum of aa pair energies =    -0.046577 A.U.
                     Sum of bb pair energies =    -0.046577 A.U.

           Sum of intraorbital pair energies =    -0.140865 A.U.
           Sum of interorbital pair energies =    -0.290409 A.U.
                                                  ----------
                         Total pair energies =    -0.431274 A.U.

                         Single Excitations  =     0.000000 A.U.

                          Total second order =    -0.431274 A.U.

                         E2(CBS) - E2(Dir) =      -0.011706 A.U.

 E2(CBS)=      -0.436780 CBS-Int=       0.005506 OIii=       3.327576

 **********************************************************************

            Population analysis using the SCF density.

 **********************************************************************

 Orbital symmetries:
       Occupied  (SGU) (SGG) (SGU) (SGG) (PIG) (PIG) (PIU) (PIU)
                 (SGG) (SGU) (SGU) (SGG) (PIG) (PIG) (PIU) (PIU)
                 (SGU) (SGG) (DLTU) (DLTU) (DLTG) (DLTG) (PIG)
                 (PIG) (PIU) (PIU) (SGU) (SGG) (SGG) (SGU) (SGG)
                 (PIU) (PIU) (PIG) (PIG) (SGU)
       Virtual   (SGU) (PIU) (PIU) (SGG) (PIG) (PIG) (SGG) (SGU)
                 (PIU) (PIU) (DLTG) (DLTG) (DLTU) (DLTU) (SGG)
                 (SGU) (PIG) (PIG) (SGG) (PIU) (PIU) (PIG) (PIG)
                 (SGG) (PIU) (PIU) (DLTG) (DLTG) (SGU) (DLTU) (DLTU)
                 (DLTG) (DLTG) (SGU) (PIG) (PIG) (PHIU) (PHIU)
                 (SGG) (PHIG) (PHIG) (PIU) (PIU) (DLTU) (DLTU)
                 (SGU) (SGG) (PIG) (PIG) (SGU) (DLTG) (DLTG) (PIU)
                 (PIU) (PHIU) (PHIU) (?A) (?A) (?B) (?B) (SGG)
                 (PHIG) (PHIG) (DLTG) (DLTG) (DLTU) (DLTU) (SGU)
                 (PIU) (PIU) (DLTU) (DLTU) (PIG) (PIG) (SGG) (PIG)
                 (PIG) (DLTG) (DLTG) (PHIU) (PHIU) (PHIG) (PHIG)
                 (SGU) (PIU) (PIU) (SGU) (DLTU) (DLTU) (SGG) (PIG)
                 (PIG) (PIU) (PIU) (SGG) (PIG) (PIG) (DLTG) (DLTG)
                 (PIU) (PIU) (PHIU) (PHIU) (?A) (?A) (?C) (?C)
                 (?D) (?D) (?B) (?B) (SGG) (PHIG) (PHIG) (DLTU)
                 (DLTU) (SGU) (SGU) (SGG) (PIG) (PIG) (SGU) (PHIU)
                 (PHIU) (DLTG) (DLTG) (?A) (?A) (?B) (?B) (PHIG)
                 (PHIG) (PIU) (PIU) (DLTG) (DLTG) (SGG) (PIU) (PIU)
                 (DLTU) (DLTU) (DLTU) (DLTU) (SGU) (PIG) (PIG)
                 (SGG) (PIG) (PIG) (DLTG) (DLTG) (PHIU) (PHIU)
                 (PHIG) (PHIG) (PIU) (PIU) (DLTU) (DLTU) (SGU)
                 (SGG) (PIG) (PIG) (SGU) (DLTG) (DLTG) (PIU) (PIU)
                 (PHIU) (PHIU) (?A) (?A) (?C) (?C) (?E) (?E) (?F)
                 (?F) (?D) (?D) (?B) (?B) (PHIG) (PHIG) (SGG) (DLTU)
                 (DLTU) (PIG) (PIG) (SGU) (PIU) (PIU) (PIG) (PIG)
                 (SGG) (DLTG) (DLTG) (PHIU) (PHIU) (?A) (?A) (PIU)
                 (PIU) (?C) (?C) (?D) (?D) (?B) (?B) (PHIG) (PHIG)
                 (SGG) (DLTU) (DLTU) (SGU) (PIG) (PIG) (SGU) (PHIU)
                 (PHIU) (DLTG) (DLTG) (?A) (?A) (?B) (?B) (PHIG)
                 (PHIG) (PIU) (PIU) (DLTU) (DLTU) (SGU) (SGG) (PIG)
                 (PIG) (DLTG) (DLTG) (PHIU) (PHIU) (PHIG) (PHIG)
                 (DLTG) (DLTG) (DLTU) (DLTU) (PIU) (PIU) (PIU)
                 (PIU) (SGU) (DLTU) (DLTU) (SGG) (SGU) (PIG) (PIG)
                 (PIG) (PIG) (SGG) (SGG) (SGU) (PIU) (PIU) (DLTG)
                 (DLTG) (SGG) (PHIU) (PHIU) (?A) (?A) (?C) (?C)
                 (?E) (?E) (?F) (?F) (?D) (?D) (?B) (?B) (PHIG)
                 (PHIG) (DLTU) (DLTU) (PIG) (PIG) (SGU) (DLTG)
                 (DLTG) (PHIU) (PHIU) (?A) (?A) (?C) (?C) (?D)
                 (?D) (PIU) (PIU) (?B) (?B) (SGG) (PHIG) (PHIG)
                 (DLTU) (DLTU) (PIG) (PIG) (PHIU) (PHIU) (SGU)
                 (DLTG) (DLTG) (?A) (?A) (?B) (?B) (PHIG) (PHIG)
                 (PIU) (PIU) (DLTU) (DLTU) (SGG) (SGU) (PIG) (PIG)
                 (PIU) (PIU) (PIG) (PIG) (SGG) (SGU) (DLTG) (DLTG)
                 (PHIU) (PHIU) (PHIG) (PHIG) (PIU) (PIU) (DLTU)
                 (DLTU) (PIG) (PIG) (SGU) (SGG) (DLTG) (DLTG) (PIU)
                 (PIU) (DLTU) (DLTU) (SGU) (PIG) (PIG) (SGG) (?G)
                 (?G) (?H) (?H) (?E) (?E) (?F) (?F) (?C) (?C) (?D)
                 (?D) (?A) (?A) (?B) (?B) (PHIU) (PHIU) (PHIG)
                 (PHIG) (DLTG) (DLTG) (DLTU) (DLTU) (PIU) (PIU)
                 (SGG) (PIG) (PIG) (SGU) (SGG) (SGU) (PHIU) (PHIU)
                 (DLTG) (DLTG) (?A) (?A) (?B) (?B) (PHIG) (PHIG)
                 (PIU) (PIU) (DLTU) (DLTU) (SGG) (SGU) (PIG) (PIG)
                 (DLTG) (DLTG) (PIU) (PIU) (PHIU) (PHIU) (?A) (?A)
                 (?C) (?C) (?E) (?E) (?F) (?F) (?D) (?D) (?B) (?B)
                 (SGG) (PHIG) (PHIG) (DLTU) (DLTU) (PIG) (PIG)
                 (SGU) (DLTG) (DLTG) (PHIU) (PHIU) (?A) (?A) (?C)
                 (?C) (?D) (?D) (?B) (?B) (PIU) (PIU) (PHIG) (PHIG)
                 (DLTU) (DLTU) (SGG) (SGU) (PIG) (PIG) (DLTG) (DLTG)
                 (PHIU) (PHIU) (PHIG) (PHIG) (PIU) (PIU) (DLTU)
                 (DLTU) (SGG) (PIG) (PIG) (SGU) (PIU) (PIU) (PIG)
                 (PIG) (SGG) (SGU) (DLTG) (DLTG) (PIU) (PIU) (DLTU)
                 (DLTU) (PIG) (PIG) (SGU) (SGG) (SGG) (SGU) (PIU)
                 (PIU) (PIG) (PIG) (SGG) (SGU) (SGG) (SGU)
 The electronic state is 1-SGG.
 Alpha  occ. eigenvalues -- -520.16508-520.16508 -69.90271 -69.90271 -63.00942
 Alpha  occ. eigenvalues --  -63.00942 -63.00942 -63.00942 -63.00941 -63.00941
 Alpha  occ. eigenvalues --  -10.84911 -10.84911  -8.33115  -8.33115  -8.33115
 Alpha  occ. eigenvalues --   -8.33115  -8.33113  -8.33113  -3.82490  -3.82490
 Alpha  occ. eigenvalues --   -3.82490  -3.82490  -3.82487  -3.82487  -3.82487
 Alpha  occ. eigenvalues --   -3.82487  -3.82486  -3.82485  -1.15375  -1.15189
 Alpha  occ. eigenvalues --   -0.53363  -0.52540  -0.52540  -0.52267  -0.52267
 Alpha  occ. eigenvalues --   -0.51475
 Alpha virt. eigenvalues --    0.06033   0.07654   0.07654   0.09041   0.09914
 Alpha virt. eigenvalues --    0.09914   0.10337   0.17884   0.20804   0.20804
 Alpha virt. eigenvalues --    0.21098   0.21098   0.24218   0.24218   0.25509
 Alpha virt. eigenvalues --    0.28288   0.29805   0.29805   0.43552   0.45032
 Alpha virt. eigenvalues --    0.45032   0.47909   0.47909   0.51067   0.51758
 Alpha virt. eigenvalues --    0.51758   0.52323   0.52323   0.53977   0.53986
 Alpha virt. eigenvalues --    0.53986   0.54074   0.54074   0.55796   0.56226
 Alpha virt. eigenvalues --    0.56226   0.56702   0.56702   0.57541   0.58642
 Alpha virt. eigenvalues --    0.58642   0.58795   0.58795   0.64110   0.64110
 Alpha virt. eigenvalues --    0.69732   0.75836   0.76350   0.76350   0.89854
 Alpha virt. eigenvalues --    0.99001   0.99001   1.01005   1.01005   1.02564
 Alpha virt. eigenvalues --    1.02564   1.05191   1.05191   1.05809   1.05809
 Alpha virt. eigenvalues --    1.05966   1.08436   1.08436   1.14899   1.14899
 Alpha virt. eigenvalues --    1.15788   1.15788   1.16682   1.16704   1.16704
 Alpha virt. eigenvalues --    1.16823   1.16823   1.17802   1.17802   1.18230
 Alpha virt. eigenvalues --    1.28518   1.28518   1.33879   1.33879   1.34244
 Alpha virt. eigenvalues --    1.34244   1.35594   1.35594   1.35641   1.38912
 Alpha virt. eigenvalues --    1.38912   1.39866   1.40232   1.40232   1.42980
 Alpha virt. eigenvalues --    1.45441   1.45441   1.50722   1.50722   1.59019
 Alpha virt. eigenvalues --    1.61113   1.61113   1.70544   1.70544   1.72423
 Alpha virt. eigenvalues --    1.72423   1.74364   1.74364   1.77454   1.77454
 Alpha virt. eigenvalues --    1.78132   1.78132   1.78227   1.78227   1.78893
 Alpha virt. eigenvalues --    1.78893   1.81729   1.82338   1.82338   1.91168
 Alpha virt. eigenvalues --    1.91168   1.91732   1.95122   1.98899   2.03729
 Alpha virt. eigenvalues --    2.03729   2.23620   2.28893   2.28893   2.29146
 Alpha virt. eigenvalues --    2.29146   2.30564   2.30564   2.31114   2.31114
 Alpha virt. eigenvalues --    2.33405   2.33405   2.36223   2.36223   2.37577
 Alpha virt. eigenvalues --    2.37577   2.38313   2.39174   2.39174   2.39309
 Alpha virt. eigenvalues --    2.39309   2.40498   2.40498   2.40634   2.40674
 Alpha virt. eigenvalues --    2.40674   2.50607   2.56068   2.56068   2.58386
 Alpha virt. eigenvalues --    2.58386   2.58609   2.58609   2.59695   2.59695
 Alpha virt. eigenvalues --    2.62780   2.62780   2.63792   2.63792   2.64217
 Alpha virt. eigenvalues --    2.70917   2.73976   2.73976   2.79894   2.80472
 Alpha virt. eigenvalues --    2.80472   2.81140   2.81140   2.83317   2.83317
 Alpha virt. eigenvalues --    2.85345   2.85345   2.85942   2.85942   2.86021
 Alpha virt. eigenvalues --    2.86021   2.86028   2.86028   2.86100   2.86100
 Alpha virt. eigenvalues --    2.86704   2.86704   2.89389   2.89389   2.90250
 Alpha virt. eigenvalues --    2.97306   2.97306   3.13055   3.13055   3.22445
 Alpha virt. eigenvalues --    3.62858   3.62858   3.67169   3.67169   3.69241
 Alpha virt. eigenvalues --    3.78352   3.78352   3.79672   3.79672   3.81837
 Alpha virt. eigenvalues --    3.81837   3.82168   3.82168   3.82386   3.82386
 Alpha virt. eigenvalues --    3.82467   3.82467   3.83032   3.83032   3.85932
 Alpha virt. eigenvalues --    3.85932   3.91469   3.93633   3.93633   3.98973
 Alpha virt. eigenvalues --    4.05687   4.05687   4.15453   4.18800   4.18800
 Alpha virt. eigenvalues --    4.19599   4.19599   4.19956   4.19956   4.20417
 Alpha virt. eigenvalues --    4.20417   4.22478   4.22478   4.27999   4.27999
 Alpha virt. eigenvalues --    4.30114   4.30114   4.35256   4.38372   4.47205
 Alpha virt. eigenvalues --    4.47205   4.65493   4.65493   4.65826   4.65826
 Alpha virt. eigenvalues --    4.66785   4.66785   4.69525   4.69525   4.69638
 Alpha virt. eigenvalues --    4.69638   4.70720   4.70720   4.70953   4.70953
 Alpha virt. eigenvalues --    4.71552   4.71925   4.71925   4.74788   4.77538
 Alpha virt. eigenvalues --    4.78496   4.78496   4.81379   4.81379   4.87851
 Alpha virt. eigenvalues --    4.96185   5.51725   6.23254   6.23254   6.23517
 Alpha virt. eigenvalues --    6.23517   6.25208   6.25353   6.25353   6.26692
 Alpha virt. eigenvalues --    6.26692   6.27072   6.27072   6.27119   6.27119
 Alpha virt. eigenvalues --    6.27123   6.27123   6.27171   6.27171   6.27559
 Alpha virt. eigenvalues --    6.27559   6.29231   6.29231   6.33718   6.33718
 Alpha virt. eigenvalues --    6.41444   6.41444   6.45615   7.09299   7.09299
 Alpha virt. eigenvalues --    7.10072   7.10072   7.11759   7.11759   7.12181
 Alpha virt. eigenvalues --    7.12181   7.12244   7.12244   7.12332   7.12332
 Alpha virt. eigenvalues --    7.12680   7.12680   7.14659   7.14794   7.14794
 Alpha virt. eigenvalues --    7.19401   7.19401   7.25399   7.25399   7.29197
 Alpha virt. eigenvalues --    7.29197   7.29449   7.29771   7.29771   7.30142
 Alpha virt. eigenvalues --    7.30142   7.30540   7.30540   7.32461   7.32461
 Alpha virt. eigenvalues --    7.37934   7.37934   7.40592   7.40592   7.40665
 Alpha virt. eigenvalues --    7.44631   7.55277   7.55277   7.67782   7.67782
 Alpha virt. eigenvalues --    7.77881   7.77881   7.93280   8.22511   8.72283
 Alpha virt. eigenvalues --    8.72283   8.72596   8.72596   8.73446   8.73446
 Alpha virt. eigenvalues --    8.76133   8.76133   8.76213   8.76213   8.82728
 Alpha virt. eigenvalues --    8.82728   8.83956   8.87228   9.26093   9.26093
 Alpha virt. eigenvalues --    9.27378   9.27378   9.27754   9.27754   9.33160
 Alpha virt. eigenvalues --    9.33474   9.33474   9.38900  10.00113  10.00113
 Alpha virt. eigenvalues --   10.00113  10.00113  10.00115  10.00115  10.00115
 Alpha virt. eigenvalues --   10.00115  10.00116  10.00116  10.00116  10.00116
 Alpha virt. eigenvalues --   10.00117  10.00117  10.00117  10.00117  10.00117
 Alpha virt. eigenvalues --   10.00117  10.00117  10.00117  10.00119  10.00119
 Alpha virt. eigenvalues --   10.00123  10.00123  10.00124  10.00124  10.00126
 Alpha virt. eigenvalues --   10.00190  10.00190  10.00262  10.64466  11.08511
 Alpha virt. eigenvalues --   12.11485  12.11485  12.11979  12.11979  12.12453
 Alpha virt. eigenvalues --   12.12453  12.12787  12.12787  12.14072  12.14072
 Alpha virt. eigenvalues --   12.17062  12.17062  12.17478  12.17478  12.20184
 Alpha virt. eigenvalues --   12.21056  12.22450  12.22450  12.40910  12.40910
 Alpha virt. eigenvalues --   12.41115  12.41115  12.42197  12.42197  12.43013
 Alpha virt. eigenvalues --   12.43013  12.43234  12.43234  12.43258  12.43258
 Alpha virt. eigenvalues --   12.43260  12.43260  12.43290  12.43290  12.43518
 Alpha virt. eigenvalues --   12.43518  12.43545  12.44508  12.44508  12.46905
 Alpha virt. eigenvalues --   12.46905  12.49589  12.49589  12.50609  12.65892
 Alpha virt. eigenvalues --   12.65892  12.66530  12.66530  12.67675  12.67675
 Alpha virt. eigenvalues --   12.67982  12.67982  12.68028  12.68028  12.68363
 Alpha virt. eigenvalues --   12.68363  12.69462  12.69462  12.70276  12.70276
 Alpha virt. eigenvalues --   12.77259  12.77259  12.77918  12.93782  12.94642
 Alpha virt. eigenvalues --   12.94642  15.50816  15.50816  15.51111  15.51111
 Alpha virt. eigenvalues --   15.51851  15.51851  15.54007  15.54007  15.54234
 Alpha virt. eigenvalues --   15.54234  15.55990  15.57348  15.57348  15.60161
 Alpha virt. eigenvalues --   15.63945  15.63945  15.71053  15.71053  15.85883
 Alpha virt. eigenvalues --   16.14882  18.83279  18.83279  18.84353  18.84353
 Alpha virt. eigenvalues --   18.84735  18.84735  18.89549  18.89549  18.91131
 Alpha virt. eigenvalues --   18.93172  23.95302  24.36086  34.58460  34.58460
 Alpha virt. eigenvalues --   34.62945  34.62945  34.72109  35.07848 715.55288
 Alpha virt. eigenvalues --  716.22113
          Condensed to atoms (all electrons):
              1          2
     1  Kr  36.002872  -0.002872
     2  Kr  -0.002872  36.002872
          Atomic-Atomic Spin Densities.
              1          2
     1  Kr   0.000000   0.000000
     2  Kr   0.000000   0.000000
 Mulliken charges and spin densities:
              1          2
     1  Kr   0.000000   0.000000
     2  Kr   0.000000   0.000000
 Sum of Mulliken charges =   0.00000 spin densities =   0.000000
 Mulliken charges and spin densities with hydrogens summed into heavy atoms:
              1          2
     1  Kr   0.000000   0.000000
     2  Kr   0.000000   0.000000
 Sum of Mulliken charges with hydrogens summed into heavy atoms =   0.00000 spin densities =   0.000000
 Electronic spatial extent (au):  <R**2>=           1107.9942
 Charge=              0.0000 electrons
 Dipole moment (field-independent basis, Debye):
    X=              0.0000    Y=              0.0000    Z=              0.0000  Tot=              0.0000
 Quadrupole moment (field-independent basis, Debye-Ang):
   XX=            -35.4407   YY=            -35.4407   ZZ=            -35.5324
   XY=              0.0000   XZ=              0.0000   YZ=              0.0000
 Traceless Quadrupole moment (field-independent basis, Debye-Ang):
   XX=              0.0306   YY=              0.0306   ZZ=             -0.0611
   XY=              0.0000   XZ=              0.0000   YZ=              0.0000
 Octapole moment (field-independent basis, Debye-Ang**2):
  XXX=              0.0000  YYY=              0.0000  ZZZ=              0.0000  XYY=              0.0000
  XXY=              0.0000  XXZ=              0.0000  XZZ=              0.0000  YZZ=              0.0000
  YYZ=              0.0000  XYZ=              0.0000
 Hexadecapole moment (field-independent basis, Debye-Ang**3):
 XXXX=            -37.0162 YYYY=            -37.0162 ZZZZ=           -888.8990 XXXY=              0.0000
 XXXZ=              0.0000 YYYX=              0.0000 YYYZ=              0.0000 ZZZX=              0.0000
 ZZZY=              0.0000 XXYY=            -12.3387 XXZZ=           -154.2241 YYZZ=           -154.2241
 XXYZ=              0.0000 YYXZ=              0.0000 ZZXY=              0.0000
 N-N= 1.714191317568D+02 E-N=-2.026203472682D+04  KE= 8.256177803642D+03
                          Isotropic Fermi Contact Couplings
        Atom                 a.u.       MegaHertz       Gauss      10(-4) cm-1
     1  Kr(83)             0.00000       0.00000       0.00000       0.00000
     2  Kr(83)             0.00000       0.00000       0.00000       0.00000
 --------------------------------------------------------
       Center         ----  Spin Dipole Couplings  ----
                      3XX-RR        3YY-RR        3ZZ-RR
 --------------------------------------------------------
     1   Atom        0.000000      0.000000      0.000000
     2   Atom        0.000000      0.000000      0.000000
 --------------------------------------------------------
                        XY            XZ            YZ
 --------------------------------------------------------
     1   Atom        0.000000      0.000000      0.000000
     2   Atom        0.000000      0.000000      0.000000
 --------------------------------------------------------


 ---------------------------------------------------------------------------------
              Anisotropic Spin Dipole Couplings in Principal Axis System
 ---------------------------------------------------------------------------------

       Atom             a.u.   MegaHertz   Gauss  10(-4) cm-1        Axes

              Baa     0.0000     0.000     0.000     0.000  1.0000  0.0000  0.0000
     1 Kr(83) Bbb     0.0000     0.000     0.000     0.000  0.0000  1.0000  0.0000
              Bcc     0.0000     0.000     0.000     0.000  0.0000  0.0000  1.0000
 
              Baa     0.0000     0.000     0.000     0.000  1.0000  0.0000  0.0000
     2 Kr(83) Bbb     0.0000     0.000     0.000     0.000  0.0000  1.0000  0.0000
              Bcc     0.0000     0.000     0.000     0.000  0.0000  0.0000  1.0000
 

 ---------------------------------------------------------------------------------


 Test job not archived.
 1\1\GINC-C31\SP\ROMP2-RW\Gen\Kr2\GPETERSSON\15-Jun-2013\0\\# ROMP2(RW)
  Gen GFinput Int=NoBasisTransform Int(Grid=Ultrafine) IOp(3/32=2,5/6=1
 0,8/11=1,9/33=1) Maxdisk=128GB CBSextrapolate(Nmin=25,MinPop)\\Kr2\\0,
 1\Kr\Kr,1,4.0008\\Version=EM64L-GDVRevH.12\State=1-SGG\HF=-5504.109263
 5\MP2=-5504.5343377\E2(CBS)=-0.4367804\CBS-Int=-0.4312744\OIii=3.32757
 65\RMSD=1.860e-11\PG=D*H [C*(Kr1.Kr1)]\\@


 "I COULD HAVE DONE IT IN A MUCH MORE COMPLICATED WAY"
 SAID THE RED QUEEN, IMMENSELY PROUD.

                                      -- LEWIS CARROLL
 Job cpu time:  2 days  9 hours 24 minutes 47.4 seconds.
 File lengths (MBytes):  RWF=  13871 Int=      0 D2E=      0 Chk=     23 Scr=      1
 Normal termination of Gaussian DV at Sat Jun 15 06:20:41 2013.
