 Entering Gaussian System, Link 0=gdv
 AtFile(1): 6ZaPa-NR.gbs
 Initial command:
 /share/apps/gaussian/gdvh12/gdv/l1.exe /localscratch/940766/Gau-31321.inp -scrdir=/localscratch/940766/
 Entering Link 1 = /share/apps/gaussian/gdvh12/gdv/l1.exe PID=     31323.
  
 Copyright (c) 1988,1990,1992,1993,1995,1998,2003,2009,2011,
            Gaussian, Inc.  All Rights Reserved.
  
 This is the private, development version of
 the Gaussian(R) DV system of programs. It is based on
 the Gaussian(R) 09 system (copyright 2009, Gaussian, Inc.),
 the Gaussian(R) 03 system (copyright 2003, Gaussian, Inc.),
 the Gaussian(R) 98 system (copyright 1998, Gaussian, Inc.),
 the Gaussian(R) 94 system (copyright 1995, Gaussian, Inc.),
 the Gaussian 92(TM) system (copyright 1992, Gaussian, Inc.),
 the Gaussian 90(TM) system (copyright 1990, Gaussian, Inc.),
 the Gaussian 88(TM) system (copyright 1988, Gaussian, Inc.),
 the Gaussian 86(TM) system (copyright 1986, Carnegie Mellon
 University), and the Gaussian 82(TM) system (copyright 1983,
 Carnegie Mellon University). Gaussian is a federally registered
 trademark of Gaussian, Inc.
  
 This software contains proprietary and confidential information,
 including trade secrets, belonging to Gaussian, Inc.
  
 This software is provided under written license and may be
 used, copied, transmitted, or stored only in accord with that
 written license.
  
 The following legend is applicable only to US Government
 contracts under FAR:
  
                    RESTRICTED RIGHTS LEGEND
  
 Use, reproduction and disclosure by the US Government is
 subject to restrictions as set forth in subparagraphs (a)
 and (c) of the Commercial Computer Software - Restricted
 Rights clause in FAR 52.227-19.
  
 Gaussian, Inc.
 340 Quinnipiac St., Bldg. 40, Wallingford CT 06492
  
  
 ---------------------------------------------------------------
 Warning -- This program may not be used in any manner that
 competes with the business of Gaussian, Inc. or will provide
 assistance to any competitor of Gaussian, Inc.  The licensee
 of this program is prohibited from giving any competitor of
 Gaussian, Inc. access to this program.  By using this program,
 the user acknowledges that Gaussian, Inc. is engaged in the
 business of creating and licensing software in the field of
 computational chemistry and represents and warrants to the
 licensee that it is not a competitor of Gaussian, Inc. and that
 it will not use this program in any manner prohibited above.
 ---------------------------------------------------------------
  

 Cite this work as:
 Gaussian Development Version, Revision H.12,
 M. J. Frisch, G. W. Trucks, H. B. Schlegel, G. E. Scuseria, 
 M. A. Robb, J. R. Cheeseman, G. Scalmani, V. Barone, B. Mennucci, 
 G. A. Petersson, H. Nakatsuji, M. Caricato, X. Li, H. P. Hratchian, 
 A. F. Izmaylov, J. Bloino, G. Zheng, J. L. Sonnenberg, M. Hada, 
 M. Ehara, K. Toyota, R. Fukuda, J. Hasegawa, M. Ishida, T. Nakajima, 
 Y. Honda, O. Kitao, H. Nakai, T. Vreven, J. A. Montgomery, Jr., 
 J. E. Peralta, F. Ogliaro, M. Bearpark, J. J. Heyd, E. Brothers, 
 K. N. Kudin, V. N. Staroverov, T. Keith, R. Kobayashi, J. Normand, 
 K. Raghavachari, A. Rendell, J. C. Burant, S. S. Iyengar, J. Tomasi, 
 M. Cossi, N. Rega, J. M. Millam, M. Klene, J. E. Knox, J. B. Cross, 
 V. Bakken, C. Adamo, J. Jaramillo, R. Gomperts, R. E. Stratmann, 
 O. Yazyev, A. J. Austin, R. Cammi, C. Pomelli, J. W. Ochterski, 
 R. L. Martin, K. Morokuma, V. G. Zakrzewski, G. A. Voth, 
 P. Salvador, J. J. Dannenberg, S. Dapprich, P. V. Parandekar, 
 N. J. Mayhall, A. D. Daniels, O. Farkas, J. B. Foresman, 
 J. V. Ortiz, J. Cioslowski, and D. J. Fox, 
 Gaussian, Inc., Wallingford CT, 2010.
 
 ******************************************
 Gaussian DV:  EM64L-GDVRevH.12  9-Jun-2011
                14-Jun-2013 
 ******************************************
 % Mem=12GB
 % Nproc=8
 Will use up to    8 processors via shared memory.
 ----------------------------------------------------------------------
 # ROMP2(RW) Gen GFinput Int=NoBasisTransform Int(Grid=Ultrafine) IOp(3
 /32=2,5/6=10,8/11=1,9/33=1) Maxdisk=128GB CBSextrapolate(Nmin=20,MinPo
 p)
 ----------------------------------------------------------------------
 1/38=1/1;
 2/12=2,17=6,18=5,40=1/2;
 3/5=7,11=2,16=1,24=10,25=1,30=1,32=2,60=-1,75=-5,116=101/1,2,3;
 4//1;
 5/5=2,6=10,38=5/2;
 8/5=-1,10=91,11=1/1;
 9/16=-3,33=1,75=2,81=20,83=4/6,4;
 6/7=2,8=2,9=2,10=2/1;
 99/5=1,9=1/99;
 ---
 Kr2
 ---
 Charge =  0 Multiplicity = 1
 Symbolic Z-Matrix:
 Kr
 Kr                   1     4.0008 
 
                          Input orientation:                          
 ---------------------------------------------------------------------
 Center     Atomic      Atomic             Coordinates (Angstroms)
 Number     Number       Type             X           Y           Z
 ---------------------------------------------------------------------
      1         36           0        0.000000    0.000000    0.000000
      2         36           0        0.000000    0.000000    4.000800
 ---------------------------------------------------------------------
 Stoichiometry    Kr2
 Framework group  D*H[C*(Kr.Kr)]
 Deg. of freedom     1
 Full point group                 D*H     NOp   8
 Largest Abelian subgroup         D2H     NOp   8
 Largest concise Abelian subgroup C2      NOp   2
                         Standard orientation:                         
 ---------------------------------------------------------------------
 Center     Atomic      Atomic             Coordinates (Angstroms)
 Number     Number       Type             X           Y           Z
 ---------------------------------------------------------------------
      1         36           0        0.000000    0.000000    2.000400
      2         36           0        0.000000    0.000000   -2.000400
 ---------------------------------------------------------------------
 Rotational constants (GHZ):      0.0000000      0.7525442      0.7525442
 General basis read from cards:  (5D, 7F)
 AO basis set in the form of general basis input (Overlap normalization):
      1 0
 S  17 1.00       0.000000000000
      0.6187075186D+08  0.6253560742D-06
      0.1158585253D+08  0.3906861679D-05
      0.2651378308D+07  0.2223003982D-04
      0.7175627094D+06  0.1009300320D-03
      0.2231907417D+06  0.3900376540D-03
      0.7783865726D+05  0.1315377482D-02
      0.2980119688D+05  0.3976309587D-02
      0.1230268751D+05  0.1095968648D-01
      0.5394434299D+04  0.2780753243D-01
      0.2480943327D+04  0.6465145765D-01
      0.1184411290D+04  0.1345975655D+00
      0.5819527810D+03  0.2372924966D+00
      0.2922152740D+03  0.3164195936D+00
      0.1490647060D+03  0.2560665665D+00
      0.7685591700D+02  0.8753864736D-01
      0.3986409200D+02  0.7028992026D-02
      0.2070658100D+02  0.9692627340D-03
 S  13 1.00       0.000000000000
      0.1230268751D+05 -0.3626682111D-04
      0.5394434299D+04 -0.2024484390D-03
      0.2480943327D+04 -0.1118473119D-02
      0.1184411290D+04 -0.5118887698D-02
      0.5819527810D+03 -0.1914575462D-01
      0.2922152740D+03 -0.5598702944D-01
      0.1490647060D+03 -0.9332026025D-01
      0.7685591700D+02 -0.3502296975D-03
      0.3986409200D+02  0.3417112078D+00
      0.2070658100D+02  0.5246069400D+00
      0.1071953100D+02  0.2262482695D+00
      0.5501139000D+01  0.2283291325D-01
      0.2781044000D+01  0.2328450532D-02
 P  15 1.00       0.000000000000
      0.8247109727D+05  0.8631380793D-05
      0.2164662685D+05  0.6996707562D-04
      0.6885285237D+04  0.4480550587D-03
      0.2550539381D+04  0.2165975910D-02
      0.1063711525D+04  0.8409358086D-02
      0.4854246510D+03  0.2689237889D-01
      0.2367141530D+03  0.7213527070D-01
      0.1209639960D+03  0.1584964029D+00
      0.6375616900D+02  0.2718549516D+00
      0.3421839600D+02  0.3320968983D+00
      0.1850933900D+02  0.2324436592D+00
      0.1000637200D+02  0.7226412224D-01
      0.5368693000D+01  0.8362407333D-02
      0.2840941000D+01  0.1031307714D-02
      0.1473839000D+01  0.2046575921D-03
 S  10 1.00       0.000000000000
      0.1490647060D+03  0.2646342322D-02
      0.7685591700D+02  0.1770245353D-02
      0.3986409200D+02 -0.4397732184D-01
      0.2070658100D+02 -0.1941841605D+00
      0.1071953100D+02 -0.1022281387D+00
      0.5501139000D+01  0.4136923230D+00
      0.2781044000D+01  0.6221257540D+00
      0.1374553000D+01  0.1833252007D+00
      0.6581660000D+00  0.3966497766D-02
      0.3019280000D+00  0.2281464651D-02
 P  12 1.00       0.000000000000
      0.4854246510D+03 -0.2006293096D-03
      0.2367141530D+03 -0.1089339968D-02
      0.1209639960D+03 -0.5046785897D-02
      0.6375616900D+02 -0.1378253060D-01
      0.3421839600D+02 -0.2493221363D-01
      0.1850933900D+02  0.2256908258D-01
      0.1000637200D+02  0.1953455720D+00
      0.5368693000D+01  0.3880247621D+00
      0.2840941000D+01  0.3680567925D+00
      0.1473839000D+01  0.1315394059D+00
      0.7448590000D+00  0.1205246222D-01
      0.3640640000D+00  0.1062753974D-02
 D  14 1.00       0.000000000000
      0.3334116352D+04  0.1658654757D-04
      0.1024498535D+04  0.1714262146D-03
      0.3951489390D+03  0.1106681526D-02
      0.1766620450D+03  0.5075443095D-02
      0.8657868000D+02  0.1788955708D-01
      0.4483259000D+02  0.4965411654D-01
      0.2398493800D+02  0.1136208077D+00
      0.1308724400D+02  0.2023772205D+00
      0.7224720000D+01  0.2713689941D+00
      0.4003043000D+01  0.2852225707D+00
      0.2198180000D+01  0.2178276151D+00
      0.1170201000D+01  0.1006138103D+00
      0.5824460000D+00  0.2108439538D-01
      0.2565160000D+00  0.1656338798D-02
 S   8 1.00       0.000000000000
      0.2070658100D+02  0.4344146856D-02
      0.1071953100D+02 -0.4580260425D-03
      0.5501139000D+01 -0.1361497697D-01
      0.2781044000D+01 -0.1871578196D+00
      0.1374553000D+01 -0.1465211468D+00
      0.6581660000D+00  0.4152665579D+00
      0.3019280000D+00  0.6172505026D+00
      0.1309310000D+00  0.2066696812D+00
 S   1 1.00       0.000000000000
      0.5677819500D-01  0.1000000000D+01
 P   9 1.00       0.000000000000
      0.1850933900D+02 -0.6928760428D-03
      0.1000637200D+02 -0.5478794357D-02
      0.5368693000D+01 -0.1317730050D-01
      0.2840941000D+01 -0.3992543124D-01
      0.1473839000D+01  0.3893908765D-01
      0.7448590000D+00  0.2760775159D+00
      0.3640640000D+00  0.4198556685D+00
      0.1705940000D+00  0.3267845611D+00
      0.7581100000D-01  0.8755992540D-01
 P   1 1.00       0.000000000000
      0.3368997600D-01  0.1000000000D+01
 S   1 1.00       0.000000000000
      0.4200630000D+01  0.1000000000D+01
 S   1 1.00       0.000000000000
      0.2372755000D+01  0.1000000000D+01
 S   1 1.00       0.000000000000
      0.1340267000D+01  0.1000000000D+01
 S   1 1.00       0.000000000000
      0.7570590000D+00  0.1000000000D+01
 S   1 1.00       0.000000000000
      0.4276300000D+00  0.1000000000D+01
 P   1 1.00       0.000000000000
      0.2622296000D+01  0.1000000000D+01
 P   1 1.00       0.000000000000
      0.1539374000D+01  0.1000000000D+01
 P   1 1.00       0.000000000000
      0.9036630000D+00  0.1000000000D+01
 P   1 1.00       0.000000000000
      0.5304800000D+00  0.1000000000D+01
 P   1 1.00       0.000000000000
      0.3114090000D+00  0.1000000000D+01
 D   1 1.00       0.000000000000
      0.2325740000D+01  0.1000000000D+01
 D   1 1.00       0.000000000000
      0.1236827000D+01  0.1000000000D+01
 D   1 1.00       0.000000000000
      0.6577440000D+00  0.1000000000D+01
 D   1 1.00       0.000000000000
      0.3497880000D+00  0.1000000000D+01
 D   1 1.00       0.000000000000
      0.1860170000D+00  0.1000000000D+01
 D   1 1.00       0.000000000000
      0.9892370000D-01  0.1000000000D+01
 F   1 1.00       0.000000000000
      0.2426315000D+01  0.1000000000D+01
 F   1 1.00       0.000000000000
      0.1246474000D+01  0.1000000000D+01
 F   1 1.00       0.000000000000
      0.6403530000D+00  0.1000000000D+01
 F   1 1.00       0.000000000000
      0.3289700000D+00  0.1000000000D+01
 F   1 1.00       0.000000000000
      0.1690030000D+00  0.1000000000D+01
 G   1 1.00       0.000000000000
      0.1277350000D+01  0.1000000000D+01
 G   1 1.00       0.000000000000
      0.7376390000D+00  0.1000000000D+01
 G   1 1.00       0.000000000000
      0.4259690000D+00  0.1000000000D+01
 G   1 1.00       0.000000000000
      0.2459870000D+00  0.1000000000D+01
 H   1 1.00       0.000000000000
      0.1301934000D+01  0.1000000000D+01
 H   1 1.00       0.000000000000
      0.6637240000D+00  0.1000000000D+01
 H   1 1.00       0.000000000000
      0.3383650000D+00  0.1000000000D+01
 I   1 1.00       0.000000000000
      0.1091489155D+01  0.1000000000D+01
 ****
      2 0
 S  17 1.00       0.000000000000
      0.6187075186D+08  0.6253560742D-06
      0.1158585253D+08  0.3906861679D-05
      0.2651378308D+07  0.2223003982D-04
      0.7175627094D+06  0.1009300320D-03
      0.2231907417D+06  0.3900376540D-03
      0.7783865726D+05  0.1315377482D-02
      0.2980119688D+05  0.3976309587D-02
      0.1230268751D+05  0.1095968648D-01
      0.5394434299D+04  0.2780753243D-01
      0.2480943327D+04  0.6465145765D-01
      0.1184411290D+04  0.1345975655D+00
      0.5819527810D+03  0.2372924966D+00
      0.2922152740D+03  0.3164195936D+00
      0.1490647060D+03  0.2560665665D+00
      0.7685591700D+02  0.8753864736D-01
      0.3986409200D+02  0.7028992026D-02
      0.2070658100D+02  0.9692627340D-03
 S  13 1.00       0.000000000000
      0.1230268751D+05 -0.3626682111D-04
      0.5394434299D+04 -0.2024484390D-03
      0.2480943327D+04 -0.1118473119D-02
      0.1184411290D+04 -0.5118887698D-02
      0.5819527810D+03 -0.1914575462D-01
      0.2922152740D+03 -0.5598702944D-01
      0.1490647060D+03 -0.9332026025D-01
      0.7685591700D+02 -0.3502296975D-03
      0.3986409200D+02  0.3417112078D+00
      0.2070658100D+02  0.5246069400D+00
      0.1071953100D+02  0.2262482695D+00
      0.5501139000D+01  0.2283291325D-01
      0.2781044000D+01  0.2328450532D-02
 P  15 1.00       0.000000000000
      0.8247109727D+05  0.8631380793D-05
      0.2164662685D+05  0.6996707562D-04
      0.6885285237D+04  0.4480550587D-03
      0.2550539381D+04  0.2165975910D-02
      0.1063711525D+04  0.8409358086D-02
      0.4854246510D+03  0.2689237889D-01
      0.2367141530D+03  0.7213527070D-01
      0.1209639960D+03  0.1584964029D+00
      0.6375616900D+02  0.2718549516D+00
      0.3421839600D+02  0.3320968983D+00
      0.1850933900D+02  0.2324436592D+00
      0.1000637200D+02  0.7226412224D-01
      0.5368693000D+01  0.8362407333D-02
      0.2840941000D+01  0.1031307714D-02
      0.1473839000D+01  0.2046575921D-03
 S  10 1.00       0.000000000000
      0.1490647060D+03  0.2646342322D-02
      0.7685591700D+02  0.1770245353D-02
      0.3986409200D+02 -0.4397732184D-01
      0.2070658100D+02 -0.1941841605D+00
      0.1071953100D+02 -0.1022281387D+00
      0.5501139000D+01  0.4136923230D+00
      0.2781044000D+01  0.6221257540D+00
      0.1374553000D+01  0.1833252007D+00
      0.6581660000D+00  0.3966497766D-02
      0.3019280000D+00  0.2281464651D-02
 P  12 1.00       0.000000000000
      0.4854246510D+03 -0.2006293096D-03
      0.2367141530D+03 -0.1089339968D-02
      0.1209639960D+03 -0.5046785897D-02
      0.6375616900D+02 -0.1378253060D-01
      0.3421839600D+02 -0.2493221363D-01
      0.1850933900D+02  0.2256908258D-01
      0.1000637200D+02  0.1953455720D+00
      0.5368693000D+01  0.3880247621D+00
      0.2840941000D+01  0.3680567925D+00
      0.1473839000D+01  0.1315394059D+00
      0.7448590000D+00  0.1205246222D-01
      0.3640640000D+00  0.1062753974D-02
 D  14 1.00       0.000000000000
      0.3334116352D+04  0.1658654757D-04
      0.1024498535D+04  0.1714262146D-03
      0.3951489390D+03  0.1106681526D-02
      0.1766620450D+03  0.5075443095D-02
      0.8657868000D+02  0.1788955708D-01
      0.4483259000D+02  0.4965411654D-01
      0.2398493800D+02  0.1136208077D+00
      0.1308724400D+02  0.2023772205D+00
      0.7224720000D+01  0.2713689941D+00
      0.4003043000D+01  0.2852225707D+00
      0.2198180000D+01  0.2178276151D+00
      0.1170201000D+01  0.1006138103D+00
      0.5824460000D+00  0.2108439538D-01
      0.2565160000D+00  0.1656338798D-02
 S   8 1.00       0.000000000000
      0.2070658100D+02  0.4344146856D-02
      0.1071953100D+02 -0.4580260425D-03
      0.5501139000D+01 -0.1361497697D-01
      0.2781044000D+01 -0.1871578196D+00
      0.1374553000D+01 -0.1465211468D+00
      0.6581660000D+00  0.4152665579D+00
      0.3019280000D+00  0.6172505026D+00
      0.1309310000D+00  0.2066696812D+00
 S   1 1.00       0.000000000000
      0.5677819500D-01  0.1000000000D+01
 P   9 1.00       0.000000000000
      0.1850933900D+02 -0.6928760428D-03
      0.1000637200D+02 -0.5478794357D-02
      0.5368693000D+01 -0.1317730050D-01
      0.2840941000D+01 -0.3992543124D-01
      0.1473839000D+01  0.3893908765D-01
      0.7448590000D+00  0.2760775159D+00
      0.3640640000D+00  0.4198556685D+00
      0.1705940000D+00  0.3267845611D+00
      0.7581100000D-01  0.8755992540D-01
 P   1 1.00       0.000000000000
      0.3368997600D-01  0.1000000000D+01
 S   1 1.00       0.000000000000
      0.4200630000D+01  0.1000000000D+01
 S   1 1.00       0.000000000000
      0.2372755000D+01  0.1000000000D+01
 S   1 1.00       0.000000000000
      0.1340267000D+01  0.1000000000D+01
 S   1 1.00       0.000000000000
      0.7570590000D+00  0.1000000000D+01
 S   1 1.00       0.000000000000
      0.4276300000D+00  0.1000000000D+01
 P   1 1.00       0.000000000000
      0.2622296000D+01  0.1000000000D+01
 P   1 1.00       0.000000000000
      0.1539374000D+01  0.1000000000D+01
 P   1 1.00       0.000000000000
      0.9036630000D+00  0.1000000000D+01
 P   1 1.00       0.000000000000
      0.5304800000D+00  0.1000000000D+01
 P   1 1.00       0.000000000000
      0.3114090000D+00  0.1000000000D+01
 D   1 1.00       0.000000000000
      0.2325740000D+01  0.1000000000D+01
 D   1 1.00       0.000000000000
      0.1236827000D+01  0.1000000000D+01
 D   1 1.00       0.000000000000
      0.6577440000D+00  0.1000000000D+01
 D   1 1.00       0.000000000000
      0.3497880000D+00  0.1000000000D+01
 D   1 1.00       0.000000000000
      0.1860170000D+00  0.1000000000D+01
 D   1 1.00       0.000000000000
      0.9892370000D-01  0.1000000000D+01
 F   1 1.00       0.000000000000
      0.2426315000D+01  0.1000000000D+01
 F   1 1.00       0.000000000000
      0.1246474000D+01  0.1000000000D+01
 F   1 1.00       0.000000000000
      0.6403530000D+00  0.1000000000D+01
 F   1 1.00       0.000000000000
      0.3289700000D+00  0.1000000000D+01
 F   1 1.00       0.000000000000
      0.1690030000D+00  0.1000000000D+01
 G   1 1.00       0.000000000000
      0.1277350000D+01  0.1000000000D+01
 G   1 1.00       0.000000000000
      0.7376390000D+00  0.1000000000D+01
 G   1 1.00       0.000000000000
      0.4259690000D+00  0.1000000000D+01
 G   1 1.00       0.000000000000
      0.2459870000D+00  0.1000000000D+01
 H   1 1.00       0.000000000000
      0.1301934000D+01  0.1000000000D+01
 H   1 1.00       0.000000000000
      0.6637240000D+00  0.1000000000D+01
 H   1 1.00       0.000000000000
      0.3383650000D+00  0.1000000000D+01
 I   1 1.00       0.000000000000
      0.1091489155D+01  0.1000000000D+01
 ****

 There are   107 symmetry adapted cartesian basis functions of AG  symmetry.
 There are    39 symmetry adapted cartesian basis functions of B1G symmetry.
 There are    67 symmetry adapted cartesian basis functions of B2G symmetry.
 There are    67 symmetry adapted cartesian basis functions of B3G symmetry.
 There are    39 symmetry adapted cartesian basis functions of AU  symmetry.
 There are   107 symmetry adapted cartesian basis functions of B1U symmetry.
 There are    67 symmetry adapted cartesian basis functions of B2U symmetry.
 There are    67 symmetry adapted cartesian basis functions of B3U symmetry.
 There are    68 symmetry adapted basis functions of AG  symmetry.
 There are    29 symmetry adapted basis functions of B1G symmetry.
 There are    46 symmetry adapted basis functions of B2G symmetry.
 There are    46 symmetry adapted basis functions of B3G symmetry.
 There are    29 symmetry adapted basis functions of AU  symmetry.
 There are    68 symmetry adapted basis functions of B1U symmetry.
 There are    46 symmetry adapted basis functions of B2U symmetry.
 There are    46 symmetry adapted basis functions of B3U symmetry.
   378 basis functions,  1002 primitive gaussians,   560 cartesian basis functions
    36 alpha electrons       36 beta electrons
       nuclear repulsion energy       171.4191317568 Hartrees.
 NAtoms=    2 NActive=    2 NUniq=    1 SFac= 4.00D+00 NAtFMM=   60 NAOKFM=F Big=F
 Integral buffers will be    131072 words long.
 Raffenetti 2 integral format.
 Two-electron integral symmetry is turned on.
 One-electron integrals computed using PRISM.
 PrsmSu:  requested number of processors reduced to:   4 ShMem   1 Linda.
 NBasis=   378 RedAO= F EigKep=  0.00D+00  NBF=    68    29    46    46    29    68    46    46
 NBsUse=   378 1.00D-04 EigRej=  0.00D+00 NBFU=    68    29    46    46    29    68    46    46
 ExpMin= 3.37D-02 ExpMax= 6.19D+07 ExpMxC= 1.23D+04 IAcc=3 IRadAn=         5 AccDes= 0.00D+00
 Harris functional with IExCor=  205 and IRadAn=       5 diagonalized for initial guess.
 HarFok:  IExCor=  205 AccDes= 0.00D+00 IRadAn=         5 IDoV= 1 UseB2=F ITyADJ=14
 ICtDFT=  3500011 ScaDFX=  1.000000  1.000000  1.000000  1.000000
 FoFCou: FMM=F IPFlag=           0 FMFlag=      100000 FMFlg1=           0
         NFxFlg=           0 DoJE=T BraDBF=F KetDBF=T FulRan=T
         wScrn=  0.000000 ICntrl=     500 IOpCl=  0 I1Cent=   200000004 NGrid=           0
         NMat0=    1 NMatS0=      1 NMatT0=    0 NMatD0=    1 NMtDS0=    0 NMtDT0=    0
 Petite list used in FoFCou.
 DSYEVD returned Info=      108014 IAlg= 4 N=   378 NDim=   378 NE2=     4259208 trying DSYEV.
 Initial guess orbital symmetries:
       Occupied  (SGU) (SGG) (SGU) (SGG) (SGU) (SGG) (PIG) (PIG)
                 (PIU) (PIU) (SGU) (SGG) (SGU) (SGG) (PIG) (PIG)
                 (PIU) (PIU) (SGU) (SGG) (PIG) (PIG) (PIU) (PIU)
                 (DLTU) (DLTG) (DLTU) (DLTG) (SGG) (SGU) (SGG)
                 (PIU) (PIU) (PIG) (PIG) (SGU)
       Virtual   (SGG) (SGU) (PIU) (PIU) (SGG) (PIG) (PIG) (PIU)
                 (PIU) (SGG) (DLTG) (DLTG) (SGU) (DLTU) (DLTU)
                 (PIG) (PIG) (SGU) (SGG) (PIU) (PIU) (PIG) (PIG)
                 (SGU) (DLTG) (DLTG) (SGG) (PIU) (PIU) (DLTU) (DLTU)
                 (DLTG) (DLTG) (PIG) (PIG) (PIU) (PIU) (SGU) (PHIU)
                 (PHIU) (PHIG) (PHIG) (SGG) (DLTU) (DLTU) (PIG)
                 (PIG) (SGU) (SGG) (SGU) (DLTG) (DLTG) (PIU) (PIU)
                 (SGG) (PHIU) (PHIU) (?A) (?A) (?B) (?B) (PHIG)
                 (PHIG) (DLTU) (DLTU) (SGU) (DLTG) (DLTG) (PIG)
                 (PIG) (PIU) (PIU) (DLTU) (DLTU) (SGG) (PIG) (PIG)
                 (DLTG) (DLTG) (PHIU) (PHIU) (PHIG) (PHIG) (SGU)
                 (PIU) (PIU) (DLTU) (DLTU) (SGU) (SGG) (PIG) (PIG)
                 (PIU) (PIU) (SGG) (PIG) (PIG) (PIU) (PIU) (DLTG)
                 (DLTG) (SGG) (PHIU) (PHIU) (?A) (?A) (?C) (?C)
                 (?D) (?D) (?B) (?B) (PHIG) (PHIG) (SGU) (DLTU)
                 (DLTU) (PIG) (PIG) (SGU) (DLTG) (DLTG) (PHIU)
                 (PHIU) (?A) (?A) (?B) (?B) (PHIG) (PHIG) (PIU)
                 (PIU) (SGG) (DLTU) (DLTU) (SGU) (SGG) (PIG) (PIG)
                 (SGU) (DLTG) (DLTG) (PIU) (PIU) (DLTU) (DLTU)
                 (SGG) (DLTG) (DLTG) (PHIU) (PHIU) (PHIG) (PHIG)
                 (PIG) (PIG) (PIU) (PIU) (DLTU) (DLTU) (SGU) (PIG)
                 (PIG) (SGG) (SGU) (PIU) (PIU) (PIG) (PIG) (SGG)
                 (SGU) (DLTG) (DLTG) (PIU) (PIU) (?E) (?E) (?F)
                 (?F) (?F) (?E) (?E) (?D) (?D) (?B) (?B) (PHIG)
                 (PHIG) (DLTU) (DLTU) (PIG) (PIG) (SGU) (DLTG)
                 (DLTG) (PHIU) (PHIU) (?A) (?A) (?B) (?B) (PHIG)
                 (PHIG) (PIU) (PIU) (DLTU) (DLTU) (SGG) (PIG) (PIG)
                 (SGU) (DLTG) (DLTG) (PHIU) (PHIU) (PHIG) (PHIG)
                 (PIU) (PIU) (DLTU) (DLTU) (SGU) (PIG) (PIG) (SGG)
                 (DLTG) (DLTG) (PIU) (PIU) (DLTU) (DLTU) (SGG)
                 (PIG) (PIG) (SGU) (SGG) (SGU) (?G) (?B) (?H) (?H)
                 (?H) (?H) (?H) (?H) (?H) (?H) (?H) (?H) (?H) (?H)
                 (?H) (?H) (?H) (?H) (?H) (?H) (?G) (?B) (?G) (?H)
                 (?H) (SGU) (DLTG) (DLTG) (PHIU) (PHIU) (?A) (?A)
                 (?B) (?B) (PHIG) (PHIG) (PIU) (PIU) (SGU) (DLTU)
                 (DLTU) (SGG) (PIG) (PIG) (PIU) (PIU) (PIG) (PIG)
                 (SGG) (SGU) (DLTG) (DLTG) (PIU) (PIU) (PHIU) (PHIU)
                 (?A) (?A) (?C) (?C) (?D) (?D) (?B) (?B) (PHIG)
                 (PHIG) (SGG) (DLTU) (DLTU) (PIG) (PIG) (SGU) (DLTG)
                 (DLTG) (PHIU) (PHIU) (PHIG) (PHIG) (PIU) (PIU)
                 (DLTU) (DLTU) (SGU) (PIG) (PIG) (SGG) (DLTG) (DLTG)
                 (PIU) (PIU) (DLTU) (DLTU) (SGG) (PIG) (PIG) (SGU)
                 (SGG) (SGU) (PIU) (PIU) (PIG) (PIG) (SGG) (SGU)
                 (SGG) (SGU)
 The electronic state of the initial guess is 1-SGG.
 Requested convergence on RMS density matrix=1.00D-10 within 128 cycles.
 Requested convergence on MAX density matrix=1.00D-08.
 Requested convergence on             energy=1.00D-08.
 No special actions if energy rises.
 Initial convergence to 1.0D-05 achieved.  Increase integral accuracy.
 DSYEVD returned Info=          93 IAlg= 4 N=    46 NDim=   378 NE2=     4258361 trying DSYEV.
 DSYEVD returned Info=          93 IAlg= 4 N=    46 NDim=   378 NE2=     4258361 trying DSYEV.
 SCF Done:  E(ROHF) =  -5504.10920622     A.U. after   13 cycles
            NFock= 13  Conv=0.21D-10     -V/T= 2.0000
 <Sx>= 0.0000 <Sy>= 0.0000 <Sz>= 0.0000 <S**2>= 0.0000 S= 0.0000
 <L.S>= 0.000000000000E+00
 Annihilation of the first spin contaminant:
 S**2 before annihilation     0.0000,   after     0.0000
 GenMOA:  NOpAll=  8 NOp2=8 NOpUse=  8 JSym2X=1
 <Sx>= 0.0000 <Sy>= 0.0000 <Sz>= 0.0000 <S**2>= 0.0000 S= 0.0000
 Range of M.O.s used for correlation:    29   378
 NBasis=   378 NAE=    36 NBE=    36 NFC=    28 NFV=     0
 NROrb=    350 NOA=     8 NOB=     8 NVA=   342 NVB=   342

 **** Warning!!: The largest alpha MO coefficient is  0.78363958D+02


 **** Warning!!: The largest beta MO coefficient is  0.78363958D+02

 Singles contribution to E2=   -0.6347698302D-12
 Disk-based method using OVN memory for  8 occupieds at a time.
 Permanent disk used for amplitudes and <ij||ab> integrals=    21502224 words.
 Estimated scratch disk usage=   540063168 words.
 IUseRI=2 ITolRI= 6 IR12RI=0
 Actual    scratch disk usage=   537436096 words.
 GetIJB would need an additional  1404364159 words of memory to use all   8 processors.
 JobTyp=2 Pass  1:  I=   1 to   8 NPSUse=  1 ParTrn=F ParDer=F DoDerP=F.
 (rs|ai) integrals will be sorted in core.
 T,EIJ(AA): I=   1 J=   2      0.1956866E-06     -0.6910335E-06
 T,EIJ(AA): I=   1 J=   3      0.1764958E-03     -0.6984760E-03
 T,EIJ(AA): I=   1 J=   4      0.1804970E-03     -0.7127751E-03
 T,EIJ(AA): I=   1 J=   5      0.1804970E-03     -0.7127751E-03
 T,EIJ(AA): I=   1 J=   6      0.1810499E-03     -0.7164054E-03
 T,EIJ(AA): I=   1 J=   7      0.1810499E-03     -0.7164054E-03
 T,EIJ(AA): I=   1 J=   8      0.1813742E-03     -0.7216702E-03
 T,EIJ(AA): I=   2 J=   3      0.1864944E-03     -0.7257191E-03
 T,EIJ(AA): I=   2 J=   4      0.1835129E-03     -0.7212506E-03
 T,EIJ(AA): I=   2 J=   5      0.1835129E-03     -0.7212506E-03
 T,EIJ(AA): I=   2 J=   6      0.1840570E-03     -0.7248821E-03
 T,EIJ(AA): I=   2 J=   7      0.1840570E-03     -0.7248821E-03
 T,EIJ(AA): I=   2 J=   8      0.1858916E-03     -0.7352743E-03
 T,EIJ(AA): I=   3 J=   4      0.1166808E-02     -0.3046541E-02
 T,EIJ(AA): I=   3 J=   5      0.1166808E-02     -0.3046541E-02
 T,EIJ(AA): I=   3 J=   6      0.1170033E-02     -0.3065394E-02
 T,EIJ(AA): I=   3 J=   7      0.1170033E-02     -0.3065394E-02
 T,EIJ(AA): I=   3 J=   8      0.4879462E-04     -0.9962761E-04
 T,EIJ(AA): I=   4 J=   5      0.1177076E-02     -0.3083218E-02
 T,EIJ(AA): I=   4 J=   6      0.9909312E-05     -0.1874416E-04
 T,EIJ(AA): I=   4 J=   7      0.1183032E-02     -0.3104423E-02
 T,EIJ(AA): I=   4 J=   8      0.1200790E-02     -0.3160746E-02
 T,EIJ(AA): I=   5 J=   6      0.1183032E-02     -0.3104423E-02
 T,EIJ(AA): I=   5 J=   7      0.9909312E-05     -0.1874416E-04
 T,EIJ(AA): I=   5 J=   8      0.1200790E-02     -0.3160746E-02
 T,EIJ(AA): I=   6 J=   7      0.1192415E-02     -0.3130001E-02
 T,EIJ(AA): I=   6 J=   8      0.1215820E-02     -0.3192773E-02
 T,EIJ(AA): I=   7 J=   8      0.1215820E-02     -0.3192773E-02
 T,EIJ(AB): I=   1 J=   1      0.8555448E-03     -0.4494189E-02
 T,EIJ(AB): I=   1 J=   2      0.8565561E-03     -0.4507257E-02
 T,EIJ(AB): I=   1 J=   3      0.7714572E-03     -0.3619518E-02
 T,EIJ(AB): I=   1 J=   4      0.7842796E-03     -0.3679743E-02
 T,EIJ(AB): I=   1 J=   5      0.7842796E-03     -0.3679743E-02
 T,EIJ(AB): I=   1 J=   6      0.7919528E-03     -0.3714610E-02
 T,EIJ(AB): I=   1 J=   7      0.7919528E-03     -0.3714610E-02
 T,EIJ(AB): I=   1 J=   8      0.8112528E-03     -0.3802731E-02
 T,EIJ(AB): I=   2 J=   1      0.8565561E-03     -0.4507257E-02
 T,EIJ(AB): I=   2 J=   2      0.8623205E-03     -0.4531420E-02
 T,EIJ(AB): I=   2 J=   3      0.7735023E-03     -0.3628885E-02
 T,EIJ(AB): I=   2 J=   4      0.7918491E-03     -0.3707072E-02
 T,EIJ(AB): I=   2 J=   5      0.7918491E-03     -0.3707072E-02
 T,EIJ(AB): I=   2 J=   6      0.7998229E-03     -0.3742737E-02
 T,EIJ(AB): I=   2 J=   7      0.7998229E-03     -0.3742737E-02
 T,EIJ(AB): I=   2 J=   8      0.8172341E-03     -0.3820458E-02
 T,EIJ(AB): I=   3 J=   1      0.7714572E-03     -0.3619518E-02
 T,EIJ(AB): I=   3 J=   2      0.7735023E-03     -0.3628885E-02
 T,EIJ(AB): I=   3 J=   3      0.3250547E-02     -0.9573725E-02
 T,EIJ(AB): I=   3 J=   4      0.1448896E-02     -0.4231093E-02
 T,EIJ(AB): I=   3 J=   5      0.1448896E-02     -0.4231093E-02
 T,EIJ(AB): I=   3 J=   6      0.1437910E-02     -0.4230663E-02
 T,EIJ(AB): I=   3 J=   7      0.1437910E-02     -0.4230663E-02
 T,EIJ(AB): I=   3 J=   8      0.3211955E-02     -0.9701301E-02
 T,EIJ(AB): I=   4 J=   1      0.7842796E-03     -0.3679743E-02
 T,EIJ(AB): I=   4 J=   2      0.7918491E-03     -0.3707072E-02
 T,EIJ(AB): I=   4 J=   3      0.1448896E-02     -0.4231093E-02
 T,EIJ(AB): I=   4 J=   4      0.3219397E-02     -0.9641493E-02
 T,EIJ(AB): I=   4 J=   5      0.1456183E-02     -0.4275729E-02
 T,EIJ(AB): I=   4 J=   6      0.3236460E-02     -0.9713437E-02
 T,EIJ(AB): I=   4 J=   7      0.1464663E-02     -0.4308873E-02
 T,EIJ(AB): I=   4 J=   8      0.1492838E-02     -0.4402058E-02
 T,EIJ(AB): I=   5 J=   1      0.7842796E-03     -0.3679743E-02
 T,EIJ(AB): I=   5 J=   2      0.7918491E-03     -0.3707072E-02
 T,EIJ(AB): I=   5 J=   3      0.1448896E-02     -0.4231093E-02
 T,EIJ(AB): I=   5 J=   4      0.1456183E-02     -0.4275729E-02
 T,EIJ(AB): I=   5 J=   5      0.3219397E-02     -0.9641493E-02
 T,EIJ(AB): I=   5 J=   6      0.1464663E-02     -0.4308873E-02
 T,EIJ(AB): I=   5 J=   7      0.3236460E-02     -0.9713437E-02
 T,EIJ(AB): I=   5 J=   8      0.1492838E-02     -0.4402058E-02
 T,EIJ(AB): I=   6 J=   1      0.7919528E-03     -0.3714610E-02
 T,EIJ(AB): I=   6 J=   2      0.7998229E-03     -0.3742737E-02
 T,EIJ(AB): I=   6 J=   3      0.1437910E-02     -0.4230663E-02
 T,EIJ(AB): I=   6 J=   4      0.3236460E-02     -0.9713437E-02
 T,EIJ(AB): I=   6 J=   5      0.1464663E-02     -0.4308873E-02
 T,EIJ(AB): I=   6 J=   6      0.3264696E-02     -0.9798202E-02
 T,EIJ(AB): I=   6 J=   7      0.1477985E-02     -0.4347661E-02
 T,EIJ(AB): I=   6 J=   8      0.1504294E-02     -0.4430642E-02
 T,EIJ(AB): I=   7 J=   1      0.7919528E-03     -0.3714610E-02
 T,EIJ(AB): I=   7 J=   2      0.7998229E-03     -0.3742737E-02
 T,EIJ(AB): I=   7 J=   3      0.1437910E-02     -0.4230663E-02
 T,EIJ(AB): I=   7 J=   4      0.1464663E-02     -0.4308873E-02
 T,EIJ(AB): I=   7 J=   5      0.3236460E-02     -0.9713437E-02
 T,EIJ(AB): I=   7 J=   6      0.1477985E-02     -0.4347661E-02
 T,EIJ(AB): I=   7 J=   7      0.3264696E-02     -0.9798202E-02
 T,EIJ(AB): I=   7 J=   8      0.1504294E-02     -0.4430642E-02
 T,EIJ(AB): I=   8 J=   1      0.8112528E-03     -0.3802731E-02
 T,EIJ(AB): I=   8 J=   2      0.8172341E-03     -0.3820458E-02
 T,EIJ(AB): I=   8 J=   3      0.3211955E-02     -0.9701301E-02
 T,EIJ(AB): I=   8 J=   4      0.1492838E-02     -0.4402058E-02
 T,EIJ(AB): I=   8 J=   5      0.1492838E-02     -0.4402058E-02
 T,EIJ(AB): I=   8 J=   6      0.1504294E-02     -0.4430642E-02
 T,EIJ(AB): I=   8 J=   7      0.1504294E-02     -0.4430642E-02
 T,EIJ(AB): I=   8 J=   8      0.3353003E-02     -0.1009170E-01
 Actual    scratch disk usage=   537436096 words.
 GetIJB would need an additional  1404364159 words of memory to use all   8 processors.
 JobTyp=3 Pass  1:  I=   1 to   8 NPSUse=  1 ParTrn=F ParDer=F DoDerP=F.
 (rs|ai) integrals will be sorted in core.
 T,EIJ(BB): I=   1 J=   2      0.1956866E-06     -0.6910335E-06
 T,EIJ(BB): I=   1 J=   3      0.1764958E-03     -0.6984760E-03
 T,EIJ(BB): I=   1 J=   4      0.1804970E-03     -0.7127751E-03
 T,EIJ(BB): I=   1 J=   5      0.1804970E-03     -0.7127751E-03
 T,EIJ(BB): I=   1 J=   6      0.1810499E-03     -0.7164054E-03
 T,EIJ(BB): I=   1 J=   7      0.1810499E-03     -0.7164054E-03
 T,EIJ(BB): I=   1 J=   8      0.1813742E-03     -0.7216702E-03
 T,EIJ(BB): I=   2 J=   3      0.1864944E-03     -0.7257191E-03
 T,EIJ(BB): I=   2 J=   4      0.1835129E-03     -0.7212506E-03
 T,EIJ(BB): I=   2 J=   5      0.1835129E-03     -0.7212506E-03
 T,EIJ(BB): I=   2 J=   6      0.1840570E-03     -0.7248821E-03
 T,EIJ(BB): I=   2 J=   7      0.1840570E-03     -0.7248821E-03
 T,EIJ(BB): I=   2 J=   8      0.1858916E-03     -0.7352743E-03
 T,EIJ(BB): I=   3 J=   4      0.1166808E-02     -0.3046541E-02
 T,EIJ(BB): I=   3 J=   5      0.1166808E-02     -0.3046541E-02
 T,EIJ(BB): I=   3 J=   6      0.1170033E-02     -0.3065394E-02
 T,EIJ(BB): I=   3 J=   7      0.1170033E-02     -0.3065394E-02
 T,EIJ(BB): I=   3 J=   8      0.4879462E-04     -0.9962761E-04
 T,EIJ(BB): I=   4 J=   5      0.1177076E-02     -0.3083218E-02
 T,EIJ(BB): I=   4 J=   6      0.9909312E-05     -0.1874416E-04
 T,EIJ(BB): I=   4 J=   7      0.1183032E-02     -0.3104423E-02
 T,EIJ(BB): I=   4 J=   8      0.1200790E-02     -0.3160746E-02
 T,EIJ(BB): I=   5 J=   6      0.1183032E-02     -0.3104423E-02
 T,EIJ(BB): I=   5 J=   7      0.9909312E-05     -0.1874416E-04
 T,EIJ(BB): I=   5 J=   8      0.1200790E-02     -0.3160746E-02
 T,EIJ(BB): I=   6 J=   7      0.1192415E-02     -0.3130001E-02
 T,EIJ(BB): I=   6 J=   8      0.1215820E-02     -0.3192773E-02
 T,EIJ(BB): I=   7 J=   8      0.1215820E-02     -0.3192773E-02
 Spin components of T(2) and E(2):
     alpha-alpha T2 =       0.1649975660D-01 E2=     -0.4612254444D-01
     alpha-beta  T2 =       0.9665371286D-01 E2=     -0.3276212211D+00
     beta-beta   T2 =       0.1649975660D-01 E2=     -0.4612254444D-01
 ANorm=    0.1062851460D+01
 E2 =    -0.4198663100D+00 EUMP2 =    -0.55045290725332D+04

 Complete Basis Set (CBS) Extrapolation:
 M. R. Nyden and G. A. Petersson, JCP 75, 1843 (1981)
 G. A. Petersson and M. A. Al-Laham, JCP 94, 6081 (1991)
 G. A. Petersson, T. Tensfeldt, and J. A. Montgomery, JCP 94, 6091 (1991)
 J. A. Montgomery, J. W. Ochterski, and G. A. Petersson, JCP 101, 5900 (1994)
 
 Minimum Number of PNO for Extrapolation =  20
 Absolute Overlaps: IRadAn =         5
 LocTrn: ILocal=3 LocCor=F DoCore=F.
 Entering OneElI...
 Overlap between basis sets.
 Requested accuracy = 0.1000D-12
 PrsmSu:  NPrtUS=   1 ThrOK=F IAlg=1 NPAlg=1 LenDen=           0.
 Prism:   IPart=     0 DynPar=F LinDyn=F Incr=           1.
 PRISM was handed  1609985416 working-precision words and   112 shell-pairs
 IPart=  0 NShTot=         112 NBatch=          14 AvBLen=         8.0
 PrSmSu:  NxtVal=              2.
 CnvPC2: ToCart=F DoDens=F IPureD=0 IPureF=0.
 Transformed matrix in CnvPC2: 
                 1             2             3             4             5 
      1   0.100000D+01  0.408139D+00  0.000000D+00  0.000000D+00  0.000000D+00
      2   0.408139D+00  0.100000D+01  0.000000D+00  0.000000D+00  0.000000D+00
      3   0.000000D+00  0.000000D+00  0.100000D+01  0.000000D+00  0.000000D+00
      4   0.000000D+00  0.000000D+00  0.000000D+00  0.100000D+01  0.000000D+00
      5   0.000000D+00  0.000000D+00  0.000000D+00  0.000000D+00  0.100000D+01
      6   0.333304D-01  0.372516D+00  0.000000D+00  0.000000D+00  0.000000D+00
      7   0.000000D+00  0.000000D+00  0.385270D+00  0.000000D+00  0.000000D+00
      8   0.000000D+00  0.000000D+00  0.000000D+00  0.385270D+00  0.000000D+00
      9   0.000000D+00  0.000000D+00  0.000000D+00  0.000000D+00  0.385270D+00
     10   0.000000D+00  0.000000D+00  0.000000D+00  0.000000D+00  0.000000D+00
     11   0.000000D+00  0.000000D+00  0.000000D+00  0.000000D+00  0.000000D+00
     12   0.000000D+00  0.000000D+00  0.000000D+00  0.000000D+00  0.000000D+00
     13   0.000000D+00  0.000000D+00  0.000000D+00  0.000000D+00  0.000000D+00
     14   0.000000D+00  0.000000D+00  0.000000D+00  0.000000D+00  0.000000D+00
     15  -0.403281D-03  0.707882D-02  0.000000D+00  0.000000D+00  0.000000D+00
     16   0.000000D+00  0.000000D+00  0.163038D-01  0.000000D+00  0.000000D+00
     17   0.000000D+00  0.000000D+00  0.000000D+00  0.163038D-01  0.000000D+00
     18   0.000000D+00  0.000000D+00  0.000000D+00  0.000000D+00  0.163038D-01
     19   0.000000D+00  0.000000D+00  0.000000D+00  0.000000D+00  0.000000D+00
     20   0.000000D+00  0.000000D+00  0.000000D+00  0.000000D+00  0.000000D+00
     21   0.000000D+00  0.000000D+00  0.000000D+00  0.000000D+00  0.000000D+00
     22   0.000000D+00  0.000000D+00  0.000000D+00  0.000000D+00  0.000000D+00
     23   0.000000D+00  0.000000D+00  0.000000D+00  0.000000D+00  0.000000D+00
     24   0.000000D+00  0.000000D+00  0.000000D+00  0.000000D+00  0.000000D+00
     25   0.000000D+00  0.000000D+00  0.000000D+00  0.000000D+00  0.000000D+00
     26   0.000000D+00  0.000000D+00  0.000000D+00  0.000000D+00  0.000000D+00
     27   0.000000D+00  0.000000D+00  0.000000D+00  0.000000D+00  0.000000D+00
     28   0.000000D+00  0.000000D+00  0.000000D+00  0.000000D+00  0.000000D+00
     29   0.000000D+00  0.000000D+00  0.000000D+00  0.000000D+00  0.000000D+00
     30   0.000000D+00  0.000000D+00  0.000000D+00  0.000000D+00  0.000000D+00
     31   0.000000D+00  0.000000D+00  0.000000D+00  0.000000D+00  0.000000D+00
     32   0.000000D+00  0.000000D+00  0.000000D+00  0.000000D+00  0.000000D+00
     33   0.000000D+00  0.000000D+00  0.000000D+00  0.000000D+00  0.000000D+00
     34   0.000000D+00  0.000000D+00  0.000000D+00  0.000000D+00  0.000000D+00
     35   0.000000D+00  0.000000D+00  0.000000D+00  0.000000D+00  0.000000D+00
     36   0.000000D+00  0.000000D+00  0.000000D+00  0.000000D+00  0.000000D+00
     37   0.000000D+00  0.000000D+00  0.000000D+00  0.000000D+00  0.000000D+00
     38   0.000000D+00  0.000000D+00  0.000000D+00  0.000000D+00  0.000000D+00
     39   0.000000D+00  0.000000D+00  0.000000D+00  0.000000D+00  0.000000D+00
     40   0.000000D+00  0.000000D+00  0.000000D+00  0.000000D+00  0.000000D+00
     41   0.000000D+00  0.000000D+00  0.000000D+00  0.000000D+00  0.000000D+00
     42   0.168094D-04  0.106088D-03  0.000000D+00  0.000000D+00 -0.366485D-04
     43   0.000000D+00  0.000000D+00  0.367256D-05  0.000000D+00  0.000000D+00
     44   0.000000D+00  0.000000D+00  0.000000D+00  0.367256D-05  0.000000D+00
     45   0.000000D+00  0.000000D+00  0.000000D+00  0.000000D+00  0.000000D+00
     46   0.000000D+00  0.000000D+00  0.000000D+00  0.000000D+00  0.000000D+00
                 6             7             8             9            10 
      1   0.333304D-01  0.000000D+00  0.000000D+00  0.000000D+00  0.000000D+00
      2   0.372516D+00  0.000000D+00  0.000000D+00  0.000000D+00  0.000000D+00
      3   0.000000D+00  0.385270D+00  0.000000D+00  0.000000D+00  0.000000D+00
      4   0.000000D+00  0.000000D+00  0.385270D+00  0.000000D+00  0.000000D+00
      5   0.000000D+00  0.000000D+00  0.000000D+00  0.385270D+00  0.000000D+00
      6   0.100000D+01  0.000000D+00  0.000000D+00  0.000000D+00  0.000000D+00
      7   0.000000D+00  0.100000D+01  0.000000D+00  0.000000D+00  0.000000D+00
      8   0.000000D+00  0.000000D+00  0.100000D+01  0.000000D+00  0.000000D+00
      9   0.000000D+00  0.000000D+00  0.000000D+00  0.100000D+01  0.000000D+00
     10   0.000000D+00  0.000000D+00  0.000000D+00  0.000000D+00  0.100000D+01
     11   0.000000D+00  0.000000D+00  0.000000D+00  0.000000D+00  0.000000D+00
     12   0.000000D+00  0.000000D+00  0.000000D+00  0.000000D+00  0.000000D+00
     13   0.000000D+00  0.000000D+00  0.000000D+00  0.000000D+00  0.000000D+00
     14   0.000000D+00  0.000000D+00  0.000000D+00  0.000000D+00  0.000000D+00
     15   0.210650D+00  0.000000D+00  0.000000D+00  0.000000D+00  0.000000D+00
     16   0.000000D+00  0.226928D+00  0.000000D+00  0.000000D+00  0.000000D+00
     17   0.000000D+00  0.000000D+00  0.226928D+00  0.000000D+00  0.000000D+00
     18   0.000000D+00  0.000000D+00  0.000000D+00  0.226928D+00  0.000000D+00
     19   0.000000D+00  0.000000D+00  0.000000D+00  0.000000D+00  0.348673D-01
     20   0.000000D+00  0.000000D+00  0.000000D+00  0.000000D+00  0.000000D+00
     21   0.000000D+00  0.000000D+00  0.000000D+00  0.000000D+00  0.000000D+00
     22   0.000000D+00  0.000000D+00  0.000000D+00  0.000000D+00  0.000000D+00
     23   0.000000D+00  0.000000D+00  0.000000D+00  0.000000D+00  0.000000D+00
     24   0.000000D+00  0.000000D+00  0.000000D+00  0.000000D+00  0.000000D+00
     25   0.000000D+00  0.000000D+00  0.000000D+00  0.000000D+00  0.000000D+00
     26   0.000000D+00  0.000000D+00  0.000000D+00  0.000000D+00  0.000000D+00
     27   0.000000D+00  0.000000D+00  0.000000D+00  0.000000D+00  0.000000D+00
     28   0.000000D+00  0.000000D+00  0.000000D+00  0.000000D+00  0.000000D+00
     29   0.000000D+00  0.000000D+00  0.000000D+00  0.000000D+00  0.000000D+00
     30   0.000000D+00  0.000000D+00  0.000000D+00  0.000000D+00  0.000000D+00
     31   0.000000D+00  0.000000D+00  0.000000D+00  0.000000D+00  0.000000D+00
     32   0.000000D+00  0.000000D+00  0.000000D+00  0.000000D+00  0.000000D+00
     33   0.000000D+00  0.000000D+00  0.000000D+00  0.000000D+00  0.000000D+00
     34   0.000000D+00  0.000000D+00  0.000000D+00  0.000000D+00  0.000000D+00
     35   0.000000D+00  0.000000D+00  0.000000D+00  0.000000D+00  0.000000D+00
     36   0.000000D+00  0.000000D+00  0.000000D+00  0.000000D+00  0.000000D+00
     37   0.000000D+00  0.000000D+00  0.000000D+00  0.000000D+00  0.000000D+00
     38   0.000000D+00  0.000000D+00  0.000000D+00  0.000000D+00  0.000000D+00
     39   0.000000D+00  0.000000D+00  0.000000D+00  0.000000D+00  0.000000D+00
     40   0.000000D+00  0.000000D+00  0.000000D+00  0.000000D+00  0.000000D+00
     41   0.237559D-05  0.000000D+00  0.000000D+00 -0.311209D-05  0.239972D-05
     42   0.719303D-03  0.000000D+00  0.000000D+00 -0.632130D-03  0.309733D-03
     43   0.000000D+00  0.668704D-04  0.000000D+00  0.000000D+00  0.000000D+00
     44   0.000000D+00  0.000000D+00  0.668704D-04  0.000000D+00  0.000000D+00
     45   0.000000D+00  0.000000D+00  0.000000D+00  0.000000D+00  0.000000D+00
     46   0.000000D+00  0.000000D+00  0.000000D+00  0.000000D+00  0.000000D+00
                11            12            13            14            15 
      1   0.000000D+00  0.000000D+00  0.000000D+00  0.000000D+00 -0.403281D-03
      2   0.000000D+00  0.000000D+00  0.000000D+00  0.000000D+00  0.707882D-02
      3   0.000000D+00  0.000000D+00  0.000000D+00  0.000000D+00  0.000000D+00
      4   0.000000D+00  0.000000D+00  0.000000D+00  0.000000D+00  0.000000D+00
      5   0.000000D+00  0.000000D+00  0.000000D+00  0.000000D+00  0.000000D+00
      6   0.000000D+00  0.000000D+00  0.000000D+00  0.000000D+00  0.210650D+00
      7   0.000000D+00  0.000000D+00  0.000000D+00  0.000000D+00  0.000000D+00
      8   0.000000D+00  0.000000D+00  0.000000D+00  0.000000D+00  0.000000D+00
      9   0.000000D+00  0.000000D+00  0.000000D+00  0.000000D+00  0.000000D+00
     10   0.000000D+00  0.000000D+00  0.000000D+00  0.000000D+00  0.000000D+00
     11   0.100000D+01  0.000000D+00  0.000000D+00  0.000000D+00  0.000000D+00
     12   0.000000D+00  0.100000D+01  0.000000D+00  0.000000D+00  0.000000D+00
     13   0.000000D+00  0.000000D+00  0.100000D+01  0.000000D+00  0.000000D+00
     14   0.000000D+00  0.000000D+00  0.000000D+00  0.100000D+01  0.000000D+00
     15   0.000000D+00  0.000000D+00  0.000000D+00  0.000000D+00  0.100000D+01
     16   0.000000D+00  0.000000D+00  0.000000D+00  0.000000D+00  0.000000D+00
     17   0.000000D+00  0.000000D+00  0.000000D+00  0.000000D+00  0.000000D+00
     18   0.000000D+00  0.000000D+00  0.000000D+00  0.000000D+00  0.000000D+00
     19   0.000000D+00  0.000000D+00  0.000000D+00  0.000000D+00  0.000000D+00
     20   0.348673D-01  0.000000D+00  0.000000D+00  0.000000D+00  0.000000D+00
     21   0.000000D+00  0.348673D-01  0.000000D+00  0.000000D+00  0.000000D+00
     22   0.000000D+00  0.000000D+00  0.348673D-01  0.000000D+00  0.000000D+00
     23   0.000000D+00  0.000000D+00  0.000000D+00  0.348673D-01  0.000000D+00
     24   0.000000D+00  0.000000D+00  0.000000D+00  0.000000D+00  0.000000D+00
     25   0.000000D+00  0.000000D+00  0.000000D+00  0.000000D+00  0.000000D+00
     26   0.000000D+00  0.000000D+00  0.000000D+00  0.000000D+00  0.000000D+00
     27   0.000000D+00  0.000000D+00  0.000000D+00  0.000000D+00  0.000000D+00
     28   0.000000D+00  0.000000D+00  0.000000D+00  0.000000D+00  0.000000D+00
     29   0.000000D+00  0.000000D+00  0.000000D+00  0.000000D+00  0.000000D+00
     30   0.000000D+00  0.000000D+00  0.000000D+00  0.000000D+00  0.000000D+00
     31   0.000000D+00  0.000000D+00  0.000000D+00  0.000000D+00  0.000000D+00
     32   0.000000D+00  0.000000D+00  0.000000D+00  0.000000D+00  0.000000D+00
     33   0.000000D+00  0.000000D+00  0.000000D+00  0.000000D+00  0.000000D+00
     34   0.000000D+00  0.000000D+00  0.000000D+00  0.000000D+00  0.000000D+00
     35   0.000000D+00  0.000000D+00  0.000000D+00  0.000000D+00  0.000000D+00
     36   0.000000D+00  0.000000D+00  0.000000D+00  0.000000D+00  0.000000D+00
     37   0.000000D+00  0.000000D+00  0.000000D+00  0.000000D+00  0.000000D+00
     38   0.000000D+00  0.000000D+00  0.000000D+00  0.000000D+00  0.777053D-03
     39   0.000000D+00  0.000000D+00  0.000000D+00  0.000000D+00  0.000000D+00
     40   0.000000D+00  0.000000D+00  0.000000D+00  0.000000D+00  0.000000D+00
     41   0.000000D+00  0.000000D+00  0.000000D+00  0.000000D+00  0.152295D-02
     42   0.000000D+00  0.000000D+00  0.000000D+00  0.000000D+00  0.250424D-01
     43  -0.602946D-04  0.000000D+00  0.000000D+00  0.000000D+00  0.000000D+00
     44   0.000000D+00 -0.602946D-04  0.000000D+00  0.000000D+00  0.000000D+00
     45   0.000000D+00  0.000000D+00  0.346426D-05  0.000000D+00  0.000000D+00
     46   0.000000D+00  0.000000D+00  0.000000D+00  0.346426D-05  0.000000D+00
                16            17            18            19            20 
      1   0.000000D+00  0.000000D+00  0.000000D+00  0.000000D+00  0.000000D+00
      2   0.000000D+00  0.000000D+00  0.000000D+00  0.000000D+00  0.000000D+00
      3   0.163038D-01  0.000000D+00  0.000000D+00  0.000000D+00  0.000000D+00
      4   0.000000D+00  0.163038D-01  0.000000D+00  0.000000D+00  0.000000D+00
      5   0.000000D+00  0.000000D+00  0.163038D-01  0.000000D+00  0.000000D+00
      6   0.000000D+00  0.000000D+00  0.000000D+00  0.000000D+00  0.000000D+00
      7   0.226928D+00  0.000000D+00  0.000000D+00  0.000000D+00  0.000000D+00
      8   0.000000D+00  0.226928D+00  0.000000D+00  0.000000D+00  0.000000D+00
      9   0.000000D+00  0.000000D+00  0.226928D+00  0.000000D+00  0.000000D+00
     10   0.000000D+00  0.000000D+00  0.000000D+00  0.348673D-01  0.000000D+00
     11   0.000000D+00  0.000000D+00  0.000000D+00  0.000000D+00  0.348673D-01
     12   0.000000D+00  0.000000D+00  0.000000D+00  0.000000D+00  0.000000D+00
     13   0.000000D+00  0.000000D+00  0.000000D+00  0.000000D+00  0.000000D+00
     14   0.000000D+00  0.000000D+00  0.000000D+00  0.000000D+00  0.000000D+00
     15   0.000000D+00  0.000000D+00  0.000000D+00  0.000000D+00  0.000000D+00
     16   0.100000D+01  0.000000D+00  0.000000D+00  0.000000D+00  0.000000D+00
     17   0.000000D+00  0.100000D+01  0.000000D+00  0.000000D+00  0.000000D+00
     18   0.000000D+00  0.000000D+00  0.100000D+01  0.000000D+00  0.000000D+00
     19   0.000000D+00  0.000000D+00  0.000000D+00  0.100000D+01  0.000000D+00
     20   0.000000D+00  0.000000D+00  0.000000D+00  0.000000D+00  0.100000D+01
     21   0.000000D+00  0.000000D+00  0.000000D+00  0.000000D+00  0.000000D+00
     22   0.000000D+00  0.000000D+00  0.000000D+00  0.000000D+00  0.000000D+00
     23   0.000000D+00  0.000000D+00  0.000000D+00  0.000000D+00  0.000000D+00
     24   0.000000D+00  0.000000D+00  0.000000D+00  0.168094D-04  0.000000D+00
     25   0.000000D+00  0.000000D+00  0.000000D+00  0.106088D-03  0.000000D+00
     26   0.000000D+00  0.000000D+00  0.000000D+00  0.000000D+00 -0.367256D-05
     27   0.000000D+00  0.000000D+00  0.000000D+00  0.000000D+00  0.000000D+00
     28   0.000000D+00  0.000000D+00  0.000000D+00  0.366485D-04  0.000000D+00
     29   0.000000D+00  0.000000D+00 -0.237559D-05  0.719303D-03  0.000000D+00
     30   0.000000D+00  0.000000D+00  0.000000D+00  0.000000D+00 -0.668704D-04
     31   0.000000D+00  0.000000D+00  0.000000D+00  0.000000D+00  0.000000D+00
     32   0.000000D+00  0.000000D+00 -0.311209D-05  0.632130D-03  0.000000D+00
     33   0.000000D+00  0.000000D+00 -0.239972D-05  0.309733D-03  0.000000D+00
     34   0.000000D+00  0.000000D+00  0.000000D+00  0.000000D+00 -0.602946D-04
     35   0.000000D+00  0.000000D+00  0.000000D+00  0.000000D+00  0.000000D+00
     36   0.000000D+00  0.000000D+00  0.000000D+00  0.000000D+00  0.000000D+00
     37   0.000000D+00  0.000000D+00  0.000000D+00  0.000000D+00  0.000000D+00
     38   0.000000D+00  0.000000D+00 -0.152295D-02  0.250424D-01  0.000000D+00
     39   0.201183D-03  0.000000D+00  0.000000D+00  0.000000D+00 -0.645350D-02
     40   0.000000D+00  0.201183D-03  0.000000D+00  0.000000D+00  0.000000D+00
     41   0.000000D+00  0.000000D+00 -0.287904D-02  0.379880D-01  0.000000D+00
     42   0.000000D+00  0.000000D+00 -0.379880D-01  0.151490D+00  0.000000D+00
     43   0.645350D-02  0.000000D+00  0.000000D+00  0.000000D+00 -0.676576D-01
     44   0.000000D+00  0.645350D-02  0.000000D+00  0.000000D+00  0.000000D+00
     45   0.000000D+00  0.000000D+00  0.000000D+00  0.000000D+00  0.000000D+00
     46   0.000000D+00  0.000000D+00  0.000000D+00  0.000000D+00  0.000000D+00
                21            22            23            24            25 
      1   0.000000D+00  0.000000D+00  0.000000D+00  0.000000D+00  0.000000D+00
      2   0.000000D+00  0.000000D+00  0.000000D+00  0.000000D+00  0.000000D+00
      3   0.000000D+00  0.000000D+00  0.000000D+00  0.000000D+00  0.000000D+00
      4   0.000000D+00  0.000000D+00  0.000000D+00  0.000000D+00  0.000000D+00
      5   0.000000D+00  0.000000D+00  0.000000D+00  0.000000D+00  0.000000D+00
      6   0.000000D+00  0.000000D+00  0.000000D+00  0.000000D+00  0.000000D+00
      7   0.000000D+00  0.000000D+00  0.000000D+00  0.000000D+00  0.000000D+00
      8   0.000000D+00  0.000000D+00  0.000000D+00  0.000000D+00  0.000000D+00
      9   0.000000D+00  0.000000D+00  0.000000D+00  0.000000D+00  0.000000D+00
     10   0.000000D+00  0.000000D+00  0.000000D+00  0.000000D+00  0.000000D+00
     11   0.000000D+00  0.000000D+00  0.000000D+00  0.000000D+00  0.000000D+00
     12   0.348673D-01  0.000000D+00  0.000000D+00  0.000000D+00  0.000000D+00
     13   0.000000D+00  0.348673D-01  0.000000D+00  0.000000D+00  0.000000D+00
     14   0.000000D+00  0.000000D+00  0.348673D-01  0.000000D+00  0.000000D+00
     15   0.000000D+00  0.000000D+00  0.000000D+00  0.000000D+00  0.000000D+00
     16   0.000000D+00  0.000000D+00  0.000000D+00  0.000000D+00  0.000000D+00
     17   0.000000D+00  0.000000D+00  0.000000D+00  0.000000D+00  0.000000D+00
     18   0.000000D+00  0.000000D+00  0.000000D+00  0.000000D+00  0.000000D+00
     19   0.000000D+00  0.000000D+00  0.000000D+00  0.168094D-04  0.106088D-03
     20   0.000000D+00  0.000000D+00  0.000000D+00  0.000000D+00  0.000000D+00
     21   0.100000D+01  0.000000D+00  0.000000D+00  0.000000D+00  0.000000D+00
     22   0.000000D+00  0.100000D+01  0.000000D+00  0.000000D+00  0.000000D+00
     23   0.000000D+00  0.000000D+00  0.100000D+01  0.000000D+00  0.000000D+00
     24   0.000000D+00  0.000000D+00  0.000000D+00  0.100000D+01  0.408139D+00
     25   0.000000D+00  0.000000D+00  0.000000D+00  0.408139D+00  0.100000D+01
     26   0.000000D+00  0.000000D+00  0.000000D+00  0.000000D+00  0.000000D+00
     27  -0.367256D-05  0.000000D+00  0.000000D+00  0.000000D+00  0.000000D+00
     28   0.000000D+00  0.000000D+00  0.000000D+00  0.000000D+00  0.000000D+00
     29   0.000000D+00  0.000000D+00  0.000000D+00  0.333304D-01  0.372516D+00
     30   0.000000D+00  0.000000D+00  0.000000D+00  0.000000D+00  0.000000D+00
     31  -0.668704D-04  0.000000D+00  0.000000D+00  0.000000D+00  0.000000D+00
     32   0.000000D+00  0.000000D+00  0.000000D+00  0.000000D+00  0.000000D+00
     33   0.000000D+00  0.000000D+00  0.000000D+00  0.000000D+00  0.000000D+00
     34   0.000000D+00  0.000000D+00  0.000000D+00  0.000000D+00  0.000000D+00
     35  -0.602946D-04  0.000000D+00  0.000000D+00  0.000000D+00  0.000000D+00
     36   0.000000D+00  0.346426D-05  0.000000D+00  0.000000D+00  0.000000D+00
     37   0.000000D+00  0.000000D+00  0.346426D-05  0.000000D+00  0.000000D+00
     38   0.000000D+00  0.000000D+00  0.000000D+00 -0.403281D-03  0.707882D-02
     39   0.000000D+00  0.000000D+00  0.000000D+00  0.000000D+00  0.000000D+00
     40  -0.645350D-02  0.000000D+00  0.000000D+00  0.000000D+00  0.000000D+00
     41   0.000000D+00  0.000000D+00  0.000000D+00  0.000000D+00  0.000000D+00
     42   0.000000D+00  0.000000D+00  0.000000D+00  0.000000D+00  0.000000D+00
     43   0.000000D+00  0.000000D+00  0.000000D+00  0.000000D+00  0.000000D+00
     44  -0.676576D-01  0.000000D+00  0.000000D+00  0.000000D+00  0.000000D+00
     45   0.000000D+00  0.776141D-02  0.000000D+00  0.000000D+00  0.000000D+00
     46   0.000000D+00  0.000000D+00  0.776141D-02  0.000000D+00  0.000000D+00
                26            27            28            29            30 
      1   0.000000D+00  0.000000D+00  0.000000D+00  0.000000D+00  0.000000D+00
      2   0.000000D+00  0.000000D+00  0.000000D+00  0.000000D+00  0.000000D+00
      3   0.000000D+00  0.000000D+00  0.000000D+00  0.000000D+00  0.000000D+00
      4   0.000000D+00  0.000000D+00  0.000000D+00  0.000000D+00  0.000000D+00
      5   0.000000D+00  0.000000D+00  0.000000D+00  0.000000D+00  0.000000D+00
      6   0.000000D+00  0.000000D+00  0.000000D+00  0.000000D+00  0.000000D+00
      7   0.000000D+00  0.000000D+00  0.000000D+00  0.000000D+00  0.000000D+00
      8   0.000000D+00  0.000000D+00  0.000000D+00  0.000000D+00  0.000000D+00
      9   0.000000D+00  0.000000D+00  0.000000D+00  0.000000D+00  0.000000D+00
     10   0.000000D+00  0.000000D+00  0.000000D+00  0.000000D+00  0.000000D+00
     11   0.000000D+00  0.000000D+00  0.000000D+00  0.000000D+00  0.000000D+00
     12   0.000000D+00  0.000000D+00  0.000000D+00  0.000000D+00  0.000000D+00
     13   0.000000D+00  0.000000D+00  0.000000D+00  0.000000D+00  0.000000D+00
     14   0.000000D+00  0.000000D+00  0.000000D+00  0.000000D+00  0.000000D+00
     15   0.000000D+00  0.000000D+00  0.000000D+00  0.000000D+00  0.000000D+00
     16   0.000000D+00  0.000000D+00  0.000000D+00  0.000000D+00  0.000000D+00
     17   0.000000D+00  0.000000D+00  0.000000D+00  0.000000D+00  0.000000D+00
     18   0.000000D+00  0.000000D+00  0.000000D+00 -0.237559D-05  0.000000D+00
     19   0.000000D+00  0.000000D+00  0.366485D-04  0.719303D-03  0.000000D+00
     20  -0.367256D-05  0.000000D+00  0.000000D+00  0.000000D+00 -0.668704D-04
     21   0.000000D+00 -0.367256D-05  0.000000D+00  0.000000D+00  0.000000D+00
     22   0.000000D+00  0.000000D+00  0.000000D+00  0.000000D+00  0.000000D+00
     23   0.000000D+00  0.000000D+00  0.000000D+00  0.000000D+00  0.000000D+00
     24   0.000000D+00  0.000000D+00  0.000000D+00  0.333304D-01  0.000000D+00
     25   0.000000D+00  0.000000D+00  0.000000D+00  0.372516D+00  0.000000D+00
     26   0.100000D+01  0.000000D+00  0.000000D+00  0.000000D+00  0.385270D+00
     27   0.000000D+00  0.100000D+01  0.000000D+00  0.000000D+00  0.000000D+00
     28   0.000000D+00  0.000000D+00  0.100000D+01  0.000000D+00  0.000000D+00
     29   0.000000D+00  0.000000D+00  0.000000D+00  0.100000D+01  0.000000D+00
     30   0.385270D+00  0.000000D+00  0.000000D+00  0.000000D+00  0.100000D+01
     31   0.000000D+00  0.385270D+00  0.000000D+00  0.000000D+00  0.000000D+00
     32   0.000000D+00  0.000000D+00  0.385270D+00  0.000000D+00  0.000000D+00
     33   0.000000D+00  0.000000D+00  0.000000D+00  0.000000D+00  0.000000D+00
     34   0.000000D+00  0.000000D+00  0.000000D+00  0.000000D+00  0.000000D+00
     35   0.000000D+00  0.000000D+00  0.000000D+00  0.000000D+00  0.000000D+00
     36   0.000000D+00  0.000000D+00  0.000000D+00  0.000000D+00  0.000000D+00
     37   0.000000D+00  0.000000D+00  0.000000D+00  0.000000D+00  0.000000D+00
     38   0.000000D+00  0.000000D+00  0.000000D+00  0.210650D+00  0.000000D+00
     39   0.163038D-01  0.000000D+00  0.000000D+00  0.000000D+00  0.226928D+00
     40   0.000000D+00  0.163038D-01  0.000000D+00  0.000000D+00  0.000000D+00
     41   0.000000D+00  0.000000D+00  0.163038D-01  0.000000D+00  0.000000D+00
     42   0.000000D+00  0.000000D+00  0.000000D+00  0.000000D+00  0.000000D+00
     43   0.000000D+00  0.000000D+00  0.000000D+00  0.000000D+00  0.000000D+00
     44   0.000000D+00  0.000000D+00  0.000000D+00  0.000000D+00  0.000000D+00
     45   0.000000D+00  0.000000D+00  0.000000D+00  0.000000D+00  0.000000D+00
     46   0.000000D+00  0.000000D+00  0.000000D+00  0.000000D+00  0.000000D+00
                31            32            33            34            35 
      1   0.000000D+00  0.000000D+00  0.000000D+00  0.000000D+00  0.000000D+00
      2   0.000000D+00  0.000000D+00  0.000000D+00  0.000000D+00  0.000000D+00
      3   0.000000D+00  0.000000D+00  0.000000D+00  0.000000D+00  0.000000D+00
      4   0.000000D+00  0.000000D+00  0.000000D+00  0.000000D+00  0.000000D+00
      5   0.000000D+00  0.000000D+00  0.000000D+00  0.000000D+00  0.000000D+00
      6   0.000000D+00  0.000000D+00  0.000000D+00  0.000000D+00  0.000000D+00
      7   0.000000D+00  0.000000D+00  0.000000D+00  0.000000D+00  0.000000D+00
      8   0.000000D+00  0.000000D+00  0.000000D+00  0.000000D+00  0.000000D+00
      9   0.000000D+00  0.000000D+00  0.000000D+00  0.000000D+00  0.000000D+00
     10   0.000000D+00  0.000000D+00  0.000000D+00  0.000000D+00  0.000000D+00
     11   0.000000D+00  0.000000D+00  0.000000D+00  0.000000D+00  0.000000D+00
     12   0.000000D+00  0.000000D+00  0.000000D+00  0.000000D+00  0.000000D+00
     13   0.000000D+00  0.000000D+00  0.000000D+00  0.000000D+00  0.000000D+00
     14   0.000000D+00  0.000000D+00  0.000000D+00  0.000000D+00  0.000000D+00
     15   0.000000D+00  0.000000D+00  0.000000D+00  0.000000D+00  0.000000D+00
     16   0.000000D+00  0.000000D+00  0.000000D+00  0.000000D+00  0.000000D+00
     17   0.000000D+00  0.000000D+00  0.000000D+00  0.000000D+00  0.000000D+00
     18   0.000000D+00 -0.311209D-05 -0.239972D-05  0.000000D+00  0.000000D+00
     19   0.000000D+00  0.632130D-03  0.309733D-03  0.000000D+00  0.000000D+00
     20   0.000000D+00  0.000000D+00  0.000000D+00 -0.602946D-04  0.000000D+00
     21  -0.668704D-04  0.000000D+00  0.000000D+00  0.000000D+00 -0.602946D-04
     22   0.000000D+00  0.000000D+00  0.000000D+00  0.000000D+00  0.000000D+00
     23   0.000000D+00  0.000000D+00  0.000000D+00  0.000000D+00  0.000000D+00
     24   0.000000D+00  0.000000D+00  0.000000D+00  0.000000D+00  0.000000D+00
     25   0.000000D+00  0.000000D+00  0.000000D+00  0.000000D+00  0.000000D+00
     26   0.000000D+00  0.000000D+00  0.000000D+00  0.000000D+00  0.000000D+00
     27   0.385270D+00  0.000000D+00  0.000000D+00  0.000000D+00  0.000000D+00
     28   0.000000D+00  0.385270D+00  0.000000D+00  0.000000D+00  0.000000D+00
     29   0.000000D+00  0.000000D+00  0.000000D+00  0.000000D+00  0.000000D+00
     30   0.000000D+00  0.000000D+00  0.000000D+00  0.000000D+00  0.000000D+00
     31   0.100000D+01  0.000000D+00  0.000000D+00  0.000000D+00  0.000000D+00
     32   0.000000D+00  0.100000D+01  0.000000D+00  0.000000D+00  0.000000D+00
     33   0.000000D+00  0.000000D+00  0.100000D+01  0.000000D+00  0.000000D+00
     34   0.000000D+00  0.000000D+00  0.000000D+00  0.100000D+01  0.000000D+00
     35   0.000000D+00  0.000000D+00  0.000000D+00  0.000000D+00  0.100000D+01
     36   0.000000D+00  0.000000D+00  0.000000D+00  0.000000D+00  0.000000D+00
     37   0.000000D+00  0.000000D+00  0.000000D+00  0.000000D+00  0.000000D+00
     38   0.000000D+00  0.000000D+00  0.000000D+00  0.000000D+00  0.000000D+00
     39   0.000000D+00  0.000000D+00  0.000000D+00  0.000000D+00  0.000000D+00
     40   0.226928D+00  0.000000D+00  0.000000D+00  0.000000D+00  0.000000D+00
     41   0.000000D+00  0.226928D+00  0.000000D+00  0.000000D+00  0.000000D+00
     42   0.000000D+00  0.000000D+00  0.348673D-01  0.000000D+00  0.000000D+00
     43   0.000000D+00  0.000000D+00  0.000000D+00  0.348673D-01  0.000000D+00
     44   0.000000D+00  0.000000D+00  0.000000D+00  0.000000D+00  0.348673D-01
     45   0.000000D+00  0.000000D+00  0.000000D+00  0.000000D+00  0.000000D+00
     46   0.000000D+00  0.000000D+00  0.000000D+00  0.000000D+00  0.000000D+00
                36            37            38            39            40 
      1   0.000000D+00  0.000000D+00  0.000000D+00  0.000000D+00  0.000000D+00
      2   0.000000D+00  0.000000D+00  0.000000D+00  0.000000D+00  0.000000D+00
      3   0.000000D+00  0.000000D+00  0.000000D+00  0.000000D+00  0.000000D+00
      4   0.000000D+00  0.000000D+00  0.000000D+00  0.000000D+00  0.000000D+00
      5   0.000000D+00  0.000000D+00  0.000000D+00  0.000000D+00  0.000000D+00
      6   0.000000D+00  0.000000D+00  0.000000D+00  0.000000D+00  0.000000D+00
      7   0.000000D+00  0.000000D+00  0.000000D+00  0.000000D+00  0.000000D+00
      8   0.000000D+00  0.000000D+00  0.000000D+00  0.000000D+00  0.000000D+00
      9   0.000000D+00  0.000000D+00  0.000000D+00  0.000000D+00  0.000000D+00
     10   0.000000D+00  0.000000D+00  0.000000D+00  0.000000D+00  0.000000D+00
     11   0.000000D+00  0.000000D+00  0.000000D+00  0.000000D+00  0.000000D+00
     12   0.000000D+00  0.000000D+00  0.000000D+00  0.000000D+00  0.000000D+00
     13   0.000000D+00  0.000000D+00  0.000000D+00  0.000000D+00  0.000000D+00
     14   0.000000D+00  0.000000D+00  0.000000D+00  0.000000D+00  0.000000D+00
     15   0.000000D+00  0.000000D+00  0.777053D-03  0.000000D+00  0.000000D+00
     16   0.000000D+00  0.000000D+00  0.000000D+00  0.201183D-03  0.000000D+00
     17   0.000000D+00  0.000000D+00  0.000000D+00  0.000000D+00  0.201183D-03
     18   0.000000D+00  0.000000D+00 -0.152295D-02  0.000000D+00  0.000000D+00
     19   0.000000D+00  0.000000D+00  0.250424D-01  0.000000D+00  0.000000D+00
     20   0.000000D+00  0.000000D+00  0.000000D+00 -0.645350D-02  0.000000D+00
     21   0.000000D+00  0.000000D+00  0.000000D+00  0.000000D+00 -0.645350D-02
     22   0.346426D-05  0.000000D+00  0.000000D+00  0.000000D+00  0.000000D+00
     23   0.000000D+00  0.346426D-05  0.000000D+00  0.000000D+00  0.000000D+00
     24   0.000000D+00  0.000000D+00 -0.403281D-03  0.000000D+00  0.000000D+00
     25   0.000000D+00  0.000000D+00  0.707882D-02  0.000000D+00  0.000000D+00
     26   0.000000D+00  0.000000D+00  0.000000D+00  0.163038D-01  0.000000D+00
     27   0.000000D+00  0.000000D+00  0.000000D+00  0.000000D+00  0.163038D-01
     28   0.000000D+00  0.000000D+00  0.000000D+00  0.000000D+00  0.000000D+00
     29   0.000000D+00  0.000000D+00  0.210650D+00  0.000000D+00  0.000000D+00
     30   0.000000D+00  0.000000D+00  0.000000D+00  0.226928D+00  0.000000D+00
     31   0.000000D+00  0.000000D+00  0.000000D+00  0.000000D+00  0.226928D+00
     32   0.000000D+00  0.000000D+00  0.000000D+00  0.000000D+00  0.000000D+00
     33   0.000000D+00  0.000000D+00  0.000000D+00  0.000000D+00  0.000000D+00
     34   0.000000D+00  0.000000D+00  0.000000D+00  0.000000D+00  0.000000D+00
     35   0.000000D+00  0.000000D+00  0.000000D+00  0.000000D+00  0.000000D+00
     36   0.100000D+01  0.000000D+00  0.000000D+00  0.000000D+00  0.000000D+00
     37   0.000000D+00  0.100000D+01  0.000000D+00  0.000000D+00  0.000000D+00
     38   0.000000D+00  0.000000D+00  0.100000D+01  0.000000D+00  0.000000D+00
     39   0.000000D+00  0.000000D+00  0.000000D+00  0.100000D+01  0.000000D+00
     40   0.000000D+00  0.000000D+00  0.000000D+00  0.000000D+00  0.100000D+01
     41   0.000000D+00  0.000000D+00  0.000000D+00  0.000000D+00  0.000000D+00
     42   0.000000D+00  0.000000D+00  0.000000D+00  0.000000D+00  0.000000D+00
     43   0.000000D+00  0.000000D+00  0.000000D+00  0.000000D+00  0.000000D+00
     44   0.000000D+00  0.000000D+00  0.000000D+00  0.000000D+00  0.000000D+00
     45   0.348673D-01  0.000000D+00  0.000000D+00  0.000000D+00  0.000000D+00
     46   0.000000D+00  0.348673D-01  0.000000D+00  0.000000D+00  0.000000D+00
                41            42            43            44            45 
      1   0.000000D+00  0.168094D-04  0.000000D+00  0.000000D+00  0.000000D+00
      2   0.000000D+00  0.106088D-03  0.000000D+00  0.000000D+00  0.000000D+00
      3   0.000000D+00  0.000000D+00  0.367256D-05  0.000000D+00  0.000000D+00
      4   0.000000D+00  0.000000D+00  0.000000D+00  0.367256D-05  0.000000D+00
      5   0.000000D+00 -0.366485D-04  0.000000D+00  0.000000D+00  0.000000D+00
      6   0.237559D-05  0.719303D-03  0.000000D+00  0.000000D+00  0.000000D+00
      7   0.000000D+00  0.000000D+00  0.668704D-04  0.000000D+00  0.000000D+00
      8   0.000000D+00  0.000000D+00  0.000000D+00  0.668704D-04  0.000000D+00
      9  -0.311209D-05 -0.632130D-03  0.000000D+00  0.000000D+00  0.000000D+00
     10   0.239972D-05  0.309733D-03  0.000000D+00  0.000000D+00  0.000000D+00
     11   0.000000D+00  0.000000D+00 -0.602946D-04  0.000000D+00  0.000000D+00
     12   0.000000D+00  0.000000D+00  0.000000D+00 -0.602946D-04  0.000000D+00
     13   0.000000D+00  0.000000D+00  0.000000D+00  0.000000D+00  0.346426D-05
     14   0.000000D+00  0.000000D+00  0.000000D+00  0.000000D+00  0.000000D+00
     15   0.152295D-02  0.250424D-01  0.000000D+00  0.000000D+00  0.000000D+00
     16   0.000000D+00  0.000000D+00  0.645350D-02  0.000000D+00  0.000000D+00
     17   0.000000D+00  0.000000D+00  0.000000D+00  0.645350D-02  0.000000D+00
     18  -0.287904D-02 -0.379880D-01  0.000000D+00  0.000000D+00  0.000000D+00
     19   0.379880D-01  0.151490D+00  0.000000D+00  0.000000D+00  0.000000D+00
     20   0.000000D+00  0.000000D+00 -0.676576D-01  0.000000D+00  0.000000D+00
     21   0.000000D+00  0.000000D+00  0.000000D+00 -0.676576D-01  0.000000D+00
     22   0.000000D+00  0.000000D+00  0.000000D+00  0.000000D+00  0.776141D-02
     23   0.000000D+00  0.000000D+00  0.000000D+00  0.000000D+00  0.000000D+00
     24   0.000000D+00  0.000000D+00  0.000000D+00  0.000000D+00  0.000000D+00
     25   0.000000D+00  0.000000D+00  0.000000D+00  0.000000D+00  0.000000D+00
     26   0.000000D+00  0.000000D+00  0.000000D+00  0.000000D+00  0.000000D+00
     27   0.000000D+00  0.000000D+00  0.000000D+00  0.000000D+00  0.000000D+00
     28   0.163038D-01  0.000000D+00  0.000000D+00  0.000000D+00  0.000000D+00
     29   0.000000D+00  0.000000D+00  0.000000D+00  0.000000D+00  0.000000D+00
     30   0.000000D+00  0.000000D+00  0.000000D+00  0.000000D+00  0.000000D+00
     31   0.000000D+00  0.000000D+00  0.000000D+00  0.000000D+00  0.000000D+00
     32   0.226928D+00  0.000000D+00  0.000000D+00  0.000000D+00  0.000000D+00
     33   0.000000D+00  0.348673D-01  0.000000D+00  0.000000D+00  0.000000D+00
     34   0.000000D+00  0.000000D+00  0.348673D-01  0.000000D+00  0.000000D+00
     35   0.000000D+00  0.000000D+00  0.000000D+00  0.348673D-01  0.000000D+00
     36   0.000000D+00  0.000000D+00  0.000000D+00  0.000000D+00  0.348673D-01
     37   0.000000D+00  0.000000D+00  0.000000D+00  0.000000D+00  0.000000D+00
     38   0.000000D+00  0.000000D+00  0.000000D+00  0.000000D+00  0.000000D+00
     39   0.000000D+00  0.000000D+00  0.000000D+00  0.000000D+00  0.000000D+00
     40   0.000000D+00  0.000000D+00  0.000000D+00  0.000000D+00  0.000000D+00
     41   0.100000D+01  0.000000D+00  0.000000D+00  0.000000D+00  0.000000D+00
     42   0.000000D+00  0.100000D+01  0.000000D+00  0.000000D+00  0.000000D+00
     43   0.000000D+00  0.000000D+00  0.100000D+01  0.000000D+00  0.000000D+00
     44   0.000000D+00  0.000000D+00  0.000000D+00  0.100000D+01  0.000000D+00
     45   0.000000D+00  0.000000D+00  0.000000D+00  0.000000D+00  0.100000D+01
     46   0.000000D+00  0.000000D+00  0.000000D+00  0.000000D+00  0.000000D+00
                46 
      1   0.000000D+00
      2   0.000000D+00
      3   0.000000D+00
      4   0.000000D+00
      5   0.000000D+00
      6   0.000000D+00
      7   0.000000D+00
      8   0.000000D+00
      9   0.000000D+00
     10   0.000000D+00
     11   0.000000D+00
     12   0.000000D+00
     13   0.000000D+00
     14   0.346426D-05
     15   0.000000D+00
     16   0.000000D+00
     17   0.000000D+00
     18   0.000000D+00
     19   0.000000D+00
     20   0.000000D+00
     21   0.000000D+00
     22   0.000000D+00
     23   0.776141D-02
     24   0.000000D+00
     25   0.000000D+00
     26   0.000000D+00
     27   0.000000D+00
     28   0.000000D+00
     29   0.000000D+00
     30   0.000000D+00
     31   0.000000D+00
     32   0.000000D+00
     33   0.000000D+00
     34   0.000000D+00
     35   0.000000D+00
     36   0.000000D+00
     37   0.348673D-01
     38   0.000000D+00
     39   0.000000D+00
     40   0.000000D+00
     41   0.000000D+00
     42   0.000000D+00
     43   0.000000D+00
     44   0.000000D+00
     45   0.000000D+00
     46   0.100000D+01
 Entering OneElI...
 Overlap between basis sets.
 Requested accuracy = 0.1000D-12
 PrsmSu:  NPrtUS=   1 ThrOK=F IAlg=1 NPAlg=1 LenDen=           0.
 Prism:   IPart=     0 DynPar=F LinDyn=F Incr=           8.
 PRISM was handed  1609480841 working-precision words and   808 shell-pairs
 IPart=  0 NShTot=         808 NBatch=          85 AvBLen=         9.5
 PrSmSu:  NxtVal=              9.
 CnvPC2: ToCart=F DoDens=F IPureD=0 IPureF=0.
 Transformed matrix in CnvPC2: 
                 1             2             3             4             5 
      1   0.999798D+00  0.415548D+00  0.000000D+00  0.000000D+00  0.000000D+00
      2   0.293248D+00  0.988242D+00  0.000000D+00  0.000000D+00  0.000000D+00
      3   0.000000D+00  0.000000D+00  0.999275D+00  0.000000D+00  0.000000D+00
      4   0.000000D+00  0.000000D+00  0.000000D+00  0.999275D+00  0.000000D+00
      5   0.000000D+00  0.000000D+00  0.000000D+00  0.000000D+00  0.999275D+00
      6   0.164441D-01  0.340773D+00  0.000000D+00  0.000000D+00  0.000000D+00
      7   0.000000D+00  0.000000D+00  0.366606D+00  0.000000D+00  0.000000D+00
      8   0.000000D+00  0.000000D+00  0.000000D+00  0.366606D+00  0.000000D+00
      9   0.000000D+00  0.000000D+00  0.000000D+00  0.000000D+00  0.366606D+00
     10   0.000000D+00  0.000000D+00  0.000000D+00  0.000000D+00  0.000000D+00
     11   0.000000D+00  0.000000D+00  0.000000D+00  0.000000D+00  0.000000D+00
     12   0.000000D+00  0.000000D+00  0.000000D+00  0.000000D+00  0.000000D+00
     13   0.000000D+00  0.000000D+00  0.000000D+00  0.000000D+00  0.000000D+00
     14   0.000000D+00  0.000000D+00  0.000000D+00  0.000000D+00  0.000000D+00
     15   0.296716D-03  0.163281D-01  0.000000D+00  0.000000D+00  0.000000D+00
     16   0.542878D-02  0.325893D-01  0.000000D+00  0.000000D+00  0.000000D+00
     17   0.000000D+00  0.000000D+00  0.137109D-01  0.000000D+00  0.000000D+00
     18   0.000000D+00  0.000000D+00  0.000000D+00  0.137109D-01  0.000000D+00
     19   0.000000D+00  0.000000D+00  0.000000D+00  0.000000D+00  0.137109D-01
     20   0.000000D+00  0.000000D+00  0.122797D-02  0.000000D+00  0.000000D+00
     21   0.000000D+00  0.000000D+00  0.000000D+00  0.122797D-02  0.000000D+00
     22   0.000000D+00  0.000000D+00  0.000000D+00  0.000000D+00  0.122797D-02
     23   0.132418D+00  0.624056D+00  0.000000D+00  0.000000D+00  0.000000D+00
     24   0.875550D-01  0.455788D+00  0.000000D+00  0.000000D+00  0.000000D+00
     25   0.575283D-01  0.318319D+00  0.000000D+00  0.000000D+00  0.000000D+00
     26   0.376625D-01  0.216080D+00  0.000000D+00  0.000000D+00  0.000000D+00
     27   0.246059D-01  0.144174D+00  0.000000D+00  0.000000D+00  0.000000D+00
     28   0.000000D+00  0.000000D+00  0.216621D+00  0.000000D+00  0.000000D+00
     29   0.000000D+00  0.000000D+00  0.000000D+00  0.216621D+00  0.000000D+00
     30   0.000000D+00  0.000000D+00  0.000000D+00  0.000000D+00  0.216621D+00
     31   0.000000D+00  0.000000D+00  0.123969D+00  0.000000D+00  0.000000D+00
     32   0.000000D+00  0.000000D+00  0.000000D+00  0.123969D+00  0.000000D+00
     33   0.000000D+00  0.000000D+00  0.000000D+00  0.000000D+00  0.123969D+00
     34   0.000000D+00  0.000000D+00  0.680971D-01  0.000000D+00  0.000000D+00
     35   0.000000D+00  0.000000D+00  0.000000D+00  0.680971D-01  0.000000D+00
     36   0.000000D+00  0.000000D+00  0.000000D+00  0.000000D+00  0.680971D-01
     37   0.000000D+00  0.000000D+00  0.364370D-01  0.000000D+00  0.000000D+00
     38   0.000000D+00  0.000000D+00  0.000000D+00  0.364370D-01  0.000000D+00
     39   0.000000D+00  0.000000D+00  0.000000D+00  0.000000D+00  0.364370D-01
     40   0.000000D+00  0.000000D+00  0.191823D-01  0.000000D+00  0.000000D+00
     41   0.000000D+00  0.000000D+00  0.000000D+00  0.191823D-01  0.000000D+00
     42   0.000000D+00  0.000000D+00  0.000000D+00  0.000000D+00  0.191823D-01
     43   0.000000D+00  0.000000D+00  0.000000D+00  0.000000D+00  0.000000D+00
     44   0.000000D+00  0.000000D+00  0.000000D+00  0.000000D+00  0.000000D+00
     45   0.000000D+00  0.000000D+00  0.000000D+00  0.000000D+00  0.000000D+00
     46   0.000000D+00  0.000000D+00  0.000000D+00  0.000000D+00  0.000000D+00
     47   0.000000D+00  0.000000D+00  0.000000D+00  0.000000D+00  0.000000D+00
     48   0.000000D+00  0.000000D+00  0.000000D+00  0.000000D+00  0.000000D+00
     49   0.000000D+00  0.000000D+00  0.000000D+00  0.000000D+00  0.000000D+00
     50   0.000000D+00  0.000000D+00  0.000000D+00  0.000000D+00  0.000000D+00
     51   0.000000D+00  0.000000D+00  0.000000D+00  0.000000D+00  0.000000D+00
     52   0.000000D+00  0.000000D+00  0.000000D+00  0.000000D+00  0.000000D+00
     53   0.000000D+00  0.000000D+00  0.000000D+00  0.000000D+00  0.000000D+00
     54   0.000000D+00  0.000000D+00  0.000000D+00  0.000000D+00  0.000000D+00
     55   0.000000D+00  0.000000D+00  0.000000D+00  0.000000D+00  0.000000D+00
     56   0.000000D+00  0.000000D+00  0.000000D+00  0.000000D+00  0.000000D+00
     57   0.000000D+00  0.000000D+00  0.000000D+00  0.000000D+00  0.000000D+00
     58   0.000000D+00  0.000000D+00  0.000000D+00  0.000000D+00  0.000000D+00
     59   0.000000D+00  0.000000D+00  0.000000D+00  0.000000D+00  0.000000D+00
     60   0.000000D+00  0.000000D+00  0.000000D+00  0.000000D+00  0.000000D+00
     61   0.000000D+00  0.000000D+00  0.000000D+00  0.000000D+00  0.000000D+00
     62   0.000000D+00  0.000000D+00  0.000000D+00  0.000000D+00  0.000000D+00
     63   0.000000D+00  0.000000D+00  0.000000D+00  0.000000D+00  0.000000D+00
     64   0.000000D+00  0.000000D+00  0.000000D+00  0.000000D+00  0.000000D+00
     65   0.000000D+00  0.000000D+00  0.000000D+00  0.000000D+00  0.000000D+00
     66   0.000000D+00  0.000000D+00  0.000000D+00  0.000000D+00  0.000000D+00
     67   0.000000D+00  0.000000D+00  0.000000D+00  0.000000D+00  0.000000D+00
     68   0.000000D+00  0.000000D+00  0.000000D+00  0.000000D+00  0.000000D+00
     69   0.000000D+00  0.000000D+00  0.000000D+00  0.000000D+00  0.000000D+00
     70   0.000000D+00  0.000000D+00  0.000000D+00  0.000000D+00  0.000000D+00
     71   0.000000D+00  0.000000D+00  0.000000D+00  0.000000D+00  0.000000D+00
     72   0.000000D+00  0.000000D+00  0.000000D+00  0.000000D+00  0.000000D+00
     73   0.000000D+00  0.000000D+00  0.000000D+00  0.000000D+00  0.000000D+00
     74   0.000000D+00  0.000000D+00  0.000000D+00  0.000000D+00  0.000000D+00
     75   0.000000D+00  0.000000D+00  0.000000D+00  0.000000D+00  0.000000D+00
     76   0.000000D+00  0.000000D+00  0.000000D+00  0.000000D+00  0.000000D+00
     77   0.000000D+00  0.000000D+00  0.000000D+00  0.000000D+00  0.000000D+00
     78   0.000000D+00  0.000000D+00  0.000000D+00  0.000000D+00  0.000000D+00
     79   0.000000D+00  0.000000D+00  0.000000D+00  0.000000D+00  0.000000D+00
     80   0.000000D+00  0.000000D+00  0.000000D+00  0.000000D+00  0.000000D+00
     81   0.000000D+00  0.000000D+00  0.000000D+00  0.000000D+00  0.000000D+00
     82   0.000000D+00  0.000000D+00  0.000000D+00  0.000000D+00  0.000000D+00
     83   0.000000D+00  0.000000D+00  0.000000D+00  0.000000D+00  0.000000D+00
     84   0.000000D+00  0.000000D+00  0.000000D+00  0.000000D+00  0.000000D+00
     85   0.000000D+00  0.000000D+00  0.000000D+00  0.000000D+00  0.000000D+00
     86   0.000000D+00  0.000000D+00  0.000000D+00  0.000000D+00  0.000000D+00
     87   0.000000D+00  0.000000D+00  0.000000D+00  0.000000D+00  0.000000D+00
     88   0.000000D+00  0.000000D+00  0.000000D+00  0.000000D+00  0.000000D+00
     89   0.000000D+00  0.000000D+00  0.000000D+00  0.000000D+00  0.000000D+00
     90   0.000000D+00  0.000000D+00  0.000000D+00  0.000000D+00  0.000000D+00
     91   0.000000D+00  0.000000D+00  0.000000D+00  0.000000D+00  0.000000D+00
     92   0.000000D+00  0.000000D+00  0.000000D+00  0.000000D+00  0.000000D+00
     93   0.000000D+00  0.000000D+00  0.000000D+00  0.000000D+00  0.000000D+00
     94   0.000000D+00  0.000000D+00  0.000000D+00  0.000000D+00  0.000000D+00
     95   0.000000D+00  0.000000D+00  0.000000D+00  0.000000D+00  0.000000D+00
     96   0.000000D+00  0.000000D+00  0.000000D+00  0.000000D+00  0.000000D+00
     97   0.000000D+00  0.000000D+00  0.000000D+00  0.000000D+00  0.000000D+00
     98   0.000000D+00  0.000000D+00  0.000000D+00  0.000000D+00  0.000000D+00
     99   0.000000D+00  0.000000D+00  0.000000D+00  0.000000D+00  0.000000D+00
    100   0.000000D+00  0.000000D+00  0.000000D+00  0.000000D+00  0.000000D+00
    101   0.000000D+00  0.000000D+00  0.000000D+00  0.000000D+00  0.000000D+00
    102   0.000000D+00  0.000000D+00  0.000000D+00  0.000000D+00  0.000000D+00
    103   0.000000D+00  0.000000D+00  0.000000D+00  0.000000D+00  0.000000D+00
    104   0.000000D+00  0.000000D+00  0.000000D+00  0.000000D+00  0.000000D+00
    105   0.000000D+00  0.000000D+00  0.000000D+00  0.000000D+00  0.000000D+00
    106   0.000000D+00  0.000000D+00  0.000000D+00  0.000000D+00  0.000000D+00
    107   0.000000D+00  0.000000D+00  0.000000D+00  0.000000D+00  0.000000D+00
    108   0.000000D+00  0.000000D+00  0.000000D+00  0.000000D+00  0.000000D+00
    109   0.000000D+00  0.000000D+00  0.000000D+00  0.000000D+00  0.000000D+00
    110   0.000000D+00  0.000000D+00  0.000000D+00  0.000000D+00  0.000000D+00
    111   0.000000D+00  0.000000D+00  0.000000D+00  0.000000D+00  0.000000D+00
    112   0.000000D+00  0.000000D+00  0.000000D+00  0.000000D+00  0.000000D+00
[...]
----------------------------------------------------------------------
   29    | -0.020282 -0.006252 -0.000040 -0.006074 -0.001665  0.000000
   29    |  0.000000 -0.006252 -0.000040 -0.006074 -0.001665  0.000000
         |
   30    | -0.008938 -0.020282 -0.000040 -0.006074 -0.001665  0.000000
   30    | -0.008938  0.000000 -0.000040 -0.006074 -0.001665  0.000000
         |
   31    | -0.000042 -0.000042 -0.020512 -0.000111 -0.000002 -0.001490
   31    | -0.000042 -0.000042  0.000000 -0.000111 -0.000002 -0.001490
         |
   32    | -0.008901 -0.008901 -0.000130 -0.020512 -0.001490 -0.000002
   32    | -0.008901 -0.008901 -0.000130  0.000000 -0.001490 -0.000002
         |
   33    | -0.007951 -0.007951 -0.000004 -0.007218 -0.010724  0.000000
   33    | -0.007951 -0.007951 -0.000004 -0.007218  0.000000  0.000000
         |
   34    | -0.000001 -0.000001 -0.007218 -0.000004  0.000000 -0.010724
   34    | -0.000001 -0.000001 -0.007218 -0.000004  0.000000  0.000000
         |
   35    | -0.000019 -0.000016 -0.008900 -0.000042 -0.000001 -0.007951
   35    | -0.000019 -0.000016 -0.008900 -0.000042 -0.000001 -0.007951
         |
   36    | -0.000016 -0.000019 -0.008900 -0.000042 -0.000001 -0.007951
   36    | -0.000016 -0.000019 -0.008900 -0.000042 -0.000001 -0.007951
         |

 AB - AA |     35        36
 BA - BB |     35        36
------------------------------
   29    | -0.000019 -0.000016
   29    | -0.000019 -0.000016
         |
   30    | -0.000016 -0.000019
   30    | -0.000016 -0.000019
         |
   31    | -0.006074 -0.006074
   31    | -0.006074 -0.006074
         |
   32    | -0.000040 -0.000040
   32    | -0.000040 -0.000040
         |
   33    |  0.000000  0.000000
   33    |  0.000000  0.000000
         |
   34    | -0.001665 -0.001665
   34    | -0.001665 -0.001665
         |
   35    | -0.020282 -0.006252
   35    |  0.000000 -0.006252
         |
   36    | -0.008937 -0.020282
   36    | -0.008937  0.000000
         |

                     Sum of ab pair energies =    -0.243698 A.U.
                     Sum of ba pair energies =    -0.100098 A.U.
                     Sum of aa pair energies =    -0.046785 A.U.
                     Sum of bb pair energies =    -0.046785 A.U.

           Sum of intraorbital pair energies =    -0.143600 A.U.
           Sum of interorbital pair energies =    -0.293767 A.U.
                                                  ----------
                         Total pair energies =    -0.437366 A.U.

                         Single Excitations  =     0.000000 A.U.

                          Total second order =    -0.437366 A.U.



            MP2(CBS) (With Interference Correction) 
            ---------------------------------------

 AB - AA |     29        30        31        32        33        34
 BA - BB |     29        30        31        32        33        34
----------------------------------------------------------------------
   29    | -0.019762 -0.006238 -0.000040 -0.006060 -0.001658  0.000000
   29    |  0.000000 -0.006238 -0.000040 -0.006060 -0.001658  0.000000
         |
   30    | -0.008797 -0.019762 -0.000040 -0.006060 -0.001658  0.000000
   30    | -0.008797  0.000000 -0.000040 -0.006060 -0.001658  0.000000
         |
   31    | -0.000042 -0.000042 -0.020019 -0.000111 -0.000002 -0.001484
   31    | -0.000042 -0.000042  0.000000 -0.000111 -0.000002 -0.001484
         |
   32    | -0.008758 -0.008758 -0.000130 -0.020019 -0.001484 -0.000002
   32    | -0.008758 -0.008758 -0.000130  0.000000 -0.001484 -0.000002
         |
   33    | -0.007757 -0.007757 -0.000004 -0.007046 -0.010429  0.000000
   33    | -0.007757 -0.007757 -0.000004 -0.007046  0.000000  0.000000
         |
   34    | -0.000001 -0.000001 -0.007046 -0.000004  0.000000 -0.010429
   34    | -0.000001 -0.000001 -0.007046 -0.000004  0.000000  0.000000
         |
   35    | -0.000019 -0.000016 -0.008758 -0.000042 -0.000001 -0.007757
   35    | -0.000019 -0.000016 -0.008758 -0.000042 -0.000001 -0.007757
         |
   36    | -0.000016 -0.000019 -0.008758 -0.000042 -0.000001 -0.007757
   36    | -0.000016 -0.000019 -0.008758 -0.000042 -0.000001 -0.007757
         |

 AB - AA |     35        36
 BA - BB |     35        36
------------------------------
   29    | -0.000019 -0.000016
   29    | -0.000019 -0.000016
         |
   30    | -0.000016 -0.000019
   30    | -0.000016 -0.000019
         |
   31    | -0.006060 -0.006060
   31    | -0.006060 -0.006060
         |
   32    | -0.000040 -0.000040
   32    | -0.000040 -0.000040
         |
   33    |  0.000000  0.000000
   33    |  0.000000  0.000000
         |
   34    | -0.001658 -0.001658
   34    | -0.001658 -0.001658
         |
   35    | -0.019762 -0.006238
   35    |  0.000000 -0.006238
         |
   36    | -0.008796 -0.019762
   36    | -0.008796  0.000000
         |

                     Sum of ab pair energies =    -0.238073 A.U.
                     Sum of ba pair energies =    -0.098130 A.U.
                     Sum of aa pair energies =    -0.046664 A.U.
                     Sum of bb pair energies =    -0.046664 A.U.

           Sum of intraorbital pair energies =    -0.139943 A.U.
           Sum of interorbital pair energies =    -0.289587 A.U.
                                                  ----------
                         Total pair energies =    -0.429530 A.U.

                         Single Excitations  =     0.000000 A.U.

                          Total second order =    -0.429530 A.U.

                         E2(CBS) - E2(Dir) =      -0.017500 A.U.

 E2(CBS)=      -0.437366 CBS-Int=       0.007836 OIii=       3.518511

 **********************************************************************

            Population analysis using the SCF density.

 **********************************************************************

 Orbital symmetries:
       Occupied  (SGU) (SGG) (SGU) (SGG) (PIG) (PIG) (PIU) (PIU)
                 (SGG) (SGU) (SGU) (SGG) (PIG) (PIG) (PIU) (PIU)
                 (SGU) (SGG) (DLTU) (DLTU) (DLTG) (DLTG) (PIG)
                 (PIG) (PIU) (PIU) (SGU) (SGG) (SGG) (SGU) (SGG)
                 (PIU) (PIU) (PIG) (PIG) (SGU)
       Virtual   (SGU) (PIU) (PIU) (SGG) (PIG) (PIG) (SGG) (SGU)
                 (PIU) (PIU) (DLTG) (DLTG) (DLTU) (DLTU) (SGG)
                 (SGU) (PIG) (PIG) (SGG) (PIU) (PIU) (PIG) (PIG)
                 (SGG) (PIU) (PIU) (DLTG) (DLTG) (SGU) (DLTU) (DLTU)
                 (DLTG) (DLTG) (PIG) (PIG) (PHIU) (PHIU) (SGU)
                 (PIU) (PIU) (PHIG) (PHIG) (SGG) (DLTU) (DLTU)
                 (PIG) (PIG) (SGU) (SGG) (SGU) (DLTG) (DLTG) (PIU)
                 (PIU) (PHIU) (PHIU) (?A) (?A) (?B) (?B) (SGG)
                 (PHIG) (PHIG) (DLTU) (DLTU) (SGU) (PIG) (PIG)
                 (DLTG) (DLTG) (PIU) (PIU) (DLTU) (DLTU) (SGG)
                 (PIG) (PIG) (DLTG) (DLTG) (PHIU) (PHIU) (PHIG)
                 (PHIG) (SGU) (PIU) (PIU) (SGU) (DLTU) (DLTU) (SGG)
                 (PIG) (PIG) (PIU) (PIU) (PIG) (PIG) (SGG) (PIU)
                 (PIU) (DLTG) (DLTG) (PHIU) (PHIU) (SGG) (?A) (?A)
                 (?C) (?C) (?D) (?D) (?B) (?B) (PHIG) (PHIG) (SGU)
                 (DLTU) (DLTU) (PIG) (PIG) (SGU) (DLTG) (DLTG)
                 (PHIU) (PHIU) (?A) (?A) (?B) (?B) (PHIG) (PHIG)
                 (PIU) (PIU) (SGG) (DLTU) (DLTU) (SGU) (PIG) (PIG)
                 (SGG) (SGU) (DLTG) (DLTG) (PIU) (PIU) (DLTU) (DLTU)
                 (SGG) (DLTG) (DLTG) (PHIU) (PHIU) (PHIG) (PHIG)
                 (PIG) (PIG) (PIU) (PIU) (DLTU) (DLTU) (SGU) (PIG)
                 (PIG) (SGG) (SGU) (PIU) (PIU) (PIG) (PIG) (SGG)
                 (SGU) (DLTG) (DLTG) (PIU) (PIU) (PHIU) (PHIU)
                 (?A) (?A) (SGG) (?C) (?C) (?D) (?D) (?B) (?B)
                 (PHIG) (PHIG) (DLTU) (DLTU) (PIG) (PIG) (SGU)
                 (DLTG) (DLTG) (PHIU) (PHIU) (?A) (?A) (?B) (?B)
                 (PHIG) (PHIG) (PIU) (PIU) (DLTU) (DLTU) (SGG)
                 (PIG) (PIG) (SGU) (DLTG) (DLTG) (PHIU) (PHIU)
                 (PHIG) (PHIG) (PIU) (PIU) (DLTU) (DLTU) (SGU)
                 (PIG) (PIG) (SGG) (DLTG) (DLTG) (PIU) (PIU) (DLTU)
                 (DLTU) (SGG) (PIG) (PIG) (SGU) (SGG) (SGU) (?E)
                 (?E) (?F) (?F) (?C) (?C) (?D) (?D) (?A) (?A) (?B)
                 (?B) (PHIU) (PHIU) (PHIG) (PHIG) (DLTG) (DLTG)
                 (DLTU) (DLTU) (PIU) (PIU) (SGG) (PIG) (PIG) (SGU)
                 (DLTG) (DLTG) (PHIU) (PHIU) (?A) (?A) (?B) (?B)
                 (PHIG) (PHIG) (PIU) (PIU) (SGU) (DLTU) (DLTU)
                 (SGG) (PIG) (PIG) (PIU) (PIU) (PIG) (PIG) (SGG)
                 (SGU) (DLTG) (DLTG) (PIU) (PIU) (PHIU) (PHIU)
                 (?A) (?A) (?C) (?C) (?D) (?D) (?B) (?B) (PHIG)
                 (PHIG) (SGG) (DLTU) (DLTU) (PIG) (PIG) (SGU) (DLTG)
                 (DLTG) (PHIU) (PHIU) (PHIG) (PHIG) (PIU) (PIU)
                 (DLTU) (DLTU) (SGU) (PIG) (PIG) (SGG) (DLTG) (DLTG)
                 (PIU) (PIU) (DLTU) (DLTU) (SGG) (PIG) (PIG) (SGU)
                 (SGG) (SGU) (PIU) (PIU) (PIG) (PIG) (SGG) (SGU)
                 (SGG) (SGU)
 The electronic state is 1-SGG.
 Alpha  occ. eigenvalues -- -520.16504-520.16504 -69.90271 -69.90271 -63.00941
 Alpha  occ. eigenvalues --  -63.00941 -63.00941 -63.00941 -63.00940 -63.00940
 Alpha  occ. eigenvalues --  -10.84912 -10.84912  -8.33117  -8.33117  -8.33117
 Alpha  occ. eigenvalues --   -8.33117  -8.33115  -8.33115  -3.82491  -3.82491
 Alpha  occ. eigenvalues --   -3.82491  -3.82491  -3.82488  -3.82488  -3.82488
 Alpha  occ. eigenvalues --   -3.82488  -3.82487  -3.82487  -1.15375  -1.15189
 Alpha  occ. eigenvalues --   -0.53364  -0.52541  -0.52541  -0.52268  -0.52268
 Alpha  occ. eigenvalues --   -0.51476
 Alpha virt. eigenvalues --    0.06674   0.08270   0.08270   0.10297   0.10676
 Alpha virt. eigenvalues --    0.10676   0.11098   0.19703   0.21575   0.21575
 Alpha virt. eigenvalues --    0.22128   0.22128   0.25150   0.25150   0.26095
 Alpha virt. eigenvalues --    0.30648   0.30812   0.30812   0.46590   0.47617
 Alpha virt. eigenvalues --    0.47617   0.50683   0.50683   0.54279   0.55294
 Alpha virt. eigenvalues --    0.55294   0.55411   0.55411   0.56175   0.57335
 Alpha virt. eigenvalues --    0.57335   0.57497   0.57497   0.59318   0.59318
 Alpha virt. eigenvalues --    0.60053   0.60053   0.60176   0.61127   0.61127
 Alpha virt. eigenvalues --    0.61756   0.61756   0.66388   0.66922   0.66922
 Alpha virt. eigenvalues --    0.79284   0.79284   0.83564   0.83727   0.95921
 Alpha virt. eigenvalues --    1.02572   1.02572   1.04417   1.04417   1.06321
 Alpha virt. eigenvalues --    1.06321   1.08708   1.08708   1.09260   1.09260
 Alpha virt. eigenvalues --    1.09720   1.11719   1.11719   1.19142   1.19142
 Alpha virt. eigenvalues --    1.23140   1.26182   1.26182   1.28100   1.28100
 Alpha virt. eigenvalues --    1.29168   1.29168   1.29881   1.29881   1.30547
 Alpha virt. eigenvalues --    1.36456   1.36456   1.44594   1.44594   1.45398
 Alpha virt. eigenvalues --    1.45398   1.46615   1.46615   1.47383   1.49425
 Alpha virt. eigenvalues --    1.49425   1.50181   1.50983   1.50983   1.55048
 Alpha virt. eigenvalues --    1.56365   1.56365   1.59535   1.59535   1.70023
 Alpha virt. eigenvalues --    1.70023   1.70629   1.87931   1.87931   1.88109
 Alpha virt. eigenvalues --    1.88109   1.91670   1.91670   1.93822   1.93882
 Alpha virt. eigenvalues --    1.93882   1.94322   1.94322   1.94380   1.94380
 Alpha virt. eigenvalues --    1.94812   1.94812   1.97270   1.97270   2.03370
 Alpha virt. eigenvalues --    2.04409   2.04409   2.16014   2.16014   2.31298
 Alpha virt. eigenvalues --    2.43481   2.43481   2.44018   2.44018   2.45553
 Alpha virt. eigenvalues --    2.45553   2.46015   2.46015   2.48108   2.48108
 Alpha virt. eigenvalues --    2.49686   2.49686   2.53535   2.55408   2.55408
 Alpha virt. eigenvalues --    2.57245   2.65796   2.65796   2.66803   2.72604
 Alpha virt. eigenvalues --    2.78768   2.78768   2.79417   2.79417   2.80563
 Alpha virt. eigenvalues --    2.80563   2.84789   2.86361   2.86361   2.86812
 Alpha virt. eigenvalues --    2.86812   2.87784   2.87784   2.89630   2.89630
 Alpha virt. eigenvalues --    2.91599   2.91599   2.91799   2.91799   2.93313
 Alpha virt. eigenvalues --    3.04970   3.04970   3.10049   3.26882   3.94603
 Alpha virt. eigenvalues --    3.94603   3.98894   3.98894   4.04227   4.41305
 Alpha virt. eigenvalues --    4.45322   4.45322   4.46035   4.46035   4.47495
 Alpha virt. eigenvalues --    4.47495   4.48973   4.48973   4.49069   4.49261
 Alpha virt. eigenvalues --    4.49261   4.49299   4.49299   4.49587   4.49587
 Alpha virt. eigenvalues --    4.51156   4.51156   4.55120   4.55120   4.60587
 Alpha virt. eigenvalues --    4.60587   4.66349   4.71681   4.71681   4.71750
 Alpha virt. eigenvalues --    4.71750   4.72874   4.72874   4.73242   4.73242
 Alpha virt. eigenvalues --    4.74960   4.74960   4.77950   4.77950   4.81482
 Alpha virt. eigenvalues --    4.81482   4.89178   4.95348   4.95348   4.96034
 Alpha virt. eigenvalues --    5.65735   5.65735   5.66224   5.66224   5.67047
 Alpha virt. eigenvalues --    5.67047   5.69697   5.69697   5.69998   5.69998
 Alpha virt. eigenvalues --    5.74107   5.78643   5.78643   5.82995   5.95437
 Alpha virt. eigenvalues --    5.95437   5.96147   5.96147   5.97147   5.97147
 Alpha virt. eigenvalues --    6.02513   6.02982   6.02982   6.12381   7.10590
 Alpha virt. eigenvalues --    7.29999   7.50126   7.50126   7.50126   7.50126
 Alpha virt. eigenvalues --    7.50128   7.50128   7.50128   7.50128   7.50129
 Alpha virt. eigenvalues --    7.50129   7.50129   7.50129   7.50130   7.50130
 Alpha virt. eigenvalues --    7.50130   7.50130   7.50133   7.50133   7.50138
 Alpha virt. eigenvalues --    7.50138   7.50146   7.50146   7.50155   7.50246
 Alpha virt. eigenvalues --    7.50246   7.50906   8.48709   8.48709   8.48920
 Alpha virt. eigenvalues --    8.48920   8.49903   8.49903   8.50193   8.50193
 Alpha virt. eigenvalues --    8.51424   8.51424   8.53963   8.53963   8.54871
 Alpha virt. eigenvalues --    8.54999   8.54999   8.56353   8.58577   8.58577
 Alpha virt. eigenvalues --    8.75851   8.75851   8.80669   8.80669   8.88407
 Alpha virt. eigenvalues --    9.17165   9.17977   9.17977   9.18262   9.18262
 Alpha virt. eigenvalues --    9.19302   9.19302   9.20153   9.20153   9.20323
 Alpha virt. eigenvalues --    9.20323   9.20345   9.20345   9.20524   9.20524
 Alpha virt. eigenvalues --    9.21614   9.21614   9.23801   9.25522   9.25522
 Alpha virt. eigenvalues --    9.34863   9.34863   9.46589  10.65056  10.65056
 Alpha virt. eigenvalues --   10.65508  10.65508  10.66198  10.66198  10.68224
 Alpha virt. eigenvalues --   10.68224  10.68623  10.68623  10.73118  10.75389
 Alpha virt. eigenvalues --   10.75389  10.79317  12.92362  12.92362  12.92914
 Alpha virt. eigenvalues --   12.92914  12.93793  12.93793  12.97959  12.98347
 Alpha virt. eigenvalues --   12.98347  13.07572  18.48399  18.64334  20.82811
 Alpha virt. eigenvalues --   20.82811  20.86881  20.86881  20.92274  21.33668
 Alpha virt. eigenvalues --  724.34732 724.35145
          Condensed to atoms (all electrons):
              1          2
     1  Kr  36.002631  -0.002631
     2  Kr  -0.002631  36.002631
          Atomic-Atomic Spin Densities.
              1          2
     1  Kr   0.000000   0.000000
     2  Kr   0.000000   0.000000
 Mulliken charges and spin densities:
              1          2
     1  Kr   0.000000   0.000000
     2  Kr   0.000000   0.000000
 Sum of Mulliken charges =   0.00000 spin densities =   0.000000
 Mulliken charges and spin densities with hydrogens summed into heavy atoms:
              1          2
     1  Kr   0.000000   0.000000
     2  Kr   0.000000   0.000000
 Sum of Mulliken charges with hydrogens summed into heavy atoms =   0.00000 spin densities =   0.000000
 Electronic spatial extent (au):  <R**2>=           1107.9957
 Charge=              0.0000 electrons
 Dipole moment (field-independent basis, Debye):
    X=              0.0000    Y=              0.0000    Z=              0.0000  Tot=              0.0000
 Quadrupole moment (field-independent basis, Debye-Ang):
   XX=            -35.4415   YY=            -35.4415   ZZ=            -35.5328
   XY=              0.0000   XZ=              0.0000   YZ=              0.0000
 Traceless Quadrupole moment (field-independent basis, Debye-Ang):
   XX=              0.0304   YY=              0.0304   ZZ=             -0.0609
   XY=              0.0000   XZ=              0.0000   YZ=              0.0000
 Octapole moment (field-independent basis, Debye-Ang**2):
  XXX=              0.0000  YYY=              0.0000  ZZZ=              0.0000  XYY=              0.0000
  XXY=              0.0000  XXZ=              0.0000  XZZ=              0.0000  YZZ=              0.0000
  YYZ=              0.0000  XYZ=              0.0000
 Hexadecapole moment (field-independent basis, Debye-Ang**3):
 XXXX=            -37.0179 YYYY=            -37.0179 ZZZZ=           -888.9094 XXXY=              0.0000
 XXXZ=              0.0000 YYYX=              0.0000 YYYZ=              0.0000 ZZZX=              0.0000
 ZZZY=              0.0000 XXYY=            -12.3393 XXZZ=           -154.2272 YYZZ=           -154.2272
 XXYZ=              0.0000 YYXZ=              0.0000 ZZXY=              0.0000
 N-N= 1.714191317568D+02 E-N=-2.026203942945D+04  KE= 8.256183129451D+03
                          Isotropic Fermi Contact Couplings
        Atom                 a.u.       MegaHertz       Gauss      10(-4) cm-1
     1  Kr(83)             0.00000       0.00000       0.00000       0.00000
     2  Kr(83)             0.00000       0.00000       0.00000       0.00000
 --------------------------------------------------------
       Center         ----  Spin Dipole Couplings  ----
                      3XX-RR        3YY-RR        3ZZ-RR
 --------------------------------------------------------
     1   Atom        0.000000      0.000000      0.000000
     2   Atom        0.000000      0.000000      0.000000
 --------------------------------------------------------
                        XY            XZ            YZ
 --------------------------------------------------------
     1   Atom        0.000000      0.000000      0.000000
     2   Atom        0.000000      0.000000      0.000000
 --------------------------------------------------------


 ---------------------------------------------------------------------------------
              Anisotropic Spin Dipole Couplings in Principal Axis System
 ---------------------------------------------------------------------------------

       Atom             a.u.   MegaHertz   Gauss  10(-4) cm-1        Axes

              Baa     0.0000     0.000     0.000     0.000  1.0000  0.0000  0.0000
     1 Kr(83) Bbb     0.0000     0.000     0.000     0.000  0.0000  1.0000  0.0000
              Bcc     0.0000     0.000     0.000     0.000  0.0000  0.0000  1.0000
 
              Baa     0.0000     0.000     0.000     0.000  1.0000  0.0000  0.0000
     2 Kr(83) Bbb     0.0000     0.000     0.000     0.000  0.0000  1.0000  0.0000
              Bcc     0.0000     0.000     0.000     0.000  0.0000  0.0000  1.0000
 

 ---------------------------------------------------------------------------------


 Test job not archived.
 1\1\GINC-C31\SP\ROMP2-RW\Gen\Kr2\GPETERSSON\14-Jun-2013\0\\# ROMP2(RW)
  Gen GFinput Int=NoBasisTransform Int(Grid=Ultrafine) IOp(3/32=2,5/6=1
 0,8/11=1,9/33=1) Maxdisk=128GB CBSextrapolate(Nmin=20,MinPop)\\Kr2\\0,
 1\Kr\Kr,1,4.0008\\Version=EM64L-GDVRevH.12\State=1-SGG\HF=-5504.109206
 2\MP2=-5504.5290725\E2(CBS)=-0.4373663\CBS-Int=-0.4295304\OIii=3.51851
 12\RMSD=2.072e-11\PG=D*H [C*(Kr1.Kr1)]\\@


 THERE ARE PEOPLE SO ADDICTED TO EXAGERATING THEY
 CAN'T TELL THE TRUTH WITHOUT LYING. -- FORTUNE COOKIE
 Job cpu time:  0 days 11 hours 50 minutes 49.4 seconds.
 File lengths (MBytes):  RWF=   4305 Int=      0 D2E=      0 Chk=     12 Scr=      1
 Normal termination of Gaussian DV at Fri Jun 14 21:31:49 2013.
