 Entering Gaussian System, Link 0=g09
 AtFile(1): 7ZaPa-NR.gbs
 Initial command:
 /share/apps/gaussian/g09root/g09/l1.exe /localscratch/72228/Gau-456.inp -scrdir=/localscratch/72228/
 Entering Link 1 = /share/apps/gaussian/g09root/g09/l1.exe PID=       457.
  
 Copyright (c) 1988,1990,1992,1993,1995,1998,2003,2009, Gaussian, Inc.
                  All Rights Reserved.
  
 This is part of the Gaussian(R) 09 program.  It is based on
 the Gaussian(R) 03 system (copyright 2003, Gaussian, Inc.),
 the Gaussian(R) 98 system (copyright 1998, Gaussian, Inc.),
 the Gaussian(R) 94 system (copyright 1995, Gaussian, Inc.),
 the Gaussian 92(TM) system (copyright 1992, Gaussian, Inc.),
 the Gaussian 90(TM) system (copyright 1990, Gaussian, Inc.),
 the Gaussian 88(TM) system (copyright 1988, Gaussian, Inc.),
 the Gaussian 86(TM) system (copyright 1986, Carnegie Mellon
 University), and the Gaussian 82(TM) system (copyright 1983,
 Carnegie Mellon University). Gaussian is a federally registered
 trademark of Gaussian, Inc.
  
 This software contains proprietary and confidential information,
 including trade secrets, belonging to Gaussian, Inc.
  
 This software is provided under written license and may be
 used, copied, transmitted, or stored only in accord with that
 written license.
  
 The following legend is applicable only to US Government
 contracts under FAR:
  
                    RESTRICTED RIGHTS LEGEND
  
 Use, reproduction and disclosure by the US Government is
 subject to restrictions as set forth in subparagraphs (a)
 and (c) of the Commercial Computer Software - Restricted
 Rights clause in FAR 52.227-19.
  
 Gaussian, Inc.
 340 Quinnipiac St., Bldg. 40, Wallingford CT 06492
  
  
 ---------------------------------------------------------------
 Warning -- This program may not be used in any manner that
 competes with the business of Gaussian, Inc. or will provide
 assistance to any competitor of Gaussian, Inc.  The licensee
 of this program is prohibited from giving any competitor of
 Gaussian, Inc. access to this program.  By using this program,
 the user acknowledges that Gaussian, Inc. is engaged in the
 business of creating and licensing software in the field of
 computational chemistry and represents and warrants to the
 licensee that it is not a competitor of Gaussian, Inc. and that
 it will not use this program in any manner prohibited above.
 ---------------------------------------------------------------
  

 Cite this work as:
 Gaussian 09, Revision A.02,
 M. J. Frisch, G. W. Trucks, H. B. Schlegel, G. E. Scuseria, 
 M. A. Robb, J. R. Cheeseman, G. Scalmani, V. Barone, B. Mennucci, 
 G. A. Petersson, H. Nakatsuji, M. Caricato, X. Li, H. P. Hratchian, 
 A. F. Izmaylov, J. Bloino, G. Zheng, J. L. Sonnenberg, M. Hada, 
 M. Ehara, K. Toyota, R. Fukuda, J. Hasegawa, M. Ishida, T. Nakajima, 
 Y. Honda, O. Kitao, H. Nakai, T. Vreven, J. A. Montgomery, Jr., 
 J. E. Peralta, F. Ogliaro, M. Bearpark, J. J. Heyd, E. Brothers, 
 K. N. Kudin, V. N. Staroverov, R. Kobayashi, J. Normand, 
 K. Raghavachari, A. Rendell, J. C. Burant, S. S. Iyengar, J. Tomasi, 
 M. Cossi, N. Rega, J. M. Millam, M. Klene, J. E. Knox, J. B. Cross, 
 V. Bakken, C. Adamo, J. Jaramillo, R. Gomperts, R. E. Stratmann, 
 O. Yazyev, A. J. Austin, R. Cammi, C. Pomelli, J. W. Ochterski, 
 R. L. Martin, K. Morokuma, V. G. Zakrzewski, G. A. Voth, 
 P. Salvador, J. J. Dannenberg, S. Dapprich, A. D. Daniels, 
 O. Farkas, J. B. Foresman, J. V. Ortiz, J. Cioslowski, 
 and D. J. Fox, Gaussian, Inc., Wallingford CT, 2009.
 
 ******************************************
 Gaussian 09:  EM64L-G09RevA.02 11-Jun-2009
                10-Dec-2013 
 ******************************************
 % Mem=128GB
 % Nproc=16
 Will use up to   16 processors via shared memory.
 % Chk=MnF_7Sg.chk
 ----------------------------------------------------------------------
 # ROMP2 Gen GFinput Int=NoBasisTransform Int(Grid=Ultrafine) IOp(3/32=
 2,5/6=10,8/11=1,9/33=1) Maxdisk=512GB CBSextrapolate(Nmin=25,MinPop) S
 CF=Symm Guess=Read
 ----------------------------------------------------------------------
 1/38=1/1;
 2/12=2,17=6,18=5,40=1/2;
 3/5=7,11=2,16=1,24=10,25=1,30=1,32=2,60=-1,75=-5,116=101/1,2,3;
 4/5=1,9=4/1;
 5/5=2,6=10,15=2,38=6/2;
 8/5=-1,10=1,11=1/1;
 9/16=-3,33=1,75=2,81=25,83=4/6,4;
 6/7=2,8=2,9=2,10=2/1;
 99/5=1,9=1/99;
 --------
 MnF 7Sg+
 --------
 Symbolic Z-matrix:
 Charge =  0 Multiplicity = 7
 Mn
 F                    1     1.8387 
 
                          Input orientation:                          
 ---------------------------------------------------------------------
 Center     Atomic      Atomic             Coordinates (Angstroms)
 Number     Number       Type             X           Y           Z
 ---------------------------------------------------------------------
      1         25           0        0.000000    0.000000    0.000000
      2          9           0        0.000000    0.000000    1.838700
 ---------------------------------------------------------------------
 Stoichiometry    FMn(7)
 Framework group  C*V[C*(FMn)]
 Deg. of freedom     1
 Full point group                 C*V     NOp   4
 Largest Abelian subgroup         C2V     NOp   4
 Largest concise Abelian subgroup C1      NOp   1
                         Standard orientation:                         
 ---------------------------------------------------------------------
 Center     Atomic      Atomic             Coordinates (Angstroms)
 Number     Number       Type             X           Y           Z
 ---------------------------------------------------------------------
      1         25           0        0.000000    0.000000    0.486715
      2          9           0        0.000000    0.000000   -1.351985
 ---------------------------------------------------------------------
 Rotational constants (GHZ):      0.0000000     10.5892139     10.5892139
 General basis read from cards:  (5D, 7F)
 AO basis set in the form of general basis input (Overlap normalization):
      1 0
 S  17 1.00       0.000000000000
      0.2589493270D+08  0.8345046128D-06
      0.3915590060D+07  0.6371710381D-05
      0.9055796150D+06  0.3272147157D-04
      0.2604384670D+06  0.1359125783D-03
      0.8599643530D+05  0.4879517470D-03
      0.3156560560D+05  0.1546128034D-02
      0.1265370630D+05  0.4409810302D-02
      0.5449984580D+04  0.1151136886D-01
      0.2487175490D+04  0.2774051072D-01
      0.1188494540D+04  0.6149760294D-01
      0.5886025610D+03  0.1232692391D+00
      0.2994870200D+03  0.2136282509D+00
      0.1553950050D+03  0.2936708136D+00
      0.8171102500D+02  0.2685713793D+00
      0.4323132600D+02  0.1250063753D+00
      0.2209756900D+02  0.1798110546D-01
      0.1177981200D+02  0.5318590157D-03
 S  14 1.00       0.000000000000
      0.1265370630D+05 -0.6202247539D-05
      0.5449984580D+04 -0.3735853271D-04
      0.2487175490D+04 -0.2120746887D-03
      0.1188494540D+04 -0.1024919842D-02
      0.5886025610D+03 -0.4194317792D-02
      0.2994870200D+03 -0.1499657785D-01
      0.1553950050D+03 -0.4254438216D-01
      0.8171102500D+02 -0.8168749794D-01
      0.4323132600D+02 -0.4381978663D-01
      0.2209756900D+02  0.1997379039D+00
      0.1177981200D+02  0.4781788922D+00
      0.6344478000D+01  0.3651921171D+00
      0.3379594000D+01  0.8599723555D-01
      0.1758933000D+01  0.5069478582D-02
 P  16 1.00       0.000000000000
      0.6215066830D+05  0.3658368025D-05
      0.1605785870D+05  0.3040125515D-04
      0.5095463040D+04  0.1942728360D-03
      0.1894670610D+04  0.9375256041D-03
      0.7943393290D+03  0.3667330265D-02
      0.3640172220D+03  0.1203952149D-01
      0.1779262930D+03  0.3395429900D-01
      0.9102101000D+02  0.8267138332D-01
      0.4804124400D+02  0.1672413778D+00
      0.2588433500D+02  0.2680427000D+00
      0.1412423700D+02  0.3166198643D+00
      0.7757358000D+01  0.2238827862D+00
      0.4265247000D+01  0.7362136419D-01
      0.2334783000D+01  0.9238527106D-02
      0.1263938000D+01  0.6522422156D-03
      0.6707880000D+00  0.7512240983D-04
 S  12 1.00       0.000000000000
      0.1553950050D+03  0.3207473173D-03
      0.8171102500D+02  0.1635075977D-02
      0.4323132600D+02  0.2270045328D-02
      0.2209756900D+02 -0.1175159291D-01
      0.1177981200D+02 -0.1070077816D+00
      0.6344478000D+01 -0.1906156711D+00
      0.3379594000D+01  0.7178881681D-01
      0.1758933000D+01  0.4993416407D+00
      0.8905110000D+00  0.4989305857D+00
      0.4394750000D+00  0.1284134265D+00
      0.2129450000D+00  0.1879287424D-02
      0.1024330000D+00  0.2085585178D-02
 P  15 1.00       0.000000000000
      0.1894670610D+04 -0.3752337511D-06
      0.7943393290D+03 -0.6741318899D-05
      0.3640172220D+03 -0.4604637999D-04
      0.1779262930D+03 -0.2958788339D-03
      0.9102101000D+02 -0.1363055780D-02
      0.4804124400D+02 -0.4803816519D-02
      0.2588433500D+02 -0.1144981877D-01
      0.1412423700D+02 -0.2075328029D-01
      0.7757358000D+01  0.9126067826D-02
      0.4265247000D+01  0.1470275665D+00
      0.2334783000D+01  0.3161714576D+00
      0.1263938000D+01  0.3643078859D+00
      0.6707880000D+00  0.2328497102D+00
      0.3449150000D+00  0.5803189254D-01
      0.1691460000D+00  0.4006137164D-02
 D  16 1.00       0.000000000000
      0.2037588350D+04  0.5318668661D-05
      0.6431313760D+03  0.5280175861D-04
      0.2499805510D+03  0.3394553281D-03
      0.1123964430D+03  0.1552351480D-02
      0.5571694100D+02  0.5566017632D-02
      0.2939108100D+02  0.1585923990D-01
      0.1609252400D+02  0.3752382651D-01
      0.8997171000D+01  0.7924094840D-01
      0.5086100000D+01  0.1424682790D+00
      0.2891615000D+01  0.2044505211D+00
      0.1648666000D+01  0.2392174661D+00
      0.9404310000D+00  0.2366743861D+00
      0.5345870000D+00  0.1965911391D+00
      0.3005770000D+00  0.1278922490D+00
      0.1649950000D+00  0.5132305391D-01
      0.8661500000D-01  0.6931609830D-02
 D   1 1.00       0.000000000000
      0.5896327149D-01  0.1000000000D+01
 D   1 1.00       0.000000000000
      0.1836400000D-01  0.1000000000D+01
 S  10 1.00       0.000000000000
      0.2209756900D+02 -0.3950878983D-05
      0.1177981200D+02  0.1295726278D-02
      0.6344478000D+01  0.4498875778D-02
      0.3379594000D+01 -0.4621039709D-02
      0.1758933000D+01 -0.3409251314D-01
      0.8905110000D+00 -0.1211369853D+00
      0.4394750000D+00 -0.1550246145D+00
      0.2129450000D+00  0.2572299487D+00
      0.1024330000D+00  0.6896735934D+00
      0.4958300000D-01  0.2538345197D+00
 S   1 1.00       0.000000000000
      0.4054418890D-01  0.1000000000D+01
 S   1 1.00       0.000000000000
      0.1524100000D-01  0.1000000000D+01
 S   1 1.00       0.000000000000
      0.5008000000D-02  0.1000000000D+01
 P  10 1.00       0.000000000000
      0.2588433500D+02  0.8575377771D-03
      0.1412423700D+02 -0.1176375226D-02
      0.7757358000D+01  0.3668448901D-02
      0.4265247000D+01 -0.1681091342D-01
      0.2334783000D+01 -0.8126246574D-03
      0.1263938000D+01 -0.5573713192D-01
      0.6707880000D+00  0.2239477374D-01
      0.3449150000D+00 -0.3802982727D-01
      0.1691460000D+00  0.4811362917D+00
      0.6019844190D-01  0.6231395465D+00
 P   1 1.00       0.000000000000
      0.8557927624D-01  0.1000000000D+01
 P   1 1.00       0.000000000000
      0.3564500000D-01  0.1000000000D+01
 S   1 1.00       0.000000000000
      0.5308124000D+01  0.1000000000D+01
 S   1 1.00       0.000000000000
      0.2719949000D+01  0.1000000000D+01
 S   1 1.00       0.000000000000
      0.1393736000D+01  0.1000000000D+01
 S   1 1.00       0.000000000000
      0.7141680000D+00  0.1000000000D+01
 S   1 1.00       0.000000000000
      0.3659480000D+00  0.1000000000D+01
 S   1 1.00       0.000000000000
      0.1875170000D+00  0.1000000000D+01
 P   1 1.00       0.000000000000
      0.2493935000D+01  0.1000000000D+01
 P   1 1.00       0.000000000000
      0.1421672000D+01  0.1000000000D+01
 P   1 1.00       0.000000000000
      0.8104270000D+00  0.1000000000D+01
 P   1 1.00       0.000000000000
      0.4619850000D+00  0.1000000000D+01
 P   1 1.00       0.000000000000
      0.2633560000D+00  0.1000000000D+01
 P   1 1.00       0.000000000000
      0.1501260000D+00  0.1000000000D+01
 D   1 1.00       0.000000000000
      0.6136618000D+01  0.1000000000D+01
 D   1 1.00       0.000000000000
      0.2887252000D+01  0.1000000000D+01
 D   1 1.00       0.000000000000
      0.1358439000D+01  0.1000000000D+01
 D   1 1.00       0.000000000000
      0.6391400000D+00  0.1000000000D+01
 D   1 1.00       0.000000000000
      0.3007120000D+00  0.1000000000D+01
 D   1 1.00       0.000000000000
      0.1414840000D+00  0.1000000000D+01
 F   1 1.00       0.000000000000
      0.1604415900D+02  0.1000000000D+01
 F   1 1.00       0.000000000000
      0.7173713000D+01  0.1000000000D+01
 F   1 1.00       0.000000000000
      0.3207532000D+01  0.1000000000D+01
 F   1 1.00       0.000000000000
      0.1434162000D+01  0.1000000000D+01
 F   1 1.00       0.000000000000
      0.6412470000D+00  0.1000000000D+01
 F   1 1.00       0.000000000000
      0.2867160000D+00  0.1000000000D+01
 F   1 1.00       0.000000000000
      0.1281970000D+00  0.1000000000D+01
 G   1 1.00       0.000000000000
      0.1121282800D+02  0.1000000000D+01
 G   1 1.00       0.000000000000
      0.5020983000D+01  0.1000000000D+01
 G   1 1.00       0.000000000000
      0.2248342000D+01  0.1000000000D+01
 G   1 1.00       0.000000000000
      0.1006783000D+01  0.1000000000D+01
 G   1 1.00       0.000000000000
      0.4508270000D+00  0.1000000000D+01
 G   1 1.00       0.000000000000
      0.2018750000D+00  0.1000000000D+01
 H   1 1.00       0.000000000000
      0.9011096000D+01  0.1000000000D+01
 H   1 1.00       0.000000000000
      0.3829841000D+01  0.1000000000D+01
 H   1 1.00       0.000000000000
      0.1627735000D+01  0.1000000000D+01
 H   1 1.00       0.000000000000
      0.6918100000D+00  0.1000000000D+01
 H   1 1.00       0.000000000000
      0.2940280000D+00  0.1000000000D+01
 I   1 1.00       0.000000000000
      0.7195010000D+01  0.1000000000D+01
 I   1 1.00       0.000000000000
      0.2853562000D+01  0.1000000000D+01
 I   1 1.00       0.000000000000
      0.1131731000D+01  0.1000000000D+01
 I   1 1.00       0.000000000000
      0.4488470000D+00  0.1000000000D+01
 J   1 1.00       0.000000000000
      0.5521743000D+01  0.1000000000D+01
 J   1 1.00       0.000000000000
      0.1967658000D+01  0.1000000000D+01
 J   1 1.00       0.000000000000
      0.7011690000D+00  0.1000000000D+01
 K   1 1.00       0.000000000000
      0.3854124916D+01  0.1000000000D+01
 ****
      2 0
 S  17 1.00       0.000000000000
      0.3048244770D+07  0.8396810573D-06
      0.5369968820D+06  0.5676545607D-05
      0.1199883200D+06  0.3254964624D-04
      0.3245363880D+05  0.1460551024D-03
      0.1021678190D+05  0.5510724130D-03
      0.3623944150D+04  0.1811665599D-02
      0.1410396690D+04  0.5358354648D-02
      0.5895474470D+03  0.1452539685D-01
      0.2602273170D+03  0.3633701983D-01
      0.1196906900D+03  0.8281703613D-01
      0.5676751100D+02  0.1661259345D+00
      0.2753188800D+02  0.2741990864D+00
      0.1355825000D+02  0.3232958507D+00
      0.6735532000D+01  0.2025864722D+00
      0.3352805000D+01  0.4301269879D-01
      0.1659369000D+01  0.2646600918D-02
      0.8087840000D+00  0.5220454936D-03
 S  11 1.00       0.000000000000
      0.2602273170D+03 -0.2385176003D-03
      0.1196906900D+03 -0.9798822232D-03
      0.5676751100D+02 -0.4826796172D-02
      0.2753188800D+02 -0.1721310513D-01
      0.1355825000D+02 -0.4852233298D-01
      0.6735532000D+01 -0.6936525834D-01
      0.3352805000D+01  0.3551075826D-01
      0.1659369000D+01  0.2641572510D+00
      0.8087840000D+00  0.4234159692D+00
      0.3835520000D+00  0.3317589638D+00
      0.1742700000D+00  0.7587766348D-01
 S   1 1.00       0.000000000000
      0.1003107033D+00  0.1000000000D+01
 P  14 1.00       0.000000000000
      0.4131222500D+04  0.6941429714D-05
      0.1005024520D+04  0.6277603815D-04
      0.3153760590D+03  0.3928396657D-03
      0.1184334420D+03  0.1785103608D-02
      0.5027007200D+02  0.6387638435D-02
      0.2312552200D+02  0.1888831068D-01
      0.1119294000D+02  0.4840532696D-01
      0.5586791000D+01  0.1064977579D+00
      0.2838035000D+01  0.1869575638D+00
      0.1453994000D+01  0.2545242188D+00
      0.7454810000D+00  0.2744026778D+00
      0.3790260000D+00  0.2294936918D+00
      0.1885760000D+00  0.1210457339D+00
      0.8997400000D-01  0.2246455738D-01
 P   1 1.00       0.000000000000
      0.5438434490D-01  0.1000000000D+01
 S   1 1.00       0.000000000000
      0.1068242600D+02  0.1000000000D+01
 S   1 1.00       0.000000000000
      0.4919101000D+01  0.1000000000D+01
 S   1 1.00       0.000000000000
      0.2265174000D+01  0.1000000000D+01
 S   1 1.00       0.000000000000
      0.1043079000D+01  0.1000000000D+01
 S   1 1.00       0.000000000000
      0.4803230000D+00  0.1000000000D+01
 S   1 1.00       0.000000000000
      0.2211820000D+00  0.1000000000D+01
 P   1 1.00       0.000000000000
      0.6754664000D+01  0.1000000000D+01
 P   1 1.00       0.000000000000
      0.3104005000D+01  0.1000000000D+01
 P   1 1.00       0.000000000000
      0.1426399000D+01  0.1000000000D+01
 P   1 1.00       0.000000000000
      0.6554800000D+00  0.1000000000D+01
 P   1 1.00       0.000000000000
      0.3012160000D+00  0.1000000000D+01
 P   1 1.00       0.000000000000
      0.1384190000D+00  0.1000000000D+01
 D   1 1.00       0.000000000000
      0.1635237200D+02  0.1000000000D+01
 D   1 1.00       0.000000000000
      0.7681640000D+01  0.1000000000D+01
 D   1 1.00       0.000000000000
      0.3608503000D+01  0.1000000000D+01
 D   1 1.00       0.000000000000
      0.1695119000D+01  0.1000000000D+01
 D   1 1.00       0.000000000000
      0.7962940000D+00  0.1000000000D+01
 D   1 1.00       0.000000000000
      0.3740650000D+00  0.1000000000D+01
 D   1 1.00       0.000000000000
      0.1757190000D+00  0.1000000000D+01
 F   1 1.00       0.000000000000
      0.8996481000D+01  0.1000000000D+01
 F   1 1.00       0.000000000000
      0.4445515000D+01  0.1000000000D+01
 F   1 1.00       0.000000000000
      0.2196704000D+01  0.1000000000D+01
 F   1 1.00       0.000000000000
      0.1085478000D+01  0.1000000000D+01
 F   1 1.00       0.000000000000
      0.5363770000D+00  0.1000000000D+01
 F   1 1.00       0.000000000000
      0.2650440000D+00  0.1000000000D+01
 G   1 1.00       0.000000000000
      0.9784986000D+01  0.1000000000D+01
 G   1 1.00       0.000000000000
      0.4586666000D+01  0.1000000000D+01
 G   1 1.00       0.000000000000
      0.2149978000D+01  0.1000000000D+01
 G   1 1.00       0.000000000000
      0.1007792000D+01  0.1000000000D+01
 G   1 1.00       0.000000000000
      0.4723977000D+00  0.1000000000D+01
 H   1 1.00       0.000000000000
      0.6419402000D+01  0.1000000000D+01
 H   1 1.00       0.000000000000
      0.2953824000D+01  0.1000000000D+01
 H   1 1.00       0.000000000000
      0.1359173000D+01  0.1000000000D+01
 H   1 1.00       0.000000000000
      0.6254100000D+00  0.1000000000D+01
 I   1 1.00       0.000000000000
      0.5940514000D+01  0.1000000000D+01
 I   1 1.00       0.000000000000
      0.2322489000D+01  0.1000000000D+01
 I   1 1.00       0.000000000000
      0.9079946000D+00  0.1000000000D+01
 J   1 1.00       0.000000000000
      0.3904785650D+01  0.1000000000D+01
 ****

 There are   208 symmetry adapted basis functions of A1  symmetry.
 There are   106 symmetry adapted basis functions of A2  symmetry.
 There are   151 symmetry adapted basis functions of B1  symmetry.
 There are   151 symmetry adapted basis functions of B2  symmetry.
 Integral buffers will be    131072 words long.
 Raffenetti 2 integral format.
 Two-electron integral symmetry is turned on.
   616 basis functions,  1362 primitive gaussians,  1044 cartesian basis functions
    20 alpha electrons       14 beta electrons
       nuclear repulsion energy        64.7549202876 Hartrees.
 NAtoms=    2 NActive=    2 NUniq=    2 SFac= 7.50D-01 NAtFMM=   80 NAOKFM=F Big=F
 One-electron integrals computed using PRISM.
 NBasis=   616 RedAO= F  NBF=   208   106   151   151
 NBsUse=   616 1.00D-04 NBFU=   208   106   151   151
 Initial guess read from the checkpoint file:  MnF_7Sg.chk
 B after Tr=     0.000000    0.000000    0.000000
         Rot=    1.000000    0.000000    0.000000    0.000000 Ang=   0.00 deg.
 Initial guess orbital symmetries:
       Occupied  (SG) (SG) (SG) (PI) (PI) (SG) (SG) (PI) (PI) (SG)
                 (SG) (SG) (PI) (PI) (DLTA) (DLTA) (SG) (PI) (PI)
                 (SG)
       Virtual   (SG) (PI) (PI) (SG) (SG) (SG) (DLTA) (DLTA) (PI)
                 (PI) (SG) (PI) (PI) (SG) (PI) (PI) (SG) (SG) (PHI)
                 (PHI) (DLTA) (DLTA) (PI) (PI) (SG) (DLTA) (DLTA)
                 (PI) (PI) (PI) (PI) (SG) (SG) (PI) (PI) (DLTA)
                 (DLTA) (SG) (SG) (PI) (PI) (SG) (PHI) (PHI) (?A)
                 (?A) (DLTA) (DLTA) (SG) (PI) (PI) (DLTA) (DLTA)
                 (PHI) (PHI) (PHI) (PHI) (PI) (PI) (SG) (PI) (PI)
                 (DLTA) (DLTA) (SG) (PI) (PI) (SG) (DLTA) (DLTA)
                 (SG) (PI) (PI) (SG) (DLTA) (DLTA) (PI) (PI) (?B)
                 (?B) (?A) (?A) (SG) (PHI) (PHI) (PI) (PI) (DLTA)
                 (DLTA) (SG) (SG) (PI) (PI) (DLTA) (DLTA) (PHI)
                 (PHI) (?A) (?A) (?A) (?A) (SG) (PI) (PI) (SG)
                 (PI) (PI) (PHI) (PHI) (SG) (PHI) (PHI) (DLTA)
                 (DLTA) (PHI) (PHI) (PI) (PI) (DLTA) (DLTA) (SG)
                 (?B) (?B) (SG) (SG) (PI) (PI) (DLTA) (DLTA) (?A)
                 (?A) (SG) (DLTA) (DLTA) (PI) (PI) (SG) (PI) (PI)
                 (DLTA) (DLTA) (SG) (PHI) (PHI) (PI) (PI) (SG)
                 (DLTA) (DLTA) (?B) (?B) (PI) (PI) (SG) (PHI) (PHI)
                 (?A) (?A) (DLTA) (DLTA) (SG) (SG) (?B) (?B) (?A)
                 (?A) (PI) (PI) (PI) (PI) (PHI) (PHI) (SG) (SG)
                 (PI) (PI) (DLTA) (DLTA) (PI) (PI) (?A) (?A) (PHI)
                 (PHI) (DLTA) (DLTA) (?C) (?C) (SG) (SG) (?B) (?B)
                 (SG) (SG) (?A) (?A) (PHI) (PHI) (PHI) (PHI) (DLTA)
                 (DLTA) (PI) (PI) (SG) (?A) (?A) (PI) (PI) (PHI)
                 (PHI) (DLTA) (DLTA) (PI) (PI) (SG) (DLTA) (DLTA)
                 (SG) (PHI) (PHI) (SG) (SG) (?B) (?B) (PI) (PI)
                 (DLTA) (DLTA) (SG) (SG) (DLTA) (DLTA) (?A) (?A)
                 (PI) (PI) (DLTA) (DLTA) (PHI) (PHI) (SG) (PI)
                 (PI) (PI) (PI) (DLTA) (DLTA) (SG) (SG) (?B) (?B)
                 (?A) (?A) (SG) (PI) (PI) (PHI) (PHI) (SG) (SG)
                 (PI) (PI) (DLTA) (DLTA) (PI) (PI) (?B) (?B) (?A)
                 (?A) (SG) (PHI) (PHI) (DLTA) (DLTA) (SG) (PI)
                 (PI) (?B) (?B) (?A) (?A) (PHI) (PHI) (SG) (PI)
                 (PI) (DLTA) (DLTA) (PI) (PI) (SG) (SG) (PHI) (PHI)
                 (?A) (?A) (PHI) (PHI) (SG) (DLTA) (DLTA) (DLTA)
                 (DLTA) (SG) (PHI) (PHI) (PI) (PI) (DLTA) (DLTA)
                 (PI) (PI) (?A) (?A) (SG) (PHI) (PHI) (PI) (PI)
                 (DLTA) (DLTA) (SG) (PI) (PI) (SG) (DLTA) (DLTA)
                 (PI) (PI) (?C) (?C) (SG) (SG) (SG) (?B) (?B) (?A)
                 (?A) (PHI) (PHI) (DLTA) (DLTA) (PI) (PI) (SG)
                 (DLTA) (DLTA) (SG) (SG) (?B) (?B) (?A) (?A) (PI)
                 (PI) (PHI) (PHI) (SG) (DLTA) (DLTA) (PI) (PI)
                 (SG) (SG) (SG) (?B) (?B) (?A) (?A) (PHI) (PHI)
                 (DLTA) (DLTA) (PI) (PI) (?B) (?B) (SG) (?A) (?A)
                 (PHI) (PHI) (DLTA) (DLTA) (PI) (PI) (SG) (PI)
                 (PI) (SG) (SG) (?B) (?B) (?A) (?A) (PHI) (PHI)
                 (DLTA) (DLTA) (PI) (PI) (PHI) (PHI) (SG) (DLTA)
                 (DLTA) (PI) (PI) (PI) (PI) (SG) (?A) (?A) (SG)
                 (PHI) (PHI) (DLTA) (DLTA) (PI) (PI) (SG) (?A)
                 (?A) (PHI) (PHI) (DLTA) (DLTA) (PHI) (PHI) (PI)
                 (PI) (DLTA) (DLTA) (SG) (PI) (PI) (SG) (SG) (?A)
                 (?A) (?B) (?B) (SG) (SG) (PHI) (PHI) (?C) (?C)
                 (DLTA) (DLTA) (PI) (PI) (SG) (DLTA) (DLTA) (PI)
                 (PI) (SG) (?D) (?D) (?C) (?C) (SG) (SG) (?B) (?B)
                 (?A) (?A) (PHI) (PHI) (DLTA) (DLTA) (PI) (PI)
                 (SG) (?C) (?C) (SG) (SG) (?B) (?B) (?A) (?A) (PHI)
                 (PHI) (DLTA) (DLTA) (PI) (PI) (SG) (DLTA) (DLTA)
                 (SG) (SG) (?B) (?B) (?A) (?A) (PHI) (PHI) (PI)
                 (PI) (DLTA) (DLTA) (SG) (PI) (PI) (?B) (?B) (?A)
                 (?A) (PHI) (PHI) (DLTA) (DLTA) (SG) (PI) (PI)
                 (SG) (SG) (SG) (?B) (?B) (?A) (?A) (PHI) (PHI)
                 (DLTA) (DLTA) (PI) (PI) (SG) (PHI) (PHI) (DLTA)
                 (DLTA) (PI) (PI) (SG) (?B) (?B) (?A) (?A) (PHI)
                 (PHI) (DLTA) (DLTA) (PI) (PI) (SG) (?A) (?A) (PHI)
                 (PHI) (DLTA) (DLTA) (PI) (PI) (SG) (SG) (PI) (PI)
                 (SG) (?A) (?A) (PHI) (PHI) (DLTA) (DLTA) (PI)
                 (PI) (SG) (PHI) (PHI) (DLTA) (DLTA) (PI) (PI)
                 (SG) (DLTA) (DLTA) (PI) (PI) (SG) (SG) (SG) (SG)
                 (PI) (PI) (DLTA) (DLTA) (SG) (PI) (PI)
 Requested convergence on RMS density matrix=1.00D-10 within 128 cycles.
 Requested convergence on MAX density matrix=1.00D-08.
 Requested convergence on             energy=1.00D-08.
 No special actions if energy rises.
 EnCoef did     6 forward-backward iterations
 Restarting incremental Fock formation.
 SCF Done:  E(ROHF) =  -1249.41397868     A.U. after   22 cycles
             Convg  =    0.9886D-11             -V/T =  2.0000
 <Sx>= 0.0000 <Sy>= 0.0000 <Sz>= 3.0000 <S**2>=12.0000 S= 3.0000
 <L.S>= 0.000000000000E+00
 Annihilation of the first spin contaminant:
 S**2 before annihilation    12.0000,   after    12.0000
 DiagDN has N=   616 LTot=  1880 but NE2=     3 cannot use DSYEVD.
 GenMOA:  NOpAll=  4 NOp2=4 NOpUse=  4 JSym2X=1
 <Sx>= 0.0000 <Sy>= 0.0000 <Sz>= 3.0000 <S**2>=12.0000 S= 3.0000
 ExpMin= 5.01D-03 ExpMax= 2.59D+07 ExpMxC= 5.45D+03 IAcc=3 IRadAn=         5 AccDes= 0.00D+00
 HarFok:  IExCor=  205 AccDes= 0.00D+00 IRadAn=         5 IDoV=-2
 ScaDFX=  1.000000  1.000000  1.000000  1.000000
 Range of M.O.s used for correlation:    11   616
 NBasis=   616 NAE=    20 NBE=    14 NFC=    10 NFV=     0
 NROrb=    606 NOA=    10 NOB=     4 NVA=   596 NVB=   602

 **** Warning!!: The largest alpha MO coefficient is  0.33293595D+03


 **** Warning!!: The largest beta MO coefficient is  0.33293598D+03

 Singles contribution to E2=   -0.6584014896D-03
 Disk-based method using OVN memory for 10 occupieds at a time.
 Permanent disk used for amplitudes and <ij||ab> integrals=    46832072 words.
 Estimated scratch disk usage= 10017552588 words.
 IUseRI=2 ITolRI= 6 IR12RI=0
 Actual    scratch disk usage=  9917703256 words.
 JobTyp=2 Pass  1:  I=   1 to  10 NPSUse= 16 ParTrn=T ParDer=T DoDerP=F.
 (rs|ai) integrals will be sorted in core.
 T,EIJ(AA): I=   1 J=   2      0.1589868E-03     -0.1056879E-02
 T,EIJ(AA): I=   1 J=   3      0.7178063E-04     -0.4636031E-03
 T,EIJ(AA): I=   1 J=   4      0.7178063E-04     -0.4636031E-03
 T,EIJ(AA): I=   1 J=   5      0.1440664E-04     -0.8657217E-04
 T,EIJ(AA): I=   1 J=   6      0.1440664E-04     -0.8657217E-04
 T,EIJ(AA): I=   1 J=   7      0.4520671E-03     -0.2849074E-02
 T,EIJ(AA): I=   1 J=   8      0.4520671E-03     -0.2849074E-02
 T,EIJ(AA): I=   1 J=   9      0.3167956E-03     -0.2033968E-02
 T,EIJ(AA): I=   1 J=  10      0.3013768E-04     -0.1552145E-03
 T,EIJ(AA): I=   2 J=   3      0.1019042E-02     -0.6307197E-02
 T,EIJ(AA): I=   2 J=   4      0.1019042E-02     -0.6307197E-02
 T,EIJ(AA): I=   2 J=   5      0.7210187E-03     -0.4075721E-02
 T,EIJ(AA): I=   2 J=   6      0.7210187E-03     -0.4075721E-02
 T,EIJ(AA): I=   2 J=   7      0.7432835E-03     -0.3793052E-02
 T,EIJ(AA): I=   2 J=   8      0.7432835E-03     -0.3793052E-02
 T,EIJ(AA): I=   2 J=   9      0.1599391E-03     -0.7108819E-03
 T,EIJ(AA): I=   2 J=  10      0.5861492E-03     -0.1735720E-02
 T,EIJ(AA): I=   3 J=   4      0.9050727E-03     -0.5627436E-02
 T,EIJ(AA): I=   3 J=   5      0.1027365E-02     -0.6371546E-02
 T,EIJ(AA): I=   3 J=   6      0.1027365E-02     -0.6371546E-02
 T,EIJ(AA): I=   3 J=   7      0.5147478E-04     -0.2121247E-03
 T,EIJ(AA): I=   3 J=   8      0.3530678E-03     -0.1891172E-02
 T,EIJ(AA): I=   3 J=   9      0.6719474E-03     -0.3903673E-02
 T,EIJ(AA): I=   3 J=  10      0.6658289E-03     -0.2096748E-02
 T,EIJ(AA): I=   4 J=   5      0.1027365E-02     -0.6371546E-02
 T,EIJ(AA): I=   4 J=   6      0.1027365E-02     -0.6371546E-02
 T,EIJ(AA): I=   4 J=   7      0.3530678E-03     -0.1891172E-02
 T,EIJ(AA): I=   4 J=   8      0.5147478E-04     -0.2121247E-03
 T,EIJ(AA): I=   4 J=   9      0.6719474E-03     -0.3903673E-02
 T,EIJ(AA): I=   4 J=  10      0.6658289E-03     -0.2096748E-02
 T,EIJ(AA): I=   5 J=   6      0.1813166E-02     -0.1163859E-01
 T,EIJ(AA): I=   5 J=   7      0.2025312E-03     -0.1150070E-02
 T,EIJ(AA): I=   5 J=   8      0.2025312E-03     -0.1150070E-02
 T,EIJ(AA): I=   5 J=   9      0.4528496E-03     -0.2436055E-02
 T,EIJ(AA): I=   5 J=  10      0.7120720E-03     -0.2258917E-02
 T,EIJ(AA): I=   6 J=   7      0.2025312E-03     -0.1150070E-02
 T,EIJ(AA): I=   6 J=   8      0.2025312E-03     -0.1150070E-02
 T,EIJ(AA): I=   6 J=   9      0.4528496E-03     -0.2436055E-02
 T,EIJ(AA): I=   6 J=  10      0.7120720E-03     -0.2258917E-02
 T,EIJ(AA): I=   7 J=   8      0.1871621E-02     -0.8357316E-02
 T,EIJ(AA): I=   7 J=   9      0.1428270E-02     -0.6570469E-02
 T,EIJ(AA): I=   7 J=  10      0.3356478E-03     -0.9153249E-03
 T,EIJ(AA): I=   8 J=   9      0.1428270E-02     -0.6570469E-02
 T,EIJ(AA): I=   8 J=  10      0.3356478E-03     -0.9153249E-03
 T,EIJ(AA): I=   9 J=  10      0.4188062E-03     -0.1089445E-02
 T,EIJ(AB): I=   1 J=   1      0.1296942E-02     -0.1199820E-01
 T,EIJ(AB): I=   1 J=   2      0.1498239E-02     -0.1135167E-01
 T,EIJ(AB): I=   1 J=   3      0.1530407E-02     -0.1146699E-01
 T,EIJ(AB): I=   1 J=   4      0.1530407E-02     -0.1146699E-01
 T,EIJ(AB): I=   2 J=   1      0.4973386E-03     -0.3922508E-02
 T,EIJ(AB): I=   2 J=   2      0.1772608E-02     -0.9522798E-02
 T,EIJ(AB): I=   2 J=   3      0.8979163E-03     -0.4558318E-02
 T,EIJ(AB): I=   2 J=   4      0.8979163E-03     -0.4558318E-02
 T,EIJ(AB): I=   3 J=   1      0.1897410E-03     -0.1441377E-02
 T,EIJ(AB): I=   3 J=   2      0.4855781E-03     -0.2370227E-02
 T,EIJ(AB): I=   3 J=   3      0.3478786E-03     -0.1670555E-02
 T,EIJ(AB): I=   3 J=   4      0.6464654E-03     -0.3217491E-02
 T,EIJ(AB): I=   4 J=   1      0.1897410E-03     -0.1441377E-02
 T,EIJ(AB): I=   4 J=   2      0.4855781E-03     -0.2370227E-02
 T,EIJ(AB): I=   4 J=   3      0.6464654E-03     -0.3217491E-02
 T,EIJ(AB): I=   4 J=   4      0.3478786E-03     -0.1670555E-02
 T,EIJ(AB): I=   5 J=   1      0.2140876E-04     -0.1393050E-03
 T,EIJ(AB): I=   5 J=   2      0.1912622E-03     -0.7794857E-03
 T,EIJ(AB): I=   5 J=   3      0.7516178E-04     -0.2648053E-03
 T,EIJ(AB): I=   5 J=   4      0.7516178E-04     -0.2648053E-03
 T,EIJ(AB): I=   6 J=   1      0.2140876E-04     -0.1393050E-03
 T,EIJ(AB): I=   6 J=   2      0.1912622E-03     -0.7794857E-03
 T,EIJ(AB): I=   6 J=   3      0.7516178E-04     -0.2648053E-03
 T,EIJ(AB): I=   6 J=   4      0.7516178E-04     -0.2648053E-03
 T,EIJ(AB): I=   7 J=   1      0.1403391E-02     -0.1048303E-01
 T,EIJ(AB): I=   7 J=   2      0.2614883E-02     -0.1246372E-01
 T,EIJ(AB): I=   7 J=   3      0.2691923E-02     -0.1257604E-01
 T,EIJ(AB): I=   7 J=   4      0.4726478E-02     -0.2380025E-01
 T,EIJ(AB): I=   8 J=   1      0.1403391E-02     -0.1048303E-01
 T,EIJ(AB): I=   8 J=   2      0.2614883E-02     -0.1246372E-01
 T,EIJ(AB): I=   8 J=   3      0.4726478E-02     -0.2380025E-01
 T,EIJ(AB): I=   8 J=   4      0.2691923E-02     -0.1257604E-01
 T,EIJ(AB): I=   9 J=   1      0.1016094E-02     -0.7654949E-02
 T,EIJ(AB): I=   9 J=   2      0.3285066E-02     -0.1714140E-01
 T,EIJ(AB): I=   9 J=   3      0.1992924E-02     -0.9313675E-02
 T,EIJ(AB): I=   9 J=   4      0.1992924E-02     -0.9313675E-02
 T,EIJ(AB): I=  10 J=   1      0.8814427E-04     -0.5266133E-03
 T,EIJ(AB): I=  10 J=   2      0.4759449E-03     -0.1447240E-02
 T,EIJ(AB): I=  10 J=   3      0.3317084E-03     -0.8935474E-03
 T,EIJ(AB): I=  10 J=   4      0.3317084E-03     -0.8935474E-03
 Actual    scratch disk usage= 10017545932 words.
 JobTyp=3 Pass  1:  I=   1 to   4 NPSUse= 16 ParTrn=T ParDer=T DoDerP=F.
 (rs|ai) integrals will be sorted in core.
 T,EIJ(BB): I=   1 J=   2      0.5106896E-03     -0.3185925E-02
 T,EIJ(BB): I=   1 J=   3      0.5318839E-03     -0.3264716E-02
 T,EIJ(BB): I=   1 J=   4      0.5318839E-03     -0.3264716E-02
 T,EIJ(BB): I=   2 J=   3      0.2304533E-02     -0.1014846E-01
 T,EIJ(BB): I=   2 J=   4      0.2304533E-02     -0.1014846E-01
 T,EIJ(BB): I=   3 J=   4      0.2361228E-02     -0.1022736E-01
 Spin components of T(2) and E(2):
     alpha-alpha T2 =       0.2656577470D-01 E2=     -0.1382113185D+00
     alpha-beta  T2 =       0.4637495556D-01 E2=     -0.2549726540D+00
     beta-beta   T2 =       0.8544751521D-02 E2=     -0.4023962851D-01
 ANorm=    0.1040228264D+01
 E2 =    -0.4340820025D+00 EUMP2 =    -0.12498480606823D+04

 Complete Basis Set (CBS) Extrapolation:
 M. R. Nyden and G. A. Petersson, JCP 75, 1843 (1981)
 G. A. Petersson and M. A. Al-Laham, JCP 94, 6081 (1991)
 G. A. Petersson, T. Tensfeldt, and J. A. Montgomery, JCP 94, 6091 (1991)
 J. A. Montgomery, J. W. Ochterski, and G. A. Petersson, JCP 101, 5900 (1994)
 
 Minimum Number of PNO for Extrapolation =  25
 Absolute Overlaps: IRadAn =         5
 LocTrn: ILocal=3 LocCor=F DoCore=F.
 Entering OneElI...
 Overlap between basis sets.
 Requested accuracy = 0.1000D-12
 PrsmSu:  NPrtUS=   1 ThrOK=F IAlg=1
 PRISM was handed 17178008191 working-precision words and    45 shell-pairs
 IPart=  0 NShTot=          45 NBatch=          10 AvBLen=         4.5
 CnvPC2: ToCart=F DoDens=F IPureD=0 IPureF=0.
 Transformed matrix in CnvPC2: 
                 1             2             3             4             5 
      1   0.100000D+01  0.383382D+00  0.000000D+00  0.000000D+00  0.000000D+00
      2   0.383382D+00  0.100000D+01  0.000000D+00  0.000000D+00  0.000000D+00
      3   0.000000D+00  0.000000D+00  0.100000D+01  0.000000D+00  0.000000D+00
      4   0.000000D+00  0.000000D+00  0.000000D+00  0.100000D+01  0.000000D+00
      5   0.000000D+00  0.000000D+00  0.000000D+00  0.000000D+00  0.100000D+01
      6   0.246887D-01  0.314681D+00  0.000000D+00  0.000000D+00  0.000000D+00
      7   0.000000D+00  0.000000D+00  0.327626D+00  0.000000D+00  0.000000D+00
      8   0.000000D+00  0.000000D+00  0.000000D+00  0.327626D+00  0.000000D+00
      9   0.000000D+00  0.000000D+00  0.000000D+00  0.000000D+00  0.327626D+00
     10   0.000000D+00  0.000000D+00  0.000000D+00  0.000000D+00  0.000000D+00
     11   0.000000D+00  0.000000D+00  0.000000D+00  0.000000D+00  0.000000D+00
     12   0.000000D+00  0.000000D+00  0.000000D+00  0.000000D+00  0.000000D+00
     13   0.000000D+00  0.000000D+00  0.000000D+00  0.000000D+00  0.000000D+00
     14   0.000000D+00  0.000000D+00  0.000000D+00  0.000000D+00  0.000000D+00
     15  -0.389891D-03  0.660268D-02  0.000000D+00  0.000000D+00  0.000000D+00
     16   0.000000D+00  0.000000D+00  0.156230D-01  0.000000D+00  0.000000D+00
     17   0.000000D+00  0.000000D+00  0.000000D+00  0.156230D-01  0.000000D+00
     18   0.000000D+00  0.000000D+00  0.000000D+00  0.000000D+00  0.156230D-01
     19   0.000000D+00  0.000000D+00  0.000000D+00  0.000000D+00  0.000000D+00
     20   0.930314D-04  0.741353D-03  0.000000D+00  0.000000D+00 -0.540077D-03
     21   0.000000D+00  0.000000D+00  0.124504D-03  0.000000D+00  0.000000D+00
     22   0.000000D+00  0.000000D+00  0.000000D+00  0.124504D-03  0.000000D+00
     23   0.251587D-03  0.190864D-02  0.000000D+00  0.000000D+00 -0.127255D-02
                 6             7             8             9            10 
      1   0.246887D-01  0.000000D+00  0.000000D+00  0.000000D+00  0.000000D+00
      2   0.314681D+00  0.000000D+00  0.000000D+00  0.000000D+00  0.000000D+00
      3   0.000000D+00  0.327626D+00  0.000000D+00  0.000000D+00  0.000000D+00
      4   0.000000D+00  0.000000D+00  0.327626D+00  0.000000D+00  0.000000D+00
      5   0.000000D+00  0.000000D+00  0.000000D+00  0.327626D+00  0.000000D+00
      6   0.100000D+01  0.000000D+00  0.000000D+00  0.000000D+00  0.000000D+00
      7   0.000000D+00  0.100000D+01  0.000000D+00  0.000000D+00  0.000000D+00
      8   0.000000D+00  0.000000D+00  0.100000D+01  0.000000D+00  0.000000D+00
      9   0.000000D+00  0.000000D+00  0.000000D+00  0.100000D+01  0.000000D+00
     10   0.000000D+00  0.000000D+00  0.000000D+00  0.000000D+00  0.100000D+01
     11   0.000000D+00  0.000000D+00  0.000000D+00  0.000000D+00  0.000000D+00
     12   0.000000D+00  0.000000D+00  0.000000D+00  0.000000D+00  0.000000D+00
     13   0.000000D+00  0.000000D+00  0.000000D+00  0.000000D+00  0.000000D+00
     14   0.000000D+00  0.000000D+00  0.000000D+00  0.000000D+00  0.000000D+00
     15   0.255042D+00  0.000000D+00  0.000000D+00  0.000000D+00  0.000000D+00
     16   0.000000D+00  0.270441D+00  0.000000D+00  0.000000D+00  0.000000D+00
     17   0.000000D+00  0.000000D+00  0.270441D+00  0.000000D+00  0.000000D+00
     18   0.000000D+00  0.000000D+00  0.000000D+00  0.270441D+00  0.000000D+00
     19   0.123495D-04  0.000000D+00  0.000000D+00 -0.395257D-04  0.792114D-03
     20   0.138788D-01  0.000000D+00  0.000000D+00 -0.203844D-01  0.365648D-01
     21   0.000000D+00  0.480955D-02  0.000000D+00  0.000000D+00  0.000000D+00
     22   0.000000D+00  0.000000D+00  0.480955D-02  0.000000D+00  0.000000D+00
     23   0.259341D-01  0.000000D+00  0.000000D+00 -0.357118D-01  0.544009D-01
                11            12            13            14            15 
      1   0.000000D+00  0.000000D+00  0.000000D+00  0.000000D+00 -0.389891D-03
      2   0.000000D+00  0.000000D+00  0.000000D+00  0.000000D+00  0.660268D-02
      3   0.000000D+00  0.000000D+00  0.000000D+00  0.000000D+00  0.000000D+00
      4   0.000000D+00  0.000000D+00  0.000000D+00  0.000000D+00  0.000000D+00
      5   0.000000D+00  0.000000D+00  0.000000D+00  0.000000D+00  0.000000D+00
      6   0.000000D+00  0.000000D+00  0.000000D+00  0.000000D+00  0.255042D+00
      7   0.000000D+00  0.000000D+00  0.000000D+00  0.000000D+00  0.000000D+00
      8   0.000000D+00  0.000000D+00  0.000000D+00  0.000000D+00  0.000000D+00
      9   0.000000D+00  0.000000D+00  0.000000D+00  0.000000D+00  0.000000D+00
     10   0.000000D+00  0.000000D+00  0.000000D+00  0.000000D+00  0.000000D+00
     11   0.100000D+01  0.000000D+00  0.000000D+00  0.000000D+00  0.000000D+00
     12   0.000000D+00  0.100000D+01  0.000000D+00  0.000000D+00  0.000000D+00
     13   0.000000D+00  0.000000D+00  0.100000D+01  0.000000D+00  0.000000D+00
     14   0.000000D+00  0.000000D+00  0.000000D+00  0.100000D+01  0.000000D+00
     15   0.000000D+00  0.000000D+00  0.000000D+00  0.000000D+00  0.100000D+01
     16   0.000000D+00  0.000000D+00  0.000000D+00  0.000000D+00  0.000000D+00
     17   0.000000D+00  0.000000D+00  0.000000D+00  0.000000D+00  0.000000D+00
     18   0.000000D+00  0.000000D+00  0.000000D+00  0.000000D+00  0.000000D+00
     19   0.000000D+00  0.000000D+00  0.000000D+00  0.000000D+00  0.222064D-01
     20   0.000000D+00  0.000000D+00  0.000000D+00  0.000000D+00  0.220790D+00
     21  -0.156200D-01  0.000000D+00  0.000000D+00  0.000000D+00  0.000000D+00
     22   0.000000D+00 -0.156200D-01  0.000000D+00  0.000000D+00  0.000000D+00
     23   0.000000D+00  0.000000D+00  0.000000D+00  0.000000D+00  0.123864D+00
                16            17            18            19            20 
      1   0.000000D+00  0.000000D+00  0.000000D+00  0.000000D+00  0.930314D-04
      2   0.000000D+00  0.000000D+00  0.000000D+00  0.000000D+00  0.741353D-03
      3   0.156230D-01  0.000000D+00  0.000000D+00  0.000000D+00  0.000000D+00
      4   0.000000D+00  0.156230D-01  0.000000D+00  0.000000D+00  0.000000D+00
      5   0.000000D+00  0.000000D+00  0.156230D-01  0.000000D+00 -0.540077D-03
      6   0.000000D+00  0.000000D+00  0.000000D+00  0.123495D-04  0.138788D-01
      7   0.270441D+00  0.000000D+00  0.000000D+00  0.000000D+00  0.000000D+00
      8   0.000000D+00  0.270441D+00  0.000000D+00  0.000000D+00  0.000000D+00
      9   0.000000D+00  0.000000D+00  0.270441D+00 -0.395257D-04 -0.203844D-01
     10   0.000000D+00  0.000000D+00  0.000000D+00  0.792114D-03  0.365648D-01
     11   0.000000D+00  0.000000D+00  0.000000D+00  0.000000D+00  0.000000D+00
     12   0.000000D+00  0.000000D+00  0.000000D+00  0.000000D+00  0.000000D+00
     13   0.000000D+00  0.000000D+00  0.000000D+00  0.000000D+00  0.000000D+00
     14   0.000000D+00  0.000000D+00  0.000000D+00  0.000000D+00  0.000000D+00
     15   0.000000D+00  0.000000D+00  0.000000D+00  0.222064D-01  0.220790D+00
     16   0.100000D+01  0.000000D+00  0.000000D+00  0.000000D+00  0.000000D+00
     17   0.000000D+00  0.100000D+01  0.000000D+00  0.000000D+00  0.000000D+00
     18   0.000000D+00  0.000000D+00  0.100000D+01 -0.379669D-01 -0.348344D+00
     19   0.000000D+00  0.000000D+00 -0.379669D-01  0.100000D+01  0.237990D+00
     20   0.000000D+00  0.000000D+00 -0.348344D+00  0.237990D+00  0.100000D+01
     21   0.930501D-01  0.000000D+00  0.000000D+00  0.000000D+00  0.000000D+00
     22   0.000000D+00  0.930501D-01  0.000000D+00  0.000000D+00  0.000000D+00
     23   0.000000D+00  0.000000D+00 -0.186391D+00  0.000000D+00  0.000000D+00
                21            22            23 
      1   0.000000D+00  0.000000D+00  0.251587D-03
      2   0.000000D+00  0.000000D+00  0.190864D-02
      3   0.124504D-03  0.000000D+00  0.000000D+00
      4   0.000000D+00  0.124504D-03  0.000000D+00
      5   0.000000D+00  0.000000D+00 -0.127255D-02
      6   0.000000D+00  0.000000D+00  0.259341D-01
      7   0.480955D-02  0.000000D+00  0.000000D+00
      8   0.000000D+00  0.480955D-02  0.000000D+00
      9   0.000000D+00  0.000000D+00 -0.357118D-01
     10   0.000000D+00  0.000000D+00  0.544009D-01
     11  -0.156200D-01  0.000000D+00  0.000000D+00
     12   0.000000D+00 -0.156200D-01  0.000000D+00
     13   0.000000D+00  0.000000D+00  0.000000D+00
     14   0.000000D+00  0.000000D+00  0.000000D+00
     15   0.000000D+00  0.000000D+00  0.123864D+00
     16   0.930501D-01  0.000000D+00  0.000000D+00
     17   0.000000D+00  0.930501D-01  0.000000D+00
     18   0.000000D+00  0.000000D+00 -0.186391D+00
     19   0.000000D+00  0.000000D+00  0.000000D+00
     20   0.000000D+00  0.000000D+00  0.000000D+00
     21   0.100000D+01  0.000000D+00  0.000000D+00
     22   0.000000D+00  0.100000D+01  0.000000D+00
     23   0.000000D+00  0.000000D+00  0.100000D+01
 Entering OneElI...
 Overlap between basis sets.
 Requested accuracy = 0.1000D-12
 PrsmSu:  NPrtUS=   1 ThrOK=F IAlg=1
 PRISM was handed 17176679866 working-precision words and   700 shell-pairs
 IPart=  0 NShTot=         700 NBatch=          95 AvBLen=         7.4
 CnvPC2: ToCart=F DoDens=F IPureD=0 IPureF=0.
 Transformed matrix in CnvPC2: 
                 1             2             3             4             5 
      1   0.999778D+00  0.393836D+00  0.000000D+00  0.000000D+00  0.000000D+00
      2   0.278094D+00  0.990222D+00  0.000000D+00  0.000000D+00  0.000000D+00
      3   0.000000D+00  0.000000D+00  0.999030D+00  0.000000D+00  0.000000D+00
      4   0.000000D+00  0.000000D+00  0.000000D+00  0.999030D+00  0.000000D+00
      5   0.000000D+00  0.000000D+00  0.000000D+00  0.000000D+00  0.999030D+00
      6   0.108385D-01  0.308485D+00  0.000000D+00  0.000000D+00  0.000000D+00
      7   0.000000D+00  0.000000D+00  0.315555D+00  0.000000D+00  0.000000D+00
      8   0.000000D+00  0.000000D+00  0.000000D+00  0.315555D+00  0.000000D+00
      9   0.000000D+00  0.000000D+00  0.000000D+00  0.000000D+00  0.315555D+00
     10   0.000000D+00  0.000000D+00  0.000000D+00  0.000000D+00  0.000000D+00
     11   0.000000D+00  0.000000D+00  0.000000D+00  0.000000D+00  0.000000D+00
     12   0.000000D+00  0.000000D+00  0.000000D+00  0.000000D+00  0.000000D+00
     13   0.000000D+00  0.000000D+00  0.000000D+00  0.000000D+00  0.000000D+00
     14   0.000000D+00  0.000000D+00  0.000000D+00  0.000000D+00  0.000000D+00
     15   0.000000D+00  0.000000D+00  0.000000D+00  0.000000D+00  0.000000D+00
     16   0.000000D+00  0.000000D+00  0.000000D+00  0.000000D+00  0.000000D+00
     17   0.000000D+00  0.000000D+00  0.000000D+00  0.000000D+00  0.000000D+00
     18   0.000000D+00  0.000000D+00  0.000000D+00  0.000000D+00  0.000000D+00
     19   0.000000D+00  0.000000D+00  0.000000D+00  0.000000D+00  0.000000D+00
     20   0.000000D+00  0.000000D+00  0.000000D+00  0.000000D+00  0.000000D+00
     21   0.000000D+00  0.000000D+00  0.000000D+00  0.000000D+00  0.000000D+00
     22   0.000000D+00  0.000000D+00  0.000000D+00  0.000000D+00  0.000000D+00
     23   0.000000D+00  0.000000D+00  0.000000D+00  0.000000D+00  0.000000D+00
     24   0.000000D+00  0.000000D+00  0.000000D+00  0.000000D+00  0.000000D+00
     25   0.677390D-04  0.878770D-02  0.000000D+00  0.000000D+00  0.000000D+00
     26   0.730406D-02  0.470480D-01  0.000000D+00  0.000000D+00  0.000000D+00
     27   0.350806D-02  0.226845D-01  0.000000D+00  0.000000D+00  0.000000D+00
     28   0.152276D-02  0.986228D-02  0.000000D+00  0.000000D+00  0.000000D+00
     29   0.000000D+00  0.000000D+00 -0.453942D-02  0.000000D+00  0.000000D+00
     30   0.000000D+00  0.000000D+00  0.000000D+00 -0.453942D-02  0.000000D+00
     31   0.000000D+00  0.000000D+00  0.000000D+00  0.000000D+00 -0.453942D-02
     32   0.000000D+00  0.000000D+00  0.109103D-01  0.000000D+00  0.000000D+00
     33   0.000000D+00  0.000000D+00  0.000000D+00  0.109103D-01  0.000000D+00
     34   0.000000D+00  0.000000D+00  0.000000D+00  0.000000D+00  0.109103D-01
     35   0.000000D+00  0.000000D+00  0.369814D-02  0.000000D+00  0.000000D+00
     36   0.000000D+00  0.000000D+00  0.000000D+00  0.369814D-02  0.000000D+00
     37   0.000000D+00  0.000000D+00  0.000000D+00  0.000000D+00  0.369814D-02
     38   0.259271D+00  0.925253D+00  0.000000D+00  0.000000D+00  0.000000D+00
     39   0.163685D+00  0.747427D+00  0.000000D+00  0.000000D+00  0.000000D+00
     40   0.101339D+00  0.540616D+00  0.000000D+00  0.000000D+00  0.000000D+00
     41   0.620830D-01  0.362482D+00  0.000000D+00  0.000000D+00  0.000000D+00
     42   0.378235D-01  0.232067D+00  0.000000D+00  0.000000D+00  0.000000D+00
     43   0.229775D-01  0.144748D+00  0.000000D+00  0.000000D+00  0.000000D+00
     44   0.000000D+00  0.000000D+00  0.436817D+00  0.000000D+00  0.000000D+00
     45   0.000000D+00  0.000000D+00  0.000000D+00  0.436817D+00  0.000000D+00
     46   0.000000D+00  0.000000D+00  0.000000D+00  0.000000D+00  0.436817D+00
     47   0.000000D+00  0.000000D+00  0.267749D+00  0.000000D+00  0.000000D+00
     48   0.000000D+00  0.000000D+00  0.000000D+00  0.267749D+00  0.000000D+00
     49   0.000000D+00  0.000000D+00  0.000000D+00  0.000000D+00  0.267749D+00
     50   0.000000D+00  0.000000D+00  0.151864D+00  0.000000D+00  0.000000D+00
     51   0.000000D+00  0.000000D+00  0.000000D+00  0.151864D+00  0.000000D+00
     52   0.000000D+00  0.000000D+00  0.000000D+00  0.000000D+00  0.151864D+00
     53   0.000000D+00  0.000000D+00  0.817021D-01  0.000000D+00  0.000000D+00
     54   0.000000D+00  0.000000D+00  0.000000D+00  0.817021D-01  0.000000D+00
     55   0.000000D+00  0.000000D+00  0.000000D+00  0.000000D+00  0.817021D-01
     56   0.000000D+00  0.000000D+00  0.425040D-01  0.000000D+00  0.000000D+00
     57   0.000000D+00  0.000000D+00  0.000000D+00  0.425040D-01  0.000000D+00
     58   0.000000D+00  0.000000D+00  0.000000D+00  0.000000D+00  0.425040D-01
     59   0.000000D+00  0.000000D+00  0.216649D-01  0.000000D+00  0.000000D+00
     60   0.000000D+00  0.000000D+00  0.000000D+00  0.216649D-01  0.000000D+00
     61   0.000000D+00  0.000000D+00  0.000000D+00  0.000000D+00  0.216649D-01
     62   0.000000D+00  0.000000D+00  0.000000D+00  0.000000D+00  0.000000D+00
     63   0.000000D+00  0.000000D+00  0.000000D+00  0.000000D+00  0.000000D+00
     64   0.000000D+00  0.000000D+00  0.000000D+00  0.000000D+00  0.000000D+00
     65   0.000000D+00  0.000000D+00  0.000000D+00  0.000000D+00  0.000000D+00
     66   0.000000D+00  0.000000D+00  0.000000D+00  0.000000D+00  0.000000D+00
     67   0.000000D+00  0.000000D+00  0.000000D+00  0.000000D+00  0.000000D+00
     68   0.000000D+00  0.000000D+00  0.000000D+00  0.000000D+00  0.000000D+00
     69   0.000000D+00  0.000000D+00  0.000000D+00  0.000000D+00  0.000000D+00
     70   0.000000D+00  0.000000D+00  0.000000D+00  0.000000D+00  0.000000D+00
     71   0.000000D+00  0.000000D+00  0.000000D+00  0.000000D+00  0.000000D+00
     72   0.000000D+00  0.000000D+00  0.000000D+00  0.000000D+00  0.000000D+00
     73   0.000000D+00  0.000000D+00  0.000000D+00  0.000000D+00  0.000000D+00
     74   0.000000D+00  0.000000D+00  0.000000D+00  0.000000D+00  0.000000D+00
     75   0.000000D+00  0.000000D+00  0.000000D+00  0.000000D+00  0.000000D+00
     76   0.000000D+00  0.000000D+00  0.000000D+00  0.000000D+00  0.000000D+00
     77   0.000000D+00  0.000000D+00  0.000000D+00  0.000000D+00  0.000000D+00
     78   0.000000D+00  0.000000D+00  0.000000D+00  0.000000D+00  0.000000D+00
     79   0.000000D+00  0.000000D+00  0.000000D+00  0.000000D+00  0.000000D+00
     80   0.000000D+00  0.000000D+00  0.000000D+00  0.000000D+00  0.000000D+00
     81   0.000000D+00  0.000000D+00  0.000000D+00  0.000000D+00  0.000000D+00
     82   0.000000D+00  0.000000D+00  0.000000D+00  0.000000D+00  0.000000D+00
     83   0.000000D+00  0.000000D+00  0.000000D+00  0.000000D+00  0.000000D+00
     84   0.000000D+00  0.000000D+00  0.000000D+00  0.000000D+00  0.000000D+00
     85   0.000000D+00  0.000000D+00  0.000000D+00  0.000000D+00  0.000000D+00
     86   0.000000D+00  0.000000D+00  0.000000D+00  0.000000D+00  0.000000D+00
     87   0.000000D+00  0.000000D+00  0.000000D+00  0.000000D+00  0.000000D+00
     88   0.000000D+00  0.000000D+00  0.000000D+00  0.000000D+00  0.000000D+00
     89   0.000000D+00  0.000000D+00  0.000000D+00  0.000000D+00  0.000000D+00
     90   0.000000D+00  0.000000D+00  0.000000D+00  0.000000D+00  0.000000D+00
     91   0.000000D+00  0.000000D+00  0.000000D+00  0.000000D+00  0.000000D+00
     92   0.000000D+00  0.000000D+00  0.000000D+00  0.000000D+00  0.000000D+00
     93   0.000000D+00  0.000000D+00  0.000000D+00  0.000000D+00  0.000000D+00
     94   0.000000D+00  0.000000D+00  0.000000D+00  0.000000D+00  0.000000D+00
     95   0.000000D+00  0.000000D+00  0.000000D+00  0.000000D+00  0.000000D+00
     96   0.000000D+00  0.000000D+00  0.000000D+00  0.000000D+00  0.000000D+00
     97   0.000000D+00  0.000000D+00  0.000000D+00  0.000000D+00  0.000000D+00
     98   0.000000D+00  0.000000D+00  0.000000D+00  0.000000D+00  0.000000D+00
     99   0.000000D+00  0.000000D+00  0.000000D+00  0.000000D+00  0.000000D+00
    100   0.000000D+00  0.000000D+00  0.000000D+00  0.000000D+00  0.000000D+00
    101   0.000000D+00  0.000000D+00  0.000000D+00  0.000000D+00  0.000000D+00
    102   0.000000D+00  0.000000D+00  0.000000D+00  0.000000D+00  0.000000D+00
    103   0.000000D+00  0.000000D+00  0.000000D+00  0.000000D+00  0.000000D+00
    104   0.000000D+00  0.000000D+00  0.000000D+00  0.000000D+00  0.000000D+00
    105   0.000000D+00  0.000000D+00  0.000000D+00  0.000000D+00  0.000000D+00
    106   0.000000D+00  0.000000D+00  0.000000D+00  0.000000D+00  0.000000D+00
    107   0.000000D+00  0.000000D+00  0.000000D+00  0.000000D+00  0.000000D+00
    108   0.000000D+00  0.000000D+00  0.000000D+00  0.000000D+00  0.000000D+00
    109   0.000000D+00  0.000000D+00  0.000000D+00  0.000000D+00  0.000000D+00
    110   0.000000D+00  0.000000D+00  0.000000D+00  0.000000D+00  0.000000D+00
    111   0.000000D+00  0.000000D+00  0.000000D+00  0.000000D+00  0.000000D+00
    112   0.000000D+00  0.000000D+00  0.000000D+00  0.000000D+00  0.000000D+00
    113   0.000000D+00  0.000000D+00  0.000000D+00  0.000000D+00  0.000000D+00
    114   0.000000D+00  0.000000D+00  0.000000D+00  0.000000D+00  0.000000D+00
    115   0.000000D+00  0.000000D+00  0.000000D+00  0.000000D+00  0.000000D+00
    116   0.000000D+00  0.000000D+00  0.000000D+00  0.000000D+00  0.000000D+00
    117   0.000000D+00  0.000000D+00  0.000000D+00  0.000000D+00  0.000000D+00
    118   0.000000D+00  0.000000D+00  0.000000D+00  0.000000D+00  0.000000D+00
    119   0.000000D+00  0.000000D+00  0.000000D+00  0.000000D+00  0.000000D+00
    120   0.000000D+00  0.000000D+00  0.000000D+00  0.000000D+00  0.000000D+00
    121   0.000000D+00  0.000000D+00  0.000000D+00  0.000000D+00  0.000000D+00
    122   0.000000D+00  0.000000D+00  0.000000D+00  0.000000D+00  0.000000D+00
    123   0.000000D+00  0.000000D+00  0.000000D+00  0.000000D+00  0.000000D+00
    124   0.000000D+00  0.000000D+00  0.000000D+00  0.000000D+00  0.000000D+00
    125   0.000000D+00  0.000000D+00  0.000000D+00  0.000000D+00  0.000000D+00
    126   0.000000D+00  0.000000D+00  0.000000D+00  0.000000D+00  0.000000D+00
    127   0.000000D+00  0.000000D+00  0.000000D+00  0.000000D+00  0.000000D+00
    128   0.000000D+00  0.000000D+00  0.000000D+00  0.000000D+00  0.000000D+00
    129   0.000000D+00  0.000000D+00  0.000000D+00  0.000000D+00  0.000000D+00
    130   0.000000D+00  0.000000D+00  0.000000D+00  0.000000D+00  0.000000D+00
    131   0.000000D+00  0.000000D+00  0.000000D+00  0.000000D+00  0.000000D+00
    132   0.000000D+00  0.000000D+00  0.000000D+00  0.000000D+00  0.000000D+00
    133   0.000000D+00  0.000000D+00  0.000000D+00  0.000000D+00  0.000000D+00
    134   0.000000D+00  0.000000D+00  0.000000D+00  0.000000D+00  0.000000D+00
    135   0.000000D+00  0.000000D+00  0.000000D+00  0.000000D+00  0.000000D+00
    136   0.000000D+00  0.000000D+00  0.000000D+00  0.000000D+00  0.000000D+00
    137   0.000000D+00  0.000000D+00  0.000000D+00  0.000000D+00  0.000000D+00
    138   0.000000D+00  0.000000D+00  0.000000D+00  0.000000D+00  0.000000D+00
    139   0.000000D+00  0.000000D+00  0.000000D+00  0.000000D+00  0.000000D+00
    140   0.000000D+00  0.000000D+00  0.000000D+00  0.000000D+00  0.000000D+00
    141   0.000000D+00  0.000000D+00  0.000000D+00  0.000000D+00  0.000000D+00
    142   0.000000D+00  0.000000D+00  0.000000D+00  0.000000D+00  0.000000D+00
    143   0.000000D+00  0.000000D+00  0.000000D+00  0.000000D+00  0.000000D+00
    144   0.000000D+00  0.000000D+00  0.000000D+00  0.000000D+00  0.000000D+00
    145   0.000000D+00  0.000000D+00  0.000000D+00  0.000000D+00  0.000000D+00
    146   0.000000D+00  0.000000D+00  0.000000D+00  0.000000D+00  0.000000D+00
    147   0.000000D+00  0.000000D+00  0.000000D+00  0.000000D+00  0.000000D+00
    148   0.000000D+00  0.000000D+00  0.000000D+00  0.000000D+00  0.000000D+00
    149   0.000000D+00  0.000000D+00  0.000000D+00  0.000000D+00  0.000000D+00
    150   0.000000D+00  0.000000D+00  0.000000D+00  0.000000D+00  0.000000D+00
    151   0.000000D+00  0.000000D+00  0.000000D+00  0.000000D+00  0.000000D+00
    152   0.000000D+00  0.000000D+00  0.000000D+00  0.000000D+00  0.000000D+00
    153   0.000000D+00  0.000000D+00  0.000000D+00  0.000000D+00  0.000000D+00
    154   0.000000D+00  0.000000D+00  0.000000D+00  0.000000D+00  0.000000D+00
    155   0.000000D+00  0.000000D+00  0.000000D+00  0.000000D+00  0.000000D+00
    156   0.000000D+00  0.000000D+00  0.000000D+00  0.000000D+00  0.000000D+00
    157   0.000000D+00  0.000000D+00  0.000000D+00  0.000000D+00  0.000000D+00
    158   0.000000D+00  0.000000D+00  0.000000D+00  0.000000D+00  0.000000D+00
    159   0.000000D+00  0.000000D+00  0.000000D+00  0.000000D+00  0.000000D+00
    160   0.000000D+00  0.000000D+00  0.000000D+00  0.000000D+00  0.000000D+00
    161   0.000000D+00  0.000000D+00  0.000000D+00  0.000000D+00  0.000000D+00
    162   0.000000D+00  0.000000D+00  0.000000D+00  0.000000D+00  0.000000D+00
    163   0.000000D+00  0.000000D+00  0.000000D+00  0.000000D+00  0.000000D+00
    164   0.000000D+00  0.000000D+00  0.000000D+00  0.000000D+00  0.000000D+00
    165   0.000000D+00  0.000000D+00  0.000000D+00  0.000000D+00  0.000000D+00
    166   0.000000D+00  0.000000D+00  0.000000D+00  0.000000D+00  0.000000D+00
    167   0.000000D+00  0.000000D+00  0.000000D+00  0.000000D+00  0.000000D+00
    168   0.000000D+00  0.000000D+00  0.000000D+00  0.000000D+00  0.000000D+00
    169   0.000000D+00  0.000000D+00  0.000000D+00  0.000000D+00  0.000000D+00
    170   0.000000D+00  0.000000D+00  0.000000D+00  0.000000D+00  0.000000D+00
    171   0.000000D+00  0.000000D+00  0.000000D+00  0.000000D+00  0.000000D+00
    172   0.000000D+00  0.000000D+00  0.000000D+00  0.000000D+00  0.000000D+00
    173   0.000000D+00  0.000000D+00  0.000000D+00  0.000000D+00  0.000000D+00
    174   0.000000D+00  0.000000D+00  0.000000D+00  0.000000D+00  0.000000D+00
    175   0.000000D+00  0.000000D+00  0.000000D+00  0.000000D+00  0.000000D+00
    176   0.000000D+00  0.000000D+00  0.000000D+00  0.000000D+00  0.000000D+00
    177   0.000000D+00  0.000000D+00  0.000000D+00  0.000000D+00  0.000000D+00
    178   0.000000D+00  0.000000D+00  0.000000D+00  0.000000D+00  0.000000D+00
    179   0.000000D+00  0.000000D+00  0.000000D+00  0.000000D+00  0.000000D+00
    180   0.000000D+00  0.000000D+00  0.000000D+00  0.000000D+00  0.000000D+00
    181   0.000000D+00  0.000000D+00  0.000000D+00  0.000000D+00  0.000000D+00
    182   0.000000D+00  0.000000D+00  0.000000D+00  0.000000D+00  0.000000D+00
    183   0.000000D+00  0.000000D+00  0.000000D+00  0.000000D+00  0.000000D+00
    184   0.000000D+00  0.000000D+00  0.000000D+00  0.000000D+00  0.000000D+00
    185   0.000000D+00  0.000000D+00  0.000000D+00  0.000000D+00  0.000000D+00
    186   0.000000D+00  0.000000D+00  0.000000D+00  0.000000D+00  0.000000D+00
    187   0.000000D+00  0.000000D+00  0.000000D+00  0.000000D+00  0.000000D+00
    188   0.000000D+00  0.000000D+00  0.000000D+00  0.000000D+00  0.000000D+00
    189   0.000000D+00  0.000000D+00  0.000000D+00  0.000000D+00  0.000000D+00
    190   0.000000D+00  0.000000D+00  0.000000D+00  0.000000D+00  0.000000D+00
    191   0.000000D+00  0.000000D+00  0.000000D+00  0.000000D+00  0.000000D+00
    192   0.000000D+00  0.000000D+00  0.000000D+00  0.000000D+00  0.000000D+00
    193   0.000000D+00  0.000000D+00  0.000000D+00  0.000000D+00  0.000000D+00
    194   0.000000D+00  0.000000D+00  0.000000D+00  0.000000D+00  0.000000D+00
    195   0.000000D+00  0.000000D+00  0.000000D+00  0.000000D+00  0.000000D+00
    196   0.000000D+00  0.000000D+00  0.000000D+00  0.000000D+00  0.000000D+00
    197   0.000000D+00  0.000000D+00  0.000000D+00  0.000000D+00  0.000000D+00
    198   0.000000D+00  0.000000D+00  0.000000D+00  0.000000D+00  0.000000D+00
    199   0.000000D+00  0.000000D+00  0.000000D+00  0.000000D+00  0.000000D+00
    200   0.000000D+00  0.000000D+00  0.000000D+00  0.000000D+00  0.000000D+00
    201   0.000000D+00  0.000000D+00  0.000000D+00  0.000000D+00  0.000000D+00
    202   0.000000D+00  0.000000D+00  0.000000D+00  0.000000D+00  0.000000D+00
    203   0.000000D+00  0.000000D+00  0.000000D+00  0.000000D+00  0.000000D+00
    204   0.000000D+00  0.000000D+00  0.000000D+00  0.000000D+00  0.000000D+00
    205   0.000000D+00  0.000000D+00  0.000000D+00  0.000000D+00  0.000000D+00
    206   0.000000D+00  0.000000D+00  0.000000D+00  0.000000D+00  0.000000D+00
    207   0.000000D+00  0.000000D+00  0.000000D+00  0.000000D+00  0.000000D+00
    208   0.000000D+00  0.000000D+00  0.000000D+00  0.000000D+00  0.000000D+00
    209   0.000000D+00  0.000000D+00  0.000000D+00  0.000000D+00  0.000000D+00
    210   0.000000D+00  0.000000D+00  0.000000D+00  0.000000D+00  0.000000D+00
    211   0.000000D+00  0.000000D+00  0.000000D+00  0.000000D+00  0.000000D+00
    212   0.000000D+00  0.000000D+00  0.000000D+00  0.000000D+00  0.000000D+00
    213   0.000000D+00  0.000000D+00  0.000000D+00  0.000000D+00  0.000000D+00
    214   0.000000D+00  0.000000D+00  0.000000D+00  0.000000D+00  0.000000D+00
    215   0.000000D+00  0.000000D+00  0.000000D+00  0.000000D+00  0.000000D+00
    216   0.000000D+00  0.000000D+00  0.000000D+00  0.000000D+00  0.000000D+00
    217   0.000000D+00  0.000000D+00  0.000000D+00  0.000000D+00  0.000000D+00
    218   0.000000D+00  0.000000D+00  0.000000D+00  0.000000D+00  0.000000D+00
    219   0.000000D+00  0.000000D+00  0.000000D+00  0.000000D+00  0.000000D+00
    220   0.000000D+00  0.000000D+00  0.000000D+00  0.000000D+00  0.000000D+00
    221   0.000000D+00  0.000000D+00  0.000000D+00  0.000000D+00  0.000000D+00
    222   0.000000D+00  0.000000D+00  0.000000D+00  0.000000D+00  0.000000D+00
    223   0.000000D+00  0.000000D+00  0.000000D+00  0.000000D+00  0.000000D+00
    224   0.000000D+00  0.000000D+00  0.000000D+00  0.000000D+00  0.000000D+00
    225   0.000000D+00  0.000000D+00  0.000000D+00  0.000000D+00  0.000000D+00
    226   0.000000D+00  0.000000D+00  0.000000D+00  0.000000D+00  0.000000D+00
    227   0.000000D+00  0.000000D+00  0.000000D+00  0.000000D+00  0.000000D+00
    228   0.000000D+00  0.000000D+00  0.000000D+00  0.000000D+00  0.000000D+00
    229   0.000000D+00  0.000000D+00  0.000000D+00  0.000000D+00  0.000000D+00
    230   0.000000D+00  0.000000D+00  0.000000D+00  0.000000D+00  0.000000D+00
    231   0.000000D+00  0.000000D+00  0.000000D+00  0.000000D+00  0.000000D+00
    232   0.000000D+00  0.000000D+00  0.000000D+00  0.000000D+00  0.000000D+00
    233   0.000000D+00  0.000000D+00  0.000000D+00  0.000000D+00  0.000000D+00
    234   0.000000D+00  0.000000D+00  0.000000D+00  0.000000D+00  0.000000D+00
    235   0.000000D+00  0.000000D+00  0.000000D+00  0.000000D+00  0.000000D+00
    236   0.000000D+00  0.000000D+00  0.000000D+00  0.000000D+00  0.000000D+00
    237   0.000000D+00  0.000000D+00  0.000000D+00  0.000000D+00  0.000000D+00
    238   0.000000D+00  0.000000D+00  0.000000D+00  0.000000D+00  0.000000D+00
    239   0.000000D+00  0.000000D+00  0.000000D+00  0.000000D+00  0.000000D+00
    240   0.000000D+00  0.000000D+00  0.000000D+00  0.000000D+00  0.000000D+00
    241   0.000000D+00  0.000000D+00  0.000000D+00  0.000000D+00  0.000000D+00
    242   0.000000D+00  0.000000D+00  0.000000D+00  0.000000D+00  0.000000D+00
    243   0.000000D+00  0.000000D+00  0.000000D+00  0.000000D+00  0.000000D+00
    244   0.000000D+00  0.000000D+00  0.000000D+00  0.000000D+00  0.000000D+00
    245   0.000000D+00  0.000000D+00  0.000000D+00  0.000000D+00  0.000000D+00
    246   0.000000D+00  0.000000D+00  0.000000D+00  0.000000D+00  0.000000D+00
    247   0.000000D+00  0.000000D+00  0.000000D+00  0.000000D+00  0.000000D+00
    248   0.000000D+00  0.000000D+00  0.000000D+00  0.000000D+00  0.000000D+00
    249   0.000000D+00  0.000000D+00  0.000000D+00  0.000000D+00  0.000000D+00
    250   0.000000D+00  0.000000D+00  0.000000D+00  0.000000D+00  0.000000D+00
    251   0.000000D+00  0.000000D+00  0.000000D+00  0.000000D+00  0.000000D+00
    252   0.000000D+00  0.000000D+00  0.000000D+00  0.000000D+00  0.000000D+00
    253   0.000000D+00  0.000000D+00  0.000000D+00  0.000000D+00  0.000000D+00
    254   0.000000D+00  0.000000D+00  0.000000D+00  0.000000D+00  0.000000D+00
    255   0.000000D+00  0.000000D+00  0.000000D+00  0.000000D+00  0.000000D+00
    256   0.000000D+00  0.000000D+00  0.000000D+00  0.000000D+00  0.000000D+00
    257   0.000000D+00  0.000000D+00  0.000000D+00  0.000000D+00  0.000000D+00
    258   0.000000D+00  0.000000D+00  0.000000D+00  0.000000D+00  0.000000D+00
    259   0.000000D+00  0.000000D+00  0.000000D+00  0.000000D+00  0.000000D+00
    260   0.000000D+00  0.000000D+00  0.000000D+00  0.000000D+00  0.000000D+00
    261   0.000000D+00  0.000000D+00  0.000000D+00  0.000000D+00  0.000000D+00
    262   0.000000D+00  0.000000D+00  0.000000D+00  0.000000D+00  0.000000D+00
    263   0.000000D+00  0.000000D+00  0.000000D+00  0.000000D+00  0.000000D+00
    264   0.000000D+00  0.000000D+00  0.000000D+00  0.000000D+00  0.000000D+00
    265   0.000000D+00  0.000000D+00  0.000000D+00  0.000000D+00  0.000000D+00
    266   0.000000D+00  0.000000D+00  0.000000D+00  0.000000D+00  0.000000D+00
    267   0.000000D+00  0.000000D+00  0.000000D+00  0.000000D+00  0.000000D+00
    268   0.000000D+00  0.000000D+00  0.000000D+00  0.000000D+00  0.000000D+00
    269   0.000000D+00  0.000000D+00  0.000000D+00  0.000000D+00  0.000000D+00
    270   0.000000D+00  0.000000D+00  0.000000D+00  0.000000D+00  0.000000D+00
    271   0.000000D+00  0.000000D+00  0.000000D+00  0.000000D+00  0.000000D+00
    272   0.000000D+00  0.000000D+00  0.000000D+00  0.000000D+00  0.000000D+00
    273   0.000000D+00  0.000000D+00  0.000000D+00  0.000000D+00  0.000000D+00
    274   0.000000D+00  0.000000D+00  0.000000D+00  0.000000D+00  0.000000D+00
    275   0.000000D+00  0.000000D+00  0.000000D+00  0.000000D+00  0.000000D+00
    276   0.000000D+00  0.000000D+00  0.000000D+00  0.000000D+00  0.000000D+00
    277   0.000000D+00  0.000000D+00  0.000000D+00  0.000000D+00  0.000000D+00
    278   0.000000D+00  0.000000D+00  0.000000D+00  0.000000D+00  0.000000D+00
    279   0.000000D+00  0.000000D+00  0.000000D+00  0.000000D+00  0.000000D+00
    280   0.000000D+00  0.000000D+00  0.000000D+00  0.000000D+00  0.000000D+00
    281   0.000000D+00  0.000000D+00  0.000000D+00  0.000000D+00  0.000000D+00
    282   0.000000D+00  0.000000D+00  0.000000D+00  0.000000D+00  0.000000D+00
    283   0.000000D+00  0.000000D+00  0.000000D+00  0.000000D+00  0.000000D+00
    284   0.000000D+00  0.000000D+00  0.000000D+00  0.000000D+00  0.000000D+00
    285   0.000000D+00  0.000000D+00  0.000000D+00  0.000000D+00  0.000000D+00
    286   0.000000D+00  0.000000D+00  0.000000D+00  0.000000D+00  0.000000D+00
    287   0.000000D+00  0.000000D+00  0.000000D+00  0.000000D+00  0.000000D+00
    288   0.000000D+00  0.000000D+00  0.000000D+00  0.000000D+00  0.000000D+00
    289   0.000000D+00  0.000000D+00  0.000000D+00  0.000000D+00  0.000000D+00
    290   0.000000D+00  0.000000D+00  0.000000D+00  0.000000D+00  0.000000D+00
    291   0.000000D+00  0.000000D+00  0.000000D+00  0.000000D+00  0.000000D+00
    292   0.000000D+00  0.000000D+00  0.000000D+00  0.000000D+00  0.000000D+00
    293   0.000000D+00  0.000000D+00  0.000000D+00  0.000000D+00  0.000000D+00
    294   0.000000D+00  0.000000D+00  0.000000D+00  0.000000D+00  0.000000D+00
    295   0.000000D+00  0.000000D+00  0.000000D+00  0.000000D+00  0.000000D+00
    296   0.000000D+00  0.000000D+00  0.000000D+00  0.000000D+00  0.000000D+00
    297   0.000000D+00  0.000000D+00  0.000000D+00  0.000000D+00  0.000000D+00
    298   0.000000D+00  0.000000D+00  0.000000D+00  0.000000D+00  0.000000D+00
    299   0.000000D+00  0.000000D+00  0.000000D+00  0.000000D+00  0.000000D+00
    300   0.000000D+00  0.000000D+00  0.000000D+00  0.000000D+00  0.000000D+00
    301   0.000000D+00  0.000000D+00  0.000000D+00  0.000000D+00  0.000000D+00
    302   0.000000D+00  0.000000D+00  0.000000D+00  0.000000D+00  0.000000D+00
    303   0.000000D+00  0.000000D+00  0.000000D+00  0.000000D+00  0.000000D+00
    304   0.000000D+00  0.000000D+00  0.000000D+00  0.000000D+00  0.000000D+00
    305   0.000000D+00  0.000000D+00  0.000000D+00  0.000000D+00  0.000000D+00
    306   0.000000D+00  0.000000D+00  0.000000D+00  0.000000D+00  0.000000D+00
    307   0.000000D+00  0.000000D+00  0.000000D+00  0.000000D+00  0.000000D+00
    308   0.000000D+00  0.000000D+00  0.000000D+00  0.000000D+00  0.000000D+00
    309   0.000000D+00  0.000000D+00  0.000000D+00  0.000000D+00  0.000000D+00
    310   0.000000D+00  0.000000D+00  0.000000D+00  0.000000D+00  0.000000D+00
    311   0.000000D+00  0.000000D+00  0.000000D+00  0.000000D+00  0.000000D+00
    312   0.000000D+00  0.000000D+00  0.000000D+00  0.000000D+00  0.000000D+00
    313   0.000000D+00  0.000000D+00  0.000000D+00  0.000000D+00  0.000000D+00
    314   0.000000D+00  0.000000D+00  0.000000D+00  0.000000D+00  0.000000D+00
    315   0.000000D+00  0.000000D+00  0.000000D+00  0.000000D+00  0.000000D+00
    316   0.000000D+00  0.000000D+00  0.000000D+00  0.000000D+00  0.000000D+00
    317   0.000000D+00  0.000000D+00  0.000000D+00  0.000000D+00  0.000000D+00
    318   0.000000D+00  0.000000D+00  0.000000D+00  0.000000D+00  0.000000D+00
    319   0.000000D+00  0.000000D+00  0.000000D+00  0.000000D+00  0.000000D+00
    320   0.000000D+00  0.000000D+00  0.000000D+00  0.000000D+00  0.000000D+00
    321   0.000000D+00  0.000000D+00  0.000000D+00  0.000000D+00  0.000000D+00
    322   0.000000D+00  0.000000D+00  0.000000D+00  0.000000D+00  0.000000D+00
    323   0.000000D+00  0.000000D+00  0.000000D+00  0.000000D+00  0.000000D+00
    324   0.000000D+00  0.000000D+00  0.000000D+00  0.000000D+00  0.000000D+00
    325   0.000000D+00  0.000000D+00  0.000000D+00  0.000000D+00  0.000000D+00
    326   0.000000D+00  0.000000D+00  0.000000D+00  0.000000D+00  0.000000D+00
    327   0.000000D+00  0.000000D+00  0.000000D+00  0.000000D+00  0.000000D+00
    328   0.000000D+00  0.000000D+00  0.000000D+00  0.000000D+00  0.000000D+00
    329   0.000000D+00  0.000000D+00  0.000000D+00  0.000000D+00  0.000000D+00
    330   0.000000D+00  0.000000D+00  0.000000D+00  0.000000D+00  0.000000D+00
    331   0.000000D+00  0.000000D+00  0.000000D+00  0.000000D+00  0.000000D+00
    332   0.000000D+00  0.000000D+00  0.000000D+00  0.000000D+00  0.000000D+00
    333   0.000000D+00  0.000000D+00  0.000000D+00  0.000000D+00  0.000000D+00
    334   0.000000D+00  0.000000D+00  0.000000D+00  0.000000D+00  0.000000D+00
    335   0.000000D+00  0.000000D+00  0.000000D+00  0.000000D+00  0.000000D+00
    336   0.000000D+00  0.000000D+00  0.000000D+00  0.000000D+00  0.000000D+00
    337   0.000000D+00  0.000000D+00  0.000000D+00  0.000000D+00  0.000000D+00
    338   0.000000D+00  0.000000D+00  0.000000D+00  0.000000D+00  0.000000D+00
    339   0.000000D+00  0.000000D+00  0.000000D+00  0.000000D+00  0.000000D+00
    340   0.000000D+00  0.000000D+00  0.000000D+00  0.000000D+00  0.000000D+00
    341   0.000000D+00  0.000000D+00  0.000000D+00  0.000000D+00  0.000000D+00
    342   0.000000D+00  0.000000D+00  0.000000D+00  0.000000D+00  0.000000D+00
    343   0.000000D+00  0.000000D+00  0.000000D+00  0.000000D+00  0.000000D+00
    344   0.000000D+00  0.000000D+00  0.000000D+00  0.000000D+00  0.000000D+00
    345   0.000000D+00  0.000000D+00  0.000000D+00  0.000000D+00  0.000000D+00
    346   0.000000D+00  0.000000D+00  0.000000D+00  0.000000D+00  0.000000D+00
    347   0.000000D+00  0.000000D+00  0.000000D+00  0.000000D+00  0.000000D+00
    348   0.000000D+00  0.000000D+00  0.000000D+00  0.000000D+00  0.000000D+00
    349   0.000000D+00  0.000000D+00  0.000000D+00  0.000000D+00  0.000000D+00
    350   0.000000D+00  0.000000D+00  0.000000D+00  0.000000D+00  0.000000D+00
    351   0.000000D+00  0.000000D+00  0.000000D+00  0.000000D+00  0.000000D+00
    352   0.000000D+00  0.000000D+00  0.000000D+00  0.000000D+00  0.000000D+00
    353   0.000000D+00  0.000000D+00  0.000000D+00  0.000000D+00  0.000000D+00
    354   0.000000D+00  0.000000D+00  0.000000D+00  0.000000D+00  0.000000D+00
    355   0.000000D+00  0.000000D+00  0.000000D+00  0.000000D+00  0.000000D+00
    356   0.000000D+00  0.000000D+00  0.000000D+00  0.000000D+00  0.000000D+00
    357   0.000000D+00  0.000000D+00  0.000000D+00  0.000000D+00  0.000000D+00
    358   0.000000D+00  0.000000D+00  0.000000D+00  0.000000D+00  0.000000D+00
    359   0.000000D+00  0.000000D+00  0.000000D+00  0.000000D+00  0.000000D+00
    360   0.000000D+00  0.000000D+00  0.000000D+00  0.000000D+00  0.000000D+00
    361   0.000000D+00  0.000000D+00  0.000000D+00  0.000000D+00  0.000000D+00
    362   0.000000D+00  0.000000D+00  0.000000D+00  0.000000D+00  0.000000D+00
    363   0.000000D+00  0.000000D+00  0.000000D+00  0.000000D+00  0.000000D+00
    364   0.000000D+00  0.000000D+00  0.000000D+00  0.000000D+00  0.000000D+00
    365   0.333250D-03  0.228716D-02  0.000000D+00  0.000000D+00 -0.934776D-03
    366   0.429366D-02  0.277453D-01  0.000000D+00  0.000000D+00 -0.440016D-02
    367   0.000000D+00  0.000000D+00  0.651029D-03  0.000000D+00  0.000000D+00
    368   0.000000D+00  0.000000D+00  0.000000D+00  0.651029D-03  0.000000D+00
    369   0.148957D-02  0.986250D-02  0.000000D+00  0.000000D+00 -0.295439D-02
    370   0.000000D+00  0.000000D+00  0.324841D-02  0.000000D+00  0.000000D+00
    371   0.000000D+00  0.000000D+00  0.000000D+00  0.324841D-02  0.000000D+00
    372   0.764805D-02  0.490652D-01  0.000000D+00  0.000000D+00 -0.993285D-03
    373   0.000000D+00  0.000000D+00  0.000000D+00  0.000000D+00  0.000000D+00
    374   0.000000D+00  0.000000D+00  0.000000D+00  0.000000D+00  0.000000D+00
    375   0.000000D+00  0.000000D+00  0.000000D+00  0.000000D+00  0.000000D+00
    376   0.000000D+00  0.611228D-05  0.000000D+00  0.000000D+00 -0.846898D-05
    377   0.144817D-03  0.114480D-02  0.000000D+00  0.000000D+00 -0.821059D-03
    378   0.181152D-02  0.120429D-01  0.000000D+00  0.000000D+00 -0.414823D-02
    379   0.000000D+00  0.000000D+00  0.000000D+00  0.000000D+00  0.000000D+00
    380   0.000000D+00  0.000000D+00  0.000000D+00  0.000000D+00  0.000000D+00
    381   0.000000D+00  0.000000D+00  0.000000D+00  0.000000D+00  0.000000D+00
    382   0.000000D+00  0.000000D+00  0.000000D+00  0.000000D+00  0.000000D+00
    383   0.000000D+00  0.000000D+00  0.000000D+00  0.000000D+00  0.000000D+00
    384   0.000000D+00  0.000000D+00  0.000000D+00  0.000000D+00  0.000000D+00
    385   0.000000D+00  0.000000D+00  0.000000D+00  0.000000D+00  0.000000D+00
    386   0.000000D+00  0.000000D+00  0.000000D+00  0.000000D+00  0.000000D+00
    387   0.000000D+00  0.156346D-05  0.000000D+00  0.000000D+00 -0.266250D-05
    388   0.000000D+00  0.000000D+00  0.734145D-04  0.000000D+00  0.000000D+00
    389   0.000000D+00  0.000000D+00  0.000000D+00  0.734145D-04  0.000000D+00
    390   0.126249D-03  0.114098D-02  0.000000D+00  0.000000D+00 -0.101153D-02
    391   0.000000D+00  0.000000D+00  0.146451D-02  0.000000D+00  0.000000D+00
    392   0.000000D+00  0.000000D+00  0.000000D+00  0.146451D-02  0.000000D+00
    393   0.331730D-02  0.222077D-01  0.000000D+00  0.000000D+00 -0.886215D-02
    394   0.000000D+00  0.000000D+00  0.378005D-02  0.000000D+00  0.000000D+00
    395   0.000000D+00  0.000000D+00  0.000000D+00  0.378005D-02  0.000000D+00
    396   0.891276D-02  0.570864D-01  0.000000D+00  0.000000D+00 -0.867459D-02
    397   0.000000D+00  0.000000D+00  0.000000D+00  0.000000D+00  0.000000D+00
    398   0.000000D+00  0.000000D+00  0.000000D+00  0.000000D+00  0.000000D+00
    399   0.000000D+00  0.000000D+00  0.000000D+00  0.000000D+00  0.000000D+00
    400   0.000000D+00  0.000000D+00  0.000000D+00  0.000000D+00  0.000000D+00
    401   0.000000D+00  0.000000D+00  0.000000D+00  0.000000D+00  0.000000D+00
    402   0.000000D+00  0.000000D+00  0.000000D+00  0.000000D+00  0.000000D+00
    403   0.000000D+00  0.000000D+00  0.000000D+00  0.000000D+00  0.000000D+00
    404   0.000000D+00  0.000000D+00  0.000000D+00  0.000000D+00  0.000000D+00
    405   0.000000D+00  0.000000D+00  0.000000D+00  0.000000D+00  0.000000D+00
    406   0.000000D+00  0.000000D+00  0.000000D+00  0.000000D+00  0.000000D+00
    407   0.000000D+00  0.000000D+00  0.000000D+00  0.000000D+00  0.000000D+00
    408   0.000000D+00  0.000000D+00  0.000000D+00  0.000000D+00  0.000000D+00
    409   0.000000D+00  0.000000D+00  0.000000D+00  0.000000D+00  0.000000D+00
    410   0.000000D+00  0.000000D+00  0.000000D+00  0.000000D+00  0.000000D+00
    411   0.000000D+00  0.000000D+00  0.000000D+00  0.000000D+00  0.000000D+00
    412   0.000000D+00  0.000000D+00  0.000000D+00  0.000000D+00 -0.151742D-05
    413   0.000000D+00  0.000000D+00  0.000000D+00  0.000000D+00  0.000000D+00
    414   0.000000D+00  0.000000D+00  0.000000D+00  0.000000D+00  0.000000D+00
    415   0.000000D+00  0.000000D+00  0.000000D+00  0.000000D+00  0.000000D+00
    416   0.000000D+00  0.000000D+00  0.000000D+00  0.000000D+00  0.000000D+00
    417   0.106892D-03  0.108145D-02  0.000000D+00  0.000000D+00 -0.108286D-02
    418   0.000000D+00  0.000000D+00  0.119578D-03  0.000000D+00  0.000000D+00
    419   0.000000D+00  0.000000D+00  0.000000D+00  0.119578D-03  0.000000D+00
    420   0.000000D+00  0.000000D+00  0.000000D+00  0.000000D+00  0.000000D+00
    421   0.000000D+00  0.000000D+00  0.000000D+00  0.000000D+00  0.000000D+00
    422   0.443028D-02  0.297082D-01  0.000000D+00  0.000000D+00 -0.131105D-01
    423   0.000000D+00  0.000000D+00  0.339292D-02  0.000000D+00  0.000000D+00
    424   0.000000D+00  0.000000D+00  0.000000D+00  0.339292D-02  0.000000D+00
    425   0.000000D+00  0.000000D+00  0.000000D+00  0.000000D+00  0.000000D+00
    426   0.000000D+00  0.000000D+00  0.000000D+00  0.000000D+00  0.000000D+00
    427   0.128564D-01  0.812730D-01  0.000000D+00  0.000000D+00 -0.116762D-01
    428   0.000000D+00  0.000000D+00  0.933286D-02  0.000000D+00  0.000000D+00
    429   0.000000D+00  0.000000D+00  0.000000D+00  0.933286D-02  0.000000D+00
    430   0.000000D+00  0.000000D+00  0.000000D+00  0.000000D+00  0.000000D+00
    431   0.000000D+00  0.000000D+00  0.000000D+00  0.000000D+00  0.000000D+00
    432   0.000000D+00  0.000000D+00  0.000000D+00  0.000000D+00  0.000000D+00
    433   0.000000D+00  0.000000D+00  0.000000D+00  0.000000D+00  0.000000D+00
    434   0.000000D+00  0.000000D+00  0.000000D+00  0.000000D+00  0.000000D+00
    435   0.000000D+00  0.000000D+00  0.000000D+00  0.000000D+00  0.000000D+00
    436   0.000000D+00  0.000000D+00  0.000000D+00  0.000000D+00  0.000000D+00
    437   0.000000D+00  0.000000D+00  0.000000D+00  0.000000D+00  0.000000D+00
    438   0.000000D+00  0.000000D+00  0.000000D+00  0.000000D+00  0.000000D+00
    439   0.000000D+00  0.000000D+00  0.000000D+00  0.000000D+00  0.000000D+00
    440   0.000000D+00  0.000000D+00  0.000000D+00  0.000000D+00  0.000000D+00
    441   0.000000D+00  0.000000D+00  0.000000D+00  0.000000D+00  0.000000D+00
    442   0.000000D+00  0.000000D+00  0.000000D+00  0.000000D+00  0.000000D+00
    443   0.000000D+00  0.000000D+00  0.000000D+00  0.000000D+00  0.000000D+00
    444   0.000000D+00  0.000000D+00  0.000000D+00  0.000000D+00  0.000000D+00
    445   0.000000D+00  0.000000D+00  0.000000D+00  0.000000D+00  0.000000D+00
    446   0.000000D+00  0.000000D+00  0.000000D+00  0.000000D+00  0.000000D+00
    447   0.000000D+00  0.000000D+00  0.000000D+00  0.000000D+00  0.000000D+00
    448   0.000000D+00  0.000000D+00  0.000000D+00  0.000000D+00  0.000000D+00
    449   0.000000D+00  0.000000D+00  0.000000D+00  0.000000D+00  0.000000D+00
    450   0.000000D+00  0.000000D+00  0.000000D+00  0.000000D+00  0.000000D+00
    451   0.000000D+00  0.000000D+00  0.000000D+00  0.000000D+00  0.000000D+00
    452   0.000000D+00  0.000000D+00  0.000000D+00  0.000000D+00  0.000000D+00
    453   0.190759D-04  0.283135D-03  0.000000D+00  0.000000D+00 -0.359317D-03
    454   0.000000D+00  0.000000D+00  0.432831D-04  0.000000D+00  0.000000D+00
    455   0.000000D+00  0.000000D+00  0.000000D+00  0.432831D-04  0.000000D+00
    456   0.000000D+00  0.000000D+00  0.000000D+00  0.000000D+00  0.000000D+00
    457   0.000000D+00  0.000000D+00  0.000000D+00  0.000000D+00  0.000000D+00
    458   0.000000D+00  0.000000D+00  0.000000D+00  0.000000D+00  0.000000D+00
    459   0.000000D+00  0.000000D+00  0.000000D+00  0.000000D+00  0.000000D+00
    460   0.269041D-02  0.191483D-01  0.000000D+00  0.000000D+00 -0.116317D-01
    461   0.000000D+00  0.000000D+00  0.307665D-02  0.000000D+00  0.000000D+00
    462   0.000000D+00  0.000000D+00  0.000000D+00  0.307665D-02  0.000000D+00
    463   0.000000D+00  0.000000D+00  0.000000D+00  0.000000D+00  0.000000D+00
    464   0.000000D+00  0.000000D+00  0.000000D+00  0.000000D+00  0.000000D+00
    465   0.000000D+00  0.000000D+00  0.000000D+00  0.000000D+00  0.000000D+00
    466   0.000000D+00  0.000000D+00  0.000000D+00  0.000000D+00  0.000000D+00
[...]
                                                  ----------
                         Total pair energies =    -0.435874 A.U.

                         Single Excitations  =    -0.000658 A.U.

                          Total second order =    -0.436533 A.U.

                         E2(CBS) - E2(Dir) =      -0.003851 A.U.

 E2(CBS)=      -0.437933 CBS-Int=       0.001401 OIii=       2.043312

 **********************************************************************

            Population analysis using the SCF density.

 **********************************************************************

 Orbital symmetries:
       Occupied  (SG) (SG) (SG) (PI) (PI) (SG) (SG) (PI) (PI) (SG)
                 (SG) (SG) (PI) (PI) (DLTA) (DLTA) (SG) (PI) (PI)
                 (SG)
       Virtual   (SG) (PI) (PI) (SG) (SG) (DLTA) (DLTA) (PI) (PI)
                 (SG) (PI) (PI) (SG) (SG) (DLTA) (DLTA) (PI) (PI)
                 (SG) (PI) (PI) (SG) (PI) (PI) (SG) (SG) (PHI)
                 (PHI) (DLTA) (DLTA) (SG) (PI) (PI) (DLTA) (DLTA)
                 (PI) (PI) (SG) (PI) (PI) (SG) (DLTA) (DLTA) (PI)
                 (PI) (SG) (SG) (PI) (PI) (SG) (PHI) (PHI) (?A)
                 (?A) (DLTA) (DLTA) (PI) (PI) (SG) (DLTA) (DLTA)
                 (PHI) (PHI) (PHI) (PHI) (PI) (PI) (DLTA) (DLTA)
                 (SG) (PI) (PI) (SG) (PI) (PI) (SG) (DLTA) (DLTA)
                 (SG) (PI) (PI) (DLTA) (DLTA) (SG) (PI) (PI) (?B)
                 (?B) (?A) (?A) (SG) (PHI) (PHI) (PI) (PI) (DLTA)
                 (DLTA) (SG) (SG) (PI) (PI) (DLTA) (DLTA) (PHI)
                 (PHI) (?A) (?A) (?A) (?A) (SG) (PI) (PI) (SG)
                 (PHI) (PHI) (PHI) (PHI) (DLTA) (DLTA) (PI) (PI)
                 (SG) (PHI) (PHI) (PI) (PI) (DLTA) (DLTA) (SG)
                 (?B) (?B) (SG) (SG) (PI) (PI) (DLTA) (DLTA) (?A)
                 (?A) (SG) (DLTA) (DLTA) (PI) (PI) (SG) (PI) (PI)
                 (DLTA) (DLTA) (SG) (PHI) (PHI) (PI) (PI) (SG)
                 (DLTA) (DLTA) (?B) (?B) (PI) (PI) (SG) (PHI) (PHI)
                 (?A) (?A) (DLTA) (DLTA) (SG) (SG) (?B) (?B) (?A)
                 (?A) (PI) (PI) (PI) (PI) (PHI) (PHI) (SG) (PI)
                 (PI) (SG) (DLTA) (DLTA) (?A) (?A) (PHI) (PHI)
                 (PI) (PI) (DLTA) (DLTA) (?C) (?C) (SG) (SG) (?B)
                 (?B) (SG) (SG) (?A) (?A) (PHI) (PHI) (PHI) (PHI)
                 (DLTA) (DLTA) (PI) (PI) (SG) (?A) (?A) (PI) (PI)
                 (PHI) (PHI) (DLTA) (DLTA) (PI) (PI) (SG) (DLTA)
                 (DLTA) (PHI) (PHI) (SG) (SG) (SG) (?B) (?B) (PI)
                 (PI) (DLTA) (DLTA) (SG) (SG) (DLTA) (DLTA) (?A)
                 (?A) (PI) (PI) (DLTA) (DLTA) (PHI) (PHI) (SG)
                 (PI) (PI) (PI) (PI) (DLTA) (DLTA) (SG) (SG) (?B)
                 (?B) (?A) (?A) (SG) (PI) (PI) (PHI) (PHI) (SG)
                 (SG) (PI) (PI) (DLTA) (DLTA) (PI) (PI) (?B) (?B)
                 (?A) (?A) (SG) (PHI) (PHI) (DLTA) (DLTA) (SG)
                 (PI) (PI) (?B) (?B) (?A) (?A) (PHI) (PHI) (SG)
                 (PI) (PI) (DLTA) (DLTA) (PI) (PI) (SG) (SG) (PHI)
                 (PHI) (?A) (?A) (PHI) (PHI) (SG) (DLTA) (DLTA)
                 (DLTA) (DLTA) (SG) (PHI) (PHI) (PI) (PI) (DLTA)
                 (DLTA) (PI) (PI) (?A) (?A) (SG) (PHI) (PHI) (PI)
                 (PI) (DLTA) (DLTA) (SG) (PI) (PI) (SG) (DLTA)
                 (DLTA) (PI) (PI) (?C) (?C) (SG) (SG) (SG) (?B)
                 (?B) (?A) (?A) (PHI) (PHI) (DLTA) (DLTA) (PI)
                 (PI) (SG) (DLTA) (DLTA) (SG) (SG) (?B) (?B) (?A)
                 (?A) (PI) (PI) (PHI) (PHI) (SG) (DLTA) (DLTA)
                 (PI) (PI) (SG) (SG) (SG) (?B) (?B) (?A) (?A) (PHI)
                 (PHI) (DLTA) (DLTA) (PI) (PI) (?B) (?B) (SG) (?A)
                 (?A) (PHI) (PHI) (DLTA) (DLTA) (PI) (PI) (SG)
                 (PI) (PI) (SG) (SG) (?B) (?B) (?A) (?A) (PHI)
                 (PHI) (DLTA) (DLTA) (PI) (PI) (PHI) (PHI) (SG)
                 (DLTA) (DLTA) (PI) (PI) (PI) (PI) (SG) (?A) (?A)
                 (PHI) (PHI) (SG) (DLTA) (DLTA) (PI) (PI) (SG)
                 (?A) (?A) (PHI) (PHI) (DLTA) (DLTA) (PHI) (PHI)
                 (PI) (PI) (DLTA) (DLTA) (SG) (PI) (PI) (SG) (SG)
                 (?A) (?A) (?B) (?B) (SG) (SG) (PHI) (PHI) (?C)
                 (?C) (DLTA) (DLTA) (PI) (PI) (SG) (DLTA) (DLTA)
                 (PI) (PI) (SG) (?D) (?D) (?C) (?C) (SG) (SG) (?B)
                 (?B) (?A) (?A) (PHI) (PHI) (DLTA) (DLTA) (PI)
                 (PI) (SG) (?C) (?C) (SG) (SG) (?B) (?B) (?A) (?A)
                 (PHI) (PHI) (DLTA) (DLTA) (PI) (PI) (SG) (DLTA)
                 (DLTA) (SG) (SG) (?B) (?B) (?A) (?A) (PHI) (PHI)
                 (PI) (PI) (DLTA) (DLTA) (SG) (PI) (PI) (?B) (?B)
                 (?A) (?A) (PHI) (PHI) (DLTA) (DLTA) (SG) (PI)
                 (PI) (SG) (SG) (SG) (?B) (?B) (?A) (?A) (PHI)
                 (PHI) (DLTA) (DLTA) (PI) (PI) (SG) (PHI) (PHI)
                 (DLTA) (DLTA) (PI) (PI) (SG) (?B) (?B) (?A) (?A)
                 (PHI) (PHI) (DLTA) (DLTA) (PI) (PI) (SG) (?A)
                 (?A) (PHI) (PHI) (DLTA) (DLTA) (PI) (PI) (SG)
                 (SG) (PI) (PI) (SG) (?A) (?A) (PHI) (PHI) (DLTA)
                 (DLTA) (PI) (PI) (SG) (PHI) (PHI) (DLTA) (DLTA)
                 (PI) (PI) (SG) (DLTA) (DLTA) (PI) (PI) (SG) (SG)
                 (SG)
 The electronic state is 7-SG.
 Alpha  occ. eigenvalues -- -240.54528 -29.18700 -26.17768 -24.89035 -24.89035
 Alpha  occ. eigenvalues --  -24.88886  -4.03050  -2.73884  -2.73884  -2.73740
 Alpha  occ. eigenvalues --   -1.45710  -0.68324  -0.66604  -0.66604  -0.65703
 Alpha  occ. eigenvalues --   -0.65703  -0.53125  -0.53125  -0.52975  -0.29191
 Alpha virt. eigenvalues --    0.00863   0.02065   0.02065   0.04704   0.05252
 Alpha virt. eigenvalues --    0.05492   0.05492   0.05981   0.05981   0.06997
 Alpha virt. eigenvalues --    0.11429   0.11429   0.14977   0.18769   0.18824
 Alpha virt. eigenvalues --    0.18824   0.20544   0.20544   0.21880   0.21886
 Alpha virt. eigenvalues --    0.21886   0.22441   0.32603   0.32603   0.36175
 Alpha virt. eigenvalues --    0.43890   0.44788   0.44788   0.44884   0.44884
 Alpha virt. eigenvalues --    0.49082   0.49185   0.49185   0.52333   0.52333
 Alpha virt. eigenvalues --    0.56923   0.56923   0.60548   0.62121   0.62121
 Alpha virt. eigenvalues --    0.63575   0.66465   0.66465   0.70822   0.70822
 Alpha virt. eigenvalues --    0.72257   0.82219   0.83900   0.83900   0.90987
 Alpha virt. eigenvalues --    0.92226   0.92226   0.92747   0.92747   1.06385
 Alpha virt. eigenvalues --    1.06385   1.08720   1.08720   1.09762   1.12931
 Alpha virt. eigenvalues --    1.12931   1.18832   1.18832   1.21156   1.21156
 Alpha virt. eigenvalues --    1.27039   1.27039   1.33333   1.33333   1.37079
 Alpha virt. eigenvalues --    1.39778   1.39778   1.41197   1.41819   1.42285
 Alpha virt. eigenvalues --    1.42285   1.48820   1.48820   1.49678   1.51160
 Alpha virt. eigenvalues --    1.51160   1.56803   1.56803   1.57587   1.65598
 Alpha virt. eigenvalues --    1.65598   1.68334   1.68334   1.69026   1.69026
 Alpha virt. eigenvalues --    1.74466   1.82499   1.82499   1.95582   1.95582
 Alpha virt. eigenvalues --    2.01010   2.01010   2.03763   2.06796   2.13486
 Alpha virt. eigenvalues --    2.13486   2.38036   2.38036   2.38135   2.38135
 Alpha virt. eigenvalues --    2.41369   2.41369   2.45566   2.45566   2.52115
 Alpha virt. eigenvalues --    2.57635   2.57635   2.63291   2.68104   2.68104
 Alpha virt. eigenvalues --    2.75417   2.75417   2.77046   2.77046   2.77539
 Alpha virt. eigenvalues --    2.77539   2.79394   2.87204   2.87204   2.89726
 Alpha virt. eigenvalues --    2.89726   2.99537   2.99537   3.05224   3.06765
 Alpha virt. eigenvalues --    3.06765   3.06945   3.06945   3.10704   3.10704
 Alpha virt. eigenvalues --    3.15785   3.15785   3.19389   3.19389   3.19604
 Alpha virt. eigenvalues --    3.24426   3.24426   3.33735   3.33735   3.36044
 Alpha virt. eigenvalues --    3.46510   3.46510   3.54405   3.54405   3.56937
 Alpha virt. eigenvalues --    3.61286   3.61286   3.70434   3.70801   3.70801
 Alpha virt. eigenvalues --    3.82983   3.82983   3.85733   3.85733   3.88911
 Alpha virt. eigenvalues --    3.88911   4.05310   4.12230   4.12230   4.15185
 Alpha virt. eigenvalues --    4.15185   4.27143   4.27143   4.31100   4.35777
 Alpha virt. eigenvalues --    4.39906   4.39906   4.42485   4.42485   4.56323
 Alpha virt. eigenvalues --    4.56323   4.74437   4.74437   4.89727   4.89727
 Alpha virt. eigenvalues --    4.91904   5.14450   5.14450   5.19134   5.28825
 Alpha virt. eigenvalues --    5.28825   5.48887   5.48887   5.50474   5.50474
 Alpha virt. eigenvalues --    5.51756   5.51756   5.53967   5.53967   5.57179
 Alpha virt. eigenvalues --    5.57179   5.57763   5.57763   5.57850   5.57850
 Alpha virt. eigenvalues --    5.69242   5.70986   5.80950   5.80950   5.83235
 Alpha virt. eigenvalues --    5.83235   5.95047   5.95047   5.96061   5.96061
 Alpha virt. eigenvalues --    6.00681   6.00681   6.01715   6.10368   6.10368
 Alpha virt. eigenvalues --    6.21101   6.21101   6.26447   6.26447   6.27877
 Alpha virt. eigenvalues --    6.27877   6.46167   6.46167   6.55871   6.58874
 Alpha virt. eigenvalues --    6.58874   6.60032   6.60032   6.60298   6.63575
 Alpha virt. eigenvalues --    6.63575   6.81888   6.81888   6.82194   6.82194
 Alpha virt. eigenvalues --    7.03484   7.03484   7.11580   7.23953   7.32241
 Alpha virt. eigenvalues --    7.32241   7.37378   7.37378   7.53742   7.53742
 Alpha virt. eigenvalues --    7.55997   7.55997   7.64982   7.64982   7.73400
 Alpha virt. eigenvalues --    7.73400   7.73697   7.86462   7.86462   7.87880
 Alpha virt. eigenvalues --    7.87880   8.24953   8.24953   8.26613   8.26613
 Alpha virt. eigenvalues --    8.33025   8.33025   8.58723   8.66947   8.66947
 Alpha virt. eigenvalues --    8.79989   8.79989   8.95443   9.11033   9.40724
 Alpha virt. eigenvalues --    9.40724   9.42355   9.42355   9.44626   9.44626
 Alpha virt. eigenvalues --    9.48356   9.48356   9.64686   9.64686   9.70867
 Alpha virt. eigenvalues --    9.81689   9.81689  10.04575  10.04575  10.25865
 Alpha virt. eigenvalues --   10.37232  10.37232  10.37263  10.37263  10.40601
 Alpha virt. eigenvalues --   10.40601  10.79409  10.79409  10.99750  11.19395
 Alpha virt. eigenvalues --   11.19395  11.27842  11.27842  11.31035  11.31035
 Alpha virt. eigenvalues --   11.47200  11.68748  11.95302  11.95302  11.96976
 Alpha virt. eigenvalues --   11.96976  12.14965  12.15397  12.15397  12.26884
 Alpha virt. eigenvalues --   12.26884  12.54892  12.54892  12.71135  12.71135
 Alpha virt. eigenvalues --   12.71985  12.90759  12.90759  13.19452  13.19452
 Alpha virt. eigenvalues --   13.33841  13.33841  13.34607  13.34607  13.40960
 Alpha virt. eigenvalues --   13.56198  13.56198  13.61475  13.61475  13.98515
 Alpha virt. eigenvalues --   13.98515  14.49205  14.69831  14.69831  15.22394
 Alpha virt. eigenvalues --   15.26593  15.26593  15.94137  15.94137  16.06550
 Alpha virt. eigenvalues --   16.06550  16.07208  16.07208  16.08178  16.09546
 Alpha virt. eigenvalues --   16.09546  16.19682  16.19682  16.33300  16.33300
 Alpha virt. eigenvalues --   16.36387  16.36387  16.52558  16.52558  16.99101
 Alpha virt. eigenvalues --   17.65371  17.65371  17.95112  17.95112  17.98617
 Alpha virt. eigenvalues --   17.98617  18.12888  18.12888  18.23722  18.23722
 Alpha virt. eigenvalues --   18.30538  18.30538  18.45908  18.47930  18.47930
 Alpha virt. eigenvalues --   18.63358  18.63358  19.52556  20.58916  20.58916
 Alpha virt. eigenvalues --   20.59597  20.59597  20.61816  20.61816  20.73046
 Alpha virt. eigenvalues --   20.73046  20.87564  20.87564  20.88005  20.88005
 Alpha virt. eigenvalues --   21.07939  21.07939  21.12691  21.17559  21.17559
 Alpha virt. eigenvalues --   21.30162  21.30162  21.50936  21.50936  21.53391
 Alpha virt. eigenvalues --   21.53391  21.65334  22.01235  22.01235  22.12214
 Alpha virt. eigenvalues --   23.42350  23.84737  23.84737  23.86259  23.86259
 Alpha virt. eigenvalues --   24.01682  24.01682  24.33095  24.33095  24.41718
 Alpha virt. eigenvalues --   24.41718  24.59617  24.59617  24.61168  24.92584
 Alpha virt. eigenvalues --   24.92584  25.69805  25.69805  25.93340  25.93340
 Alpha virt. eigenvalues --   25.95628  26.19971  26.19971  26.25890  26.25890
 Alpha virt. eigenvalues --   26.37855  26.51240  26.51240  26.88763  26.88763
 Alpha virt. eigenvalues --   27.44127  28.57538  28.57538  28.72483  28.72483
 Alpha virt. eigenvalues --   28.92683  28.92683  28.95026  28.95026  29.09763
 Alpha virt. eigenvalues --   29.09763  29.24568  29.24568  29.48162  30.10509
 Alpha virt. eigenvalues --   30.10509  30.27484  31.87598  32.29168  32.29168
 Alpha virt. eigenvalues --   32.29317  32.29317  32.29807  32.29807  32.30260
 Alpha virt. eigenvalues --   32.30260  32.30346  32.30346  32.34018  32.34018
 Alpha virt. eigenvalues --   32.40340  32.40340  32.49988  33.31609  33.31609
 Alpha virt. eigenvalues --   33.82932  33.82932  34.13447  34.15275  34.15275
 Alpha virt. eigenvalues --   34.15628  34.15628  34.15945  34.15945  34.16225
 Alpha virt. eigenvalues --   34.16225  34.16537  34.16537  34.17301  34.17301
 Alpha virt. eigenvalues --   34.18568  34.18568  34.24739  34.24739  34.51446
 Alpha virt. eigenvalues --   44.55112  44.55112  44.55467  44.55467  44.56249
 Alpha virt. eigenvalues --   44.56249  44.59231  44.59231  44.63558  44.63558
 Alpha virt. eigenvalues --   44.64251  44.64251  44.66231  44.66231  44.69617
 Alpha virt. eigenvalues --   46.17637  46.17637  46.34498  46.34498  46.35645
 Alpha virt. eigenvalues --   46.35645  46.40975  46.40975  46.48063  46.48063
 Alpha virt. eigenvalues --   46.48213  46.48213  46.55384  46.55384  46.57564
 Alpha virt. eigenvalues --   46.72385  46.72385  47.12553  47.12553  47.18591
 Alpha virt. eigenvalues --   47.18591  47.27974  47.27974  47.35032  47.35032
 Alpha virt. eigenvalues --   47.38229  47.48346  47.48346  47.84327  51.54314
 Alpha virt. eigenvalues --   51.54314  51.54814  51.54814  51.56100  51.56100
 Alpha virt. eigenvalues --   51.60320  51.60320  51.71256  51.71256  51.76399
 Alpha virt. eigenvalues --   51.76399  51.79639  51.93795  51.93795  52.17220
 Alpha virt. eigenvalues --   52.17220  52.76387  52.76387  52.99264  56.37821
 Alpha virt. eigenvalues --   56.37821  56.38704  56.38704  56.47143  56.47143
 Alpha virt. eigenvalues --   56.68692  56.68692  56.73008  56.73008  56.77611
 Alpha virt. eigenvalues --   59.92401  59.92401  59.96119  59.96119  60.11745
 Alpha virt. eigenvalues --   60.11745  60.37727  60.37727  60.42528  61.05338
 Alpha virt. eigenvalues --   61.42108  61.42108  63.00201  63.28847  63.28847
 Alpha virt. eigenvalues --   63.39293  63.39293  63.56330  63.56330  63.76823
 Alpha virt. eigenvalues --   63.76823  63.98251  68.39591  68.39591  68.55736
 Alpha virt. eigenvalues --   68.55736  69.09558  69.09558  69.45505  75.47939
 Alpha virt. eigenvalues --   75.47939  75.90704  75.90704  76.32921 274.11836
 Alpha virt. eigenvalues --  603.90936
          Condensed to atoms (all electrons):
              1          2
     1  Mn  24.153854   0.084704
     2  F    0.084704   9.676739
 Mulliken atomic charges:
              1
     1  Mn   0.761443
     2  F   -0.761443
 Sum of Mulliken atomic charges =   0.00000
 Mulliken charges with hydrogens summed into heavy atoms:
              1
     1  Mn   0.761443
     2  F   -0.761443
 Sum of Mulliken charges with hydrogens summed into heavy atoms =   0.00000
          Atomic-Atomic Spin Densities.
              1          2
     1  Mn   6.060584  -0.078870
     2  F   -0.078870   0.097156
 Mulliken atomic spin densities:
              1
     1  Mn   5.981714
     2  F    0.018286
 Sum of Mulliken atomic spin densities =   6.00000
 Electronic spatial extent (au):  <R**2>=            130.0579
 Charge=              0.0000 electrons
 Dipole moment (field-independent basis, Debye):
    X=              0.0000    Y=              0.0000    Z=              2.9339  Tot=              2.9339
 Quadrupole moment (field-independent basis, Debye-Ang):
   XX=            -19.0555   YY=            -19.0555   ZZ=            -29.3590
   XY=              0.0000   XZ=              0.0000   YZ=              0.0000
 Traceless Quadrupole moment (field-independent basis, Debye-Ang):
   XX=              3.4345   YY=              3.4345   ZZ=             -6.8690
   XY=              0.0000   XZ=              0.0000   YZ=              0.0000
 Octapole moment (field-independent basis, Debye-Ang**2):
  XXX=              0.0000  YYY=              0.0000  ZZZ=             -4.4453  XYY=              0.0000
  XXY=              0.0000  XXZ=             -1.8286  XZZ=              0.0000  YZZ=              0.0000
  YYZ=             -1.8286  XYZ=              0.0000
 Hexadecapole moment (field-independent basis, Debye-Ang**3):
 XXXX=            -25.8971 YYYY=            -25.8971 ZZZZ=           -151.7765 XXXY=              0.0000
 XXXZ=              0.0000 YYYX=              0.0000 YYYZ=              0.0000 ZZZX=              0.0000
 ZZZY=              0.0000 XXYY=             -8.6324 XXZZ=            -27.5544 YYZZ=            -27.5544
 XXYZ=              0.0000 YYXZ=              0.0000 ZZXY=              0.0000
 N-N= 6.475492028757D+01 E-N=-4.572431795342D+03  KE= 1.857574459097D+03
                          Isotropic Fermi Contact Couplings
        Atom                 a.u.       MegaHertz       Gauss      10(-4) cm-1
     1  Mn(55)             2.54213     468.32491     167.10997     156.21637
     2  F(19)              0.05448      38.20155      13.63126      12.74267
 --------------------------------------------------------
       Center         ----  Spin Dipole Couplings  ----
                      3XX-RR        3YY-RR        3ZZ-RR
 --------------------------------------------------------
     1   Atom       -0.323478     -0.323478      0.646955
     2   Atom       -0.163649     -0.163649      0.327299
 --------------------------------------------------------
                        XY            XZ            YZ
 --------------------------------------------------------
     1   Atom        0.000000      0.000000      0.000000
     2   Atom        0.000000      0.000000      0.000000
 --------------------------------------------------------


 ---------------------------------------------------------------------------------
              Anisotropic Spin Dipole Couplings in Principal Axis System
 ---------------------------------------------------------------------------------

       Atom             a.u.   MegaHertz   Gauss  10(-4) cm-1        Axes

              Baa    -0.3235   -42.680   -15.229   -14.237  1.0000  0.0000  0.0000
     1 Mn(55) Bbb    -0.3235   -42.680   -15.229   -14.237  0.0000  1.0000  0.0000
              Bcc     0.6470    85.360    30.459    28.473  0.0000  0.0000  1.0000
 
              Baa    -0.1636   -82.189   -29.327   -27.415  1.0000  0.0000  0.0000
     2 F(19)  Bbb    -0.1636   -82.189   -29.327   -27.415  0.0000  1.0000  0.0000
              Bcc     0.3273   164.378    58.654    54.831  0.0000  0.0000  1.0000
 

 ---------------------------------------------------------------------------------


 Test job not archived.
 1\1\GINC-N35\SP\ROMP2-FC\Gen\F1Mn1(7)\GPETERSSON\10-Dec-2013\0\\# ROMP
 2 Gen GFinput Int=NoBasisTransform Int(Grid=Ultrafine) IOp(3/32=2,5/6=
 10,8/11=1,9/33=1) Maxdisk=512GB CBSextrapolate(Nmin=25,MinPop) SCF=Sym
 m Guess=Read\\MnF 7Sg+\\0,7\Mn\F,1,1.8387\\Version=EM64L-G09RevA.02\St
 ate=7-SG\HF=-1249.4139787\MP2=-1249.8480607\E2(CBS)=-0.4379332\CBS-Int
 =-0.4365327\OIii=2.0433116\RMSD=9.886e-12\PG=C*V [C*(F1Mn1)]\\@


 MOST BUREAUCRACIES FUNCTION LIKE A SEPTIC TANK.
 THE LARGE CHUNKS RISE TO THE TOP.
 Job cpu time:  5 days 17 hours 26 minutes  4.5 seconds.
 File lengths (MBytes):  RWF=  76868 Int=      0 D2E=      0 Chk=     36 Scr=      1
 Normal termination of Gaussian 09 at Tue Dec 10 23:14:14 2013.
