 Entering Gaussian System, Link 0=g09
 AtFile(1): 7ZaPa-NR.gbs
 Initial command:
 /share/apps/gaussian/g09root/g09/l1.exe /localscratch/70256/Gau-28132.inp -scrdir=/localscratch/70256/
 Entering Link 1 = /share/apps/gaussian/g09root/g09/l1.exe PID=     28138.
  
 Copyright (c) 1988,1990,1992,1993,1995,1998,2003,2009, Gaussian, Inc.
                  All Rights Reserved.
  
 This is part of the Gaussian(R) 09 program.  It is based on
 the Gaussian(R) 03 system (copyright 2003, Gaussian, Inc.),
 the Gaussian(R) 98 system (copyright 1998, Gaussian, Inc.),
 the Gaussian(R) 94 system (copyright 1995, Gaussian, Inc.),
 the Gaussian 92(TM) system (copyright 1992, Gaussian, Inc.),
 the Gaussian 90(TM) system (copyright 1990, Gaussian, Inc.),
 the Gaussian 88(TM) system (copyright 1988, Gaussian, Inc.),
 the Gaussian 86(TM) system (copyright 1986, Carnegie Mellon
 University), and the Gaussian 82(TM) system (copyright 1983,
 Carnegie Mellon University). Gaussian is a federally registered
 trademark of Gaussian, Inc.
  
 This software contains proprietary and confidential information,
 including trade secrets, belonging to Gaussian, Inc.
  
 This software is provided under written license and may be
 used, copied, transmitted, or stored only in accord with that
 written license.
  
 The following legend is applicable only to US Government
 contracts under FAR:
  
                    RESTRICTED RIGHTS LEGEND
  
 Use, reproduction and disclosure by the US Government is
 subject to restrictions as set forth in subparagraphs (a)
 and (c) of the Commercial Computer Software - Restricted
 Rights clause in FAR 52.227-19.
  
 Gaussian, Inc.
 340 Quinnipiac St., Bldg. 40, Wallingford CT 06492
  
  
 ---------------------------------------------------------------
 Warning -- This program may not be used in any manner that
 competes with the business of Gaussian, Inc. or will provide
 assistance to any competitor of Gaussian, Inc.  The licensee
 of this program is prohibited from giving any competitor of
 Gaussian, Inc. access to this program.  By using this program,
 the user acknowledges that Gaussian, Inc. is engaged in the
 business of creating and licensing software in the field of
 computational chemistry and represents and warrants to the
 licensee that it is not a competitor of Gaussian, Inc. and that
 it will not use this program in any manner prohibited above.
 ---------------------------------------------------------------
  

 Cite this work as:
 Gaussian 09, Revision A.02,
 M. J. Frisch, G. W. Trucks, H. B. Schlegel, G. E. Scuseria, 
 M. A. Robb, J. R. Cheeseman, G. Scalmani, V. Barone, B. Mennucci, 
 G. A. Petersson, H. Nakatsuji, M. Caricato, X. Li, H. P. Hratchian, 
 A. F. Izmaylov, J. Bloino, G. Zheng, J. L. Sonnenberg, M. Hada, 
 M. Ehara, K. Toyota, R. Fukuda, J. Hasegawa, M. Ishida, T. Nakajima, 
 Y. Honda, O. Kitao, H. Nakai, T. Vreven, J. A. Montgomery, Jr., 
 J. E. Peralta, F. Ogliaro, M. Bearpark, J. J. Heyd, E. Brothers, 
 K. N. Kudin, V. N. Staroverov, R. Kobayashi, J. Normand, 
 K. Raghavachari, A. Rendell, J. C. Burant, S. S. Iyengar, J. Tomasi, 
 M. Cossi, N. Rega, J. M. Millam, M. Klene, J. E. Knox, J. B. Cross, 
 V. Bakken, C. Adamo, J. Jaramillo, R. Gomperts, R. E. Stratmann, 
 O. Yazyev, A. J. Austin, R. Cammi, C. Pomelli, J. W. Ochterski, 
 R. L. Martin, K. Morokuma, V. G. Zakrzewski, G. A. Voth, 
 P. Salvador, J. J. Dannenberg, S. Dapprich, A. D. Daniels, 
 O. Farkas, J. B. Foresman, J. V. Ortiz, J. Cioslowski, 
 and D. J. Fox, Gaussian, Inc., Wallingford CT, 2009.
 
 ******************************************
 Gaussian 09:  EM64L-G09RevA.02 11-Jun-2009
                 2-Dec-2013 
 ******************************************
 % Mem=64GB
 % Nproc=16
 Will use up to   16 processors via shared memory.
 % Chk=MnO+_5Pi.chk
 ----------------------------------------------------------------------
 # ROMP2 Gen GFinput Int=NoBasisTransform Int(Grid=Ultrafine) IOp(3/32=
 2,5/6=10,8/11=1,9/33=1) Maxdisk=128GB CBSextrapolate(Nmin=25,MinPop) S
 CF=Symm Guess=Read
 ----------------------------------------------------------------------
 1/38=1/1;
 2/12=2,17=6,18=5,40=1/2;
 3/5=7,11=2,16=1,24=10,25=1,30=1,32=2,60=-1,75=-5,116=101/1,2,3;
 4/5=1,9=4/1;
 5/5=2,6=10,15=2,38=6/2;
 8/5=-1,10=1,11=1/1;
 9/16=-3,33=1,75=2,81=25,83=4/6,4;
 6/7=2,8=2,9=2,10=2/1;
 99/5=1,9=1/99;
 --------
 MnO+ 5Pi
 --------
 Symbolic Z-matrix:
 Charge =  1 Multiplicity = 5
 Mn
 O                    1     1.814 
 
                          Input orientation:                          
 ---------------------------------------------------------------------
 Center     Atomic      Atomic             Coordinates (Angstroms)
 Number     Number       Type             X           Y           Z
 ---------------------------------------------------------------------
      1         25           0        0.000000    0.000000    0.000000
      2          8           0        0.000000    0.000000    1.814000
 ---------------------------------------------------------------------
 Stoichiometry    MnO(1+,5)
 Framework group  C*V[C*(OMn)]
 Deg. of freedom     1
 Full point group                 C*V     NOp   4
 Largest Abelian subgroup         C2V     NOp   4
 Largest concise Abelian subgroup C1      NOp   1
                         Standard orientation:                         
 ---------------------------------------------------------------------
 Center     Atomic      Atomic             Coordinates (Angstroms)
 Number     Number       Type             X           Y           Z
 ---------------------------------------------------------------------
      1         25           0        0.000000    0.000000    0.439758
      2          8           0        0.000000    0.000000   -1.374242
 ---------------------------------------------------------------------
 Rotational constants (GHZ):      0.0000000     12.3975418     12.3975418
 General basis read from cards:  (5D, 7F)
 AO basis set in the form of general basis input (Overlap normalization):
      1 0
 S  17 1.00       0.000000000000
      0.2589493270D+08  0.8345046128D-06
      0.3915590060D+07  0.6371710381D-05
      0.9055796150D+06  0.3272147157D-04
      0.2604384670D+06  0.1359125783D-03
      0.8599643530D+05  0.4879517470D-03
      0.3156560560D+05  0.1546128034D-02
      0.1265370630D+05  0.4409810302D-02
      0.5449984580D+04  0.1151136886D-01
      0.2487175490D+04  0.2774051072D-01
      0.1188494540D+04  0.6149760294D-01
      0.5886025610D+03  0.1232692391D+00
      0.2994870200D+03  0.2136282509D+00
      0.1553950050D+03  0.2936708136D+00
      0.8171102500D+02  0.2685713793D+00
      0.4323132600D+02  0.1250063753D+00
      0.2209756900D+02  0.1798110546D-01
      0.1177981200D+02  0.5318590157D-03
 S  14 1.00       0.000000000000
      0.1265370630D+05 -0.6202247539D-05
      0.5449984580D+04 -0.3735853271D-04
      0.2487175490D+04 -0.2120746887D-03
      0.1188494540D+04 -0.1024919842D-02
      0.5886025610D+03 -0.4194317792D-02
      0.2994870200D+03 -0.1499657785D-01
      0.1553950050D+03 -0.4254438216D-01
      0.8171102500D+02 -0.8168749794D-01
      0.4323132600D+02 -0.4381978663D-01
      0.2209756900D+02  0.1997379039D+00
      0.1177981200D+02  0.4781788922D+00
      0.6344478000D+01  0.3651921171D+00
      0.3379594000D+01  0.8599723555D-01
      0.1758933000D+01  0.5069478582D-02
 P  16 1.00       0.000000000000
      0.6215066830D+05  0.3658368025D-05
      0.1605785870D+05  0.3040125515D-04
      0.5095463040D+04  0.1942728360D-03
      0.1894670610D+04  0.9375256041D-03
      0.7943393290D+03  0.3667330265D-02
      0.3640172220D+03  0.1203952149D-01
      0.1779262930D+03  0.3395429900D-01
      0.9102101000D+02  0.8267138332D-01
      0.4804124400D+02  0.1672413778D+00
      0.2588433500D+02  0.2680427000D+00
      0.1412423700D+02  0.3166198643D+00
      0.7757358000D+01  0.2238827862D+00
      0.4265247000D+01  0.7362136419D-01
      0.2334783000D+01  0.9238527106D-02
      0.1263938000D+01  0.6522422156D-03
      0.6707880000D+00  0.7512240983D-04
 S  12 1.00       0.000000000000
      0.1553950050D+03  0.3207473173D-03
      0.8171102500D+02  0.1635075977D-02
      0.4323132600D+02  0.2270045328D-02
      0.2209756900D+02 -0.1175159291D-01
      0.1177981200D+02 -0.1070077816D+00
      0.6344478000D+01 -0.1906156711D+00
      0.3379594000D+01  0.7178881681D-01
      0.1758933000D+01  0.4993416407D+00
      0.8905110000D+00  0.4989305857D+00
      0.4394750000D+00  0.1284134265D+00
      0.2129450000D+00  0.1879287424D-02
      0.1024330000D+00  0.2085585178D-02
 P  15 1.00       0.000000000000
      0.1894670610D+04 -0.3752337511D-06
      0.7943393290D+03 -0.6741318899D-05
      0.3640172220D+03 -0.4604637999D-04
      0.1779262930D+03 -0.2958788339D-03
      0.9102101000D+02 -0.1363055780D-02
      0.4804124400D+02 -0.4803816519D-02
      0.2588433500D+02 -0.1144981877D-01
      0.1412423700D+02 -0.2075328029D-01
      0.7757358000D+01  0.9126067826D-02
      0.4265247000D+01  0.1470275665D+00
      0.2334783000D+01  0.3161714576D+00
      0.1263938000D+01  0.3643078859D+00
      0.6707880000D+00  0.2328497102D+00
      0.3449150000D+00  0.5803189254D-01
      0.1691460000D+00  0.4006137164D-02
 D  16 1.00       0.000000000000
      0.2037588350D+04  0.5318668661D-05
      0.6431313760D+03  0.5280175861D-04
      0.2499805510D+03  0.3394553281D-03
      0.1123964430D+03  0.1552351480D-02
      0.5571694100D+02  0.5566017632D-02
      0.2939108100D+02  0.1585923990D-01
      0.1609252400D+02  0.3752382651D-01
      0.8997171000D+01  0.7924094840D-01
      0.5086100000D+01  0.1424682790D+00
      0.2891615000D+01  0.2044505211D+00
      0.1648666000D+01  0.2392174661D+00
      0.9404310000D+00  0.2366743861D+00
      0.5345870000D+00  0.1965911391D+00
      0.3005770000D+00  0.1278922490D+00
      0.1649950000D+00  0.5132305391D-01
      0.8661500000D-01  0.6931609830D-02
 D   1 1.00       0.000000000000
      0.5896327149D-01  0.1000000000D+01
 D   1 1.00       0.000000000000
      0.1836400000D-01  0.1000000000D+01
 S  10 1.00       0.000000000000
      0.2209756900D+02 -0.3950878983D-05
      0.1177981200D+02  0.1295726278D-02
      0.6344478000D+01  0.4498875778D-02
      0.3379594000D+01 -0.4621039709D-02
      0.1758933000D+01 -0.3409251314D-01
      0.8905110000D+00 -0.1211369853D+00
      0.4394750000D+00 -0.1550246145D+00
      0.2129450000D+00  0.2572299487D+00
      0.1024330000D+00  0.6896735934D+00
      0.4958300000D-01  0.2538345197D+00
 S   1 1.00       0.000000000000
      0.4054418890D-01  0.1000000000D+01
 S   1 1.00       0.000000000000
      0.1524100000D-01  0.1000000000D+01
 S   1 1.00       0.000000000000
      0.5008000000D-02  0.1000000000D+01
 P  10 1.00       0.000000000000
      0.2588433500D+02  0.8575377771D-03
      0.1412423700D+02 -0.1176375226D-02
      0.7757358000D+01  0.3668448901D-02
      0.4265247000D+01 -0.1681091342D-01
      0.2334783000D+01 -0.8126246574D-03
      0.1263938000D+01 -0.5573713192D-01
      0.6707880000D+00  0.2239477374D-01
      0.3449150000D+00 -0.3802982727D-01
      0.1691460000D+00  0.4811362917D+00
      0.6019844190D-01  0.6231395465D+00
 P   1 1.00       0.000000000000
      0.8557927624D-01  0.1000000000D+01
 P   1 1.00       0.000000000000
      0.3564500000D-01  0.1000000000D+01
 S   1 1.00       0.000000000000
      0.5308124000D+01  0.1000000000D+01
 S   1 1.00       0.000000000000
      0.2719949000D+01  0.1000000000D+01
 S   1 1.00       0.000000000000
      0.1393736000D+01  0.1000000000D+01
 S   1 1.00       0.000000000000
      0.7141680000D+00  0.1000000000D+01
 S   1 1.00       0.000000000000
      0.3659480000D+00  0.1000000000D+01
 S   1 1.00       0.000000000000
      0.1875170000D+00  0.1000000000D+01
 P   1 1.00       0.000000000000
      0.2493935000D+01  0.1000000000D+01
 P   1 1.00       0.000000000000
      0.1421672000D+01  0.1000000000D+01
 P   1 1.00       0.000000000000
      0.8104270000D+00  0.1000000000D+01
 P   1 1.00       0.000000000000
      0.4619850000D+00  0.1000000000D+01
 P   1 1.00       0.000000000000
      0.2633560000D+00  0.1000000000D+01
 P   1 1.00       0.000000000000
      0.1501260000D+00  0.1000000000D+01
 D   1 1.00       0.000000000000
      0.6136618000D+01  0.1000000000D+01
 D   1 1.00       0.000000000000
      0.2887252000D+01  0.1000000000D+01
 D   1 1.00       0.000000000000
      0.1358439000D+01  0.1000000000D+01
 D   1 1.00       0.000000000000
      0.6391400000D+00  0.1000000000D+01
 D   1 1.00       0.000000000000
      0.3007120000D+00  0.1000000000D+01
 D   1 1.00       0.000000000000
      0.1414840000D+00  0.1000000000D+01
 F   1 1.00       0.000000000000
      0.1604415900D+02  0.1000000000D+01
 F   1 1.00       0.000000000000
      0.7173713000D+01  0.1000000000D+01
 F   1 1.00       0.000000000000
      0.3207532000D+01  0.1000000000D+01
 F   1 1.00       0.000000000000
      0.1434162000D+01  0.1000000000D+01
 F   1 1.00       0.000000000000
      0.6412470000D+00  0.1000000000D+01
 F   1 1.00       0.000000000000
      0.2867160000D+00  0.1000000000D+01
 F   1 1.00       0.000000000000
      0.1281970000D+00  0.1000000000D+01
 G   1 1.00       0.000000000000
      0.1121282800D+02  0.1000000000D+01
 G   1 1.00       0.000000000000
      0.5020983000D+01  0.1000000000D+01
 G   1 1.00       0.000000000000
      0.2248342000D+01  0.1000000000D+01
 G   1 1.00       0.000000000000
      0.1006783000D+01  0.1000000000D+01
 G   1 1.00       0.000000000000
      0.4508270000D+00  0.1000000000D+01
 G   1 1.00       0.000000000000
      0.2018750000D+00  0.1000000000D+01
 H   1 1.00       0.000000000000
      0.9011096000D+01  0.1000000000D+01
 H   1 1.00       0.000000000000
      0.3829841000D+01  0.1000000000D+01
 H   1 1.00       0.000000000000
      0.1627735000D+01  0.1000000000D+01
 H   1 1.00       0.000000000000
      0.6918100000D+00  0.1000000000D+01
 H   1 1.00       0.000000000000
      0.2940280000D+00  0.1000000000D+01
 I   1 1.00       0.000000000000
      0.7195010000D+01  0.1000000000D+01
 I   1 1.00       0.000000000000
      0.2853562000D+01  0.1000000000D+01
 I   1 1.00       0.000000000000
      0.1131731000D+01  0.1000000000D+01
 I   1 1.00       0.000000000000
      0.4488470000D+00  0.1000000000D+01
 J   1 1.00       0.000000000000
      0.5521743000D+01  0.1000000000D+01
 J   1 1.00       0.000000000000
      0.1967658000D+01  0.1000000000D+01
 J   1 1.00       0.000000000000
      0.7011690000D+00  0.1000000000D+01
 K   1 1.00       0.000000000000
      0.3854124916D+01  0.1000000000D+01
 ****
      2 0
 S  16 1.00       0.000000000000
      0.1411246410D+07  0.1627429822D-05
      0.2499102240D+06  0.1092621996D-04
      0.5603410580D+05  0.6238741867D-04
      0.1521153640D+05  0.2783303491D-03
      0.4812287750D+04  0.1040541872D-02
      0.1717755460D+04  0.3380392793D-02
      0.6733958240D+03  0.9828484765D-02
      0.2835101840D+03  0.2605310129D-01
      0.1258620070D+03  0.6280818057D-01
      0.5804472200D+02  0.1348202075D+00
      0.2747198500D+02  0.2435563460D+00
      0.1321062900D+02  0.3323287378D+00
      0.6399806000D+01  0.2607930483D+00
      0.3099614000D+01  0.7430834326D-01
      0.1489856000D+01  0.4189538074D-02
      0.7052010000D+00  0.8706455725D-03
 S  11 1.00       0.000000000000
      0.2835101840D+03 -0.1122588094D-03
      0.1258620070D+03 -0.5559335617D-03
      0.5804472200D+02 -0.2851687904D-02
      0.2747198500D+02 -0.1133494995D-01
      0.1321062900D+02 -0.3657977704D-01
      0.6399806000D+01 -0.7288994197D-01
      0.3099614000D+01 -0.1062032356D-01
      0.1489856000D+01  0.2196705572D+00
      0.7052010000D+00  0.4294832072D+00
      0.3258480000D+00  0.3775832849D+00
      0.1454600000D+00  0.9640261255D-01
 S   1 1.00       0.000000000000
      0.5814297870D-01  0.1000000000D+01
 P  13 1.00       0.000000000000
      0.2085279200D+04  0.1447911740D-04
      0.5101470830D+03  0.1283233588D-03
      0.1616811510D+03  0.7792790007D-03
      0.6114945200D+02  0.3400506049D-02
      0.2597660200D+02  0.1157685214D-01
      0.1187542600D+02  0.3269740339D-01
      0.5677133000D+01  0.8011404242D-01
      0.2786475000D+01  0.1605265057D+00
      0.1387844000D+01  0.2460495026D+00
      0.6952810000D+00  0.2898982926D+00
      0.3470020000D+00  0.2606799382D+00
      0.1700990000D+00  0.1479363112D+00
      0.8008000000D-01  0.2980261453D-01
 P   1 1.00       0.000000000000
      0.4261436033D-01  0.1000000000D+01
 S   1 1.00       0.000000000000
      0.4249866000D+01  0.1000000000D+01
 S   1 1.00       0.000000000000
      0.2167470000D+01  0.1000000000D+01
 S   1 1.00       0.000000000000
      0.1105429000D+01  0.1000000000D+01
 S   1 1.00       0.000000000000
      0.5637790000D+00  0.1000000000D+01
 S   1 1.00       0.000000000000
      0.2875320000D+00  0.1000000000D+01
 S   1 1.00       0.000000000000
      0.1466440000D+00  0.1000000000D+01
 P   1 1.00       0.000000000000
      0.5659724000D+01  0.1000000000D+01
 P   1 1.00       0.000000000000
      0.2575878000D+01  0.1000000000D+01
 P   1 1.00       0.000000000000
      0.1172344000D+01  0.1000000000D+01
 P   1 1.00       0.000000000000
      0.5335620000D+00  0.1000000000D+01
 P   1 1.00       0.000000000000
      0.2428370000D+00  0.1000000000D+01
 P   1 1.00       0.000000000000
      0.1105210000D+00  0.1000000000D+01
 D   1 1.00       0.000000000000
      0.9464211000D+01  0.1000000000D+01
 D   1 1.00       0.000000000000
      0.4752286000D+01  0.1000000000D+01
 D   1 1.00       0.000000000000
      0.2386276000D+01  0.1000000000D+01
 D   1 1.00       0.000000000000
      0.1198226000D+01  0.1000000000D+01
 D   1 1.00       0.000000000000
      0.6016680000D+00  0.1000000000D+01
 D   1 1.00       0.000000000000
      0.3021170000D+00  0.1000000000D+01
 D   1 1.00       0.000000000000
      0.1517020000D+00  0.1000000000D+01
 F   1 1.00       0.000000000000
      0.7001836000D+01  0.1000000000D+01
 F   1 1.00       0.000000000000
      0.3552509000D+01  0.1000000000D+01
 F   1 1.00       0.000000000000
      0.1802430000D+01  0.1000000000D+01
 F   1 1.00       0.000000000000
      0.9144960000D+00  0.1000000000D+01
 F   1 1.00       0.000000000000
      0.4639860000D+00  0.1000000000D+01
 F   1 1.00       0.000000000000
      0.2354110000D+00  0.1000000000D+01
 G   1 1.00       0.000000000000
      0.6472481000D+01  0.1000000000D+01
 G   1 1.00       0.000000000000
      0.3119071000D+01  0.1000000000D+01
 G   1 1.00       0.000000000000
      0.1503072000D+01  0.1000000000D+01
 G   1 1.00       0.000000000000
      0.7243260000D+00  0.1000000000D+01
 G   1 1.00       0.000000000000
      0.3490500000D+00  0.1000000000D+01
 H   1 1.00       0.000000000000
      0.5355083000D+01  0.1000000000D+01
 H   1 1.00       0.000000000000
      0.2414696000D+01  0.1000000000D+01
 H   1 1.00       0.000000000000
      0.1088827000D+01  0.1000000000D+01
 H   1 1.00       0.000000000000
      0.4909703000D+00  0.1000000000D+01
 I   1 1.00       0.000000000000
      0.4322113000D+01  0.1000000000D+01
 I   1 1.00       0.000000000000
      0.1716263000D+01  0.1000000000D+01
 I   1 1.00       0.000000000000
      0.6815089000D+00  0.1000000000D+01
 J   1 1.00       0.000000000000
      0.3060973723D+01  0.1000000000D+01
 ****

 There are   208 symmetry adapted basis functions of A1  symmetry.
 There are   106 symmetry adapted basis functions of A2  symmetry.
 There are   151 symmetry adapted basis functions of B1  symmetry.
 There are   151 symmetry adapted basis functions of B2  symmetry.
 Integral buffers will be    131072 words long.
 Raffenetti 2 integral format.
 Two-electron integral symmetry is turned on.
   616 basis functions,  1358 primitive gaussians,  1044 cartesian basis functions
    18 alpha electrons       14 beta electrons
       nuclear repulsion energy        58.3436834168 Hartrees.
 NAtoms=    2 NActive=    2 NUniq=    2 SFac= 7.50D-01 NAtFMM=   80 NAOKFM=F Big=F
 One-electron integrals computed using PRISM.
 NBasis=   616 RedAO= F  NBF=   208   106   151   151
 NBsUse=   616 1.00D-04 NBFU=   208   106   151   151
 Initial guess read from the checkpoint file:  MnO+_5Pi.chk
 B after Tr=     0.000000    0.000000    0.000000
         Rot=    1.000000    0.000000    0.000000    0.000000 Ang=   0.00 deg.
 Initial guess orbital symmetries:
       Occupied  (SG) (SG) (PI) (SG) (PI) (SG) (SG) (PI) (SG) (PI)
                 (SG) (SG) (?A) (?A) (?B) (?B) (?A) (?B)
       Virtual   (?A) (SG) (?A) (?A) (SG) (SG) (SG) (?A) (?C) (?A)
                 (?C) (?C) (?A) (?A) (SG) (SG) (?A) (?A) (SG) (SG)
                 (?A) (DLTA) (DLTA) (?A) (?A) (?A) (?D) (?D) (?D)
                 (?A) (?A) (?D) (?A) (?A) (?E) (?E) (?E) (PI) (PI)
                 (SG) (SG) (PI) (PI) (SG) (PHI) (PHI) (?F) (?F)
                 (SG) (DLTA) (DLTA) (PI) (PI) (?G) (?G) (?G) (?H)
                 (?H) (?H) (?H) (?H) (?H) (?H) (?H) (?I) (?I) (?I)
                 (?I) (?I) (?I) (PI) (PI) (SG) (PI) (PI) (?J) (?J)
                 (?J) (PI) (PI) (SG) (?F) (?F) (?K) (?K) (PHI)
                 (PHI) (SG) (?L) (?L) (PI) (PI) (?L) (?L) (SG)
                 (?H) (?H) (SG) (?H) (?H) (?L) (?L) (?L) (?L) (?L)
                 (?L) (?L) (?F) (?F) (?L) (?L) (?L) (?L) (?L) (?L)
                 (?L) (?L) (?L) (?L) (?H) (?H) (?H) (?H) (?D) (?D)
                 (PI) (PI) (?D) (?D) (?K) (?K) (PI) (PI) (?L) (?L)
                 (?L) (?L) (SG) (SG) (?L) (PI) (PI) (?K) (?K) (DLTA)
                 (DLTA) (?H) (?H) (?H) (?H) (SG) (?L) (?L) (?L)
                 (DLTA) (DLTA) (?L) (?H) (?H) (?H) (?H) (?L) (?L)
                 (PI) (PI) (SG) (?F) (?F) (?L) (?L) (?L) (?L) (?L)
                 (?L) (?L) (?L) (?L) (?L) (?L) (SG) (?L) (?L) (?L)
                 (?L) (?D) (SG) (SG) (?L) (?L) (?D) (?L) (?L) (?D)
                 (?D) (?L) (?L) (PI) (PI) (?L) (?L) (?L) (?L) (?L)
                 (?L) (?L) (?L) (?L) (?F) (?F) (?L) (?L) (?L) (?L)
                 (?L) (SG) (SG) (?L) (?L) (?L) (?H) (?H) (?H) (?H)
                 (?K) (?K) (?H) (?H) (?H) (?L) (?H) (?L) (?L) (?F)
                 (?F) (SG) (?L) (?L) (?L) (PI) (PI) (SG) (PHI)
                 (PHI) (PI) (PI) (DLTA) (DLTA) (PI) (PI) (?K) (?K)
                 (SG) (?L) (?L) (?L) (?L) (?L) (?L) (?L) (?L) (?L)
                 (?L) (?L) (?L) (?L) (SG) (SG) (?K) (?K) (?F) (?F)
                 (PI) (PI) (PHI) (PHI) (SG) (DLTA) (DLTA) (SG)
                 (?F) (?F) (?L) (?L) (?L) (?L) (?L) (?L) (PHI)
                 (PHI) (?L) (?L) (?L) (?L) (?K) (?K) (?L) (?F)
                 (?F) (?L) (?L) (?L) (?L) (PI) (PI) (PHI) (PHI)
                 (?L) (PI) (PI) (DLTA) (DLTA) (PI) (SG) (PI) (SG)
                 (?F) (?F) (SG) (?H) (?H) (?H) (?H) (SG) (DLTA)
                 (DLTA) (PHI) (PHI) (PI) (PI) (?L) (?L) (?L) (?L)
                 (?L) (?L) (?L) (?L) (?L) (?L) (?L) (?L) (?L) (?L)
                 (?L) (PI) (PI) (SG) (SG) (?L) (?L) (SG) (SG) (?K)
                 (?K) (?F) (?F) (PHI) (PHI) (DLTA) (DLTA) (PI)
                 (PI) (SG) (?L) (?L) (?L) (?L) (?L) (?L) (?L) (?L)
                 (?L) (?L) (?L) (?L) (?L) (?L) (?L) (?L) (?L) (SG)
                 (?L) (?L) (?L) (?L) (?L) (?L) (?L) (?L) (?L) (?L)
                 (?L) (?L) (?L) (?L) (SG) (SG) (?K) (?K) (?F) (?F)
                 (?H) (?H) (?H) (?H) (?L) (?L) (?L) (?L) (PI) (PI)
                 (?L) (?L) (PI) (PI) (SG) (?K) (?K) (?F) (?F) (PHI)
                 (PHI) (DLTA) (DLTA) (PI) (PI) (SG) (?L) (?L) (?L)
                 (?L) (?L) (?L) (?L) (?L) (?L) (?L) (?L) (?L) (?L)
                 (?L) (?L) (?L) (?L) (?L) (?F) (?F) (PHI) (PHI)
                 (?L) (?L) (?L) (PI) (PI) (SG) (PHI) (PHI) (DLTA)
                 (DLTA) (PI) (PI) (SG) (SG) (?L) (?L) (?L) (?L)
                 (?L) (?L) (?L) (?L) (?L) (?L) (?L) (?L) (?L) (?L)
                 (?L) (?L) (?L) (?L) (?L) (?L) (?L) (?L) (?L) (?L)
                 (?L) (?L) (?L) (?L) (?L) (?L) (?L) (?L) (?L) (?L)
                 (?L) (?L) (?L) (?L) (?L) (?L) (?L) (?H) (?H) (?L)
                 (?L) (?H) (?H) (?L) (?L) (?L) (?H) (?H) (?L) (?L)
                 (?H) (?H) (?L) (?L) (?L) (SG) (SG) (?K) (?K) (?L)
                 (?L) (?H) (?H) (?L) (?L) (?L) (?H) (?H) (DLTA)
                 (DLTA) (?L) (?L) (?L) (?L) (?L) (?L) (?L) (SG)
                 (SG) (SG) (?K) (?K) (?F) (?F) (PHI) (PHI) (?L)
                 (?L) (PI) (PI) (?L) (PI) (PI) (SG) (?K) (?K) (?F)
                 (?F) (PHI) (PHI) (DLTA) (DLTA) (PI) (PI) (SG)
                 (?F) (?F) (PHI) (PHI) (DLTA) (DLTA) (PI) (PI)
                 (SG) (PHI) (PHI) (DLTA) (DLTA) (PI) (PI) (SG)
                 (SG) (SG) (SG) (PI) (PI) (DLTA) (DLTA) (SG) (PI)
                 (PI)
 Requested convergence on RMS density matrix=1.00D-10 within 128 cycles.
 Requested convergence on MAX density matrix=1.00D-08.
 Requested convergence on             energy=1.00D-08.
 No special actions if energy rises.
 Restarting incremental Fock formation.
 SCF Done:  E(ROHF) =  -1224.27929706     A.U. after   21 cycles
             Convg  =    0.1878D-10             -V/T =  2.0002
 <Sx>= 0.0000 <Sy>= 0.0000 <Sz>= 2.0000 <S**2>= 6.0000 S= 2.0000
 <L.S>= 0.000000000000E+00
 Annihilation of the first spin contaminant:
 S**2 before annihilation     6.0000,   after     6.0000
 DiagDN has N=   616 LTot=  1880 but NE2=     3 cannot use DSYEVD.
 GenMOA:  NOpAll=  4 NOp2=4 NOpUse=  4 JSym2X=1
 <Sx>= 0.0000 <Sy>= 0.0000 <Sz>= 2.0000 <S**2>= 6.0000 S= 2.0000
 ExpMin= 5.01D-03 ExpMax= 2.59D+07 ExpMxC= 5.45D+03 IAcc=3 IRadAn=         5 AccDes= 0.00D+00
 HarFok:  IExCor=  205 AccDes= 0.00D+00 IRadAn=         5 IDoV=-2
 ScaDFX=  1.000000  1.000000  1.000000  1.000000
 Range of M.O.s used for correlation:    11   616
 NBasis=   616 NAE=    18 NBE=    14 NFC=    10 NFV=     0
 NROrb=    606 NOA=     8 NOB=     4 NVA=   598 NVB=   602

 **** Warning!!: The largest alpha MO coefficient is  0.23123500D+03


 **** Warning!!: The largest beta MO coefficient is  0.23123477D+03

 Singles contribution to E2=   -0.4772732627D-02
 Disk-based method using OVN memory for  8 occupieds at a time.
 Permanent disk used for amplitudes and <ij||ab> integrals=    35206724 words.
 Estimated scratch disk usage=  8039392080 words.
 IUseRI=2 ITolRI= 6 IR12RI=0
 Actual    scratch disk usage=  7985968688 words.
 GetIJB would need an additional  4962586756 words of memory to use all  16 processors.
 JobTyp=2 Pass  1:  I=   1 to   8 NPSUse= 10 ParTrn=T ParDer=T DoDerP=F.
 T,EIJ(AA): I=   1 J=   2      0.2110050E-03     -0.1109701E-02
 T,EIJ(AA): I=   1 J=   3      0.1156867E-03     -0.6255303E-03
 T,EIJ(AA): I=   1 J=   4      0.4000185E-04     -0.2086222E-03
 T,EIJ(AA): I=   1 J=   5      0.4090339E-04     -0.2136153E-03
 T,EIJ(AA): I=   1 J=   6      0.6437829E-03     -0.3275240E-02
 T,EIJ(AA): I=   1 J=   7      0.5263514E-03     -0.2627792E-02
 T,EIJ(AA): I=   1 J=   8      0.1042700E-02     -0.3185964E-02
 T,EIJ(AA): I=   2 J=   3      0.1106626E-02     -0.6745817E-02
 T,EIJ(AA): I=   2 J=   4      0.8249094E-03     -0.4578674E-02
 T,EIJ(AA): I=   2 J=   5      0.8220836E-03     -0.4555405E-02
 T,EIJ(AA): I=   2 J=   6      0.6990731E-03     -0.3244487E-02
 T,EIJ(AA): I=   2 J=   7      0.2115476E-03     -0.8971915E-03
 T,EIJ(AA): I=   2 J=   8      0.4018682E-02     -0.1032735E-01
 T,EIJ(AA): I=   3 J=   4      0.1049143E-02     -0.6533997E-02
 T,EIJ(AA): I=   3 J=   5      0.1063139E-02     -0.6661768E-02
 T,EIJ(AA): I=   3 J=   6      0.6265932E-04     -0.2569190E-03
 T,EIJ(AA): I=   3 J=   7      0.6090073E-03     -0.3372723E-02
 T,EIJ(AA): I=   3 J=   8      0.1889399E-02     -0.6787978E-02
 T,EIJ(AA): I=   4 J=   5      0.1800902E-02     -0.1163059E-01
 T,EIJ(AA): I=   4 J=   6      0.1990817E-03     -0.1096852E-02
 T,EIJ(AA): I=   4 J=   7      0.4000867E-03     -0.2102001E-02
 T,EIJ(AA): I=   4 J=   8      0.2352665E-02     -0.7816298E-02
 T,EIJ(AA): I=   5 J=   6      0.2020764E-03     -0.1119702E-02
 T,EIJ(AA): I=   5 J=   7      0.3987276E-03     -0.2092963E-02
 T,EIJ(AA): I=   5 J=   8      0.2324811E-02     -0.7685058E-02
 T,EIJ(AA): I=   6 J=   7      0.1671065E-02     -0.6868557E-02
 T,EIJ(AA): I=   6 J=   8      0.3140532E-02     -0.7114660E-02
 T,EIJ(AA): I=   7 J=   8      0.2934017E-02     -0.7923846E-02
 T,EIJ(AB): I=   1 J=   1      0.3443910E-02     -0.1707674E-01
 T,EIJ(AB): I=   1 J=   2      0.2312513E-02     -0.1327138E-01
 T,EIJ(AB): I=   1 J=   3      0.2325910E-02     -0.1342694E-01
 T,EIJ(AB): I=   1 J=   4      0.1722463E-02     -0.6568611E-02
 T,EIJ(AB): I=   2 J=   1      0.7258304E-03     -0.4131773E-02
 T,EIJ(AB): I=   2 J=   2      0.1922088E-02     -0.8549711E-02
 T,EIJ(AB): I=   2 J=   3      0.8630890E-03     -0.3885880E-02
 T,EIJ(AB): I=   2 J=   4      0.4632701E-02     -0.1187582E-01
 T,EIJ(AB): I=   3 J=   1      0.2713842E-03     -0.1629841E-02
 T,EIJ(AB): I=   3 J=   2      0.5079553E-03     -0.2358730E-02
 T,EIJ(AB): I=   3 J=   3      0.6666027E-03     -0.2945624E-02
 T,EIJ(AB): I=   3 J=   4      0.2523174E-02     -0.9254657E-02
 T,EIJ(AB): I=   4 J=   1      0.4700095E-04     -0.2590563E-03
 T,EIJ(AB): I=   4 J=   2      0.2608080E-03     -0.1048351E-02
 T,EIJ(AB): I=   4 J=   3      0.1083035E-03     -0.3794095E-03
 T,EIJ(AB): I=   4 J=   4      0.3038060E-02     -0.1043103E-01
 T,EIJ(AB): I=   5 J=   1      0.5102321E-04     -0.2810268E-03
 T,EIJ(AB): I=   5 J=   2      0.2702421E-03     -0.1090327E-02
 T,EIJ(AB): I=   5 J=   3      0.1110099E-03     -0.3951290E-03
 T,EIJ(AB): I=   5 J=   4      0.3043265E-02     -0.1042079E-01
 T,EIJ(AB): I=   6 J=   1      0.2132966E-02     -0.1244441E-01
 T,EIJ(AB): I=   6 J=   2      0.2707764E-02     -0.1197322E-01
 T,EIJ(AB): I=   6 J=   3      0.5488879E-02     -0.2378933E-01
 T,EIJ(AB): I=   6 J=   4      0.3787505E-02     -0.8872260E-02
 T,EIJ(AB): I=   7 J=   1      0.1757111E-02     -0.1003639E-01
 T,EIJ(AB): I=   7 J=   2      0.4382475E-02     -0.1892533E-01
 T,EIJ(AB): I=   7 J=   3      0.2424793E-02     -0.1006476E-01
 T,EIJ(AB): I=   7 J=   4      0.3741412E-02     -0.1017100E-01
 T,EIJ(AB): I=   8 J=   1      0.1700493E-02     -0.6615763E-02
 T,EIJ(AB): I=   8 J=   2      0.5696182E-02     -0.1190027E-01
 T,EIJ(AB): I=   8 J=   3      0.4257979E-02     -0.8812923E-02
 T,EIJ(AB): I=   8 J=   4      0.6080651E-01     -0.6416988E-01
 Actual    scratch disk usage=  8039386960 words.
 GetIJB would need an additional  4962524116 words of memory to use all  16 processors.
 JobTyp=3 Pass  1:  I=   1 to   4 NPSUse= 10 ParTrn=T ParDer=T DoDerP=F.
 T,EIJ(BB): I=   1 J=   2      0.7019920E-03     -0.3539544E-02
 T,EIJ(BB): I=   1 J=   3      0.7319084E-03     -0.3651509E-02
 T,EIJ(BB): I=   1 J=   4      0.1079098E-02     -0.3279966E-02
 T,EIJ(BB): I=   2 J=   3      0.2380157E-02     -0.9452770E-02
 T,EIJ(BB): I=   2 J=   4      0.5129062E-02     -0.9826696E-02
 T,EIJ(BB): I=   3 J=   4      0.3831227E-02     -0.7295803E-02
 Spin components of T(2) and E(2):
     alpha-alpha T2 =       0.3040066444D-01 E2=     -0.1206593061D+00
     alpha-beta  T2 =       0.1277314000D+00 E2=     -0.3170563722D+00
     beta-beta   T2 =       0.1385344377D-01 E2=     -0.3704628833D-01
 ANorm=    0.1086894223D+01
 E2 =    -0.4795346992D+00 EUMP2 =    -0.12247588317577D+04

 Complete Basis Set (CBS) Extrapolation:
 M. R. Nyden and G. A. Petersson, JCP 75, 1843 (1981)
 G. A. Petersson and M. A. Al-Laham, JCP 94, 6081 (1991)
 G. A. Petersson, T. Tensfeldt, and J. A. Montgomery, JCP 94, 6091 (1991)
 J. A. Montgomery, J. W. Ochterski, and G. A. Petersson, JCP 101, 5900 (1994)
 
 Minimum Number of PNO for Extrapolation =  25
 Absolute Overlaps: IRadAn =         5
 LocTrn: ILocal=3 LocCor=F DoCore=F.
 Entering OneElI...
 Overlap between basis sets.
 Requested accuracy = 0.1000D-12
 PrsmSu:  NPrtUS=   1 ThrOK=F IAlg=1
 PRISM was handed  8588073853 working-precision words and    47 shell-pairs
 IPart=  0 NShTot=          47 NBatch=          10 AvBLen=         4.7
 CnvPC2: ToCart=F DoDens=F IPureD=0 IPureF=0.
 Transformed matrix in CnvPC2: 
                 1             2             3             4             5 
      1   0.100000D+01  0.383382D+00  0.000000D+00  0.000000D+00  0.000000D+00
      2   0.383382D+00  0.100000D+01  0.000000D+00  0.000000D+00  0.000000D+00
      3   0.000000D+00  0.000000D+00  0.100000D+01  0.000000D+00  0.000000D+00
      4   0.000000D+00  0.000000D+00  0.000000D+00  0.100000D+01  0.000000D+00
      5   0.000000D+00  0.000000D+00  0.000000D+00  0.000000D+00  0.100000D+01
      6   0.246887D-01  0.314681D+00  0.000000D+00  0.000000D+00  0.000000D+00
      7   0.000000D+00  0.000000D+00  0.327626D+00  0.000000D+00  0.000000D+00
      8   0.000000D+00  0.000000D+00  0.000000D+00  0.327626D+00  0.000000D+00
      9   0.000000D+00  0.000000D+00  0.000000D+00  0.000000D+00  0.327626D+00
     10   0.000000D+00  0.000000D+00  0.000000D+00  0.000000D+00  0.000000D+00
     11   0.000000D+00  0.000000D+00  0.000000D+00  0.000000D+00  0.000000D+00
     12   0.000000D+00  0.000000D+00  0.000000D+00  0.000000D+00  0.000000D+00
     13   0.000000D+00  0.000000D+00  0.000000D+00  0.000000D+00  0.000000D+00
     14   0.000000D+00  0.000000D+00  0.000000D+00  0.000000D+00  0.000000D+00
     15  -0.389891D-03  0.660268D-02  0.000000D+00  0.000000D+00  0.000000D+00
     16   0.000000D+00  0.000000D+00  0.156230D-01  0.000000D+00  0.000000D+00
     17   0.000000D+00  0.000000D+00  0.000000D+00  0.156230D-01  0.000000D+00
     18   0.000000D+00  0.000000D+00  0.000000D+00  0.000000D+00  0.156230D-01
     19   0.000000D+00  0.000000D+00  0.000000D+00  0.000000D+00  0.000000D+00
     20   0.318165D-03  0.230148D-02  0.000000D+00  0.000000D+00 -0.131420D-02
     21   0.000000D+00  0.000000D+00  0.348241D-03  0.000000D+00  0.000000D+00
     22   0.000000D+00  0.000000D+00  0.000000D+00  0.348241D-03  0.000000D+00
     23   0.750314D-03  0.522860D-02  0.000000D+00  0.000000D+00 -0.265603D-02
                 6             7             8             9            10 
      1   0.246887D-01  0.000000D+00  0.000000D+00  0.000000D+00  0.000000D+00
      2   0.314681D+00  0.000000D+00  0.000000D+00  0.000000D+00  0.000000D+00
      3   0.000000D+00  0.327626D+00  0.000000D+00  0.000000D+00  0.000000D+00
      4   0.000000D+00  0.000000D+00  0.327626D+00  0.000000D+00  0.000000D+00
      5   0.000000D+00  0.000000D+00  0.000000D+00  0.327626D+00  0.000000D+00
      6   0.100000D+01  0.000000D+00  0.000000D+00  0.000000D+00  0.000000D+00
      7   0.000000D+00  0.100000D+01  0.000000D+00  0.000000D+00  0.000000D+00
      8   0.000000D+00  0.000000D+00  0.100000D+01  0.000000D+00  0.000000D+00
      9   0.000000D+00  0.000000D+00  0.000000D+00  0.100000D+01  0.000000D+00
     10   0.000000D+00  0.000000D+00  0.000000D+00  0.000000D+00  0.100000D+01
     11   0.000000D+00  0.000000D+00  0.000000D+00  0.000000D+00  0.000000D+00
     12   0.000000D+00  0.000000D+00  0.000000D+00  0.000000D+00  0.000000D+00
     13   0.000000D+00  0.000000D+00  0.000000D+00  0.000000D+00  0.000000D+00
     14   0.000000D+00  0.000000D+00  0.000000D+00  0.000000D+00  0.000000D+00
     15   0.255042D+00  0.000000D+00  0.000000D+00  0.000000D+00  0.000000D+00
     16   0.000000D+00  0.270441D+00  0.000000D+00  0.000000D+00  0.000000D+00
     17   0.000000D+00  0.000000D+00  0.270441D+00  0.000000D+00  0.000000D+00
     18   0.000000D+00  0.000000D+00  0.000000D+00  0.270441D+00  0.000000D+00
     19   0.233290D-04  0.000000D+00  0.000000D+00 -0.718623D-04  0.118594D-02
     20   0.261602D-01  0.000000D+00  0.000000D+00 -0.335914D-01  0.480118D-01
     21   0.000000D+00  0.916878D-02  0.000000D+00  0.000000D+00  0.000000D+00
     22   0.000000D+00  0.000000D+00  0.916878D-02  0.000000D+00  0.000000D+00
     23   0.469495D-01  0.000000D+00  0.000000D+00 -0.557736D-01  0.691901D-01
                11            12            13            14            15 
      1   0.000000D+00  0.000000D+00  0.000000D+00  0.000000D+00 -0.389891D-03
      2   0.000000D+00  0.000000D+00  0.000000D+00  0.000000D+00  0.660268D-02
      3   0.000000D+00  0.000000D+00  0.000000D+00  0.000000D+00  0.000000D+00
      4   0.000000D+00  0.000000D+00  0.000000D+00  0.000000D+00  0.000000D+00
      5   0.000000D+00  0.000000D+00  0.000000D+00  0.000000D+00  0.000000D+00
      6   0.000000D+00  0.000000D+00  0.000000D+00  0.000000D+00  0.255042D+00
      7   0.000000D+00  0.000000D+00  0.000000D+00  0.000000D+00  0.000000D+00
      8   0.000000D+00  0.000000D+00  0.000000D+00  0.000000D+00  0.000000D+00
      9   0.000000D+00  0.000000D+00  0.000000D+00  0.000000D+00  0.000000D+00
     10   0.000000D+00  0.000000D+00  0.000000D+00  0.000000D+00  0.000000D+00
     11   0.100000D+01  0.000000D+00  0.000000D+00  0.000000D+00  0.000000D+00
     12   0.000000D+00  0.100000D+01  0.000000D+00  0.000000D+00  0.000000D+00
     13   0.000000D+00  0.000000D+00  0.100000D+01  0.000000D+00  0.000000D+00
     14   0.000000D+00  0.000000D+00  0.000000D+00  0.100000D+01  0.000000D+00
     15   0.000000D+00  0.000000D+00  0.000000D+00  0.000000D+00  0.100000D+01
     16   0.000000D+00  0.000000D+00  0.000000D+00  0.000000D+00  0.000000D+00
     17   0.000000D+00  0.000000D+00  0.000000D+00  0.000000D+00  0.000000D+00
     18   0.000000D+00  0.000000D+00  0.000000D+00  0.000000D+00  0.000000D+00
     19   0.000000D+00  0.000000D+00  0.000000D+00  0.000000D+00  0.275703D-01
     20   0.000000D+00  0.000000D+00  0.000000D+00  0.000000D+00  0.265423D+00
     21  -0.239077D-01  0.000000D+00  0.000000D+00  0.000000D+00  0.000000D+00
     22   0.000000D+00 -0.239077D-01  0.000000D+00  0.000000D+00  0.000000D+00
     23   0.000000D+00  0.000000D+00  0.000000D+00  0.000000D+00  0.158180D+00
                16            17            18            19            20 
      1   0.000000D+00  0.000000D+00  0.000000D+00  0.000000D+00  0.318165D-03
      2   0.000000D+00  0.000000D+00  0.000000D+00  0.000000D+00  0.230148D-02
      3   0.156230D-01  0.000000D+00  0.000000D+00  0.000000D+00  0.000000D+00
      4   0.000000D+00  0.156230D-01  0.000000D+00  0.000000D+00  0.000000D+00
      5   0.000000D+00  0.000000D+00  0.156230D-01  0.000000D+00 -0.131420D-02
      6   0.000000D+00  0.000000D+00  0.000000D+00  0.233290D-04  0.261602D-01
      7   0.270441D+00  0.000000D+00  0.000000D+00  0.000000D+00  0.000000D+00
      8   0.000000D+00  0.270441D+00  0.000000D+00  0.000000D+00  0.000000D+00
      9   0.000000D+00  0.000000D+00  0.270441D+00 -0.718623D-04 -0.335914D-01
     10   0.000000D+00  0.000000D+00  0.000000D+00  0.118594D-02  0.480118D-01
     11   0.000000D+00  0.000000D+00  0.000000D+00  0.000000D+00  0.000000D+00
     12   0.000000D+00  0.000000D+00  0.000000D+00  0.000000D+00  0.000000D+00
     13   0.000000D+00  0.000000D+00  0.000000D+00  0.000000D+00  0.000000D+00
     14   0.000000D+00  0.000000D+00  0.000000D+00  0.000000D+00  0.000000D+00
     15   0.000000D+00  0.000000D+00  0.000000D+00  0.275703D-01  0.265423D+00
     16   0.100000D+01  0.000000D+00  0.000000D+00  0.000000D+00  0.000000D+00
     17   0.000000D+00  0.100000D+01  0.000000D+00  0.000000D+00  0.000000D+00
     18   0.000000D+00  0.000000D+00  0.100000D+01 -0.471835D-01 -0.405396D+00
     19   0.000000D+00  0.000000D+00 -0.471835D-01  0.100000D+01  0.236704D+00
     20   0.000000D+00  0.000000D+00 -0.405396D+00  0.236704D+00  0.100000D+01
     21   0.125347D+00  0.000000D+00  0.000000D+00  0.000000D+00  0.000000D+00
     22   0.000000D+00  0.125347D+00  0.000000D+00  0.000000D+00  0.000000D+00
     23   0.000000D+00  0.000000D+00 -0.223283D+00  0.000000D+00  0.000000D+00
                21            22            23 
      1   0.000000D+00  0.000000D+00  0.750314D-03
      2   0.000000D+00  0.000000D+00  0.522860D-02
      3   0.348241D-03  0.000000D+00  0.000000D+00
      4   0.000000D+00  0.348241D-03  0.000000D+00
      5   0.000000D+00  0.000000D+00 -0.265603D-02
      6   0.000000D+00  0.000000D+00  0.469495D-01
      7   0.916878D-02  0.000000D+00  0.000000D+00
      8   0.000000D+00  0.916878D-02  0.000000D+00
      9   0.000000D+00  0.000000D+00 -0.557736D-01
     10   0.000000D+00  0.000000D+00  0.691901D-01
     11  -0.239077D-01  0.000000D+00  0.000000D+00
     12   0.000000D+00 -0.239077D-01  0.000000D+00
     13   0.000000D+00  0.000000D+00  0.000000D+00
     14   0.000000D+00  0.000000D+00  0.000000D+00
     15   0.000000D+00  0.000000D+00  0.158180D+00
     16   0.125347D+00  0.000000D+00  0.000000D+00
     17   0.000000D+00  0.125347D+00  0.000000D+00
     18   0.000000D+00  0.000000D+00 -0.223283D+00
     19   0.000000D+00  0.000000D+00  0.000000D+00
     20   0.000000D+00  0.000000D+00  0.000000D+00
     21   0.100000D+01  0.000000D+00  0.000000D+00
     22   0.000000D+00  0.100000D+01  0.000000D+00
     23   0.000000D+00  0.000000D+00  0.100000D+01
 Entering OneElI...
 Overlap between basis sets.
 Requested accuracy = 0.1000D-12
 PrsmSu:  NPrtUS=   1 ThrOK=F IAlg=1
 PRISM was handed  8586745383 working-precision words and   706 shell-pairs
 IPart=  0 NShTot=         706 NBatch=          93 AvBLen=         7.6
 CnvPC2: ToCart=F DoDens=F IPureD=0 IPureF=0.
 Transformed matrix in CnvPC2: 
                 1             2             3             4             5 
      1   0.999778D+00  0.393836D+00  0.000000D+00  0.000000D+00  0.000000D+00
      2   0.278094D+00  0.990222D+00  0.000000D+00  0.000000D+00  0.000000D+00
      3   0.000000D+00  0.000000D+00  0.999030D+00  0.000000D+00  0.000000D+00
      4   0.000000D+00  0.000000D+00  0.000000D+00  0.999030D+00  0.000000D+00
      5   0.000000D+00  0.000000D+00  0.000000D+00  0.000000D+00  0.999030D+00
      6   0.108385D-01  0.308485D+00  0.000000D+00  0.000000D+00  0.000000D+00
      7   0.000000D+00  0.000000D+00  0.315555D+00  0.000000D+00  0.000000D+00
      8   0.000000D+00  0.000000D+00  0.000000D+00  0.315555D+00  0.000000D+00
      9   0.000000D+00  0.000000D+00  0.000000D+00  0.000000D+00  0.315555D+00
     10   0.000000D+00  0.000000D+00  0.000000D+00  0.000000D+00  0.000000D+00
     11   0.000000D+00  0.000000D+00  0.000000D+00  0.000000D+00  0.000000D+00
     12   0.000000D+00  0.000000D+00  0.000000D+00  0.000000D+00  0.000000D+00
     13   0.000000D+00  0.000000D+00  0.000000D+00  0.000000D+00  0.000000D+00
     14   0.000000D+00  0.000000D+00  0.000000D+00  0.000000D+00  0.000000D+00
     15   0.000000D+00  0.000000D+00  0.000000D+00  0.000000D+00  0.000000D+00
     16   0.000000D+00  0.000000D+00  0.000000D+00  0.000000D+00  0.000000D+00
     17   0.000000D+00  0.000000D+00  0.000000D+00  0.000000D+00  0.000000D+00
     18   0.000000D+00  0.000000D+00  0.000000D+00  0.000000D+00  0.000000D+00
     19   0.000000D+00  0.000000D+00  0.000000D+00  0.000000D+00  0.000000D+00
     20   0.000000D+00  0.000000D+00  0.000000D+00  0.000000D+00  0.000000D+00
     21   0.000000D+00  0.000000D+00  0.000000D+00  0.000000D+00  0.000000D+00
     22   0.000000D+00  0.000000D+00  0.000000D+00  0.000000D+00  0.000000D+00
     23   0.000000D+00  0.000000D+00  0.000000D+00  0.000000D+00  0.000000D+00
     24   0.000000D+00  0.000000D+00  0.000000D+00  0.000000D+00  0.000000D+00
     25   0.677390D-04  0.878770D-02  0.000000D+00  0.000000D+00  0.000000D+00
     26   0.730406D-02  0.470480D-01  0.000000D+00  0.000000D+00  0.000000D+00
     27   0.350806D-02  0.226845D-01  0.000000D+00  0.000000D+00  0.000000D+00
     28   0.152276D-02  0.986228D-02  0.000000D+00  0.000000D+00  0.000000D+00
     29   0.000000D+00  0.000000D+00 -0.453942D-02  0.000000D+00  0.000000D+00
     30   0.000000D+00  0.000000D+00  0.000000D+00 -0.453942D-02  0.000000D+00
     31   0.000000D+00  0.000000D+00  0.000000D+00  0.000000D+00 -0.453942D-02
     32   0.000000D+00  0.000000D+00  0.109103D-01  0.000000D+00  0.000000D+00
     33   0.000000D+00  0.000000D+00  0.000000D+00  0.109103D-01  0.000000D+00
     34   0.000000D+00  0.000000D+00  0.000000D+00  0.000000D+00  0.109103D-01
     35   0.000000D+00  0.000000D+00  0.369814D-02  0.000000D+00  0.000000D+00
     36   0.000000D+00  0.000000D+00  0.000000D+00  0.369814D-02  0.000000D+00
     37   0.000000D+00  0.000000D+00  0.000000D+00  0.000000D+00  0.369814D-02
     38   0.259271D+00  0.925253D+00  0.000000D+00  0.000000D+00  0.000000D+00
     39   0.163685D+00  0.747427D+00  0.000000D+00  0.000000D+00  0.000000D+00
     40   0.101339D+00  0.540616D+00  0.000000D+00  0.000000D+00  0.000000D+00
     41   0.620830D-01  0.362482D+00  0.000000D+00  0.000000D+00  0.000000D+00
     42   0.378235D-01  0.232067D+00  0.000000D+00  0.000000D+00  0.000000D+00
     43   0.229775D-01  0.144748D+00  0.000000D+00  0.000000D+00  0.000000D+00
     44   0.000000D+00  0.000000D+00  0.436817D+00  0.000000D+00  0.000000D+00
     45   0.000000D+00  0.000000D+00  0.000000D+00  0.436817D+00  0.000000D+00
     46   0.000000D+00  0.000000D+00  0.000000D+00  0.000000D+00  0.436817D+00
     47   0.000000D+00  0.000000D+00  0.267749D+00  0.000000D+00  0.000000D+00
     48   0.000000D+00  0.000000D+00  0.000000D+00  0.267749D+00  0.000000D+00
     49   0.000000D+00  0.000000D+00  0.000000D+00  0.000000D+00  0.267749D+00
     50   0.000000D+00  0.000000D+00  0.151864D+00  0.000000D+00  0.000000D+00
     51   0.000000D+00  0.000000D+00  0.000000D+00  0.151864D+00  0.000000D+00
     52   0.000000D+00  0.000000D+00  0.000000D+00  0.000000D+00  0.151864D+00
     53   0.000000D+00  0.000000D+00  0.817021D-01  0.000000D+00  0.000000D+00
     54   0.000000D+00  0.000000D+00  0.000000D+00  0.817021D-01  0.000000D+00
     55   0.000000D+00  0.000000D+00  0.000000D+00  0.000000D+00  0.817021D-01
     56   0.000000D+00  0.000000D+00  0.425040D-01  0.000000D+00  0.000000D+00
     57   0.000000D+00  0.000000D+00  0.000000D+00  0.425040D-01  0.000000D+00
     58   0.000000D+00  0.000000D+00  0.000000D+00  0.000000D+00  0.425040D-01
     59   0.000000D+00  0.000000D+00  0.216649D-01  0.000000D+00  0.000000D+00
     60   0.000000D+00  0.000000D+00  0.000000D+00  0.216649D-01  0.000000D+00
     61   0.000000D+00  0.000000D+00  0.000000D+00  0.000000D+00  0.216649D-01
     62   0.000000D+00  0.000000D+00  0.000000D+00  0.000000D+00  0.000000D+00
     63   0.000000D+00  0.000000D+00  0.000000D+00  0.000000D+00  0.000000D+00
     64   0.000000D+00  0.000000D+00  0.000000D+00  0.000000D+00  0.000000D+00
     65   0.000000D+00  0.000000D+00  0.000000D+00  0.000000D+00  0.000000D+00
     66   0.000000D+00  0.000000D+00  0.000000D+00  0.000000D+00  0.000000D+00
     67   0.000000D+00  0.000000D+00  0.000000D+00  0.000000D+00  0.000000D+00
     68   0.000000D+00  0.000000D+00  0.000000D+00  0.000000D+00  0.000000D+00
     69   0.000000D+00  0.000000D+00  0.000000D+00  0.000000D+00  0.000000D+00
     70   0.000000D+00  0.000000D+00  0.000000D+00  0.000000D+00  0.000000D+00
     71   0.000000D+00  0.000000D+00  0.000000D+00  0.000000D+00  0.000000D+00
     72   0.000000D+00  0.000000D+00  0.000000D+00  0.000000D+00  0.000000D+00
     73   0.000000D+00  0.000000D+00  0.000000D+00  0.000000D+00  0.000000D+00
     74   0.000000D+00  0.000000D+00  0.000000D+00  0.000000D+00  0.000000D+00
     75   0.000000D+00  0.000000D+00  0.000000D+00  0.000000D+00  0.000000D+00
     76   0.000000D+00  0.000000D+00  0.000000D+00  0.000000D+00  0.000000D+00
     77   0.000000D+00  0.000000D+00  0.000000D+00  0.000000D+00  0.000000D+00
     78   0.000000D+00  0.000000D+00  0.000000D+00  0.000000D+00  0.000000D+00
     79   0.000000D+00  0.000000D+00  0.000000D+00  0.000000D+00  0.000000D+00
     80   0.000000D+00  0.000000D+00  0.000000D+00  0.000000D+00  0.000000D+00
     81   0.000000D+00  0.000000D+00  0.000000D+00  0.000000D+00  0.000000D+00
     82   0.000000D+00  0.000000D+00  0.000000D+00  0.000000D+00  0.000000D+00
     83   0.000000D+00  0.000000D+00  0.000000D+00  0.000000D+00  0.000000D+00
     84   0.000000D+00  0.000000D+00  0.000000D+00  0.000000D+00  0.000000D+00
     85   0.000000D+00  0.000000D+00  0.000000D+00  0.000000D+00  0.000000D+00
     86   0.000000D+00  0.000000D+00  0.000000D+00  0.000000D+00  0.000000D+00
     87   0.000000D+00  0.000000D+00  0.000000D+00  0.000000D+00  0.000000D+00
     88   0.000000D+00  0.000000D+00  0.000000D+00  0.000000D+00  0.000000D+00
     89   0.000000D+00  0.000000D+00  0.000000D+00  0.000000D+00  0.000000D+00
     90   0.000000D+00  0.000000D+00  0.000000D+00  0.000000D+00  0.000000D+00
     91   0.000000D+00  0.000000D+00  0.000000D+00  0.000000D+00  0.000000D+00
     92   0.000000D+00  0.000000D+00  0.000000D+00  0.000000D+00  0.000000D+00
     93   0.000000D+00  0.000000D+00  0.000000D+00  0.000000D+00  0.000000D+00
     94   0.000000D+00  0.000000D+00  0.000000D+00  0.000000D+00  0.000000D+00
     95   0.000000D+00  0.000000D+00  0.000000D+00  0.000000D+00  0.000000D+00
     96   0.000000D+00  0.000000D+00  0.000000D+00  0.000000D+00  0.000000D+00
     97   0.000000D+00  0.000000D+00  0.000000D+00  0.000000D+00  0.000000D+00
     98   0.000000D+00  0.000000D+00  0.000000D+00  0.000000D+00  0.000000D+00
     99   0.000000D+00  0.000000D+00  0.000000D+00  0.000000D+00  0.000000D+00
    100   0.000000D+00  0.000000D+00  0.000000D+00  0.000000D+00  0.000000D+00
    101   0.000000D+00  0.000000D+00  0.000000D+00  0.000000D+00  0.000000D+00
    102   0.000000D+00  0.000000D+00  0.000000D+00  0.000000D+00  0.000000D+00
    103   0.000000D+00  0.000000D+00  0.000000D+00  0.000000D+00  0.000000D+00
    104   0.000000D+00  0.000000D+00  0.000000D+00  0.000000D+00  0.000000D+00
    105   0.000000D+00  0.000000D+00  0.000000D+00  0.000000D+00  0.000000D+00
    106   0.000000D+00  0.000000D+00  0.000000D+00  0.000000D+00  0.000000D+00
    107   0.000000D+00  0.000000D+00  0.000000D+00  0.000000D+00  0.000000D+00
    108   0.000000D+00  0.000000D+00  0.000000D+00  0.000000D+00  0.000000D+00
    109   0.000000D+00  0.000000D+00  0.000000D+00  0.000000D+00  0.000000D+00
    110   0.000000D+00  0.000000D+00  0.000000D+00  0.000000D+00  0.000000D+00
    111   0.000000D+00  0.000000D+00  0.000000D+00  0.000000D+00  0.000000D+00
    112   0.000000D+00  0.000000D+00  0.000000D+00  0.000000D+00  0.000000D+00
    113   0.000000D+00  0.000000D+00  0.000000D+00  0.000000D+00  0.000000D+00
    114   0.000000D+00  0.000000D+00  0.000000D+00  0.000000D+00  0.000000D+00
    115   0.000000D+00  0.000000D+00  0.000000D+00  0.000000D+00  0.000000D+00
    116   0.000000D+00  0.000000D+00  0.000000D+00  0.000000D+00  0.000000D+00
    117   0.000000D+00  0.000000D+00  0.000000D+00  0.000000D+00  0.000000D+00
    118   0.000000D+00  0.000000D+00  0.000000D+00  0.000000D+00  0.000000D+00
    119   0.000000D+00  0.000000D+00  0.000000D+00  0.000000D+00  0.000000D+00
    120   0.000000D+00  0.000000D+00  0.000000D+00  0.000000D+00  0.000000D+00
    121   0.000000D+00  0.000000D+00  0.000000D+00  0.000000D+00  0.000000D+00
    122   0.000000D+00  0.000000D+00  0.000000D+00  0.000000D+00  0.000000D+00
    123   0.000000D+00  0.000000D+00  0.000000D+00  0.000000D+00  0.000000D+00
    124   0.000000D+00  0.000000D+00  0.000000D+00  0.000000D+00  0.000000D+00
    125   0.000000D+00  0.000000D+00  0.000000D+00  0.000000D+00  0.000000D+00
    126   0.000000D+00  0.000000D+00  0.000000D+00  0.000000D+00  0.000000D+00
    127   0.000000D+00  0.000000D+00  0.000000D+00  0.000000D+00  0.000000D+00
    128   0.000000D+00  0.000000D+00  0.000000D+00  0.000000D+00  0.000000D+00
    129   0.000000D+00  0.000000D+00  0.000000D+00  0.000000D+00  0.000000D+00
    130   0.000000D+00  0.000000D+00  0.000000D+00  0.000000D+00  0.000000D+00
    131   0.000000D+00  0.000000D+00  0.000000D+00  0.000000D+00  0.000000D+00
    132   0.000000D+00  0.000000D+00  0.000000D+00  0.000000D+00  0.000000D+00
    133   0.000000D+00  0.000000D+00  0.000000D+00  0.000000D+00  0.000000D+00
    134   0.000000D+00  0.000000D+00  0.000000D+00  0.000000D+00  0.000000D+00
    135   0.000000D+00  0.000000D+00  0.000000D+00  0.000000D+00  0.000000D+00
    136   0.000000D+00  0.000000D+00  0.000000D+00  0.000000D+00  0.000000D+00
    137   0.000000D+00  0.000000D+00  0.000000D+00  0.000000D+00  0.000000D+00
    138   0.000000D+00  0.000000D+00  0.000000D+00  0.000000D+00  0.000000D+00
    139   0.000000D+00  0.000000D+00  0.000000D+00  0.000000D+00  0.000000D+00
    140   0.000000D+00  0.000000D+00  0.000000D+00  0.000000D+00  0.000000D+00
    141   0.000000D+00  0.000000D+00  0.000000D+00  0.000000D+00  0.000000D+00
    142   0.000000D+00  0.000000D+00  0.000000D+00  0.000000D+00  0.000000D+00
    143   0.000000D+00  0.000000D+00  0.000000D+00  0.000000D+00  0.000000D+00
    144   0.000000D+00  0.000000D+00  0.000000D+00  0.000000D+00  0.000000D+00
    145   0.000000D+00  0.000000D+00  0.000000D+00  0.000000D+00  0.000000D+00
    146   0.000000D+00  0.000000D+00  0.000000D+00  0.000000D+00  0.000000D+00
    147   0.000000D+00  0.000000D+00  0.000000D+00  0.000000D+00  0.000000D+00
    148   0.000000D+00  0.000000D+00  0.000000D+00  0.000000D+00  0.000000D+00
    149   0.000000D+00  0.000000D+00  0.000000D+00  0.000000D+00  0.000000D+00
    150   0.000000D+00  0.000000D+00  0.000000D+00  0.000000D+00  0.000000D+00
    151   0.000000D+00  0.000000D+00  0.000000D+00  0.000000D+00  0.000000D+00
    152   0.000000D+00  0.000000D+00  0.000000D+00  0.000000D+00  0.000000D+00
    153   0.000000D+00  0.000000D+00  0.000000D+00  0.000000D+00  0.000000D+00
    154   0.000000D+00  0.000000D+00  0.000000D+00  0.000000D+00  0.000000D+00
    155   0.000000D+00  0.000000D+00  0.000000D+00  0.000000D+00  0.000000D+00
    156   0.000000D+00  0.000000D+00  0.000000D+00  0.000000D+00  0.000000D+00
    157   0.000000D+00  0.000000D+00  0.000000D+00  0.000000D+00  0.000000D+00
    158   0.000000D+00  0.000000D+00  0.000000D+00  0.000000D+00  0.000000D+00
    159   0.000000D+00  0.000000D+00  0.000000D+00  0.000000D+00  0.000000D+00
    160   0.000000D+00  0.000000D+00  0.000000D+00  0.000000D+00  0.000000D+00
    161   0.000000D+00  0.000000D+00  0.000000D+00  0.000000D+00  0.000000D+00
    162   0.000000D+00  0.000000D+00  0.000000D+00  0.000000D+00  0.000000D+00
    163   0.000000D+00  0.000000D+00  0.000000D+00  0.000000D+00  0.000000D+00
    164   0.000000D+00  0.000000D+00  0.000000D+00  0.000000D+00  0.000000D+00
    165   0.000000D+00  0.000000D+00  0.000000D+00  0.000000D+00  0.000000D+00
    166   0.000000D+00  0.000000D+00  0.000000D+00  0.000000D+00  0.000000D+00
    167   0.000000D+00  0.000000D+00  0.000000D+00  0.000000D+00  0.000000D+00
    168   0.000000D+00  0.000000D+00  0.000000D+00  0.000000D+00  0.000000D+00
    169   0.000000D+00  0.000000D+00  0.000000D+00  0.000000D+00  0.000000D+00
    170   0.000000D+00  0.000000D+00  0.000000D+00  0.000000D+00  0.000000D+00
    171   0.000000D+00  0.000000D+00  0.000000D+00  0.000000D+00  0.000000D+00
    172   0.000000D+00  0.000000D+00  0.000000D+00  0.000000D+00  0.000000D+00
    173   0.000000D+00  0.000000D+00  0.000000D+00  0.000000D+00  0.000000D+00
    174   0.000000D+00  0.000000D+00  0.000000D+00  0.000000D+00  0.000000D+00
    175   0.000000D+00  0.000000D+00  0.000000D+00  0.000000D+00  0.000000D+00
    176   0.000000D+00  0.000000D+00  0.000000D+00  0.000000D+00  0.000000D+00
    177   0.000000D+00  0.000000D+00  0.000000D+00  0.000000D+00  0.000000D+00
    178   0.000000D+00  0.000000D+00  0.000000D+00  0.000000D+00  0.000000D+00
    179   0.000000D+00  0.000000D+00  0.000000D+00  0.000000D+00  0.000000D+00
    180   0.000000D+00  0.000000D+00  0.000000D+00  0.000000D+00  0.000000D+00
    181   0.000000D+00  0.000000D+00  0.000000D+00  0.000000D+00  0.000000D+00
    182   0.000000D+00  0.000000D+00  0.000000D+00  0.000000D+00  0.000000D+00
    183   0.000000D+00  0.000000D+00  0.000000D+00  0.000000D+00  0.000000D+00
    184   0.000000D+00  0.000000D+00  0.000000D+00  0.000000D+00  0.000000D+00
    185   0.000000D+00  0.000000D+00  0.000000D+00  0.000000D+00  0.000000D+00
    186   0.000000D+00  0.000000D+00  0.000000D+00  0.000000D+00  0.000000D+00
    187   0.000000D+00  0.000000D+00  0.000000D+00  0.000000D+00  0.000000D+00
    188   0.000000D+00  0.000000D+00  0.000000D+00  0.000000D+00  0.000000D+00
    189   0.000000D+00  0.000000D+00  0.000000D+00  0.000000D+00  0.000000D+00
    190   0.000000D+00  0.000000D+00  0.000000D+00  0.000000D+00  0.000000D+00
    191   0.000000D+00  0.000000D+00  0.000000D+00  0.000000D+00  0.000000D+00
    192   0.000000D+00  0.000000D+00  0.000000D+00  0.000000D+00  0.000000D+00
    193   0.000000D+00  0.000000D+00  0.000000D+00  0.000000D+00  0.000000D+00
    194   0.000000D+00  0.000000D+00  0.000000D+00  0.000000D+00  0.000000D+00
    195   0.000000D+00  0.000000D+00  0.000000D+00  0.000000D+00  0.000000D+00
    196   0.000000D+00  0.000000D+00  0.000000D+00  0.000000D+00  0.000000D+00
    197   0.000000D+00  0.000000D+00  0.000000D+00  0.000000D+00  0.000000D+00
    198   0.000000D+00  0.000000D+00  0.000000D+00  0.000000D+00  0.000000D+00
    199   0.000000D+00  0.000000D+00  0.000000D+00  0.000000D+00  0.000000D+00
    200   0.000000D+00  0.000000D+00  0.000000D+00  0.000000D+00  0.000000D+00
    201   0.000000D+00  0.000000D+00  0.000000D+00  0.000000D+00  0.000000D+00
    202   0.000000D+00  0.000000D+00  0.000000D+00  0.000000D+00  0.000000D+00
    203   0.000000D+00  0.000000D+00  0.000000D+00  0.000000D+00  0.000000D+00
    204   0.000000D+00  0.000000D+00  0.000000D+00  0.000000D+00  0.000000D+00
    205   0.000000D+00  0.000000D+00  0.000000D+00  0.000000D+00  0.000000D+00
    206   0.000000D+00  0.000000D+00  0.000000D+00  0.000000D+00  0.000000D+00
    207   0.000000D+00  0.000000D+00  0.000000D+00  0.000000D+00  0.000000D+00
    208   0.000000D+00  0.000000D+00  0.000000D+00  0.000000D+00  0.000000D+00
    209   0.000000D+00  0.000000D+00  0.000000D+00  0.000000D+00  0.000000D+00
    210   0.000000D+00  0.000000D+00  0.000000D+00  0.000000D+00  0.000000D+00
    211   0.000000D+00  0.000000D+00  0.000000D+00  0.000000D+00  0.000000D+00
    212   0.000000D+00  0.000000D+00  0.000000D+00  0.000000D+00  0.000000D+00
    213   0.000000D+00  0.000000D+00  0.000000D+00  0.000000D+00  0.000000D+00
    214   0.000000D+00  0.000000D+00  0.000000D+00  0.000000D+00  0.000000D+00
    215   0.000000D+00  0.000000D+00  0.000000D+00  0.000000D+00  0.000000D+00
    216   0.000000D+00  0.000000D+00  0.000000D+00  0.000000D+00  0.000000D+00
    217   0.000000D+00  0.000000D+00  0.000000D+00  0.000000D+00  0.000000D+00
    218   0.000000D+00  0.000000D+00  0.000000D+00  0.000000D+00  0.000000D+00
    219   0.000000D+00  0.000000D+00  0.000000D+00  0.000000D+00  0.000000D+00
    220   0.000000D+00  0.000000D+00  0.000000D+00  0.000000D+00  0.000000D+00
    221   0.000000D+00  0.000000D+00  0.000000D+00  0.000000D+00  0.000000D+00
    222   0.000000D+00  0.000000D+00  0.000000D+00  0.000000D+00  0.000000D+00
    223   0.000000D+00  0.000000D+00  0.000000D+00  0.000000D+00  0.000000D+00
    224   0.000000D+00  0.000000D+00  0.000000D+00  0.000000D+00  0.000000D+00
    225   0.000000D+00  0.000000D+00  0.000000D+00  0.000000D+00  0.000000D+00
    226   0.000000D+00  0.000000D+00  0.000000D+00  0.000000D+00  0.000000D+00
    227   0.000000D+00  0.000000D+00  0.000000D+00  0.000000D+00  0.000000D+00
    228   0.000000D+00  0.000000D+00  0.000000D+00  0.000000D+00  0.000000D+00
    229   0.000000D+00  0.000000D+00  0.000000D+00  0.000000D+00  0.000000D+00
    230   0.000000D+00  0.000000D+00  0.000000D+00  0.000000D+00  0.000000D+00
    231   0.000000D+00  0.000000D+00  0.000000D+00  0.000000D+00  0.000000D+00
    232   0.000000D+00  0.000000D+00  0.000000D+00  0.000000D+00  0.000000D+00
    233   0.000000D+00  0.000000D+00  0.000000D+00  0.000000D+00  0.000000D+00
    234   0.000000D+00  0.000000D+00  0.000000D+00  0.000000D+00  0.000000D+00
    235   0.000000D+00  0.000000D+00  0.000000D+00  0.000000D+00  0.000000D+00
    236   0.000000D+00  0.000000D+00  0.000000D+00  0.000000D+00  0.000000D+00
    237   0.000000D+00  0.000000D+00  0.000000D+00  0.000000D+00  0.000000D+00
    238   0.000000D+00  0.000000D+00  0.000000D+00  0.000000D+00  0.000000D+00
    239   0.000000D+00  0.000000D+00  0.000000D+00  0.000000D+00  0.000000D+00
    240   0.000000D+00  0.000000D+00  0.000000D+00  0.000000D+00  0.000000D+00
    241   0.000000D+00  0.000000D+00  0.000000D+00  0.000000D+00  0.000000D+00
    242   0.000000D+00  0.000000D+00  0.000000D+00  0.000000D+00  0.000000D+00
    243   0.000000D+00  0.000000D+00  0.000000D+00  0.000000D+00  0.000000D+00
    244   0.000000D+00  0.000000D+00  0.000000D+00  0.000000D+00  0.000000D+00
    245   0.000000D+00  0.000000D+00  0.000000D+00  0.000000D+00  0.000000D+00
    246   0.000000D+00  0.000000D+00  0.000000D+00  0.000000D+00  0.000000D+00
    247   0.000000D+00  0.000000D+00  0.000000D+00  0.000000D+00  0.000000D+00
    248   0.000000D+00  0.000000D+00  0.000000D+00  0.000000D+00  0.000000D+00
    249   0.000000D+00  0.000000D+00  0.000000D+00  0.000000D+00  0.000000D+00
    250   0.000000D+00  0.000000D+00  0.000000D+00  0.000000D+00  0.000000D+00
    251   0.000000D+00  0.000000D+00  0.000000D+00  0.000000D+00  0.000000D+00
    252   0.000000D+00  0.000000D+00  0.000000D+00  0.000000D+00  0.000000D+00
    253   0.000000D+00  0.000000D+00  0.000000D+00  0.000000D+00  0.000000D+00
    254   0.000000D+00  0.000000D+00  0.000000D+00  0.000000D+00  0.000000D+00
    255   0.000000D+00  0.000000D+00  0.000000D+00  0.000000D+00  0.000000D+00
    256   0.000000D+00  0.000000D+00  0.000000D+00  0.000000D+00  0.000000D+00
    257   0.000000D+00  0.000000D+00  0.000000D+00  0.000000D+00  0.000000D+00
    258   0.000000D+00  0.000000D+00  0.000000D+00  0.000000D+00  0.000000D+00
    259   0.000000D+00  0.000000D+00  0.000000D+00  0.000000D+00  0.000000D+00
    260   0.000000D+00  0.000000D+00  0.000000D+00  0.000000D+00  0.000000D+00
    261   0.000000D+00  0.000000D+00  0.000000D+00  0.000000D+00  0.000000D+00
    262   0.000000D+00  0.000000D+00  0.000000D+00  0.000000D+00  0.000000D+00
    263   0.000000D+00  0.000000D+00  0.000000D+00  0.000000D+00  0.000000D+00
    264   0.000000D+00  0.000000D+00  0.000000D+00  0.000000D+00  0.000000D+00
    265   0.000000D+00  0.000000D+00  0.000000D+00  0.000000D+00  0.000000D+00
    266   0.000000D+00  0.000000D+00  0.000000D+00  0.000000D+00  0.000000D+00
    267   0.000000D+00  0.000000D+00  0.000000D+00  0.000000D+00  0.000000D+00
    268   0.000000D+00  0.000000D+00  0.000000D+00  0.000000D+00  0.000000D+00
    269   0.000000D+00  0.000000D+00  0.000000D+00  0.000000D+00  0.000000D+00
    270   0.000000D+00  0.000000D+00  0.000000D+00  0.000000D+00  0.000000D+00
    271   0.000000D+00  0.000000D+00  0.000000D+00  0.000000D+00  0.000000D+00
    272   0.000000D+00  0.000000D+00  0.000000D+00  0.000000D+00  0.000000D+00
    273   0.000000D+00  0.000000D+00  0.000000D+00  0.000000D+00  0.000000D+00
    274   0.000000D+00  0.000000D+00  0.000000D+00  0.000000D+00  0.000000D+00
    275   0.000000D+00  0.000000D+00  0.000000D+00  0.000000D+00  0.000000D+00
    276   0.000000D+00  0.000000D+00  0.000000D+00  0.000000D+00  0.000000D+00
    277   0.000000D+00  0.000000D+00  0.000000D+00  0.000000D+00  0.000000D+00
    278   0.000000D+00  0.000000D+00  0.000000D+00  0.000000D+00  0.000000D+00
    279   0.000000D+00  0.000000D+00  0.000000D+00  0.000000D+00  0.000000D+00
    280   0.000000D+00  0.000000D+00  0.000000D+00  0.000000D+00  0.000000D+00
    281   0.000000D+00  0.000000D+00  0.000000D+00  0.000000D+00  0.000000D+00
    282   0.000000D+00  0.000000D+00  0.000000D+00  0.000000D+00  0.000000D+00
    283   0.000000D+00  0.000000D+00  0.000000D+00  0.000000D+00  0.000000D+00
    284   0.000000D+00  0.000000D+00  0.000000D+00  0.000000D+00  0.000000D+00
    285   0.000000D+00  0.000000D+00  0.000000D+00  0.000000D+00  0.000000D+00
    286   0.000000D+00  0.000000D+00  0.000000D+00  0.000000D+00  0.000000D+00
    287   0.000000D+00  0.000000D+00  0.000000D+00  0.000000D+00  0.000000D+00
    288   0.000000D+00  0.000000D+00  0.000000D+00  0.000000D+00  0.000000D+00
    289   0.000000D+00  0.000000D+00  0.000000D+00  0.000000D+00  0.000000D+00
    290   0.000000D+00  0.000000D+00  0.000000D+00  0.000000D+00  0.000000D+00
    291   0.000000D+00  0.000000D+00  0.000000D+00  0.000000D+00  0.000000D+00
    292   0.000000D+00  0.000000D+00  0.000000D+00  0.000000D+00  0.000000D+00
    293   0.000000D+00  0.000000D+00  0.000000D+00  0.000000D+00  0.000000D+00
    294   0.000000D+00  0.000000D+00  0.000000D+00  0.000000D+00  0.000000D+00
    295   0.000000D+00  0.000000D+00  0.000000D+00  0.000000D+00  0.000000D+00
    296   0.000000D+00  0.000000D+00  0.000000D+00  0.000000D+00  0.000000D+00
    297   0.000000D+00  0.000000D+00  0.000000D+00  0.000000D+00  0.000000D+00
    298   0.000000D+00  0.000000D+00  0.000000D+00  0.000000D+00  0.000000D+00
    299   0.000000D+00  0.000000D+00  0.000000D+00  0.000000D+00  0.000000D+00
    300   0.000000D+00  0.000000D+00  0.000000D+00  0.000000D+00  0.000000D+00
    301   0.000000D+00  0.000000D+00  0.000000D+00  0.000000D+00  0.000000D+00
    302   0.000000D+00  0.000000D+00  0.000000D+00  0.000000D+00  0.000000D+00
    303   0.000000D+00  0.000000D+00  0.000000D+00  0.000000D+00  0.000000D+00
    304   0.000000D+00  0.000000D+00  0.000000D+00  0.000000D+00  0.000000D+00
    305   0.000000D+00  0.000000D+00  0.000000D+00  0.000000D+00  0.000000D+00
    306   0.000000D+00  0.000000D+00  0.000000D+00  0.000000D+00  0.000000D+00
    307   0.000000D+00  0.000000D+00  0.000000D+00  0.000000D+00  0.000000D+00
    308   0.000000D+00  0.000000D+00  0.000000D+00  0.000000D+00  0.000000D+00
    309   0.000000D+00  0.000000D+00  0.000000D+00  0.000000D+00  0.000000D+00
    310   0.000000D+00  0.000000D+00  0.000000D+00  0.000000D+00  0.000000D+00
    311   0.000000D+00  0.000000D+00  0.000000D+00  0.000000D+00  0.000000D+00
    312   0.000000D+00  0.000000D+00  0.000000D+00  0.000000D+00  0.000000D+00
    313   0.000000D+00  0.000000D+00  0.000000D+00  0.000000D+00  0.000000D+00
    314   0.000000D+00  0.000000D+00  0.000000D+00  0.000000D+00  0.000000D+00
    315   0.000000D+00  0.000000D+00  0.000000D+00  0.000000D+00  0.000000D+00
    316   0.000000D+00  0.000000D+00  0.000000D+00  0.000000D+00  0.000000D+00
    317   0.000000D+00  0.000000D+00  0.000000D+00  0.000000D+00  0.000000D+00
    318   0.000000D+00  0.000000D+00  0.000000D+00  0.000000D+00  0.000000D+00
    319   0.000000D+00  0.000000D+00  0.000000D+00  0.000000D+00  0.000000D+00
    320   0.000000D+00  0.000000D+00  0.000000D+00  0.000000D+00  0.000000D+00
    321   0.000000D+00  0.000000D+00  0.000000D+00  0.000000D+00  0.000000D+00
    322   0.000000D+00  0.000000D+00  0.000000D+00  0.000000D+00  0.000000D+00
    323   0.000000D+00  0.000000D+00  0.000000D+00  0.000000D+00  0.000000D+00
    324   0.000000D+00  0.000000D+00  0.000000D+00  0.000000D+00  0.000000D+00
    325   0.000000D+00  0.000000D+00  0.000000D+00  0.000000D+00  0.000000D+00
    326   0.000000D+00  0.000000D+00  0.000000D+00  0.000000D+00  0.000000D+00
    327   0.000000D+00  0.000000D+00  0.000000D+00  0.000000D+00  0.000000D+00
    328   0.000000D+00  0.000000D+00  0.000000D+00  0.000000D+00  0.000000D+00
    329   0.000000D+00  0.000000D+00  0.000000D+00  0.000000D+00  0.000000D+00
    330   0.000000D+00  0.000000D+00  0.000000D+00  0.000000D+00  0.000000D+00
    331   0.000000D+00  0.000000D+00  0.000000D+00  0.000000D+00  0.000000D+00
    332   0.000000D+00  0.000000D+00  0.000000D+00  0.000000D+00  0.000000D+00
    333   0.000000D+00  0.000000D+00  0.000000D+00  0.000000D+00  0.000000D+00
    334   0.000000D+00  0.000000D+00  0.000000D+00  0.000000D+00  0.000000D+00
    335   0.000000D+00  0.000000D+00  0.000000D+00  0.000000D+00  0.000000D+00
    336   0.000000D+00  0.000000D+00  0.000000D+00  0.000000D+00  0.000000D+00
    337   0.000000D+00  0.000000D+00  0.000000D+00  0.000000D+00  0.000000D+00
    338   0.000000D+00  0.000000D+00  0.000000D+00  0.000000D+00  0.000000D+00
    339   0.000000D+00  0.000000D+00  0.000000D+00  0.000000D+00  0.000000D+00
    340   0.000000D+00  0.000000D+00  0.000000D+00  0.000000D+00  0.000000D+00
    341   0.000000D+00  0.000000D+00  0.000000D+00  0.000000D+00  0.000000D+00
    342   0.000000D+00  0.000000D+00  0.000000D+00  0.000000D+00  0.000000D+00
    343   0.000000D+00  0.000000D+00  0.000000D+00  0.000000D+00  0.000000D+00
    344   0.000000D+00  0.000000D+00  0.000000D+00  0.000000D+00  0.000000D+00
    345   0.000000D+00  0.000000D+00  0.000000D+00  0.000000D+00  0.000000D+00
    346   0.000000D+00  0.000000D+00  0.000000D+00  0.000000D+00  0.000000D+00
    347   0.000000D+00  0.000000D+00  0.000000D+00  0.000000D+00  0.000000D+00
    348   0.000000D+00  0.000000D+00  0.000000D+00  0.000000D+00  0.000000D+00
    349   0.000000D+00  0.000000D+00  0.000000D+00  0.000000D+00  0.000000D+00
    350   0.000000D+00  0.000000D+00  0.000000D+00  0.000000D+00  0.000000D+00
    351   0.000000D+00  0.000000D+00  0.000000D+00  0.000000D+00  0.000000D+00
    352   0.000000D+00  0.000000D+00  0.000000D+00  0.000000D+00  0.000000D+00
    353   0.000000D+00  0.000000D+00  0.000000D+00  0.000000D+00  0.000000D+00
    354   0.000000D+00  0.000000D+00  0.000000D+00  0.000000D+00  0.000000D+00
    355   0.000000D+00  0.000000D+00  0.000000D+00  0.000000D+00  0.000000D+00
    356   0.000000D+00  0.000000D+00  0.000000D+00  0.000000D+00  0.000000D+00
    357   0.000000D+00  0.000000D+00  0.000000D+00  0.000000D+00  0.000000D+00
    358   0.000000D+00  0.000000D+00  0.000000D+00  0.000000D+00  0.000000D+00
    359   0.000000D+00  0.000000D+00  0.000000D+00  0.000000D+00  0.000000D+00
    360   0.000000D+00  0.000000D+00  0.000000D+00  0.000000D+00  0.000000D+00
    361   0.000000D+00  0.000000D+00  0.000000D+00  0.000000D+00  0.000000D+00
    362   0.000000D+00  0.000000D+00  0.000000D+00  0.000000D+00  0.000000D+00
    363   0.000000D+00  0.000000D+00  0.000000D+00  0.000000D+00  0.000000D+00
    364   0.000000D+00  0.000000D+00  0.000000D+00  0.000000D+00  0.000000D+00
    365   0.628436D-03  0.424920D-02  0.000000D+00  0.000000D+00 -0.155361D-02
    366   0.483428D-02  0.311815D-01  0.000000D+00  0.000000D+00 -0.284067D-02
    367   0.000000D+00  0.000000D+00  0.958300D-03  0.000000D+00  0.000000D+00
    368   0.000000D+00  0.000000D+00  0.000000D+00  0.958300D-03  0.000000D+00
    369   0.217447D-02  0.143147D-01  0.000000D+00  0.000000D+00 -0.395022D-02
    370   0.000000D+00  0.000000D+00  0.280304D-02  0.000000D+00  0.000000D+00
    371   0.000000D+00  0.000000D+00  0.000000D+00  0.280304D-02  0.000000D+00
    372   0.650176D-02  0.417756D-01  0.000000D+00  0.000000D+00  0.816718D-05
    373   0.000000D+00  0.000000D+00  0.000000D+00  0.000000D+00  0.000000D+00
    374   0.000000D+00  0.000000D+00  0.000000D+00  0.000000D+00  0.000000D+00
    375   0.000000D+00  0.479960D-05  0.000000D+00  0.000000D+00 -0.687464D-05
    376   0.721744D-04  0.616368D-03  0.000000D+00  0.000000D+00 -0.504262D-03
    377   0.108951D-02  0.744383D-02  0.000000D+00  0.000000D+00 -0.325790D-02
    378   0.342296D-02  0.222546D-01  0.000000D+00  0.000000D+00 -0.506315D-02
    379   0.000000D+00  0.000000D+00  0.000000D+00  0.000000D+00  0.000000D+00
    380   0.000000D+00  0.000000D+00  0.000000D+00  0.000000D+00  0.000000D+00
    381   0.000000D+00  0.000000D+00  0.000000D+00  0.000000D+00  0.000000D+00
    382   0.000000D+00  0.000000D+00  0.000000D+00  0.000000D+00  0.000000D+00
    383   0.000000D+00  0.000000D+00  0.000000D+00  0.000000D+00  0.000000D+00
    384   0.000000D+00  0.000000D+00  0.000000D+00  0.000000D+00  0.000000D+00
    385   0.000000D+00  0.000000D+00  0.109230D-05  0.000000D+00  0.000000D+00
    386   0.000000D+00  0.000000D+00  0.000000D+00  0.109230D-05  0.000000D+00
    387   0.000000D+00  0.175651D-04  0.000000D+00  0.000000D+00 -0.253749D-04
    388   0.000000D+00  0.000000D+00  0.253018D-03  0.000000D+00  0.000000D+00
    389   0.000000D+00  0.000000D+00  0.000000D+00  0.253018D-03  0.000000D+00
    390   0.489714D-03  0.383678D-02  0.000000D+00  0.000000D+00 -0.274918D-02
    391   0.000000D+00  0.000000D+00  0.238659D-02  0.000000D+00  0.000000D+00
    392   0.000000D+00  0.000000D+00  0.000000D+00  0.238659D-02  0.000000D+00
    393   0.545462D-02  0.356227D-01  0.000000D+00  0.000000D+00 -0.108978D-01
    394   0.000000D+00  0.000000D+00  0.413308D-02  0.000000D+00  0.000000D+00
    395   0.000000D+00  0.000000D+00  0.000000D+00  0.413308D-02  0.000000D+00
    396   0.962948D-02  0.615692D-01  0.000000D+00  0.000000D+00 -0.648029D-02
    397   0.000000D+00  0.000000D+00  0.000000D+00  0.000000D+00  0.000000D+00
    398   0.000000D+00  0.000000D+00  0.000000D+00  0.000000D+00  0.000000D+00
    399   0.000000D+00  0.000000D+00  0.000000D+00  0.000000D+00  0.000000D+00
    400   0.000000D+00  0.000000D+00  0.000000D+00  0.000000D+00  0.000000D+00
    401   0.000000D+00  0.000000D+00  0.000000D+00  0.000000D+00  0.000000D+00
    402   0.000000D+00  0.000000D+00  0.000000D+00  0.000000D+00  0.000000D+00
    403   0.000000D+00  0.000000D+00  0.000000D+00  0.000000D+00  0.000000D+00
    404   0.000000D+00  0.000000D+00  0.000000D+00  0.000000D+00  0.000000D+00
    405   0.000000D+00  0.000000D+00  0.000000D+00  0.000000D+00  0.000000D+00
    406   0.000000D+00  0.000000D+00  0.000000D+00  0.000000D+00  0.000000D+00
    407   0.000000D+00  0.000000D+00  0.000000D+00  0.000000D+00  0.000000D+00
    408   0.000000D+00  0.000000D+00  0.000000D+00  0.000000D+00  0.000000D+00
    409   0.000000D+00  0.000000D+00  0.000000D+00  0.000000D+00  0.000000D+00
    410   0.000000D+00  0.000000D+00  0.000000D+00  0.000000D+00  0.000000D+00
    411   0.000000D+00  0.000000D+00  0.000000D+00  0.000000D+00  0.000000D+00
    412   0.267155D-05  0.537107D-04  0.000000D+00  0.000000D+00 -0.760863D-04
    413   0.000000D+00  0.000000D+00  0.580149D-05  0.000000D+00  0.000000D+00
    414   0.000000D+00  0.000000D+00  0.000000D+00  0.580149D-05  0.000000D+00
    415   0.000000D+00  0.000000D+00  0.000000D+00  0.000000D+00  0.000000D+00
    416   0.000000D+00  0.000000D+00  0.000000D+00  0.000000D+00  0.000000D+00
    417   0.785996D-03  0.620729D-02  0.000000D+00  0.000000D+00 -0.461839D-02
    418   0.000000D+00  0.000000D+00  0.708598D-03  0.000000D+00  0.000000D+00
    419   0.000000D+00  0.000000D+00  0.000000D+00  0.708598D-03  0.000000D+00
    420   0.000000D+00  0.000000D+00  0.000000D+00  0.000000D+00  0.000000D+00
    421   0.000000D+00  0.000000D+00  0.000000D+00  0.000000D+00  0.000000D+00
    422   0.776335D-02  0.502877D-01  0.000000D+00  0.000000D+00 -0.164677D-01
    423   0.000000D+00  0.000000D+00  0.584001D-02  0.000000D+00  0.000000D+00
    424   0.000000D+00  0.000000D+00  0.000000D+00  0.584001D-02  0.000000D+00
    425   0.000000D+00  0.000000D+00  0.000000D+00  0.000000D+00  0.000000D+00
    426   0.000000D+00  0.000000D+00  0.000000D+00  0.000000D+00  0.000000D+00
    427   0.135750D-01  0.856671D-01  0.000000D+00  0.000000D+00 -0.869450D-02
    428   0.000000D+00  0.000000D+00  0.997304D-02  0.000000D+00  0.000000D+00
    429   0.000000D+00  0.000000D+00  0.000000D+00  0.997304D-02  0.000000D+00
    430   0.000000D+00  0.000000D+00  0.000000D+00  0.000000D+00  0.000000D+00
    431   0.000000D+00  0.000000D+00  0.000000D+00  0.000000D+00  0.000000D+00
    432   0.000000D+00  0.000000D+00  0.000000D+00  0.000000D+00  0.000000D+00
    433   0.000000D+00  0.000000D+00  0.000000D+00  0.000000D+00  0.000000D+00
    434   0.000000D+00  0.000000D+00  0.000000D+00  0.000000D+00  0.000000D+00
    435   0.000000D+00  0.000000D+00  0.000000D+00  0.000000D+00  0.000000D+00
    436   0.000000D+00  0.000000D+00  0.000000D+00  0.000000D+00  0.000000D+00
    437   0.000000D+00  0.000000D+00  0.000000D+00  0.000000D+00  0.000000D+00
    438   0.000000D+00  0.000000D+00  0.000000D+00  0.000000D+00  0.000000D+00
    439   0.000000D+00  0.000000D+00  0.000000D+00  0.000000D+00  0.000000D+00
    440   0.000000D+00  0.000000D+00  0.000000D+00  0.000000D+00  0.000000D+00
    441   0.000000D+00  0.000000D+00  0.000000D+00  0.000000D+00  0.000000D+00
    442   0.000000D+00  0.000000D+00  0.000000D+00  0.000000D+00  0.000000D+00
    443   0.000000D+00  0.000000D+00  0.000000D+00  0.000000D+00  0.000000D+00
    444   0.000000D+00  0.000000D+00  0.000000D+00  0.000000D+00  0.000000D+00
    445   0.000000D+00  0.000000D+00  0.000000D+00  0.000000D+00  0.000000D+00
    446   0.000000D+00  0.188891D-05  0.000000D+00  0.000000D+00 -0.358807D-05
    447   0.000000D+00  0.000000D+00  0.000000D+00  0.000000D+00  0.000000D+00
    448   0.000000D+00  0.000000D+00  0.000000D+00  0.000000D+00  0.000000D+00
    449   0.000000D+00  0.000000D+00  0.000000D+00  0.000000D+00  0.000000D+00
    450   0.000000D+00  0.000000D+00  0.000000D+00  0.000000D+00  0.000000D+00
    451   0.000000D+00  0.000000D+00  0.000000D+00  0.000000D+00  0.000000D+00
    452   0.000000D+00  0.000000D+00  0.000000D+00  0.000000D+00  0.000000D+00
    453   0.126432D-03  0.136309D-02  0.000000D+00  0.000000D+00 -0.145171D-02
    454   0.000000D+00  0.000000D+00  0.215178D-03  0.000000D+00  0.000000D+00
    455   0.000000D+00  0.000000D+00  0.000000D+00  0.215178D-03  0.000000D+00
    456   0.000000D+00  0.000000D+00  0.000000D+00  0.000000D+00  0.000000D+00
    457   0.000000D+00  0.000000D+00  0.000000D+00  0.000000D+00  0.000000D+00
    458   0.000000D+00  0.000000D+00  0.000000D+00  0.000000D+00  0.000000D+00
    459   0.000000D+00  0.000000D+00  0.000000D+00  0.000000D+00  0.000000D+00
    460   0.515195D-02  0.346339D-01  0.000000D+00  0.000000D+00 -0.171294D-01
    461   0.000000D+00  0.000000D+00  0.566912D-02  0.000000D+00  0.000000D+00
    462   0.000000D+00  0.000000D+00  0.000000D+00  0.566912D-02  0.000000D+00
    463   0.000000D+00  0.000000D+00  0.000000D+00  0.000000D+00  0.000000D+00
    464   0.000000D+00  0.000000D+00  0.000000D+00  0.000000D+00  0.000000D+00
    465   0.000000D+00  0.000000D+00  0.000000D+00  0.000000D+00  0.000000D+00
    466   0.000000D+00  0.000000D+00  0.000000D+00  0.000000D+00  0.000000D+00
    467   0.162653D-01  0.101069D+00  0.000000D+00  0.000000D+00 -0.163355D-01
    468   0.000000D+00  0.000000D+00  0.166647D-01  0.000000D+00  0.000000D+00
    469   0.000000D+00  0.000000D+00  0.000000D+00  0.166647D-01  0.000000D+00
    470   0.000000D+00  0.000000D+00  0.000000D+00  0.000000D+00  0.000000D+00
    471   0.000000D+00  0.000000D+00  0.000000D+00  0.000000D+00  0.000000D+00
    472   0.000000D+00  0.000000D+00  0.000000D+00  0.000000D+00  0.000000D+00
    473   0.000000D+00  0.000000D+00  0.000000D+00  0.000000D+00  0.000000D+00
    474   0.000000D+00  0.000000D+00  0.000000D+00  0.000000D+00  0.000000D+00
    475   0.000000D+00  0.000000D+00  0.000000D+00  0.000000D+00  0.000000D+00
    476   0.000000D+00  0.000000D+00  0.000000D+00  0.000000D+00  0.000000D+00
    477   0.000000D+00  0.000000D+00  0.000000D+00  0.000000D+00  0.000000D+00
    478   0.000000D+00  0.000000D+00  0.000000D+00  0.000000D+00  0.000000D+00
    479   0.000000D+00  0.000000D+00  0.000000D+00  0.000000D+00  0.000000D+00
    480   0.000000D+00  0.000000D+00  0.000000D+00  0.000000D+00  0.000000D+00
    481   0.000000D+00  0.000000D+00  0.000000D+00  0.000000D+00  0.000000D+00
    482   0.000000D+00  0.000000D+00  0.000000D+00  0.000000D+00  0.000000D+00
    483   0.000000D+00  0.000000D+00  0.000000D+00  0.000000D+00  0.000000D+00
    484   0.000000D+00  0.000000D+00  0.000000D+00  0.000000D+00  0.000000D+00
    485   0.000000D+00  0.000000D+00  0.000000D+00  0.000000D+00  0.000000D+00
    486   0.000000D+00  0.000000D+00  0.000000D+00  0.000000D+00  0.000000D+00
    487   0.000000D+00  0.000000D+00  0.000000D+00  0.000000D+00  0.000000D+00
    488   0.000000D+00  0.000000D+00  0.000000D+00  0.000000D+00  0.000000D+00
    489   0.000000D+00  0.000000D+00  0.000000D+00  0.000000D+00  0.000000D+00
    490   0.000000D+00  0.000000D+00  0.000000D+00  0.000000D+00  0.000000D+00
    491   0.000000D+00  0.000000D+00  0.000000D+00  0.000000D+00  0.000000D+00
[...]

           Sum of intraorbital pair energies =    -0.145423 A.U.
           Sum of interorbital pair energies =    -0.331392 A.U.
                                                  ----------
                         Total pair energies =    -0.476816 A.U.

                         Single Excitations  =    -0.004773 A.U.

                          Total second order =    -0.481589 A.U.

                         E2(CBS) - E2(Dir) =      -0.003578 A.U.

 E2(CBS)=      -0.483113 CBS-Int=       0.001524 OIii=       1.557726

 **********************************************************************

            Population analysis using the SCF density.

 **********************************************************************

 Orbital symmetries:
       Occupied  (SG) (SG) (PI) (SG) (PI) (SG) (SG) (PI) (SG) (PI)
                 (SG) (SG) (?A) (?A) (?B) (?B) (?A) (?B)
       Virtual   (?A) (SG) (?A) (?A) (SG) (SG) (DLTA) (DLTA) (?A)
                 (?A) (SG) (SG) (?A) (?A) (SG) (?C) (?C) (?A) (?C)
                 (?A) (?A) (?A) (SG) (SG) (SG) (PI) (PI) (?D) (?D)
                 (?D) (PHI) (PHI) (?A) (?A) (SG) (?A) (?A) (?E)
                 (?E) (?E) (?A) (?A) (?F) (?F) (?F) (SG) (PI) (PI)
                 (PI) (PI) (SG) (SG) (PHI) (PHI) (?G) (?G) (SG)
                 (DLTA) (DLTA) (PI) (?H) (?H) (PI) (?H) (?I) (?I)
                 (?I) (?I) (PHI) (PHI) (PI) (?J) (?J) (PI) (?J)
                 (?J) (?J) (?J) (PI) (PI) (SG) (PI) (PI) (DLTA)
                 (DLTA) (PI) (PI) (SG) (SG) (?G) (?G) (?K) (?K)
                 (PHI) (PHI) (SG) (?L) (?L) (PI) (PI) (?L) (?L)
                 (SG) (?I) (?I) (SG) (?I) (?I) (DLTA) (DLTA) (?I)
                 (?I) (SG) (?I) (?I) (?G) (?G) (?L) (?L) (?L) (?I)
                 (?I) (?I) (?I) (DLTA) (DLTA) (SG) (?L) (?L) (?L)
                 (?L) (?L) (?L) (?L) (?L) (?L) (?K) (?K) (SG) (?L)
                 (?L) (?L) (?L) (SG) (SG) (?L) (?L) (?L) (PI) (PI)
                 (?K) (?K) (DLTA) (DLTA) (?I) (?I) (?I) (?I) (SG)
                 (?L) (?L) (?L) (DLTA) (DLTA) (?L) (?I) (?I) (?I)
                 (?I) (?L) (?L) (PI) (PI) (SG) (?G) (?G) (?L) (?L)
                 (?L) (?L) (?L) (?L) (?L) (?L) (?L) (?L) (?L) (SG)
                 (?L) (?L) (?L) (?L) (?L) (SG) (SG) (?L) (?L) (?L)
                 (?L) (?L) (?L) (?L) (?L) (?L) (PI) (PI) (?L) (?L)
                 (?L) (PI) (PI) (?L) (?L) (?G) (?G) (?L) (?L) (?I)
                 (?I) (?I) (?I) (SG) (SG) (?L) (?L) (?L) (?L) (?I)
                 (?I) (?I) (?I) (?K) (?K) (?I) (?I) (?I) (?I) (?L)
                 (?L) (?L) (?G) (?G) (SG) (?L) (?L) (?L) (PI) (PI)
                 (SG) (PHI) (PHI) (PI) (PI) (DLTA) (DLTA) (PI)
                 (PI) (?K) (?K) (SG) (?L) (?L) (?L) (?L) (?L) (?L)
                 (?L) (?L) (?L) (?L) (?L) (?L) (?L) (SG) (SG) (?K)
                 (?K) (?G) (?G) (PI) (PI) (PHI) (PHI) (SG) (DLTA)
                 (DLTA) (SG) (?G) (?G) (?I) (?I) (?I) (?I) (?L)
                 (?L) (PHI) (PHI) (?L) (PI) (?L) (PI) (?K) (?K)
                 (?L) (?G) (?G) (?L) (?L) (?L) (?L) (PI) (PI) (PHI)
                 (PHI) (?L) (PI) (PI) (DLTA) (DLTA) (PI) (PI) (SG)
                 (SG) (?G) (?G) (SG) (?I) (?I) (?I) (?I) (SG) (DLTA)
                 (DLTA) (PHI) (PHI) (PI) (PI) (?L) (?L) (?L) (?L)
                 (?L) (?L) (?L) (?L) (?L) (?L) (?L) (?L) (?L) (?L)
                 (?L) (PI) (PI) (SG) (SG) (?L) (?L) (SG) (SG) (?K)
                 (?K) (?G) (?G) (PHI) (PHI) (DLTA) (DLTA) (PI)
                 (PI) (SG) (?L) (?L) (?L) (?L) (?L) (?L) (?L) (?L)
                 (?L) (?L) (?L) (?L) (?L) (?L) (?L) (?L) (?L) (SG)
                 (?L) (?L) (?L) (?L) (?L) (?L) (?L) (?L) (?L) (?L)
                 (?L) (?L) (?L) (?L) (SG) (SG) (?K) (?K) (?G) (?G)
                 (?I) (?I) (?I) (?I) (?L) (?L) (?L) (?L) (PI) (PI)
                 (?L) (?L) (PI) (PI) (SG) (?K) (?K) (?G) (?G) (PHI)
                 (PHI) (DLTA) (DLTA) (PI) (PI) (SG) (?L) (?L) (?L)
                 (?L) (?L) (?L) (?L) (?L) (?L) (?L) (?L) (?L) (?L)
                 (?L) (?L) (?L) (PI) (PI) (?G) (?G) (PHI) (PHI)
                 (?L) (?L) (?L) (PI) (PI) (SG) (PHI) (PHI) (DLTA)
                 (DLTA) (PI) (PI) (SG) (SG) (?L) (?L) (?L) (?L)
                 (?L) (?L) (?L) (?L) (?L) (?L) (?L) (?L) (?L) (?L)
                 (?L) (?L) (?L) (?L) (?L) (?L) (?L) (?L) (?L) (?L)
                 (?L) (?L) (?L) (?L) (?L) (?L) (?L) (?L) (?L) (?L)
                 (?L) (?L) (?L) (?L) (?L) (?L) (?L) (?I) (?I) (?L)
                 (?L) (?I) (?I) (?L) (?L) (?L) (?I) (?I) (?L) (?L)
                 (?I) (?I) (?L) (?L) (?L) (SG) (SG) (?K) (?K) (?L)
                 (?L) (?I) (?I) (?L) (?L) (?L) (?I) (?I) (DLTA)
                 (DLTA) (?L) (?L) (?L) (?L) (?L) (?L) (?L) (SG)
                 (SG) (SG) (?K) (?K) (?G) (?G) (PHI) (PHI) (?L)
                 (?L) (PI) (PI) (?L) (PI) (PI) (SG) (?K) (?K) (?G)
                 (?G) (PHI) (PHI) (DLTA) (DLTA) (PI) (PI) (SG)
                 (?G) (?G) (PHI) (PHI) (DLTA) (DLTA) (PI) (PI)
                 (SG) (PHI) (PHI) (DLTA) (DLTA) (PI) (PI) (SG)
                 (SG) (SG)
 Unable to determine electronic state:  an orbital has unidentified symmetry.
 Alpha  occ. eigenvalues -- -240.80634 -29.42639 -25.14443 -25.12728 -25.12352
 Alpha  occ. eigenvalues --  -20.85027  -4.22850  -2.97348  -2.91382  -2.91295
 Alpha  occ. eigenvalues --   -1.45776  -0.89861  -0.89577  -0.88240  -0.88238
 Alpha  occ. eigenvalues --   -0.73107  -0.72593  -0.66844
 Alpha virt. eigenvalues --   -0.25093  -0.23768  -0.13388  -0.11811  -0.08903
 Alpha virt. eigenvalues --   -0.08113  -0.05545  -0.05545  -0.04942  -0.04768
 Alpha virt. eigenvalues --   -0.04214  -0.03838  -0.02095  -0.01842   0.00423
 Alpha virt. eigenvalues --    0.03433   0.03438   0.04044   0.04163   0.04661
 Alpha virt. eigenvalues --    0.05867   0.05982   0.06107   0.07752   0.15264
 Alpha virt. eigenvalues --    0.16869   0.17035   0.23183   0.23616   0.23626
 Alpha virt. eigenvalues --    0.25463   0.25464   0.28306   0.29211   0.30110
 Alpha virt. eigenvalues --    0.32663   0.32932   0.32940   0.33408   0.35221
 Alpha virt. eigenvalues --    0.38554   0.39321   0.39557   0.39579   0.42093
 Alpha virt. eigenvalues --    0.45884   0.52689   0.52927   0.56650   0.56755
 Alpha virt. eigenvalues --    0.56855   0.62929   0.67701   0.67701   0.71890
 Alpha virt. eigenvalues --    0.71890   0.79600   0.80650   0.80652   0.84482
 Alpha virt. eigenvalues --    0.84510   0.84569   0.84651   0.88240   0.89766
 Alpha virt. eigenvalues --    0.89773   0.92113   0.92945   0.97439   0.97440
 Alpha virt. eigenvalues --    1.02007   1.03095   1.03202   1.03219   1.05842
 Alpha virt. eigenvalues --    1.10269   1.10309   1.11462   1.16718   1.16997
 Alpha virt. eigenvalues --    1.17475   1.21844   1.22342   1.25975   1.25978
 Alpha virt. eigenvalues --    1.27672   1.27962   1.29301   1.37198   1.40430
 Alpha virt. eigenvalues --    1.40430   1.46232   1.46232   1.55524   1.55524
 Alpha virt. eigenvalues --    1.64038   1.71136   1.71136   1.71485   1.71883
 Alpha virt. eigenvalues --    1.72201   1.72213   1.79360   1.80662   1.80748
 Alpha virt. eigenvalues --    1.81637   1.92992   1.92992   1.94386   1.94400
 Alpha virt. eigenvalues --    1.99752   2.00248   2.10533   2.12623   2.12624
 Alpha virt. eigenvalues --    2.17786   2.17786   2.18769   2.23598   2.23705
 Alpha virt. eigenvalues --    2.25672   2.26632   2.29222   2.29257   2.36318
 Alpha virt. eigenvalues --    2.36319   2.38880   2.47929   2.47931   2.52771
 Alpha virt. eigenvalues --    2.53547   2.56022   2.56058   2.59716   2.60471
 Alpha virt. eigenvalues --    2.64319   2.67328   2.67955   2.67955   2.76840
 Alpha virt. eigenvalues --    2.77626   2.78377   2.78377   2.83259   2.83266
 Alpha virt. eigenvalues --    2.83613   2.83613   2.88652   2.95853   2.95912
 Alpha virt. eigenvalues --    3.00439   3.00439   3.08532   3.08532   3.17707
 Alpha virt. eigenvalues --    3.17837   3.18586   3.18648   3.24735   3.40120
 Alpha virt. eigenvalues --    3.40855   3.40855   3.45776   3.45783   3.52679
 Alpha virt. eigenvalues --    3.57016   3.57365   3.61076   3.61076   3.72834
 Alpha virt. eigenvalues --    3.72875   3.83889   3.85087   4.03642   4.04939
 Alpha virt. eigenvalues --    4.04939   4.06888   4.07289   4.15852   4.15852
 Alpha virt. eigenvalues --    4.17327   4.17327   4.21785   4.24277   4.24278
 Alpha virt. eigenvalues --    4.29037   4.30409   4.31906   4.35842   4.35909
 Alpha virt. eigenvalues --    4.46477   4.46482   4.61845   4.70903   4.70903
 Alpha virt. eigenvalues --    4.72983   4.72983   4.76548   4.76548   4.76999
 Alpha virt. eigenvalues --    4.79720   4.79868   4.93883   4.93945   4.94925
 Alpha virt. eigenvalues --    4.95869   5.09553   5.09555   5.13504   5.14227
 Alpha virt. eigenvalues --    5.14993   5.20973   5.21039   5.25646   5.25646
 Alpha virt. eigenvalues --    5.31160   5.32323   5.33052   5.33052   5.33432
 Alpha virt. eigenvalues --    5.33442   5.36938   5.36938   5.37732   5.47852
 Alpha virt. eigenvalues --    5.48082   5.53559   5.55923   5.55923   5.61929
 Alpha virt. eigenvalues --    5.62011   5.66664   5.66664   5.88403   5.88407
 Alpha virt. eigenvalues --    5.91839   5.93488   5.96391   6.03675   6.03737
 Alpha virt. eigenvalues --    6.30753   6.30753   6.37174   6.42755   6.54122
 Alpha virt. eigenvalues --    6.54148   6.55468   6.56171   6.61274   6.64191
 Alpha virt. eigenvalues --    6.64192   6.71425   6.71561   6.81455   6.81472
 Alpha virt. eigenvalues --    7.07986   7.08094   7.29387   7.29387   7.34714
 Alpha virt. eigenvalues --    7.39466   7.39467   7.42147   7.42147   7.56282
 Alpha virt. eigenvalues --    7.59610   7.71224   7.71272   7.78859   7.81468
 Alpha virt. eigenvalues --    7.84488   7.84606   7.98893   8.00759   8.00759
 Alpha virt. eigenvalues --    8.04093   8.04093   8.15354   8.15354   8.24954
 Alpha virt. eigenvalues --    8.26494   8.43756   8.43756   8.65851   8.92457
 Alpha virt. eigenvalues --    8.92470   9.00315   9.18646   9.18646   9.32579
 Alpha virt. eigenvalues --    9.34648   9.39110   9.39159   9.73700   9.74968
 Alpha virt. eigenvalues --    9.76944   9.76947   9.82073   9.93057   9.95358
 Alpha virt. eigenvalues --    9.96789  10.13331  10.13331  10.16938  10.19354
 Alpha virt. eigenvalues --   10.19354  10.27870  10.28186  10.52303  10.52378
 Alpha virt. eigenvalues --   10.55428  10.56147  10.65054  10.65055  10.73736
 Alpha virt. eigenvalues --   10.99354  11.00874  11.13064  11.13070  11.19999
 Alpha virt. eigenvalues --   11.23641  11.27015  11.56797  11.71882  11.71882
 Alpha virt. eigenvalues --   11.85194  11.91678  11.91679  11.95259  11.97325
 Alpha virt. eigenvalues --   12.13917  12.34376  12.34423  12.48521  12.48521
 Alpha virt. eigenvalues --   12.61721  12.62699  12.98599  13.02141  13.02141
 Alpha virt. eigenvalues --   13.05368  13.05413  13.08233  13.08233  13.22758
 Alpha virt. eigenvalues --   13.22758  13.33806  13.34000  13.37979  13.38915
 Alpha virt. eigenvalues --   13.53723  13.53761  14.31701  14.31782  14.44362
 Alpha virt. eigenvalues --   14.62219  15.82407  15.82407  15.83665  15.83665
 Alpha virt. eigenvalues --   15.88165  15.88165  16.01027  16.01027  16.10969
 Alpha virt. eigenvalues --   16.10969  16.11079  16.11089  16.36204  16.36471
 Alpha virt. eigenvalues --   16.38820  16.77861  16.77861  16.87884  16.87885
 Alpha virt. eigenvalues --   17.06646  17.06655  17.39649  17.40023  17.48873
 Alpha virt. eigenvalues --   17.49122  17.49474  17.54937  17.68202  17.94885
 Alpha virt. eigenvalues --   17.95830  18.44671  18.48547  18.86362  19.51515
 Alpha virt. eigenvalues --   19.51516  19.65765  19.65790  19.82691  19.82700
 Alpha virt. eigenvalues --   19.88446  19.89353  20.07805  20.08052  20.14667
 Alpha virt. eigenvalues --   20.20699  20.22988  20.27904  20.34969  20.34969
 Alpha virt. eigenvalues --   20.36941  20.36941  20.41572  20.41572  20.52835
 Alpha virt. eigenvalues --   20.52842  20.59121  20.61172  20.79783  20.79876
 Alpha virt. eigenvalues --   20.90650  21.40365  21.74352  21.77246  21.86855
 Alpha virt. eigenvalues --   21.86875  22.40569  22.46697  23.03132  23.60788
 Alpha virt. eigenvalues --   23.60788  23.64360  23.64360  23.84627  23.84627
 Alpha virt. eigenvalues --   24.14229  24.14282  24.24339  24.26069  24.42246
 Alpha virt. eigenvalues --   24.99979  24.99980  25.00777  25.00783  25.02791
 Alpha virt. eigenvalues --   25.02798  25.02890  25.05706  25.05713  25.12666
 Alpha virt. eigenvalues --   25.13135  25.21700  25.22867  25.26745  25.27080
 Alpha virt. eigenvalues --   25.31030  25.70440  25.71643  25.96187  25.96187
 Alpha virt. eigenvalues --   26.09386  26.09386  26.34131  26.37660  26.37819
 Alpha virt. eigenvalues --   26.83959  26.85313  27.66929  28.71304  28.71304
 Alpha virt. eigenvalues --   29.05239  29.05244  29.85394  29.87482  30.17551
 Alpha virt. eigenvalues --   31.69920  33.60087  33.60087  33.63911  33.63913
 Alpha virt. eigenvalues --   33.71444  33.71498  33.77691  33.78037  33.80934
 Alpha virt. eigenvalues --   33.82018  33.84672  33.86224  33.86301  33.91200
 Alpha virt. eigenvalues --   33.91200  33.92075  33.92075  33.92625  33.92625
 Alpha virt. eigenvalues --   33.92909  33.92911  33.93342  33.93344  33.93895
 Alpha virt. eigenvalues --   33.93906  34.01807  34.01956  34.17766  34.22266
 Alpha virt. eigenvalues --   34.26108  38.57117  38.57118  38.64330  38.64334
 Alpha virt. eigenvalues --   38.76689  38.76768  38.97500  38.98800  39.07080
 Alpha virt. eigenvalues --   39.14824  39.20761  41.26503  41.26509  41.54395
 Alpha virt. eigenvalues --   41.54782  42.01200  42.08267  42.09192  42.43280
 Alpha virt. eigenvalues --   42.43281  42.56038  42.56058  42.78519  42.79011
 Alpha virt. eigenvalues --   43.12862  43.20281  43.26930  44.30850  44.30850
 Alpha virt. eigenvalues --   44.31910  44.31910  44.33492  44.33492  44.37393
 Alpha virt. eigenvalues --   44.37394  44.40782  44.40785  44.41317  44.41409
 Alpha virt. eigenvalues --   44.50210  44.50413  44.51696  45.96670  45.96672
 Alpha virt. eigenvalues --   46.37764  46.37942  46.42283  46.42609  46.78078
 Alpha virt. eigenvalues --   46.82888  47.02303  47.71089  51.29838  51.29838
 Alpha virt. eigenvalues --   51.31294  51.31294  51.33506  51.33506  51.38107
 Alpha virt. eigenvalues --   51.38107  51.48799  51.48863  51.57896  51.58779
 Alpha virt. eigenvalues --   51.61762  52.19868  52.25006  54.15111  56.13176
 Alpha virt. eigenvalues --   56.13176  56.15540  56.15540  56.27564  56.27564
 Alpha virt. eigenvalues --   56.45731  56.45776  56.49645  56.51082  56.62714
 Alpha virt. eigenvalues --   59.67774  59.67774  59.76231  59.76231  59.94157
 Alpha virt. eigenvalues --   59.94167  60.16406  60.17808  60.47279  68.15135
 Alpha virt. eigenvalues --   68.15135  68.36940  68.36942  68.93208  68.94382
 Alpha virt. eigenvalues --   69.20749 107.16591 604.00073
          Condensed to atoms (all electrons):
              1          2
     1  Mn  23.366998   0.233066
     2  O    0.233066   8.166871
 Mulliken atomic charges:
              1
     1  Mn   1.399936
     2  O   -0.399936
 Sum of Mulliken atomic charges =   1.00000
 Mulliken charges with hydrogens summed into heavy atoms:
              1
     1  Mn   1.399936
     2  O   -0.399936
 Sum of Mulliken charges with hydrogens summed into heavy atoms =   1.00000
          Atomic-Atomic Spin Densities.
              1          2
     1  Mn   3.982321  -0.018172
     2  O   -0.018172   0.054023
 Mulliken atomic spin densities:
              1
     1  Mn   3.964149
     2  O    0.035851
 Sum of Mulliken atomic spin densities =   4.00000
 Electronic spatial extent (au):  <R**2>=            103.9115
 Charge=              1.0000 electrons
 Dipole moment (field-independent basis, Debye):
    X=              0.0000    Y=              0.0000    Z=              5.7710  Tot=              5.7710
 Quadrupole moment (field-independent basis, Debye-Ang):
   XX=            -14.2153   YY=            -14.8281   ZZ=            -14.9308
   XY=              0.0000   XZ=              0.0000   YZ=              0.0000
 Traceless Quadrupole moment (field-independent basis, Debye-Ang):
   XX=              0.4428   YY=             -0.1700   ZZ=             -0.2727
   XY=              0.0000   XZ=              0.0000   YZ=              0.0000
 Octapole moment (field-independent basis, Debye-Ang**2):
  XXX=              0.0000  YYY=              0.0000  ZZZ=             16.0189  XYY=              0.0000
  XXY=              0.0000  XXZ=              3.4245  XZZ=              0.0000  YZZ=              0.0000
  YYZ=              5.1102  XYZ=              0.0000
 Hexadecapole moment (field-independent basis, Debye-Ang**3):
 XXXX=            -10.2874 YYYY=            -10.3850 ZZZZ=            -85.0952 XXXY=              0.0000
 XXXZ=              0.0000 YYYX=              0.0000 YYYZ=              0.0000 ZZZX=              0.0000
 ZZZY=              0.0000 XXYY=             -3.4457 XXZZ=            -13.6516 YYZZ=            -16.0979
 XXYZ=              0.0000 YYXZ=              0.0000 ZZXY=              0.0000
 N-N= 5.834368341676D+01 E-N=-4.469852450122D+03  KE= 1.823281908605D+03
                          Isotropic Fermi Contact Couplings
        Atom                 a.u.       MegaHertz       Gauss      10(-4) cm-1
     1  Mn(55)             0.30486      84.24307      30.06002      28.10046
     2  O(17)              0.01767      -2.67751      -0.95540      -0.89312
 --------------------------------------------------------
       Center         ----  Spin Dipole Couplings  ----
                      3XX-RR        3YY-RR        3ZZ-RR
 --------------------------------------------------------
     1   Atom       -1.267238      2.353626     -1.086387
     2   Atom       -0.167468     -0.046298      0.213766
 --------------------------------------------------------
                        XY            XZ            YZ
 --------------------------------------------------------
     1   Atom        0.000000      0.000000      0.000000
     2   Atom        0.000000      0.000000      0.000000
 --------------------------------------------------------


 ---------------------------------------------------------------------------------
              Anisotropic Spin Dipole Couplings in Principal Axis System
 ---------------------------------------------------------------------------------

       Atom             a.u.   MegaHertz   Gauss  10(-4) cm-1        Axes

              Baa    -1.2672  -167.202   -59.662   -55.772  1.0000  0.0000  0.0000
     1 Mn(55) Bbb    -1.0864  -143.340   -51.147   -47.813  0.0000  0.0000  1.0000
              Bcc     2.3536   310.541   110.809   103.585  0.0000  1.0000  0.0000
 
              Baa    -0.1675    12.118     4.324     4.042  1.0000  0.0000  0.0000
     2 O(17)  Bbb    -0.0463     3.350     1.195     1.117  0.0000  1.0000  0.0000
              Bcc     0.2138   -15.468    -5.519    -5.160  0.0000  0.0000  1.0000
 

 ---------------------------------------------------------------------------------


 Test job not archived.
 1\1\GINC-N33\SP\ROMP2-FC\Gen\Mn1O1(1+,5)\GPETERSSON\03-Dec-2013\0\\# R
 OMP2 Gen GFinput Int=NoBasisTransform Int(Grid=Ultrafine) IOp(3/32=2,5
 /6=10,8/11=1,9/33=1) Maxdisk=128GB CBSextrapolate(Nmin=25,MinPop) SCF=
 Symm Guess=Read\\MnO+ 5Pi\\1,5\Mn\O,1,1.814\\Version=EM64L-G09RevA.02\
 HF=-1224.2792971\MP2=-1224.7588318\E2(CBS)=-0.4831127\CBS-Int=-0.48158
 86\OIii=1.5577263\RMSD=1.878e-11\PG=C*V [C*(O1Mn1)]\\@


 ASKING FOR EFFICIENCY AND ADAPTABILITY IN THE SAME PROGRAM IS LIKE
 ASKING FOR A BEAUTIFUL AND MODEST WIFE ...
 WE'LL PROBABLY HAVE TO SETTLE FOR ONE OR THE OTHER.

             -- THE PSYCHOLOGY OF COMPUTER PROGRAMMING
                GERALD M. WEINBERG
 Job cpu time:  6 days  0 hours 41 minutes 13.5 seconds.
 File lengths (MBytes):  RWF=  61694 Int=      0 D2E=      0 Chk=     36 Scr=      1
 Normal termination of Gaussian 09 at Tue Dec  3 04:35:17 2013.
