 Entering Gaussian System, Link 0=g09
 AtFile(1): 7ZaPa-NR.gbs
 Initial command:
 /share/apps/gaussian/g09root/g09/l1.exe /localscratch/69775/Gau-22255.inp -scrdir=/localscratch/69775/
 Entering Link 1 = /share/apps/gaussian/g09root/g09/l1.exe PID=     22256.
  
 Copyright (c) 1988,1990,1992,1993,1995,1998,2003,2009, Gaussian, Inc.
                  All Rights Reserved.
  
 This is part of the Gaussian(R) 09 program.  It is based on
 the Gaussian(R) 03 system (copyright 2003, Gaussian, Inc.),
 the Gaussian(R) 98 system (copyright 1998, Gaussian, Inc.),
 the Gaussian(R) 94 system (copyright 1995, Gaussian, Inc.),
 the Gaussian 92(TM) system (copyright 1992, Gaussian, Inc.),
 the Gaussian 90(TM) system (copyright 1990, Gaussian, Inc.),
 the Gaussian 88(TM) system (copyright 1988, Gaussian, Inc.),
 the Gaussian 86(TM) system (copyright 1986, Carnegie Mellon
 University), and the Gaussian 82(TM) system (copyright 1983,
 Carnegie Mellon University). Gaussian is a federally registered
 trademark of Gaussian, Inc.
  
 This software contains proprietary and confidential information,
 including trade secrets, belonging to Gaussian, Inc.
  
 This software is provided under written license and may be
 used, copied, transmitted, or stored only in accord with that
 written license.
  
 The following legend is applicable only to US Government
 contracts under FAR:
  
                    RESTRICTED RIGHTS LEGEND
  
 Use, reproduction and disclosure by the US Government is
 subject to restrictions as set forth in subparagraphs (a)
 and (c) of the Commercial Computer Software - Restricted
 Rights clause in FAR 52.227-19.
  
 Gaussian, Inc.
 340 Quinnipiac St., Bldg. 40, Wallingford CT 06492
  
  
 ---------------------------------------------------------------
 Warning -- This program may not be used in any manner that
 competes with the business of Gaussian, Inc. or will provide
 assistance to any competitor of Gaussian, Inc.  The licensee
 of this program is prohibited from giving any competitor of
 Gaussian, Inc. access to this program.  By using this program,
 the user acknowledges that Gaussian, Inc. is engaged in the
 business of creating and licensing software in the field of
 computational chemistry and represents and warrants to the
 licensee that it is not a competitor of Gaussian, Inc. and that
 it will not use this program in any manner prohibited above.
 ---------------------------------------------------------------
  

 Cite this work as:
 Gaussian 09, Revision A.02,
 M. J. Frisch, G. W. Trucks, H. B. Schlegel, G. E. Scuseria, 
 M. A. Robb, J. R. Cheeseman, G. Scalmani, V. Barone, B. Mennucci, 
 G. A. Petersson, H. Nakatsuji, M. Caricato, X. Li, H. P. Hratchian, 
 A. F. Izmaylov, J. Bloino, G. Zheng, J. L. Sonnenberg, M. Hada, 
 M. Ehara, K. Toyota, R. Fukuda, J. Hasegawa, M. Ishida, T. Nakajima, 
 Y. Honda, O. Kitao, H. Nakai, T. Vreven, J. A. Montgomery, Jr., 
 J. E. Peralta, F. Ogliaro, M. Bearpark, J. J. Heyd, E. Brothers, 
 K. N. Kudin, V. N. Staroverov, R. Kobayashi, J. Normand, 
 K. Raghavachari, A. Rendell, J. C. Burant, S. S. Iyengar, J. Tomasi, 
 M. Cossi, N. Rega, J. M. Millam, M. Klene, J. E. Knox, J. B. Cross, 
 V. Bakken, C. Adamo, J. Jaramillo, R. Gomperts, R. E. Stratmann, 
 O. Yazyev, A. J. Austin, R. Cammi, C. Pomelli, J. W. Ochterski, 
 R. L. Martin, K. Morokuma, V. G. Zakrzewski, G. A. Voth, 
 P. Salvador, J. J. Dannenberg, S. Dapprich, A. D. Daniels, 
 O. Farkas, J. B. Foresman, J. V. Ortiz, J. Cioslowski, 
 and D. J. Fox, Gaussian, Inc., Wallingford CT, 2009.
 
 ******************************************
 Gaussian 09:  EM64L-G09RevA.02 11-Jun-2009
                30-Nov-2013 
 ******************************************
 % Mem=64GB
 % Nproc=16
 Will use up to   16 processors via shared memory.
 % Chk=MnO-_5Sg.chk
 ----------------------------------------------------------------------
 # ROMP2 Gen GFinput Int=NoBasisTransform Int(Grid=Ultrafine) IOp(3/32=
 2,5/6=10,8/11=1,9/33=1) Maxdisk=128GB CBSextrapolate(Nmin=25,MinPop) S
 CF=Symm Guess=Read
 ----------------------------------------------------------------------
 1/38=1/1;
 2/12=2,17=6,18=5,40=1/2;
 3/5=7,11=2,16=1,24=10,25=1,30=1,32=2,60=-1,75=-5,116=101/1,2,3;
 4/5=1,9=4/1;
 5/5=2,6=10,15=2,38=6/2;
 8/5=-1,10=1,11=1/1;
 9/16=-3,33=1,75=2,81=25,83=4/6,4;
 6/7=2,8=2,9=2,10=2/1;
 99/5=1,9=1/99;
 ---------
 MnO- 5Sg+
 ---------
 Symbolic Z-matrix:
 Charge = -1 Multiplicity = 5
 Mn
 O                    1     1.655 
 
                          Input orientation:                          
 ---------------------------------------------------------------------
 Center     Atomic      Atomic             Coordinates (Angstroms)
 Number     Number       Type             X           Y           Z
 ---------------------------------------------------------------------
      1         25           0        0.000000    0.000000    0.000000
      2          8           0        0.000000    0.000000    1.655000
 ---------------------------------------------------------------------
 Stoichiometry    MnO(1-,5)
 Framework group  C*V[C*(OMn)]
 Deg. of freedom     1
 Full point group                 C*V     NOp   4
 Largest Abelian subgroup         C2V     NOp   4
 Largest concise Abelian subgroup C1      NOp   1
                         Standard orientation:                         
 ---------------------------------------------------------------------
 Center     Atomic      Atomic             Coordinates (Angstroms)
 Number     Number       Type             X           Y           Z
 ---------------------------------------------------------------------
      1         25           0        0.000000    0.000000    0.401212
      2          8           0        0.000000    0.000000   -1.253788
 ---------------------------------------------------------------------
 Rotational constants (GHZ):      0.0000000     14.8940961     14.8940961
 General basis read from cards:  (5D, 7F)
 AO basis set in the form of general basis input (Overlap normalization):
      1 0
 S  17 1.00       0.000000000000
      0.2589493270D+08  0.8345046128D-06
      0.3915590060D+07  0.6371710381D-05
      0.9055796150D+06  0.3272147157D-04
      0.2604384670D+06  0.1359125783D-03
      0.8599643530D+05  0.4879517470D-03
      0.3156560560D+05  0.1546128034D-02
      0.1265370630D+05  0.4409810302D-02
      0.5449984580D+04  0.1151136886D-01
      0.2487175490D+04  0.2774051072D-01
      0.1188494540D+04  0.6149760294D-01
      0.5886025610D+03  0.1232692391D+00
      0.2994870200D+03  0.2136282509D+00
      0.1553950050D+03  0.2936708136D+00
      0.8171102500D+02  0.2685713793D+00
      0.4323132600D+02  0.1250063753D+00
      0.2209756900D+02  0.1798110546D-01
      0.1177981200D+02  0.5318590157D-03
 S  14 1.00       0.000000000000
      0.1265370630D+05 -0.6202247539D-05
      0.5449984580D+04 -0.3735853271D-04
      0.2487175490D+04 -0.2120746887D-03
      0.1188494540D+04 -0.1024919842D-02
      0.5886025610D+03 -0.4194317792D-02
      0.2994870200D+03 -0.1499657785D-01
      0.1553950050D+03 -0.4254438216D-01
      0.8171102500D+02 -0.8168749794D-01
      0.4323132600D+02 -0.4381978663D-01
      0.2209756900D+02  0.1997379039D+00
      0.1177981200D+02  0.4781788922D+00
      0.6344478000D+01  0.3651921171D+00
      0.3379594000D+01  0.8599723555D-01
      0.1758933000D+01  0.5069478582D-02
 P  16 1.00       0.000000000000
      0.6215066830D+05  0.3658368025D-05
      0.1605785870D+05  0.3040125515D-04
      0.5095463040D+04  0.1942728360D-03
      0.1894670610D+04  0.9375256041D-03
      0.7943393290D+03  0.3667330265D-02
      0.3640172220D+03  0.1203952149D-01
      0.1779262930D+03  0.3395429900D-01
      0.9102101000D+02  0.8267138332D-01
      0.4804124400D+02  0.1672413778D+00
      0.2588433500D+02  0.2680427000D+00
      0.1412423700D+02  0.3166198643D+00
      0.7757358000D+01  0.2238827862D+00
      0.4265247000D+01  0.7362136419D-01
      0.2334783000D+01  0.9238527106D-02
      0.1263938000D+01  0.6522422156D-03
      0.6707880000D+00  0.7512240983D-04
 S  12 1.00       0.000000000000
      0.1553950050D+03  0.3207473173D-03
      0.8171102500D+02  0.1635075977D-02
      0.4323132600D+02  0.2270045328D-02
      0.2209756900D+02 -0.1175159291D-01
      0.1177981200D+02 -0.1070077816D+00
      0.6344478000D+01 -0.1906156711D+00
      0.3379594000D+01  0.7178881681D-01
      0.1758933000D+01  0.4993416407D+00
      0.8905110000D+00  0.4989305857D+00
      0.4394750000D+00  0.1284134265D+00
      0.2129450000D+00  0.1879287424D-02
      0.1024330000D+00  0.2085585178D-02
 P  15 1.00       0.000000000000
      0.1894670610D+04 -0.3752337511D-06
      0.7943393290D+03 -0.6741318899D-05
      0.3640172220D+03 -0.4604637999D-04
      0.1779262930D+03 -0.2958788339D-03
      0.9102101000D+02 -0.1363055780D-02
      0.4804124400D+02 -0.4803816519D-02
      0.2588433500D+02 -0.1144981877D-01
      0.1412423700D+02 -0.2075328029D-01
      0.7757358000D+01  0.9126067826D-02
      0.4265247000D+01  0.1470275665D+00
      0.2334783000D+01  0.3161714576D+00
      0.1263938000D+01  0.3643078859D+00
      0.6707880000D+00  0.2328497102D+00
      0.3449150000D+00  0.5803189254D-01
      0.1691460000D+00  0.4006137164D-02
 D  16 1.00       0.000000000000
      0.2037588350D+04  0.5318668661D-05
      0.6431313760D+03  0.5280175861D-04
      0.2499805510D+03  0.3394553281D-03
      0.1123964430D+03  0.1552351480D-02
      0.5571694100D+02  0.5566017632D-02
      0.2939108100D+02  0.1585923990D-01
      0.1609252400D+02  0.3752382651D-01
      0.8997171000D+01  0.7924094840D-01
      0.5086100000D+01  0.1424682790D+00
      0.2891615000D+01  0.2044505211D+00
      0.1648666000D+01  0.2392174661D+00
      0.9404310000D+00  0.2366743861D+00
      0.5345870000D+00  0.1965911391D+00
      0.3005770000D+00  0.1278922490D+00
      0.1649950000D+00  0.5132305391D-01
      0.8661500000D-01  0.6931609830D-02
 D   1 1.00       0.000000000000
      0.5896327149D-01  0.1000000000D+01
 D   1 1.00       0.000000000000
      0.1836400000D-01  0.1000000000D+01
 S  10 1.00       0.000000000000
      0.2209756900D+02 -0.3950878983D-05
      0.1177981200D+02  0.1295726278D-02
      0.6344478000D+01  0.4498875778D-02
      0.3379594000D+01 -0.4621039709D-02
      0.1758933000D+01 -0.3409251314D-01
      0.8905110000D+00 -0.1211369853D+00
      0.4394750000D+00 -0.1550246145D+00
      0.2129450000D+00  0.2572299487D+00
      0.1024330000D+00  0.6896735934D+00
      0.4958300000D-01  0.2538345197D+00
 S   1 1.00       0.000000000000
      0.4054418890D-01  0.1000000000D+01
 S   1 1.00       0.000000000000
      0.1524100000D-01  0.1000000000D+01
 S   1 1.00       0.000000000000
      0.5008000000D-02  0.1000000000D+01
 P  10 1.00       0.000000000000
      0.2588433500D+02  0.8575377771D-03
      0.1412423700D+02 -0.1176375226D-02
      0.7757358000D+01  0.3668448901D-02
      0.4265247000D+01 -0.1681091342D-01
      0.2334783000D+01 -0.8126246574D-03
      0.1263938000D+01 -0.5573713192D-01
      0.6707880000D+00  0.2239477374D-01
      0.3449150000D+00 -0.3802982727D-01
      0.1691460000D+00  0.4811362917D+00
      0.6019844190D-01  0.6231395465D+00
 P   1 1.00       0.000000000000
      0.8557927624D-01  0.1000000000D+01
 P   1 1.00       0.000000000000
      0.3564500000D-01  0.1000000000D+01
 S   1 1.00       0.000000000000
      0.5308124000D+01  0.1000000000D+01
 S   1 1.00       0.000000000000
      0.2719949000D+01  0.1000000000D+01
 S   1 1.00       0.000000000000
      0.1393736000D+01  0.1000000000D+01
 S   1 1.00       0.000000000000
      0.7141680000D+00  0.1000000000D+01
 S   1 1.00       0.000000000000
      0.3659480000D+00  0.1000000000D+01
 S   1 1.00       0.000000000000
      0.1875170000D+00  0.1000000000D+01
 P   1 1.00       0.000000000000
      0.2493935000D+01  0.1000000000D+01
 P   1 1.00       0.000000000000
      0.1421672000D+01  0.1000000000D+01
 P   1 1.00       0.000000000000
      0.8104270000D+00  0.1000000000D+01
 P   1 1.00       0.000000000000
      0.4619850000D+00  0.1000000000D+01
 P   1 1.00       0.000000000000
      0.2633560000D+00  0.1000000000D+01
 P   1 1.00       0.000000000000
      0.1501260000D+00  0.1000000000D+01
 D   1 1.00       0.000000000000
      0.6136618000D+01  0.1000000000D+01
 D   1 1.00       0.000000000000
      0.2887252000D+01  0.1000000000D+01
 D   1 1.00       0.000000000000
      0.1358439000D+01  0.1000000000D+01
 D   1 1.00       0.000000000000
      0.6391400000D+00  0.1000000000D+01
 D   1 1.00       0.000000000000
      0.3007120000D+00  0.1000000000D+01
 D   1 1.00       0.000000000000
      0.1414840000D+00  0.1000000000D+01
 F   1 1.00       0.000000000000
      0.1604415900D+02  0.1000000000D+01
 F   1 1.00       0.000000000000
      0.7173713000D+01  0.1000000000D+01
 F   1 1.00       0.000000000000
      0.3207532000D+01  0.1000000000D+01
 F   1 1.00       0.000000000000
      0.1434162000D+01  0.1000000000D+01
 F   1 1.00       0.000000000000
      0.6412470000D+00  0.1000000000D+01
 F   1 1.00       0.000000000000
      0.2867160000D+00  0.1000000000D+01
 F   1 1.00       0.000000000000
      0.1281970000D+00  0.1000000000D+01
 G   1 1.00       0.000000000000
      0.1121282800D+02  0.1000000000D+01
 G   1 1.00       0.000000000000
      0.5020983000D+01  0.1000000000D+01
 G   1 1.00       0.000000000000
      0.2248342000D+01  0.1000000000D+01
 G   1 1.00       0.000000000000
      0.1006783000D+01  0.1000000000D+01
 G   1 1.00       0.000000000000
      0.4508270000D+00  0.1000000000D+01
 G   1 1.00       0.000000000000
      0.2018750000D+00  0.1000000000D+01
 H   1 1.00       0.000000000000
      0.9011096000D+01  0.1000000000D+01
 H   1 1.00       0.000000000000
      0.3829841000D+01  0.1000000000D+01
 H   1 1.00       0.000000000000
      0.1627735000D+01  0.1000000000D+01
 H   1 1.00       0.000000000000
      0.6918100000D+00  0.1000000000D+01
 H   1 1.00       0.000000000000
      0.2940280000D+00  0.1000000000D+01
 I   1 1.00       0.000000000000
      0.7195010000D+01  0.1000000000D+01
 I   1 1.00       0.000000000000
      0.2853562000D+01  0.1000000000D+01
 I   1 1.00       0.000000000000
      0.1131731000D+01  0.1000000000D+01
 I   1 1.00       0.000000000000
      0.4488470000D+00  0.1000000000D+01
 J   1 1.00       0.000000000000
      0.5521743000D+01  0.1000000000D+01
 J   1 1.00       0.000000000000
      0.1967658000D+01  0.1000000000D+01
 J   1 1.00       0.000000000000
      0.7011690000D+00  0.1000000000D+01
 K   1 1.00       0.000000000000
      0.3854124916D+01  0.1000000000D+01
 ****
      2 0
 S  16 1.00       0.000000000000
      0.1411246410D+07  0.1627429822D-05
      0.2499102240D+06  0.1092621996D-04
      0.5603410580D+05  0.6238741867D-04
      0.1521153640D+05  0.2783303491D-03
      0.4812287750D+04  0.1040541872D-02
      0.1717755460D+04  0.3380392793D-02
      0.6733958240D+03  0.9828484765D-02
      0.2835101840D+03  0.2605310129D-01
      0.1258620070D+03  0.6280818057D-01
      0.5804472200D+02  0.1348202075D+00
      0.2747198500D+02  0.2435563460D+00
      0.1321062900D+02  0.3323287378D+00
      0.6399806000D+01  0.2607930483D+00
      0.3099614000D+01  0.7430834326D-01
      0.1489856000D+01  0.4189538074D-02
      0.7052010000D+00  0.8706455725D-03
 S  11 1.00       0.000000000000
      0.2835101840D+03 -0.1122588094D-03
      0.1258620070D+03 -0.5559335617D-03
      0.5804472200D+02 -0.2851687904D-02
      0.2747198500D+02 -0.1133494995D-01
      0.1321062900D+02 -0.3657977704D-01
      0.6399806000D+01 -0.7288994197D-01
      0.3099614000D+01 -0.1062032356D-01
      0.1489856000D+01  0.2196705572D+00
      0.7052010000D+00  0.4294832072D+00
      0.3258480000D+00  0.3775832849D+00
      0.1454600000D+00  0.9640261255D-01
 S   1 1.00       0.000000000000
      0.5814297870D-01  0.1000000000D+01
 P  13 1.00       0.000000000000
      0.2085279200D+04  0.1447911740D-04
      0.5101470830D+03  0.1283233588D-03
      0.1616811510D+03  0.7792790007D-03
      0.6114945200D+02  0.3400506049D-02
      0.2597660200D+02  0.1157685214D-01
      0.1187542600D+02  0.3269740339D-01
      0.5677133000D+01  0.8011404242D-01
      0.2786475000D+01  0.1605265057D+00
      0.1387844000D+01  0.2460495026D+00
      0.6952810000D+00  0.2898982926D+00
      0.3470020000D+00  0.2606799382D+00
      0.1700990000D+00  0.1479363112D+00
      0.8008000000D-01  0.2980261453D-01
 P   1 1.00       0.000000000000
      0.4261436033D-01  0.1000000000D+01
 S   1 1.00       0.000000000000
      0.4249866000D+01  0.1000000000D+01
 S   1 1.00       0.000000000000
      0.2167470000D+01  0.1000000000D+01
 S   1 1.00       0.000000000000
      0.1105429000D+01  0.1000000000D+01
 S   1 1.00       0.000000000000
      0.5637790000D+00  0.1000000000D+01
 S   1 1.00       0.000000000000
      0.2875320000D+00  0.1000000000D+01
 S   1 1.00       0.000000000000
      0.1466440000D+00  0.1000000000D+01
 P   1 1.00       0.000000000000
      0.5659724000D+01  0.1000000000D+01
 P   1 1.00       0.000000000000
      0.2575878000D+01  0.1000000000D+01
 P   1 1.00       0.000000000000
      0.1172344000D+01  0.1000000000D+01
 P   1 1.00       0.000000000000
      0.5335620000D+00  0.1000000000D+01
 P   1 1.00       0.000000000000
      0.2428370000D+00  0.1000000000D+01
 P   1 1.00       0.000000000000
      0.1105210000D+00  0.1000000000D+01
 D   1 1.00       0.000000000000
      0.9464211000D+01  0.1000000000D+01
 D   1 1.00       0.000000000000
      0.4752286000D+01  0.1000000000D+01
 D   1 1.00       0.000000000000
      0.2386276000D+01  0.1000000000D+01
 D   1 1.00       0.000000000000
      0.1198226000D+01  0.1000000000D+01
 D   1 1.00       0.000000000000
      0.6016680000D+00  0.1000000000D+01
 D   1 1.00       0.000000000000
      0.3021170000D+00  0.1000000000D+01
 D   1 1.00       0.000000000000
      0.1517020000D+00  0.1000000000D+01
 F   1 1.00       0.000000000000
      0.7001836000D+01  0.1000000000D+01
 F   1 1.00       0.000000000000
      0.3552509000D+01  0.1000000000D+01
 F   1 1.00       0.000000000000
      0.1802430000D+01  0.1000000000D+01
 F   1 1.00       0.000000000000
      0.9144960000D+00  0.1000000000D+01
 F   1 1.00       0.000000000000
      0.4639860000D+00  0.1000000000D+01
 F   1 1.00       0.000000000000
      0.2354110000D+00  0.1000000000D+01
 G   1 1.00       0.000000000000
      0.6472481000D+01  0.1000000000D+01
 G   1 1.00       0.000000000000
      0.3119071000D+01  0.1000000000D+01
 G   1 1.00       0.000000000000
      0.1503072000D+01  0.1000000000D+01
 G   1 1.00       0.000000000000
      0.7243260000D+00  0.1000000000D+01
 G   1 1.00       0.000000000000
      0.3490500000D+00  0.1000000000D+01
 H   1 1.00       0.000000000000
      0.5355083000D+01  0.1000000000D+01
 H   1 1.00       0.000000000000
      0.2414696000D+01  0.1000000000D+01
 H   1 1.00       0.000000000000
      0.1088827000D+01  0.1000000000D+01
 H   1 1.00       0.000000000000
      0.4909703000D+00  0.1000000000D+01
 I   1 1.00       0.000000000000
      0.4322113000D+01  0.1000000000D+01
 I   1 1.00       0.000000000000
      0.1716263000D+01  0.1000000000D+01
 I   1 1.00       0.000000000000
      0.6815089000D+00  0.1000000000D+01
 J   1 1.00       0.000000000000
      0.3060973723D+01  0.1000000000D+01
 ****

 There are   208 symmetry adapted basis functions of A1  symmetry.
 There are   106 symmetry adapted basis functions of A2  symmetry.
 There are   151 symmetry adapted basis functions of B1  symmetry.
 There are   151 symmetry adapted basis functions of B2  symmetry.
 Integral buffers will be    131072 words long.
 Raffenetti 2 integral format.
 Two-electron integral symmetry is turned on.
   616 basis functions,  1358 primitive gaussians,  1044 cartesian basis functions
    19 alpha electrons       15 beta electrons
       nuclear repulsion energy        63.9489073825 Hartrees.
 NAtoms=    2 NActive=    2 NUniq=    2 SFac= 7.50D-01 NAtFMM=   80 NAOKFM=F Big=F
 One-electron integrals computed using PRISM.
 NBasis=   616 RedAO= F  NBF=   208   106   151   151
 NBsUse=   616 1.00D-04 NBFU=   208   106   151   151
 Initial guess read from the checkpoint file:  MnO-_5Sg.chk
 B after Tr=     0.000000    0.000000    0.000000
         Rot=    1.000000    0.000000    0.000000    0.000000 Ang=   0.00 deg.
 Initial guess orbital symmetries:
       Occupied  (SG) (SG) (SG) (PI) (PI) (SG) (SG) (SG) (PI) (PI)
                 (SG) (SG) (PI) (PI) (SG) (DLTA) (DLTA) (PI) (PI)
       Virtual   (SG) (SG) (SG) (PI) (PI) (SG) (PI) (PI) (SG) (DLTA)
                 (DLTA) (SG) (PI) (PI) (PI) (PI) (SG) (SG) (DLTA)
                 (DLTA) (PHI) (PHI) (PI) (PI) (SG) (PI) (PI) (SG)
                 (SG) (PI) (PI) (DLTA) (DLTA) (SG) (PI) (PI) (SG)
                 (SG) (DLTA) (DLTA) (PI) (PI) (SG) (PHI) (PHI)
                 (DLTA) (DLTA) (PI) (PI) (SG) (SG) (SG) (SG) (PI)
                 (PI) (SG) (SG) (PI) (PI) (DLTA) (DLTA) (SG) (PI)
                 (PI) (DLTA) (DLTA) (SG) (PI) (PI) (DLTA) (DLTA)
                 (SG) (SG) (SG) (PI) (PI) (SG) (PI) (PI) (SG) (PI)
                 (PI) (SG) (SG) (SG) (SG) (SG) (SG) (SG) (PI) (PI)
                 (SG) (PI) (PI) (SG) (PI) (PI) (SG) (PI) (PI) (SG)
                 (PI) (PI) (SG) (PI) (PI) (SG) (SG) (PI) (PI) (DLTA)
                 (DLTA) (SG) (PI) (PI) (DLTA) (DLTA) (SG) (PI)
                 (PI) (DLTA) (DLTA) (SG) (PI) (PI) (DLTA) (DLTA)
                 (SG) (PI) (PI) (DLTA) (DLTA) (SG) (PI) (PI) (DLTA)
                 (DLTA) (SG) (PI) (PI) (DLTA) (DLTA) (PHI) (PHI)
                 (SG) (PI) (PI) (DLTA) (DLTA) (PHI) (PHI) (SG)
                 (PI) (PI) (DLTA) (DLTA) (PHI) (PHI) (SG) (PI)
                 (PI) (DLTA) (DLTA) (PHI) (PHI) (PI) (PI) (DLTA)
                 (DLTA) (PHI) (PHI) (SG) (PI) (PI) (DLTA) (DLTA)
                 (PHI) (PHI) (SG) (PI) (PI) (DLTA) (DLTA) (PHI)
                 (PHI) (SG) (PI) (PI) (DLTA) (DLTA) (PHI) (PHI)
                 (?A) (?A) (SG) (PI) (PI) (DLTA) (DLTA) (PHI) (PHI)
                 (?A) (?A) (SG) (PI) (PI) (DLTA) (DLTA) (PHI) (PHI)
                 (?A) (?A) (SG) (PI) (PI) (DLTA) (DLTA) (PHI) (PHI)
                 (?A) (?A) (SG) (PI) (PI) (DLTA) (DLTA) (PHI) (PHI)
                 (?A) (?A) (SG) (PI) (PI) (DLTA) (DLTA) (PHI) (PHI)
                 (?A) (?A) (SG) (PI) (PI) (DLTA) (DLTA) (PHI) (PHI)
                 (?A) (?A) (?B) (?B) (SG) (PI) (PI) (DLTA) (DLTA)
                 (PHI) (PHI) (?A) (?A) (?B) (?B) (SG) (PI) (PI)
                 (DLTA) (DLTA) (PHI) (PHI) (?A) (?A) (?B) (?B)
                 (SG) (PI) (PI) (DLTA) (DLTA) (PHI) (PHI) (?A)
                 (?A) (?B) (?B) (SG) (PI) (PI) (DLTA) (DLTA) (PHI)
                 (PHI) (?A) (?A) (?B) (?B) (SG) (PI) (PI) (DLTA)
                 (DLTA) (PHI) (PHI) (?A) (?A) (?B) (?B) (SG) (SG)
                 (SG) (PI) (PI) (DLTA) (DLTA) (PHI) (PHI) (?A)
                 (?A) (?B) (?B) (SG) (SG) (SG) (PI) (PI) (DLTA)
                 (DLTA) (PHI) (PHI) (?A) (?A) (?B) (?B) (SG) (SG)
                 (SG) (PI) (PI) (DLTA) (DLTA) (PHI) (PHI) (?A)
                 (?A) (?B) (?B) (SG) (SG) (SG) (PI) (PI) (DLTA)
                 (DLTA) (PHI) (PHI) (?A) (?A) (?B) (?B) (SG) (SG)
                 (?C) (?C) (SG) (PI) (PI) (DLTA) (DLTA) (PHI) (PHI)
                 (?A) (?A) (?B) (?B) (SG) (SG) (?C) (?C) (SG) (PI)
                 (PI) (DLTA) (DLTA) (PHI) (PHI) (?A) (?A) (?B)
                 (?B) (SG) (SG) (?C) (?C) (SG) (PI) (PI) (DLTA)
                 (DLTA) (PHI) (PHI) (?A) (?A) (?B) (?B) (SG) (SG)
                 (?C) (?C) (?D) (?D) (SG) (SG) (PI) (PI) (SG) (PI)
                 (PI) (SG) (SG) (SG) (SG) (PI) (PI) (SG) (PI) (PI)
                 (SG) (PI) (PI) (SG) (PI) (PI) (DLTA) (DLTA) (SG)
                 (PI) (PI) (DLTA) (DLTA) (SG) (PI) (PI) (DLTA)
                 (DLTA) (PI) (PI) (DLTA) (DLTA) (SG) (DLTA) (DLTA)
                 (DLTA) (DLTA) (DLTA) (DLTA) (SG) (PI) (PI) (DLTA)
                 (DLTA) (PHI) (PHI) (SG) (PI) (PI) (DLTA) (DLTA)
                 (PHI) (PHI) (SG) (PI) (PI) (DLTA) (DLTA) (PHI)
                 (PHI) (PI) (PI) (DLTA) (DLTA) (PHI) (PHI) (PI)
                 (PI) (DLTA) (DLTA) (PHI) (PHI) (PI) (PI) (PHI)
                 (PHI) (SG) (PI) (PI) (DLTA) (DLTA) (PHI) (PHI)
                 (?A) (?A) (SG) (PI) (PI) (DLTA) (DLTA) (PHI) (PHI)
                 (?A) (?A) (SG) (PI) (PI) (DLTA) (DLTA) (PHI) (PHI)
                 (?A) (?A) (DLTA) (DLTA) (PHI) (PHI) (?A) (?A)
                 (PHI) (PHI) (?A) (?A) (SG) (PI) (PI) (DLTA) (DLTA)
                 (PHI) (PHI) (?A) (?A) (?B) (?B) (SG) (PI) (PI)
                 (DLTA) (DLTA) (PHI) (PHI) (?A) (?A) (?B) (?B)
                 (PHI) (PHI) (?A) (?A) (?B) (?B) (?A) (?A) (?B)
                 (?B) (PI) (PI) (DLTA) (DLTA) (PHI) (PHI) (?A)
                 (?A) (?B) (?B) (SG) (SG) (DLTA) (DLTA) (PHI) (PHI)
                 (?A) (?A) (?B) (?B) (SG) (SG) (?A) (?A) (?B) (?B)
                 (SG) (SG) (PHI) (PHI) (?A) (?A) (?B) (?B) (SG)
                 (SG) (?C) (?C)
 Requested convergence on RMS density matrix=1.00D-10 within 128 cycles.
 Requested convergence on MAX density matrix=1.00D-08.
 Requested convergence on             energy=1.00D-08.
 No special actions if energy rises.
 EnCoef did     3 forward-backward iterations
 Restarting incremental Fock formation.
 SCF Done:  E(ROHF) =  -1224.63756704     A.U. after   33 cycles
             Convg  =    0.4580D-10             -V/T =  2.0000
 <Sx>= 0.0000 <Sy>= 0.0000 <Sz>= 2.0000 <S**2>= 6.0000 S= 2.0000
 <L.S>= 0.000000000000E+00
 Annihilation of the first spin contaminant:
 S**2 before annihilation     6.0000,   after     6.0000
 DiagDN has N=   616 LTot=  1880 but NE2=     3 cannot use DSYEVD.
 GenMOA:  NOpAll=  4 NOp2=4 NOpUse=  4 JSym2X=1
 <Sx>= 0.0000 <Sy>= 0.0000 <Sz>= 2.0000 <S**2>= 6.0000 S= 2.0000
 ExpMin= 5.01D-03 ExpMax= 2.59D+07 ExpMxC= 5.45D+03 IAcc=3 IRadAn=         5 AccDes= 0.00D+00
 HarFok:  IExCor=  205 AccDes= 0.00D+00 IRadAn=         5 IDoV=-2
 ScaDFX=  1.000000  1.000000  1.000000  1.000000
 Range of M.O.s used for correlation:    11   616
 NBasis=   616 NAE=    19 NBE=    15 NFC=    10 NFV=     0
 NROrb=    606 NOA=     9 NOB=     5 NVA=   597 NVB=   601

 **** Warning!!: The largest alpha MO coefficient is  0.23217559D+03


 **** Warning!!: The largest beta MO coefficient is  0.23217532D+03

 Singles contribution to E2=   -0.4950421953D-02
 Disk-based method using OVN memory for  9 occupieds at a time.
 Permanent disk used for amplitudes and <ij||ab> integrals=    48706962 words.
 Estimated scratch disk usage=  9037329335 words.
 IUseRI=2 ITolRI= 6 IR12RI=0
 Actual    scratch disk usage=  8977174907 words.
 GetIJB would need an additional  5030296960 words of memory to use all  16 processors.
 JobTyp=2 Pass  1:  I=   1 to   9 NPSUse= 10 ParTrn=T ParDer=T DoDerP=F.
 T,EIJ(AA): I=   1 J=   2      0.1391996E-03     -0.7546666E-03
 T,EIJ(AA): I=   1 J=   3      0.1391996E-03     -0.7546666E-03
 T,EIJ(AA): I=   1 J=   4      0.6579370E-04     -0.3686672E-03
 T,EIJ(AA): I=   1 J=   5      0.6579370E-04     -0.3686672E-03
 T,EIJ(AA): I=   1 J=   6      0.8561726E-03     -0.3513522E-02
 T,EIJ(AA): I=   1 J=   7      0.7552228E-03     -0.3316641E-02
 T,EIJ(AA): I=   1 J=   8      0.7552228E-03     -0.3316641E-02
 T,EIJ(AA): I=   1 J=   9      0.9193182E-04     -0.2904092E-03
 T,EIJ(AA): I=   2 J=   3      0.9393784E-03     -0.6273141E-02
 T,EIJ(AA): I=   2 J=   4      0.1029353E-02     -0.6813342E-02
 T,EIJ(AA): I=   2 J=   5      0.1029353E-02     -0.6813342E-02
 T,EIJ(AA): I=   2 J=   6      0.1167853E-02     -0.4378076E-02
 T,EIJ(AA): I=   2 J=   7      0.1256261E-03     -0.4838170E-03
 T,EIJ(AA): I=   2 J=   8      0.2818105E-03     -0.1240324E-02
 T,EIJ(AA): I=   2 J=   9      0.9573345E-03     -0.2887795E-02
 T,EIJ(AA): I=   3 J=   4      0.1029353E-02     -0.6813342E-02
 T,EIJ(AA): I=   3 J=   5      0.1029353E-02     -0.6813342E-02
 T,EIJ(AA): I=   3 J=   6      0.1167853E-02     -0.4378076E-02
 T,EIJ(AA): I=   3 J=   7      0.2818105E-03     -0.1240324E-02
 T,EIJ(AA): I=   3 J=   8      0.1256261E-03     -0.4838170E-03
 T,EIJ(AA): I=   3 J=   9      0.9573345E-03     -0.2887795E-02
 T,EIJ(AA): I=   4 J=   5      0.1679818E-02     -0.1151679E-01
 T,EIJ(AA): I=   4 J=   6      0.9065451E-03     -0.3039711E-02
 T,EIJ(AA): I=   4 J=   7      0.1829938E-03     -0.8890826E-03
 T,EIJ(AA): I=   4 J=   8      0.1829938E-03     -0.8890826E-03
 T,EIJ(AA): I=   4 J=   9      0.1065537E-02     -0.3003960E-02
 T,EIJ(AA): I=   5 J=   6      0.9065451E-03     -0.3039711E-02
 T,EIJ(AA): I=   5 J=   7      0.1829938E-03     -0.8890826E-03
 T,EIJ(AA): I=   5 J=   8      0.1829938E-03     -0.8890826E-03
 T,EIJ(AA): I=   5 J=   9      0.1065537E-02     -0.3003960E-02
 T,EIJ(AA): I=   6 J=   7      0.4093094E-02     -0.1055575E-01
 T,EIJ(AA): I=   6 J=   8      0.4093094E-02     -0.1055575E-01
 T,EIJ(AA): I=   6 J=   9      0.1268868E-02     -0.1999478E-02
 T,EIJ(AA): I=   7 J=   8      0.3498227E-02     -0.9594681E-02
 T,EIJ(AA): I=   7 J=   9      0.8768952E-03     -0.1264751E-02
 T,EIJ(AA): I=   8 J=   9      0.8768952E-03     -0.1264751E-02
 T,EIJ(AB): I=   1 J=   1      0.2010190E-02     -0.1294217E-01
 T,EIJ(AB): I=   1 J=   2      0.2302220E-02     -0.1150687E-01
 T,EIJ(AB): I=   1 J=   3      0.2288284E-02     -0.1178104E-01
 T,EIJ(AB): I=   1 J=   4      0.2288284E-02     -0.1178104E-01
 T,EIJ(AB): I=   1 J=   5      0.1185371E-03     -0.3891970E-03
 T,EIJ(AB): I=   2 J=   1      0.2273132E-03     -0.1381584E-02
 T,EIJ(AB): I=   2 J=   2      0.1242450E-02     -0.4899699E-02
 T,EIJ(AB): I=   2 J=   3      0.7775319E-03     -0.2931047E-02
 T,EIJ(AB): I=   2 J=   4      0.4718086E-03     -0.1687931E-02
 T,EIJ(AB): I=   2 J=   5      0.1434645E-02     -0.4165122E-02
 T,EIJ(AB): I=   3 J=   1      0.2273132E-03     -0.1381584E-02
 T,EIJ(AB): I=   3 J=   2      0.1242450E-02     -0.4899699E-02
 T,EIJ(AB): I=   3 J=   3      0.4718086E-03     -0.1687931E-02
 T,EIJ(AB): I=   3 J=   4      0.7775319E-03     -0.2931047E-02
 T,EIJ(AB): I=   3 J=   5      0.1434645E-02     -0.4165122E-02
 T,EIJ(AB): I=   4 J=   1      0.9283930E-04     -0.5675022E-03
 T,EIJ(AB): I=   4 J=   2      0.1150573E-02     -0.4252681E-02
 T,EIJ(AB): I=   4 J=   3      0.3487798E-03     -0.1195120E-02
 T,EIJ(AB): I=   4 J=   4      0.3487798E-03     -0.1195120E-02
 T,EIJ(AB): I=   4 J=   5      0.1676701E-02     -0.4576152E-02
 T,EIJ(AB): I=   5 J=   1      0.9283930E-04     -0.5675022E-03
 T,EIJ(AB): I=   5 J=   2      0.1150573E-02     -0.4252681E-02
 T,EIJ(AB): I=   5 J=   3      0.3487798E-03     -0.1195120E-02
 T,EIJ(AB): I=   5 J=   4      0.3487798E-03     -0.1195120E-02
 T,EIJ(AB): I=   5 J=   5      0.1676701E-02     -0.4576152E-02
 T,EIJ(AB): I=   6 J=   1      0.2302289E-02     -0.1152239E-01
 T,EIJ(AB): I=   6 J=   2      0.1708056E-01     -0.3673550E-01
 T,EIJ(AB): I=   6 J=   3      0.6848113E-02     -0.1618691E-01
 T,EIJ(AB): I=   6 J=   4      0.6848113E-02     -0.1618691E-01
 T,EIJ(AB): I=   6 J=   5      0.2759630E-02     -0.4027981E-02
 T,EIJ(AB): I=   7 J=   1      0.2164535E-02     -0.1143694E-01
 T,EIJ(AB): I=   7 J=   2      0.4849212E-02     -0.1366026E-01
 T,EIJ(AB): I=   7 J=   3      0.8189077E-02     -0.2520187E-01
 T,EIJ(AB): I=   7 J=   4      0.4866192E-02     -0.1381927E-01
 T,EIJ(AB): I=   7 J=   5      0.1050998E-02     -0.1633014E-02
 T,EIJ(AB): I=   8 J=   1      0.2164535E-02     -0.1143694E-01
 T,EIJ(AB): I=   8 J=   2      0.4849212E-02     -0.1366026E-01
 T,EIJ(AB): I=   8 J=   3      0.4866192E-02     -0.1381927E-01
 T,EIJ(AB): I=   8 J=   4      0.8189077E-02     -0.2520187E-01
 T,EIJ(AB): I=   8 J=   5      0.1050998E-02     -0.1633014E-02
 T,EIJ(AB): I=   9 J=   1      0.1323363E-03     -0.4636205E-03
 T,EIJ(AB): I=   9 J=   2      0.2291037E-02     -0.3607840E-02
 T,EIJ(AB): I=   9 J=   3      0.1330663E-02     -0.1966410E-02
 T,EIJ(AB): I=   9 J=   4      0.1330663E-02     -0.1966410E-02
 T,EIJ(AB): I=   9 J=   5      0.2649149E-01     -0.2219560E-01
 Actual    scratch disk usage=  9037323191 words.
 GetIJB would need an additional  5030234320 words of memory to use all  16 processors.
 JobTyp=3 Pass  1:  I=   1 to   5 NPSUse= 10 ParTrn=T ParDer=T DoDerP=F.
 T,EIJ(BB): I=   1 J=   2      0.8803520E-03     -0.3634249E-02
 T,EIJ(BB): I=   1 J=   3      0.8651810E-03     -0.3647115E-02
 T,EIJ(BB): I=   1 J=   4      0.8651810E-03     -0.3647115E-02
 T,EIJ(BB): I=   1 J=   5      0.8604330E-04     -0.2773312E-03
 T,EIJ(BB): I=   2 J=   3      0.5583316E-02     -0.1261877E-01
 T,EIJ(BB): I=   2 J=   4      0.5583316E-02     -0.1261877E-01
 T,EIJ(BB): I=   2 J=   5      0.1189541E-02     -0.1972780E-02
 T,EIJ(BB): I=   3 J=   4      0.4372013E-02     -0.1111263E-01
 T,EIJ(BB): I=   3 J=   5      0.1161561E-02     -0.1596680E-02
 T,EIJ(BB): I=   4 J=   5      0.1161561E-02     -0.1596680E-02
 Spin components of T(2) and E(2):
     alpha-alpha T2 =       0.3405360444D-01 E2=     -0.1265860452D+00
     alpha-beta  T2 =       0.1342052785D+00 E2=     -0.3484665354D+00
     beta-beta   T2 =       0.2174806568D-01 E2=     -0.5272211861D-01
 ANorm=    0.1094792220D+01
 E2 =    -0.5327251212D+00 EUMP2 =    -0.12251702921586D+04

 Complete Basis Set (CBS) Extrapolation:
 M. R. Nyden and G. A. Petersson, JCP 75, 1843 (1981)
 G. A. Petersson and M. A. Al-Laham, JCP 94, 6081 (1991)
 G. A. Petersson, T. Tensfeldt, and J. A. Montgomery, JCP 94, 6091 (1991)
 J. A. Montgomery, J. W. Ochterski, and G. A. Petersson, JCP 101, 5900 (1994)
 
 Minimum Number of PNO for Extrapolation =  25
 Absolute Overlaps: IRadAn =         5
 LocTrn: ILocal=3 LocCor=F DoCore=F.
 Entering OneElI...
 Overlap between basis sets.
 Requested accuracy = 0.1000D-12
 PrsmSu:  NPrtUS=   1 ThrOK=F IAlg=1
 PRISM was handed  8588073556 working-precision words and    47 shell-pairs
 IPart=  0 NShTot=          47 NBatch=          11 AvBLen=         4.3
 CnvPC2: ToCart=F DoDens=F IPureD=0 IPureF=0.
 Transformed matrix in CnvPC2: 
                 1             2             3             4             5 
      1   0.100000D+01  0.383382D+00  0.000000D+00  0.000000D+00  0.000000D+00
      2   0.383382D+00  0.100000D+01  0.000000D+00  0.000000D+00  0.000000D+00
      3   0.000000D+00  0.000000D+00  0.100000D+01  0.000000D+00  0.000000D+00
      4   0.000000D+00  0.000000D+00  0.000000D+00  0.100000D+01  0.000000D+00
      5   0.000000D+00  0.000000D+00  0.000000D+00  0.000000D+00  0.100000D+01
      6   0.246887D-01  0.314681D+00  0.000000D+00  0.000000D+00  0.000000D+00
      7   0.000000D+00  0.000000D+00  0.327626D+00  0.000000D+00  0.000000D+00
      8   0.000000D+00  0.000000D+00  0.000000D+00  0.327626D+00  0.000000D+00
      9   0.000000D+00  0.000000D+00  0.000000D+00  0.000000D+00  0.327626D+00
     10   0.000000D+00  0.000000D+00  0.000000D+00  0.000000D+00  0.000000D+00
     11   0.000000D+00  0.000000D+00  0.000000D+00  0.000000D+00  0.000000D+00
     12   0.000000D+00  0.000000D+00  0.000000D+00  0.000000D+00  0.000000D+00
     13   0.000000D+00  0.000000D+00  0.000000D+00  0.000000D+00  0.000000D+00
     14   0.000000D+00  0.000000D+00  0.000000D+00  0.000000D+00  0.000000D+00
     15  -0.389891D-03  0.660268D-02  0.000000D+00  0.000000D+00  0.000000D+00
     16   0.000000D+00  0.000000D+00  0.156230D-01  0.000000D+00  0.000000D+00
     17   0.000000D+00  0.000000D+00  0.000000D+00  0.156230D-01  0.000000D+00
     18   0.000000D+00  0.000000D+00  0.000000D+00  0.000000D+00  0.156230D-01
     19   0.000000D+00  0.000000D+00  0.000000D+00  0.000000D+00  0.000000D+00
     20   0.671213D-03  0.472447D-02  0.000000D+00  0.000000D+00 -0.247298D-02
     21   0.000000D+00  0.000000D+00  0.719592D-03  0.000000D+00  0.000000D+00
     22   0.000000D+00  0.000000D+00  0.000000D+00  0.719592D-03  0.000000D+00
     23   0.144695D-02  0.983540D-02  0.000000D+00  0.000000D+00 -0.449761D-02
                 6             7             8             9            10 
      1   0.246887D-01  0.000000D+00  0.000000D+00  0.000000D+00  0.000000D+00
      2   0.314681D+00  0.000000D+00  0.000000D+00  0.000000D+00  0.000000D+00
      3   0.000000D+00  0.327626D+00  0.000000D+00  0.000000D+00  0.000000D+00
      4   0.000000D+00  0.000000D+00  0.327626D+00  0.000000D+00  0.000000D+00
      5   0.000000D+00  0.000000D+00  0.000000D+00  0.327626D+00  0.000000D+00
      6   0.100000D+01  0.000000D+00  0.000000D+00  0.000000D+00  0.000000D+00
      7   0.000000D+00  0.100000D+01  0.000000D+00  0.000000D+00  0.000000D+00
      8   0.000000D+00  0.000000D+00  0.100000D+01  0.000000D+00  0.000000D+00
      9   0.000000D+00  0.000000D+00  0.000000D+00  0.100000D+01  0.000000D+00
     10   0.000000D+00  0.000000D+00  0.000000D+00  0.000000D+00  0.100000D+01
     11   0.000000D+00  0.000000D+00  0.000000D+00  0.000000D+00  0.000000D+00
     12   0.000000D+00  0.000000D+00  0.000000D+00  0.000000D+00  0.000000D+00
     13   0.000000D+00  0.000000D+00  0.000000D+00  0.000000D+00  0.000000D+00
     14   0.000000D+00  0.000000D+00  0.000000D+00  0.000000D+00  0.000000D+00
     15   0.255042D+00  0.000000D+00  0.000000D+00  0.000000D+00  0.000000D+00
     16   0.000000D+00  0.270441D+00  0.000000D+00  0.000000D+00  0.000000D+00
     17   0.000000D+00  0.000000D+00  0.270441D+00  0.000000D+00  0.000000D+00
     18   0.000000D+00  0.000000D+00  0.000000D+00  0.270441D+00  0.000000D+00
     19   0.115039D-03  0.000000D+00  0.000000D+00 -0.324147D-03  0.318486D-02
     20   0.454589D-01  0.000000D+00  0.000000D+00 -0.551618D-01  0.708935D-01
     21   0.000000D+00  0.167967D-01  0.000000D+00  0.000000D+00  0.000000D+00
     22   0.000000D+00  0.000000D+00  0.167967D-01  0.000000D+00  0.000000D+00
     23   0.772978D-01  0.000000D+00  0.000000D+00 -0.864548D-01  0.964435D-01
                11            12            13            14            15 
      1   0.000000D+00  0.000000D+00  0.000000D+00  0.000000D+00 -0.389891D-03
      2   0.000000D+00  0.000000D+00  0.000000D+00  0.000000D+00  0.660268D-02
      3   0.000000D+00  0.000000D+00  0.000000D+00  0.000000D+00  0.000000D+00
      4   0.000000D+00  0.000000D+00  0.000000D+00  0.000000D+00  0.000000D+00
      5   0.000000D+00  0.000000D+00  0.000000D+00  0.000000D+00  0.000000D+00
      6   0.000000D+00  0.000000D+00  0.000000D+00  0.000000D+00  0.255042D+00
      7   0.000000D+00  0.000000D+00  0.000000D+00  0.000000D+00  0.000000D+00
      8   0.000000D+00  0.000000D+00  0.000000D+00  0.000000D+00  0.000000D+00
      9   0.000000D+00  0.000000D+00  0.000000D+00  0.000000D+00  0.000000D+00
     10   0.000000D+00  0.000000D+00  0.000000D+00  0.000000D+00  0.000000D+00
     11   0.100000D+01  0.000000D+00  0.000000D+00  0.000000D+00  0.000000D+00
     12   0.000000D+00  0.100000D+01  0.000000D+00  0.000000D+00  0.000000D+00
     13   0.000000D+00  0.000000D+00  0.100000D+01  0.000000D+00  0.000000D+00
     14   0.000000D+00  0.000000D+00  0.000000D+00  0.100000D+01  0.000000D+00
     15   0.000000D+00  0.000000D+00  0.000000D+00  0.000000D+00  0.100000D+01
     16   0.000000D+00  0.000000D+00  0.000000D+00  0.000000D+00  0.000000D+00
     17   0.000000D+00  0.000000D+00  0.000000D+00  0.000000D+00  0.000000D+00
     18   0.000000D+00  0.000000D+00  0.000000D+00  0.000000D+00  0.000000D+00
     19   0.000000D+00  0.000000D+00  0.000000D+00  0.000000D+00  0.340334D-01
     20   0.000000D+00  0.000000D+00  0.000000D+00  0.000000D+00  0.310162D+00
     21  -0.399102D-01  0.000000D+00  0.000000D+00  0.000000D+00  0.000000D+00
     22   0.000000D+00 -0.399102D-01  0.000000D+00  0.000000D+00  0.000000D+00
     23   0.000000D+00  0.000000D+00  0.000000D+00  0.000000D+00  0.162773D+00
                16            17            18            19            20 
      1   0.000000D+00  0.000000D+00  0.000000D+00  0.000000D+00  0.671213D-03
      2   0.000000D+00  0.000000D+00  0.000000D+00  0.000000D+00  0.472447D-02
      3   0.156230D-01  0.000000D+00  0.000000D+00  0.000000D+00  0.000000D+00
      4   0.000000D+00  0.156230D-01  0.000000D+00  0.000000D+00  0.000000D+00
      5   0.000000D+00  0.000000D+00  0.156230D-01  0.000000D+00 -0.247298D-02
      6   0.000000D+00  0.000000D+00  0.000000D+00  0.115039D-03  0.454589D-01
      7   0.270441D+00  0.000000D+00  0.000000D+00  0.000000D+00  0.000000D+00
      8   0.000000D+00  0.270441D+00  0.000000D+00  0.000000D+00  0.000000D+00
      9   0.000000D+00  0.000000D+00  0.270441D+00 -0.324147D-03 -0.551618D-01
     10   0.000000D+00  0.000000D+00  0.000000D+00  0.318486D-02  0.708935D-01
     11   0.000000D+00  0.000000D+00  0.000000D+00  0.000000D+00  0.000000D+00
     12   0.000000D+00  0.000000D+00  0.000000D+00  0.000000D+00  0.000000D+00
     13   0.000000D+00  0.000000D+00  0.000000D+00  0.000000D+00  0.000000D+00
     14   0.000000D+00  0.000000D+00  0.000000D+00  0.000000D+00  0.000000D+00
     15   0.000000D+00  0.000000D+00  0.000000D+00  0.340334D-01  0.310162D+00
     16   0.100000D+01  0.000000D+00  0.000000D+00  0.000000D+00  0.000000D+00
     17   0.000000D+00  0.100000D+01  0.000000D+00  0.000000D+00  0.000000D+00
     18   0.000000D+00  0.000000D+00  0.100000D+01 -0.588716D-01 -0.464151D+00
     19   0.000000D+00  0.000000D+00 -0.588716D-01  0.100000D+01  0.236704D+00
     20   0.000000D+00  0.000000D+00 -0.464151D+00  0.236704D+00  0.100000D+01
     21   0.158589D+00  0.000000D+00  0.000000D+00  0.000000D+00  0.000000D+00
     22   0.000000D+00  0.158589D+00  0.000000D+00  0.000000D+00  0.000000D+00
     23   0.000000D+00  0.000000D+00 -0.215043D+00  0.000000D+00  0.000000D+00
                21            22            23 
      1   0.000000D+00  0.000000D+00  0.144695D-02
      2   0.000000D+00  0.000000D+00  0.983540D-02
      3   0.719592D-03  0.000000D+00  0.000000D+00
      4   0.000000D+00  0.719592D-03  0.000000D+00
      5   0.000000D+00  0.000000D+00 -0.449761D-02
      6   0.000000D+00  0.000000D+00  0.772978D-01
      7   0.167967D-01  0.000000D+00  0.000000D+00
      8   0.000000D+00  0.167967D-01  0.000000D+00
      9   0.000000D+00  0.000000D+00 -0.864548D-01
     10   0.000000D+00  0.000000D+00  0.964435D-01
     11  -0.399102D-01  0.000000D+00  0.000000D+00
     12   0.000000D+00 -0.399102D-01  0.000000D+00
     13   0.000000D+00  0.000000D+00  0.000000D+00
     14   0.000000D+00  0.000000D+00  0.000000D+00
     15   0.000000D+00  0.000000D+00  0.162773D+00
     16   0.158589D+00  0.000000D+00  0.000000D+00
     17   0.000000D+00  0.158589D+00  0.000000D+00
     18   0.000000D+00  0.000000D+00 -0.215043D+00
     19   0.000000D+00  0.000000D+00  0.000000D+00
     20   0.000000D+00  0.000000D+00  0.000000D+00
     21   0.100000D+01  0.000000D+00  0.000000D+00
     22   0.000000D+00  0.100000D+01  0.000000D+00
     23   0.000000D+00  0.000000D+00  0.100000D+01
 Entering OneElI...
 Overlap between basis sets.
 Requested accuracy = 0.1000D-12
 PrsmSu:  NPrtUS=   1 ThrOK=F IAlg=1
 PRISM was handed  8586744291 working-precision words and   710 shell-pairs
 IPart=  0 NShTot=         710 NBatch=          91 AvBLen=         7.8
 CnvPC2: ToCart=F DoDens=F IPureD=0 IPureF=0.
 Transformed matrix in CnvPC2: 
                 1             2             3             4             5 
      1   0.999778D+00  0.393836D+00  0.000000D+00  0.000000D+00  0.000000D+00
      2   0.278094D+00  0.990222D+00  0.000000D+00  0.000000D+00  0.000000D+00
      3   0.000000D+00  0.000000D+00  0.999030D+00  0.000000D+00  0.000000D+00
      4   0.000000D+00  0.000000D+00  0.000000D+00  0.999030D+00  0.000000D+00
      5   0.000000D+00  0.000000D+00  0.000000D+00  0.000000D+00  0.999030D+00
      6   0.108385D-01  0.308485D+00  0.000000D+00  0.000000D+00  0.000000D+00
      7   0.000000D+00  0.000000D+00  0.315555D+00  0.000000D+00  0.000000D+00
      8   0.000000D+00  0.000000D+00  0.000000D+00  0.315555D+00  0.000000D+00
      9   0.000000D+00  0.000000D+00  0.000000D+00  0.000000D+00  0.315555D+00
     10   0.000000D+00  0.000000D+00  0.000000D+00  0.000000D+00  0.000000D+00
     11   0.000000D+00  0.000000D+00  0.000000D+00  0.000000D+00  0.000000D+00
     12   0.000000D+00  0.000000D+00  0.000000D+00  0.000000D+00  0.000000D+00
     13   0.000000D+00  0.000000D+00  0.000000D+00  0.000000D+00  0.000000D+00
     14   0.000000D+00  0.000000D+00  0.000000D+00  0.000000D+00  0.000000D+00
     15   0.000000D+00  0.000000D+00  0.000000D+00  0.000000D+00  0.000000D+00
     16   0.000000D+00  0.000000D+00  0.000000D+00  0.000000D+00  0.000000D+00
     17   0.000000D+00  0.000000D+00  0.000000D+00  0.000000D+00  0.000000D+00
     18   0.000000D+00  0.000000D+00  0.000000D+00  0.000000D+00  0.000000D+00
     19   0.000000D+00  0.000000D+00  0.000000D+00  0.000000D+00  0.000000D+00
     20   0.000000D+00  0.000000D+00  0.000000D+00  0.000000D+00  0.000000D+00
     21   0.000000D+00  0.000000D+00  0.000000D+00  0.000000D+00  0.000000D+00
     22   0.000000D+00  0.000000D+00  0.000000D+00  0.000000D+00  0.000000D+00
     23   0.000000D+00  0.000000D+00  0.000000D+00  0.000000D+00  0.000000D+00
     24   0.000000D+00  0.000000D+00  0.000000D+00  0.000000D+00  0.000000D+00
     25   0.677390D-04  0.878770D-02  0.000000D+00  0.000000D+00  0.000000D+00
     26   0.730406D-02  0.470480D-01  0.000000D+00  0.000000D+00  0.000000D+00
     27   0.350806D-02  0.226845D-01  0.000000D+00  0.000000D+00  0.000000D+00
     28   0.152276D-02  0.986228D-02  0.000000D+00  0.000000D+00  0.000000D+00
     29   0.000000D+00  0.000000D+00 -0.453942D-02  0.000000D+00  0.000000D+00
     30   0.000000D+00  0.000000D+00  0.000000D+00 -0.453942D-02  0.000000D+00
     31   0.000000D+00  0.000000D+00  0.000000D+00  0.000000D+00 -0.453942D-02
     32   0.000000D+00  0.000000D+00  0.109103D-01  0.000000D+00  0.000000D+00
     33   0.000000D+00  0.000000D+00  0.000000D+00  0.109103D-01  0.000000D+00
     34   0.000000D+00  0.000000D+00  0.000000D+00  0.000000D+00  0.109103D-01
     35   0.000000D+00  0.000000D+00  0.369814D-02  0.000000D+00  0.000000D+00
     36   0.000000D+00  0.000000D+00  0.000000D+00  0.369814D-02  0.000000D+00
     37   0.000000D+00  0.000000D+00  0.000000D+00  0.000000D+00  0.369814D-02
     38   0.259271D+00  0.925253D+00  0.000000D+00  0.000000D+00  0.000000D+00
     39   0.163685D+00  0.747427D+00  0.000000D+00  0.000000D+00  0.000000D+00
     40   0.101339D+00  0.540616D+00  0.000000D+00  0.000000D+00  0.000000D+00
     41   0.620830D-01  0.362482D+00  0.000000D+00  0.000000D+00  0.000000D+00
     42   0.378235D-01  0.232067D+00  0.000000D+00  0.000000D+00  0.000000D+00
     43   0.229775D-01  0.144748D+00  0.000000D+00  0.000000D+00  0.000000D+00
     44   0.000000D+00  0.000000D+00  0.436817D+00  0.000000D+00  0.000000D+00
     45   0.000000D+00  0.000000D+00  0.000000D+00  0.436817D+00  0.000000D+00
     46   0.000000D+00  0.000000D+00  0.000000D+00  0.000000D+00  0.436817D+00
     47   0.000000D+00  0.000000D+00  0.267749D+00  0.000000D+00  0.000000D+00
     48   0.000000D+00  0.000000D+00  0.000000D+00  0.267749D+00  0.000000D+00
     49   0.000000D+00  0.000000D+00  0.000000D+00  0.000000D+00  0.267749D+00
     50   0.000000D+00  0.000000D+00  0.151864D+00  0.000000D+00  0.000000D+00
     51   0.000000D+00  0.000000D+00  0.000000D+00  0.151864D+00  0.000000D+00
     52   0.000000D+00  0.000000D+00  0.000000D+00  0.000000D+00  0.151864D+00
     53   0.000000D+00  0.000000D+00  0.817021D-01  0.000000D+00  0.000000D+00
     54   0.000000D+00  0.000000D+00  0.000000D+00  0.817021D-01  0.000000D+00
     55   0.000000D+00  0.000000D+00  0.000000D+00  0.000000D+00  0.817021D-01
     56   0.000000D+00  0.000000D+00  0.425040D-01  0.000000D+00  0.000000D+00
     57   0.000000D+00  0.000000D+00  0.000000D+00  0.425040D-01  0.000000D+00
     58   0.000000D+00  0.000000D+00  0.000000D+00  0.000000D+00  0.425040D-01
     59   0.000000D+00  0.000000D+00  0.216649D-01  0.000000D+00  0.000000D+00
     60   0.000000D+00  0.000000D+00  0.000000D+00  0.216649D-01  0.000000D+00
     61   0.000000D+00  0.000000D+00  0.000000D+00  0.000000D+00  0.216649D-01
     62   0.000000D+00  0.000000D+00  0.000000D+00  0.000000D+00  0.000000D+00
     63   0.000000D+00  0.000000D+00  0.000000D+00  0.000000D+00  0.000000D+00
     64   0.000000D+00  0.000000D+00  0.000000D+00  0.000000D+00  0.000000D+00
     65   0.000000D+00  0.000000D+00  0.000000D+00  0.000000D+00  0.000000D+00
     66   0.000000D+00  0.000000D+00  0.000000D+00  0.000000D+00  0.000000D+00
     67   0.000000D+00  0.000000D+00  0.000000D+00  0.000000D+00  0.000000D+00
     68   0.000000D+00  0.000000D+00  0.000000D+00  0.000000D+00  0.000000D+00
     69   0.000000D+00  0.000000D+00  0.000000D+00  0.000000D+00  0.000000D+00
     70   0.000000D+00  0.000000D+00  0.000000D+00  0.000000D+00  0.000000D+00
     71   0.000000D+00  0.000000D+00  0.000000D+00  0.000000D+00  0.000000D+00
     72   0.000000D+00  0.000000D+00  0.000000D+00  0.000000D+00  0.000000D+00
     73   0.000000D+00  0.000000D+00  0.000000D+00  0.000000D+00  0.000000D+00
     74   0.000000D+00  0.000000D+00  0.000000D+00  0.000000D+00  0.000000D+00
     75   0.000000D+00  0.000000D+00  0.000000D+00  0.000000D+00  0.000000D+00
     76   0.000000D+00  0.000000D+00  0.000000D+00  0.000000D+00  0.000000D+00
     77   0.000000D+00  0.000000D+00  0.000000D+00  0.000000D+00  0.000000D+00
     78   0.000000D+00  0.000000D+00  0.000000D+00  0.000000D+00  0.000000D+00
     79   0.000000D+00  0.000000D+00  0.000000D+00  0.000000D+00  0.000000D+00
     80   0.000000D+00  0.000000D+00  0.000000D+00  0.000000D+00  0.000000D+00
     81   0.000000D+00  0.000000D+00  0.000000D+00  0.000000D+00  0.000000D+00
     82   0.000000D+00  0.000000D+00  0.000000D+00  0.000000D+00  0.000000D+00
     83   0.000000D+00  0.000000D+00  0.000000D+00  0.000000D+00  0.000000D+00
     84   0.000000D+00  0.000000D+00  0.000000D+00  0.000000D+00  0.000000D+00
     85   0.000000D+00  0.000000D+00  0.000000D+00  0.000000D+00  0.000000D+00
     86   0.000000D+00  0.000000D+00  0.000000D+00  0.000000D+00  0.000000D+00
     87   0.000000D+00  0.000000D+00  0.000000D+00  0.000000D+00  0.000000D+00
     88   0.000000D+00  0.000000D+00  0.000000D+00  0.000000D+00  0.000000D+00
     89   0.000000D+00  0.000000D+00  0.000000D+00  0.000000D+00  0.000000D+00
     90   0.000000D+00  0.000000D+00  0.000000D+00  0.000000D+00  0.000000D+00
     91   0.000000D+00  0.000000D+00  0.000000D+00  0.000000D+00  0.000000D+00
     92   0.000000D+00  0.000000D+00  0.000000D+00  0.000000D+00  0.000000D+00
     93   0.000000D+00  0.000000D+00  0.000000D+00  0.000000D+00  0.000000D+00
     94   0.000000D+00  0.000000D+00  0.000000D+00  0.000000D+00  0.000000D+00
     95   0.000000D+00  0.000000D+00  0.000000D+00  0.000000D+00  0.000000D+00
     96   0.000000D+00  0.000000D+00  0.000000D+00  0.000000D+00  0.000000D+00
     97   0.000000D+00  0.000000D+00  0.000000D+00  0.000000D+00  0.000000D+00
     98   0.000000D+00  0.000000D+00  0.000000D+00  0.000000D+00  0.000000D+00
     99   0.000000D+00  0.000000D+00  0.000000D+00  0.000000D+00  0.000000D+00
    100   0.000000D+00  0.000000D+00  0.000000D+00  0.000000D+00  0.000000D+00
    101   0.000000D+00  0.000000D+00  0.000000D+00  0.000000D+00  0.000000D+00
    102   0.000000D+00  0.000000D+00  0.000000D+00  0.000000D+00  0.000000D+00
    103   0.000000D+00  0.000000D+00  0.000000D+00  0.000000D+00  0.000000D+00
    104   0.000000D+00  0.000000D+00  0.000000D+00  0.000000D+00  0.000000D+00
    105   0.000000D+00  0.000000D+00  0.000000D+00  0.000000D+00  0.000000D+00
    106   0.000000D+00  0.000000D+00  0.000000D+00  0.000000D+00  0.000000D+00
    107   0.000000D+00  0.000000D+00  0.000000D+00  0.000000D+00  0.000000D+00
    108   0.000000D+00  0.000000D+00  0.000000D+00  0.000000D+00  0.000000D+00
    109   0.000000D+00  0.000000D+00  0.000000D+00  0.000000D+00  0.000000D+00
    110   0.000000D+00  0.000000D+00  0.000000D+00  0.000000D+00  0.000000D+00
    111   0.000000D+00  0.000000D+00  0.000000D+00  0.000000D+00  0.000000D+00
    112   0.000000D+00  0.000000D+00  0.000000D+00  0.000000D+00  0.000000D+00
    113   0.000000D+00  0.000000D+00  0.000000D+00  0.000000D+00  0.000000D+00
    114   0.000000D+00  0.000000D+00  0.000000D+00  0.000000D+00  0.000000D+00
    115   0.000000D+00  0.000000D+00  0.000000D+00  0.000000D+00  0.000000D+00
    116   0.000000D+00  0.000000D+00  0.000000D+00  0.000000D+00  0.000000D+00
    117   0.000000D+00  0.000000D+00  0.000000D+00  0.000000D+00  0.000000D+00
    118   0.000000D+00  0.000000D+00  0.000000D+00  0.000000D+00  0.000000D+00
    119   0.000000D+00  0.000000D+00  0.000000D+00  0.000000D+00  0.000000D+00
    120   0.000000D+00  0.000000D+00  0.000000D+00  0.000000D+00  0.000000D+00
    121   0.000000D+00  0.000000D+00  0.000000D+00  0.000000D+00  0.000000D+00
    122   0.000000D+00  0.000000D+00  0.000000D+00  0.000000D+00  0.000000D+00
    123   0.000000D+00  0.000000D+00  0.000000D+00  0.000000D+00  0.000000D+00
    124   0.000000D+00  0.000000D+00  0.000000D+00  0.000000D+00  0.000000D+00
    125   0.000000D+00  0.000000D+00  0.000000D+00  0.000000D+00  0.000000D+00
    126   0.000000D+00  0.000000D+00  0.000000D+00  0.000000D+00  0.000000D+00
    127   0.000000D+00  0.000000D+00  0.000000D+00  0.000000D+00  0.000000D+00
    128   0.000000D+00  0.000000D+00  0.000000D+00  0.000000D+00  0.000000D+00
    129   0.000000D+00  0.000000D+00  0.000000D+00  0.000000D+00  0.000000D+00
    130   0.000000D+00  0.000000D+00  0.000000D+00  0.000000D+00  0.000000D+00
    131   0.000000D+00  0.000000D+00  0.000000D+00  0.000000D+00  0.000000D+00
    132   0.000000D+00  0.000000D+00  0.000000D+00  0.000000D+00  0.000000D+00
    133   0.000000D+00  0.000000D+00  0.000000D+00  0.000000D+00  0.000000D+00
    134   0.000000D+00  0.000000D+00  0.000000D+00  0.000000D+00  0.000000D+00
    135   0.000000D+00  0.000000D+00  0.000000D+00  0.000000D+00  0.000000D+00
    136   0.000000D+00  0.000000D+00  0.000000D+00  0.000000D+00  0.000000D+00
    137   0.000000D+00  0.000000D+00  0.000000D+00  0.000000D+00  0.000000D+00
    138   0.000000D+00  0.000000D+00  0.000000D+00  0.000000D+00  0.000000D+00
    139   0.000000D+00  0.000000D+00  0.000000D+00  0.000000D+00  0.000000D+00
    140   0.000000D+00  0.000000D+00  0.000000D+00  0.000000D+00  0.000000D+00
    141   0.000000D+00  0.000000D+00  0.000000D+00  0.000000D+00  0.000000D+00
    142   0.000000D+00  0.000000D+00  0.000000D+00  0.000000D+00  0.000000D+00
    143   0.000000D+00  0.000000D+00  0.000000D+00  0.000000D+00  0.000000D+00
    144   0.000000D+00  0.000000D+00  0.000000D+00  0.000000D+00  0.000000D+00
    145   0.000000D+00  0.000000D+00  0.000000D+00  0.000000D+00  0.000000D+00
    146   0.000000D+00  0.000000D+00  0.000000D+00  0.000000D+00  0.000000D+00
    147   0.000000D+00  0.000000D+00  0.000000D+00  0.000000D+00  0.000000D+00
    148   0.000000D+00  0.000000D+00  0.000000D+00  0.000000D+00  0.000000D+00
    149   0.000000D+00  0.000000D+00  0.000000D+00  0.000000D+00  0.000000D+00
    150   0.000000D+00  0.000000D+00  0.000000D+00  0.000000D+00  0.000000D+00
    151   0.000000D+00  0.000000D+00  0.000000D+00  0.000000D+00  0.000000D+00
    152   0.000000D+00  0.000000D+00  0.000000D+00  0.000000D+00  0.000000D+00
    153   0.000000D+00  0.000000D+00  0.000000D+00  0.000000D+00  0.000000D+00
    154   0.000000D+00  0.000000D+00  0.000000D+00  0.000000D+00  0.000000D+00
    155   0.000000D+00  0.000000D+00  0.000000D+00  0.000000D+00  0.000000D+00
    156   0.000000D+00  0.000000D+00  0.000000D+00  0.000000D+00  0.000000D+00
    157   0.000000D+00  0.000000D+00  0.000000D+00  0.000000D+00  0.000000D+00
    158   0.000000D+00  0.000000D+00  0.000000D+00  0.000000D+00  0.000000D+00
    159   0.000000D+00  0.000000D+00  0.000000D+00  0.000000D+00  0.000000D+00
    160   0.000000D+00  0.000000D+00  0.000000D+00  0.000000D+00  0.000000D+00
    161   0.000000D+00  0.000000D+00  0.000000D+00  0.000000D+00  0.000000D+00
    162   0.000000D+00  0.000000D+00  0.000000D+00  0.000000D+00  0.000000D+00
    163   0.000000D+00  0.000000D+00  0.000000D+00  0.000000D+00  0.000000D+00
    164   0.000000D+00  0.000000D+00  0.000000D+00  0.000000D+00  0.000000D+00
    165   0.000000D+00  0.000000D+00  0.000000D+00  0.000000D+00  0.000000D+00
    166   0.000000D+00  0.000000D+00  0.000000D+00  0.000000D+00  0.000000D+00
    167   0.000000D+00  0.000000D+00  0.000000D+00  0.000000D+00  0.000000D+00
    168   0.000000D+00  0.000000D+00  0.000000D+00  0.000000D+00  0.000000D+00
    169   0.000000D+00  0.000000D+00  0.000000D+00  0.000000D+00  0.000000D+00
    170   0.000000D+00  0.000000D+00  0.000000D+00  0.000000D+00  0.000000D+00
    171   0.000000D+00  0.000000D+00  0.000000D+00  0.000000D+00  0.000000D+00
    172   0.000000D+00  0.000000D+00  0.000000D+00  0.000000D+00  0.000000D+00
    173   0.000000D+00  0.000000D+00  0.000000D+00  0.000000D+00  0.000000D+00
    174   0.000000D+00  0.000000D+00  0.000000D+00  0.000000D+00  0.000000D+00
    175   0.000000D+00  0.000000D+00  0.000000D+00  0.000000D+00  0.000000D+00
    176   0.000000D+00  0.000000D+00  0.000000D+00  0.000000D+00  0.000000D+00
    177   0.000000D+00  0.000000D+00  0.000000D+00  0.000000D+00  0.000000D+00
    178   0.000000D+00  0.000000D+00  0.000000D+00  0.000000D+00  0.000000D+00
    179   0.000000D+00  0.000000D+00  0.000000D+00  0.000000D+00  0.000000D+00
    180   0.000000D+00  0.000000D+00  0.000000D+00  0.000000D+00  0.000000D+00
    181   0.000000D+00  0.000000D+00  0.000000D+00  0.000000D+00  0.000000D+00
    182   0.000000D+00  0.000000D+00  0.000000D+00  0.000000D+00  0.000000D+00
    183   0.000000D+00  0.000000D+00  0.000000D+00  0.000000D+00  0.000000D+00
    184   0.000000D+00  0.000000D+00  0.000000D+00  0.000000D+00  0.000000D+00
    185   0.000000D+00  0.000000D+00  0.000000D+00  0.000000D+00  0.000000D+00
    186   0.000000D+00  0.000000D+00  0.000000D+00  0.000000D+00  0.000000D+00
    187   0.000000D+00  0.000000D+00  0.000000D+00  0.000000D+00  0.000000D+00
    188   0.000000D+00  0.000000D+00  0.000000D+00  0.000000D+00  0.000000D+00
    189   0.000000D+00  0.000000D+00  0.000000D+00  0.000000D+00  0.000000D+00
    190   0.000000D+00  0.000000D+00  0.000000D+00  0.000000D+00  0.000000D+00
    191   0.000000D+00  0.000000D+00  0.000000D+00  0.000000D+00  0.000000D+00
    192   0.000000D+00  0.000000D+00  0.000000D+00  0.000000D+00  0.000000D+00
    193   0.000000D+00  0.000000D+00  0.000000D+00  0.000000D+00  0.000000D+00
    194   0.000000D+00  0.000000D+00  0.000000D+00  0.000000D+00  0.000000D+00
    195   0.000000D+00  0.000000D+00  0.000000D+00  0.000000D+00  0.000000D+00
    196   0.000000D+00  0.000000D+00  0.000000D+00  0.000000D+00  0.000000D+00
    197   0.000000D+00  0.000000D+00  0.000000D+00  0.000000D+00  0.000000D+00
    198   0.000000D+00  0.000000D+00  0.000000D+00  0.000000D+00  0.000000D+00
    199   0.000000D+00  0.000000D+00  0.000000D+00  0.000000D+00  0.000000D+00
    200   0.000000D+00  0.000000D+00  0.000000D+00  0.000000D+00  0.000000D+00
    201   0.000000D+00  0.000000D+00  0.000000D+00  0.000000D+00  0.000000D+00
    202   0.000000D+00  0.000000D+00  0.000000D+00  0.000000D+00  0.000000D+00
    203   0.000000D+00  0.000000D+00  0.000000D+00  0.000000D+00  0.000000D+00
    204   0.000000D+00  0.000000D+00  0.000000D+00  0.000000D+00  0.000000D+00
    205   0.000000D+00  0.000000D+00  0.000000D+00  0.000000D+00  0.000000D+00
    206   0.000000D+00  0.000000D+00  0.000000D+00  0.000000D+00  0.000000D+00
    207   0.000000D+00  0.000000D+00  0.000000D+00  0.000000D+00  0.000000D+00
    208   0.000000D+00  0.000000D+00  0.000000D+00  0.000000D+00  0.000000D+00
    209   0.000000D+00  0.000000D+00  0.000000D+00  0.000000D+00  0.000000D+00
    210   0.000000D+00  0.000000D+00  0.000000D+00  0.000000D+00  0.000000D+00
    211   0.000000D+00  0.000000D+00  0.000000D+00  0.000000D+00  0.000000D+00
    212   0.000000D+00  0.000000D+00  0.000000D+00  0.000000D+00  0.000000D+00
    213   0.000000D+00  0.000000D+00  0.000000D+00  0.000000D+00  0.000000D+00
    214   0.000000D+00  0.000000D+00  0.000000D+00  0.000000D+00  0.000000D+00
    215   0.000000D+00  0.000000D+00  0.000000D+00  0.000000D+00  0.000000D+00
    216   0.000000D+00  0.000000D+00  0.000000D+00  0.000000D+00  0.000000D+00
    217   0.000000D+00  0.000000D+00  0.000000D+00  0.000000D+00  0.000000D+00
    218   0.000000D+00  0.000000D+00  0.000000D+00  0.000000D+00  0.000000D+00
    219   0.000000D+00  0.000000D+00  0.000000D+00  0.000000D+00  0.000000D+00
    220   0.000000D+00  0.000000D+00  0.000000D+00  0.000000D+00  0.000000D+00
    221   0.000000D+00  0.000000D+00  0.000000D+00  0.000000D+00  0.000000D+00
    222   0.000000D+00  0.000000D+00  0.000000D+00  0.000000D+00  0.000000D+00
    223   0.000000D+00  0.000000D+00  0.000000D+00  0.000000D+00  0.000000D+00
    224   0.000000D+00  0.000000D+00  0.000000D+00  0.000000D+00  0.000000D+00
    225   0.000000D+00  0.000000D+00  0.000000D+00  0.000000D+00  0.000000D+00
    226   0.000000D+00  0.000000D+00  0.000000D+00  0.000000D+00  0.000000D+00
    227   0.000000D+00  0.000000D+00  0.000000D+00  0.000000D+00  0.000000D+00
    228   0.000000D+00  0.000000D+00  0.000000D+00  0.000000D+00  0.000000D+00
    229   0.000000D+00  0.000000D+00  0.000000D+00  0.000000D+00  0.000000D+00
    230   0.000000D+00  0.000000D+00  0.000000D+00  0.000000D+00  0.000000D+00
    231   0.000000D+00  0.000000D+00  0.000000D+00  0.000000D+00  0.000000D+00
    232   0.000000D+00  0.000000D+00  0.000000D+00  0.000000D+00  0.000000D+00
    233   0.000000D+00  0.000000D+00  0.000000D+00  0.000000D+00  0.000000D+00
    234   0.000000D+00  0.000000D+00  0.000000D+00  0.000000D+00  0.000000D+00
    235   0.000000D+00  0.000000D+00  0.000000D+00  0.000000D+00  0.000000D+00
    236   0.000000D+00  0.000000D+00  0.000000D+00  0.000000D+00  0.000000D+00
    237   0.000000D+00  0.000000D+00  0.000000D+00  0.000000D+00  0.000000D+00
    238   0.000000D+00  0.000000D+00  0.000000D+00  0.000000D+00  0.000000D+00
    239   0.000000D+00  0.000000D+00  0.000000D+00  0.000000D+00  0.000000D+00
    240   0.000000D+00  0.000000D+00  0.000000D+00  0.000000D+00  0.000000D+00
    241   0.000000D+00  0.000000D+00  0.000000D+00  0.000000D+00  0.000000D+00
    242   0.000000D+00  0.000000D+00  0.000000D+00  0.000000D+00  0.000000D+00
    243   0.000000D+00  0.000000D+00  0.000000D+00  0.000000D+00  0.000000D+00
    244   0.000000D+00  0.000000D+00  0.000000D+00  0.000000D+00  0.000000D+00
    245   0.000000D+00  0.000000D+00  0.000000D+00  0.000000D+00  0.000000D+00
    246   0.000000D+00  0.000000D+00  0.000000D+00  0.000000D+00  0.000000D+00
    247   0.000000D+00  0.000000D+00  0.000000D+00  0.000000D+00  0.000000D+00
    248   0.000000D+00  0.000000D+00  0.000000D+00  0.000000D+00  0.000000D+00
    249   0.000000D+00  0.000000D+00  0.000000D+00  0.000000D+00  0.000000D+00
    250   0.000000D+00  0.000000D+00  0.000000D+00  0.000000D+00  0.000000D+00
    251   0.000000D+00  0.000000D+00  0.000000D+00  0.000000D+00  0.000000D+00
    252   0.000000D+00  0.000000D+00  0.000000D+00  0.000000D+00  0.000000D+00
    253   0.000000D+00  0.000000D+00  0.000000D+00  0.000000D+00  0.000000D+00
    254   0.000000D+00  0.000000D+00  0.000000D+00  0.000000D+00  0.000000D+00
    255   0.000000D+00  0.000000D+00  0.000000D+00  0.000000D+00  0.000000D+00
    256   0.000000D+00  0.000000D+00  0.000000D+00  0.000000D+00  0.000000D+00
    257   0.000000D+00  0.000000D+00  0.000000D+00  0.000000D+00  0.000000D+00
    258   0.000000D+00  0.000000D+00  0.000000D+00  0.000000D+00  0.000000D+00
    259   0.000000D+00  0.000000D+00  0.000000D+00  0.000000D+00  0.000000D+00
    260   0.000000D+00  0.000000D+00  0.000000D+00  0.000000D+00  0.000000D+00
    261   0.000000D+00  0.000000D+00  0.000000D+00  0.000000D+00  0.000000D+00
    262   0.000000D+00  0.000000D+00  0.000000D+00  0.000000D+00  0.000000D+00
    263   0.000000D+00  0.000000D+00  0.000000D+00  0.000000D+00  0.000000D+00
    264   0.000000D+00  0.000000D+00  0.000000D+00  0.000000D+00  0.000000D+00
    265   0.000000D+00  0.000000D+00  0.000000D+00  0.000000D+00  0.000000D+00
    266   0.000000D+00  0.000000D+00  0.000000D+00  0.000000D+00  0.000000D+00
    267   0.000000D+00  0.000000D+00  0.000000D+00  0.000000D+00  0.000000D+00
    268   0.000000D+00  0.000000D+00  0.000000D+00  0.000000D+00  0.000000D+00
    269   0.000000D+00  0.000000D+00  0.000000D+00  0.000000D+00  0.000000D+00
    270   0.000000D+00  0.000000D+00  0.000000D+00  0.000000D+00  0.000000D+00
    271   0.000000D+00  0.000000D+00  0.000000D+00  0.000000D+00  0.000000D+00
    272   0.000000D+00  0.000000D+00  0.000000D+00  0.000000D+00  0.000000D+00
    273   0.000000D+00  0.000000D+00  0.000000D+00  0.000000D+00  0.000000D+00
    274   0.000000D+00  0.000000D+00  0.000000D+00  0.000000D+00  0.000000D+00
    275   0.000000D+00  0.000000D+00  0.000000D+00  0.000000D+00  0.000000D+00
    276   0.000000D+00  0.000000D+00  0.000000D+00  0.000000D+00  0.000000D+00
    277   0.000000D+00  0.000000D+00  0.000000D+00  0.000000D+00  0.000000D+00
    278   0.000000D+00  0.000000D+00  0.000000D+00  0.000000D+00  0.000000D+00
    279   0.000000D+00  0.000000D+00  0.000000D+00  0.000000D+00  0.000000D+00
    280   0.000000D+00  0.000000D+00  0.000000D+00  0.000000D+00  0.000000D+00
    281   0.000000D+00  0.000000D+00  0.000000D+00  0.000000D+00  0.000000D+00
    282   0.000000D+00  0.000000D+00  0.000000D+00  0.000000D+00  0.000000D+00
    283   0.000000D+00  0.000000D+00  0.000000D+00  0.000000D+00  0.000000D+00
    284   0.000000D+00  0.000000D+00  0.000000D+00  0.000000D+00  0.000000D+00
    285   0.000000D+00  0.000000D+00  0.000000D+00  0.000000D+00  0.000000D+00
    286   0.000000D+00  0.000000D+00  0.000000D+00  0.000000D+00  0.000000D+00
    287   0.000000D+00  0.000000D+00  0.000000D+00  0.000000D+00  0.000000D+00
    288   0.000000D+00  0.000000D+00  0.000000D+00  0.000000D+00  0.000000D+00
    289   0.000000D+00  0.000000D+00  0.000000D+00  0.000000D+00  0.000000D+00
    290   0.000000D+00  0.000000D+00  0.000000D+00  0.000000D+00  0.000000D+00
    291   0.000000D+00  0.000000D+00  0.000000D+00  0.000000D+00  0.000000D+00
    292   0.000000D+00  0.000000D+00  0.000000D+00  0.000000D+00  0.000000D+00
    293   0.000000D+00  0.000000D+00  0.000000D+00  0.000000D+00  0.000000D+00
    294   0.000000D+00  0.000000D+00  0.000000D+00  0.000000D+00  0.000000D+00
    295   0.000000D+00  0.000000D+00  0.000000D+00  0.000000D+00  0.000000D+00
    296   0.000000D+00  0.000000D+00  0.000000D+00  0.000000D+00  0.000000D+00
    297   0.000000D+00  0.000000D+00  0.000000D+00  0.000000D+00  0.000000D+00
    298   0.000000D+00  0.000000D+00  0.000000D+00  0.000000D+00  0.000000D+00
    299   0.000000D+00  0.000000D+00  0.000000D+00  0.000000D+00  0.000000D+00
    300   0.000000D+00  0.000000D+00  0.000000D+00  0.000000D+00  0.000000D+00
    301   0.000000D+00  0.000000D+00  0.000000D+00  0.000000D+00  0.000000D+00
    302   0.000000D+00  0.000000D+00  0.000000D+00  0.000000D+00  0.000000D+00
    303   0.000000D+00  0.000000D+00  0.000000D+00  0.000000D+00  0.000000D+00
    304   0.000000D+00  0.000000D+00  0.000000D+00  0.000000D+00  0.000000D+00
    305   0.000000D+00  0.000000D+00  0.000000D+00  0.000000D+00  0.000000D+00
    306   0.000000D+00  0.000000D+00  0.000000D+00  0.000000D+00  0.000000D+00
    307   0.000000D+00  0.000000D+00  0.000000D+00  0.000000D+00  0.000000D+00
    308   0.000000D+00  0.000000D+00  0.000000D+00  0.000000D+00  0.000000D+00
    309   0.000000D+00  0.000000D+00  0.000000D+00  0.000000D+00  0.000000D+00
    310   0.000000D+00  0.000000D+00  0.000000D+00  0.000000D+00  0.000000D+00
    311   0.000000D+00  0.000000D+00  0.000000D+00  0.000000D+00  0.000000D+00
    312   0.000000D+00  0.000000D+00  0.000000D+00  0.000000D+00  0.000000D+00
    313   0.000000D+00  0.000000D+00  0.000000D+00  0.000000D+00  0.000000D+00
    314   0.000000D+00  0.000000D+00  0.000000D+00  0.000000D+00  0.000000D+00
    315   0.000000D+00  0.000000D+00  0.000000D+00  0.000000D+00  0.000000D+00
    316   0.000000D+00  0.000000D+00  0.000000D+00  0.000000D+00  0.000000D+00
    317   0.000000D+00  0.000000D+00  0.000000D+00  0.000000D+00  0.000000D+00
    318   0.000000D+00  0.000000D+00  0.000000D+00  0.000000D+00  0.000000D+00
    319   0.000000D+00  0.000000D+00  0.000000D+00  0.000000D+00  0.000000D+00
    320   0.000000D+00  0.000000D+00  0.000000D+00  0.000000D+00  0.000000D+00
    321   0.000000D+00  0.000000D+00  0.000000D+00  0.000000D+00  0.000000D+00
    322   0.000000D+00  0.000000D+00  0.000000D+00  0.000000D+00  0.000000D+00
    323   0.000000D+00  0.000000D+00  0.000000D+00  0.000000D+00  0.000000D+00
    324   0.000000D+00  0.000000D+00  0.000000D+00  0.000000D+00  0.000000D+00
    325   0.000000D+00  0.000000D+00  0.000000D+00  0.000000D+00  0.000000D+00
    326   0.000000D+00  0.000000D+00  0.000000D+00  0.000000D+00  0.000000D+00
    327   0.000000D+00  0.000000D+00  0.000000D+00  0.000000D+00  0.000000D+00
    328   0.000000D+00  0.000000D+00  0.000000D+00  0.000000D+00  0.000000D+00
    329   0.000000D+00  0.000000D+00  0.000000D+00  0.000000D+00  0.000000D+00
    330   0.000000D+00  0.000000D+00  0.000000D+00  0.000000D+00  0.000000D+00
    331   0.000000D+00  0.000000D+00  0.000000D+00  0.000000D+00  0.000000D+00
    332   0.000000D+00  0.000000D+00  0.000000D+00  0.000000D+00  0.000000D+00
    333   0.000000D+00  0.000000D+00  0.000000D+00  0.000000D+00  0.000000D+00
    334   0.000000D+00  0.000000D+00  0.000000D+00  0.000000D+00  0.000000D+00
    335   0.000000D+00  0.000000D+00  0.000000D+00  0.000000D+00  0.000000D+00
    336   0.000000D+00  0.000000D+00  0.000000D+00  0.000000D+00  0.000000D+00
    337   0.000000D+00  0.000000D+00  0.000000D+00  0.000000D+00  0.000000D+00
    338   0.000000D+00  0.000000D+00  0.000000D+00  0.000000D+00  0.000000D+00
    339   0.000000D+00  0.000000D+00  0.000000D+00  0.000000D+00  0.000000D+00
    340   0.000000D+00  0.000000D+00  0.000000D+00  0.000000D+00  0.000000D+00
    341   0.000000D+00  0.000000D+00  0.000000D+00  0.000000D+00  0.000000D+00
    342   0.000000D+00  0.000000D+00  0.000000D+00  0.000000D+00  0.000000D+00
    343   0.000000D+00  0.000000D+00  0.000000D+00  0.000000D+00  0.000000D+00
    344   0.000000D+00  0.000000D+00  0.000000D+00  0.000000D+00  0.000000D+00
    345   0.000000D+00  0.000000D+00  0.000000D+00  0.000000D+00  0.000000D+00
    346   0.000000D+00  0.000000D+00  0.000000D+00  0.000000D+00  0.000000D+00
    347   0.000000D+00  0.000000D+00  0.000000D+00  0.000000D+00  0.000000D+00
    348   0.000000D+00  0.000000D+00  0.000000D+00  0.000000D+00  0.000000D+00
    349   0.000000D+00  0.000000D+00  0.000000D+00  0.000000D+00  0.000000D+00
    350   0.000000D+00  0.000000D+00  0.000000D+00  0.000000D+00  0.000000D+00
    351   0.000000D+00  0.000000D+00  0.000000D+00  0.000000D+00  0.000000D+00
    352   0.000000D+00  0.000000D+00  0.000000D+00  0.000000D+00  0.000000D+00
    353   0.000000D+00  0.000000D+00  0.000000D+00  0.000000D+00  0.000000D+00
    354   0.000000D+00  0.000000D+00  0.000000D+00  0.000000D+00  0.000000D+00
    355   0.000000D+00  0.000000D+00  0.000000D+00  0.000000D+00  0.000000D+00
    356   0.000000D+00  0.000000D+00  0.000000D+00  0.000000D+00  0.000000D+00
    357   0.000000D+00  0.000000D+00  0.000000D+00  0.000000D+00  0.000000D+00
    358   0.000000D+00  0.000000D+00  0.000000D+00  0.000000D+00  0.000000D+00
    359   0.000000D+00  0.000000D+00  0.000000D+00  0.000000D+00  0.000000D+00
    360   0.000000D+00  0.000000D+00  0.000000D+00  0.000000D+00  0.000000D+00
    361   0.000000D+00  0.000000D+00  0.000000D+00  0.000000D+00  0.000000D+00
    362   0.000000D+00  0.000000D+00  0.000000D+00  0.000000D+00  0.000000D+00
    363   0.000000D+00  0.000000D+00  0.000000D+00  0.000000D+00  0.000000D+00
    364   0.000000D+00  0.000000D+00  0.000000D+00  0.000000D+00  0.000000D+00
    365   0.101822D-02  0.686836D-02  0.000000D+00  0.000000D+00 -0.251635D-02
    366   0.542046D-02  0.349387D-01  0.000000D+00  0.000000D+00 -0.290415D-02
    367   0.000000D+00  0.000000D+00  0.150928D-02  0.000000D+00  0.000000D+00
    368   0.000000D+00  0.000000D+00  0.000000D+00  0.150928D-02  0.000000D+00
    369   0.313043D-02  0.205648D-01  0.000000D+00  0.000000D+00 -0.571426D-02
    370   0.000000D+00  0.000000D+00  0.304735D-02  0.000000D+00  0.000000D+00
    371   0.000000D+00  0.000000D+00  0.000000D+00  0.304735D-02  0.000000D+00
    372   0.645100D-02  0.414343D-01  0.000000D+00  0.000000D+00  0.518188D-03
    373   0.000000D+00  0.000000D+00  0.000000D+00  0.000000D+00  0.000000D+00
    374   0.000000D+00  0.000000D+00  0.000000D+00  0.000000D+00  0.000000D+00
    375   0.197600D-05  0.327398D-04  0.000000D+00  0.000000D+00 -0.433164D-04
    376   0.217543D-03  0.174794D-02  0.000000D+00  0.000000D+00 -0.131157D-02
    377   0.191595D-02  0.128805D-01  0.000000D+00  0.000000D+00 -0.515113D-02
    378   0.456704D-02  0.295665D-01  0.000000D+00  0.000000D+00 -0.613960D-02
    379   0.000000D+00  0.000000D+00  0.000000D+00  0.000000D+00  0.000000D+00
    380   0.000000D+00  0.000000D+00  0.000000D+00  0.000000D+00  0.000000D+00
    381   0.000000D+00  0.000000D+00  0.000000D+00  0.000000D+00  0.000000D+00
    382   0.000000D+00  0.000000D+00  0.000000D+00  0.000000D+00  0.000000D+00
    383   0.000000D+00  0.000000D+00  0.000000D+00  0.000000D+00  0.000000D+00
    384   0.000000D+00  0.000000D+00  0.000000D+00  0.000000D+00  0.000000D+00
    385   0.000000D+00  0.000000D+00  0.834326D-05  0.000000D+00  0.000000D+00
    386   0.000000D+00  0.000000D+00  0.000000D+00  0.834326D-05  0.000000D+00
    387   0.728489D-05  0.121021D-03  0.000000D+00  0.000000D+00 -0.160339D-03
    388   0.000000D+00  0.000000D+00  0.684106D-03  0.000000D+00  0.000000D+00
    389   0.000000D+00  0.000000D+00  0.000000D+00  0.684106D-03  0.000000D+00
    390   0.126983D-02  0.942157D-02  0.000000D+00  0.000000D+00 -0.607526D-02
    391   0.000000D+00  0.000000D+00  0.380526D-02  0.000000D+00  0.000000D+00
    392   0.000000D+00  0.000000D+00  0.000000D+00  0.380526D-02  0.000000D+00
    393   0.801824D-02  0.517637D-01  0.000000D+00  0.000000D+00 -0.138262D-01
    394   0.000000D+00  0.000000D+00  0.512556D-02  0.000000D+00  0.000000D+00
    395   0.000000D+00  0.000000D+00  0.000000D+00  0.512556D-02  0.000000D+00
    396   0.109191D-01  0.696453D-01  0.000000D+00  0.000000D+00 -0.583024D-02
    397   0.000000D+00  0.000000D+00  0.000000D+00  0.000000D+00  0.000000D+00
    398   0.000000D+00  0.000000D+00  0.000000D+00  0.000000D+00  0.000000D+00
    399   0.000000D+00  0.000000D+00  0.000000D+00  0.000000D+00  0.000000D+00
    400   0.000000D+00  0.000000D+00  0.000000D+00  0.000000D+00  0.000000D+00
    401   0.000000D+00  0.000000D+00  0.000000D+00  0.000000D+00  0.000000D+00
    402   0.000000D+00  0.000000D+00  0.000000D+00  0.000000D+00  0.000000D+00
    403   0.000000D+00  0.000000D+00  0.000000D+00  0.000000D+00  0.000000D+00
    404   0.000000D+00  0.000000D+00  0.000000D+00  0.000000D+00  0.000000D+00
    405   0.000000D+00  0.000000D+00  0.000000D+00  0.000000D+00  0.000000D+00
    406   0.000000D+00  0.000000D+00  0.000000D+00  0.000000D+00  0.000000D+00
    407   0.000000D+00  0.000000D+00  0.000000D+00  0.000000D+00  0.000000D+00
    408   0.000000D+00  0.000000D+00  0.000000D+00  0.000000D+00  0.000000D+00
    409   0.000000D+00  0.000000D+00  0.000000D+00  0.000000D+00  0.000000D+00
    410   0.000000D+00  0.000000D+00  0.000000D+00  0.000000D+00  0.000000D+00
    411   0.000000D+00  0.000000D+00  0.000000D+00  0.000000D+00  0.000000D+00
    412   0.227967D-04  0.351373D-03  0.000000D+00  0.000000D+00 -0.452985D-03
    413   0.000000D+00  0.000000D+00  0.421195D-04  0.000000D+00  0.000000D+00
    414   0.000000D+00  0.000000D+00  0.000000D+00  0.421195D-04  0.000000D+00
    415   0.000000D+00  0.000000D+00  0.000000D+00  0.000000D+00  0.000000D+00
    416   0.000000D+00  0.000000D+00  0.000000D+00  0.000000D+00  0.000000D+00
    417   0.212271D-02  0.156519D-01  0.000000D+00  0.000000D+00 -0.103116D-01
    418   0.000000D+00  0.000000D+00  0.196966D-02  0.000000D+00  0.000000D+00
    419   0.000000D+00  0.000000D+00  0.000000D+00  0.196966D-02  0.000000D+00
    420   0.000000D+00  0.000000D+00  0.000000D+00  0.000000D+00  0.000000D+00
    421   0.000000D+00  0.000000D+00  0.000000D+00  0.000000D+00  0.000000D+00
    422   0.116928D-01  0.744110D-01  0.000000D+00  0.000000D+00 -0.204349D-01
    423   0.000000D+00  0.000000D+00  0.948751D-02  0.000000D+00  0.000000D+00
    424   0.000000D+00  0.000000D+00  0.000000D+00  0.948751D-02  0.000000D+00
    425   0.000000D+00  0.000000D+00  0.000000D+00  0.000000D+00  0.000000D+00
    426   0.000000D+00  0.000000D+00  0.000000D+00  0.000000D+00  0.000000D+00
    427   0.152267D-01  0.956545D-01  0.000000D+00  0.000000D+00 -0.649785D-02
    428   0.000000D+00  0.000000D+00  0.122109D-01  0.000000D+00  0.000000D+00
    429   0.000000D+00  0.000000D+00  0.000000D+00  0.122109D-01  0.000000D+00
    430   0.000000D+00  0.000000D+00  0.000000D+00  0.000000D+00  0.000000D+00
    431   0.000000D+00  0.000000D+00  0.000000D+00  0.000000D+00  0.000000D+00
    432   0.000000D+00  0.000000D+00  0.000000D+00  0.000000D+00  0.000000D+00
    433   0.000000D+00  0.000000D+00  0.000000D+00  0.000000D+00  0.000000D+00
    434   0.000000D+00  0.000000D+00  0.000000D+00  0.000000D+00  0.000000D+00
    435   0.000000D+00  0.000000D+00  0.000000D+00  0.000000D+00  0.000000D+00
    436   0.000000D+00  0.000000D+00  0.000000D+00  0.000000D+00  0.000000D+00
    437   0.000000D+00  0.000000D+00  0.000000D+00  0.000000D+00  0.000000D+00
    438   0.000000D+00  0.000000D+00  0.000000D+00  0.000000D+00  0.000000D+00
    439   0.000000D+00  0.000000D+00  0.000000D+00  0.000000D+00  0.000000D+00
    440   0.000000D+00  0.000000D+00  0.000000D+00  0.000000D+00  0.000000D+00
    441   0.000000D+00  0.000000D+00  0.000000D+00  0.000000D+00  0.000000D+00
    442   0.000000D+00  0.000000D+00  0.000000D+00  0.000000D+00  0.000000D+00
    443   0.000000D+00  0.000000D+00  0.000000D+00  0.000000D+00  0.000000D+00
    444   0.000000D+00  0.000000D+00  0.000000D+00  0.000000D+00  0.000000D+00
    445   0.000000D+00  0.000000D+00  0.000000D+00  0.000000D+00  0.000000D+00
    446   0.000000D+00  0.259400D-04  0.000000D+00  0.000000D+00 -0.447868D-04
    447   0.000000D+00  0.000000D+00  0.423192D-05  0.000000D+00  0.000000D+00
    448   0.000000D+00  0.000000D+00  0.000000D+00  0.423192D-05  0.000000D+00
    449   0.000000D+00  0.000000D+00  0.000000D+00  0.000000D+00  0.000000D+00
    450   0.000000D+00  0.000000D+00  0.000000D+00  0.000000D+00  0.000000D+00
    451   0.000000D+00  0.000000D+00  0.000000D+00  0.000000D+00  0.000000D+00
    452   0.000000D+00  0.000000D+00  0.000000D+00  0.000000D+00  0.000000D+00
    453   0.570737D-03  0.526753D-02  0.000000D+00  0.000000D+00 -0.499479D-02
    454   0.000000D+00  0.000000D+00  0.921303D-03  0.000000D+00  0.000000D+00
    455   0.000000D+00  0.000000D+00  0.000000D+00  0.921303D-03  0.000000D+00
    456   0.000000D+00  0.000000D+00  0.000000D+00  0.000000D+00  0.000000D+00
    457   0.000000D+00  0.000000D+00  0.000000D+00  0.000000D+00  0.000000D+00
    458   0.000000D+00  0.000000D+00  0.000000D+00  0.000000D+00  0.000000D+00
    459   0.000000D+00  0.000000D+00  0.000000D+00  0.000000D+00  0.000000D+00
    460   0.971097D-02  0.626586D-01  0.000000D+00  0.000000D+00 -0.260756D-01
    461   0.000000D+00  0.000000D+00  0.112844D-01  0.000000D+00  0.000000D+00
    462   0.000000D+00  0.000000D+00  0.000000D+00  0.112844D-01  0.000000D+00
    463   0.000000D+00  0.000000D+00  0.000000D+00  0.000000D+00  0.000000D+00
    464   0.000000D+00  0.000000D+00  0.000000D+00  0.000000D+00  0.000000D+00
    465   0.000000D+00  0.000000D+00  0.000000D+00  0.000000D+00  0.000000D+00
    466   0.000000D+00  0.000000D+00  0.000000D+00  0.000000D+00  0.000000D+00
[...]

 E2(CBS)=      -0.537494 CBS-Int=       0.002326 OIii=       1.717884

 **********************************************************************

            Population analysis using the SCF density.

 **********************************************************************

 Orbital symmetries:
       Occupied  (SG) (SG) (SG) (PI) (PI) (SG) (SG) (SG) (PI) (PI)
                 (SG) (SG) (PI) (PI) (SG) (DLTA) (DLTA) (PI) (PI)
       Virtual   (SG) (SG) (PI) (PI) (SG) (DLTA) (DLTA) (PI) (PI)
                 (SG) (SG) (PI) (PI) (SG) (PI) (PI) (SG) (DLTA)
                 (DLTA) (SG) (PI) (PI) (SG) (PI) (PI) (SG) (SG)
                 (PI) (PI) (SG) (DLTA) (DLTA) (PHI) (PHI) (PI)
                 (PI) (SG) (DLTA) (DLTA) (DLTA) (DLTA) (PI) (PI)
                 (SG) (SG) (PI) (PI) (SG) (PI) (PI) (SG) (PHI)
                 (PHI) (?A) (?A) (SG) (DLTA) (DLTA) (PI) (PI) (DLTA)
                 (DLTA) (SG) (PHI) (PHI) (PI) (PI) (DLTA) (DLTA)
                 (PHI) (PHI) (SG) (PI) (PI) (SG) (DLTA) (DLTA)
                 (PI) (PI) (SG) (PI) (PI) (PI) (PI) (SG) (DLTA)
                 (DLTA) (?A) (?A) (SG) (?B) (?B) (SG) (PHI) (PHI)
                 (DLTA) (DLTA) (PI) (PI) (?A) (?A) (SG) (PHI) (PHI)
                 (PI) (PI) (SG) (PI) (PI) (DLTA) (DLTA) (SG) (PHI)
                 (PHI) (DLTA) (DLTA) (?A) (?A) (SG) (PI) (PI) (SG)
                 (PHI) (PHI) (DLTA) (DLTA) (PHI) (PHI) (PI) (PI)
                 (PI) (PI) (DLTA) (DLTA) (?B) (?B) (SG) (PI) (PI)
                 (SG) (SG) (SG) (?A) (?A) (DLTA) (DLTA) (SG) (?B)
                 (?B) (SG) (PI) (PI) (DLTA) (DLTA) (PI) (PI) (PHI)
                 (PHI) (SG) (DLTA) (DLTA) (PHI) (PHI) (?A) (?A)
                 (PI) (PI) (SG) (PI) (PI) (DLTA) (DLTA) (?A) (?A)
                 (SG) (PI) (PI) (?B) (?B) (PHI) (PHI) (SG) (DLTA)
                 (DLTA) (?A) (?A) (PI) (PI) (SG) (SG) (PHI) (PHI)
                 (SG) (SG) (?B) (?B) (PHI) (PHI) (DLTA) (DLTA)
                 (PI) (PI) (SG) (DLTA) (DLTA) (PI) (PI) (?A) (?A)
                 (SG) (?C) (?C) (PI) (PI) (DLTA) (DLTA) (?A) (?A)
                 (SG) (SG) (PHI) (PHI) (SG) (DLTA) (DLTA) (PHI)
                 (PHI) (SG) (PI) (PI) (?B) (?B) (SG) (DLTA) (DLTA)
                 (PHI) (PHI) (PI) (PI) (SG) (?A) (?A) (PI) (PI)
                 (PHI) (PHI) (SG) (DLTA) (DLTA) (PI) (PI) (SG)
                 (DLTA) (DLTA) (PI) (PI) (?B) (?B) (?A) (?A) (SG)
                 (DLTA) (DLTA) (DLTA) (DLTA) (PHI) (PHI) (PI) (PI)
                 (SG) (SG) (SG) (?B) (?B) (PI) (PI) (?A) (?A) (PI)
                 (PI) (PHI) (PHI) (SG) (?A) (?A) (DLTA) (DLTA)
                 (SG) (PHI) (PHI) (PI) (PI) (PHI) (PHI) (DLTA)
                 (DLTA) (SG) (PI) (PI) (?B) (?B) (SG) (?A) (?A)
                 (SG) (DLTA) (DLTA) (DLTA) (DLTA) (PI) (PI) (SG)
                 (PHI) (PHI) (PI) (PI) (SG) (DLTA) (DLTA) (PI)
                 (PI) (SG) (?A) (?A) (PHI) (PHI) (PI) (PI) (SG)
                 (DLTA) (DLTA) (SG) (PHI) (PHI) (PI) (PI) (SG)
                 (SG) (?B) (?B) (?A) (?A) (DLTA) (DLTA) (SG) (PHI)
                 (PHI) (DLTA) (DLTA) (PI) (PI) (PI) (PI) (SG) (SG)
                 (?C) (?C) (SG) (SG) (?B) (?B) (?A) (?A) (PHI)
                 (PHI) (DLTA) (DLTA) (PI) (PI) (SG) (?B) (?B) (?A)
                 (?A) (PHI) (PHI) (DLTA) (DLTA) (PI) (PI) (SG)
                 (DLTA) (DLTA) (PI) (PI) (PI) (PI) (SG) (?A) (?A)
                 (PHI) (PHI) (PHI) (PHI) (DLTA) (DLTA) (SG) (PI)
                 (PI) (SG) (SG) (?B) (?B) (?A) (?A) (DLTA) (DLTA)
                 (SG) (PHI) (PHI) (SG) (PI) (PI) (DLTA) (DLTA)
                 (PI) (PI) (DLTA) (DLTA) (SG) (PI) (PI) (SG) (?B)
                 (?B) (?A) (?A) (PHI) (PHI) (DLTA) (DLTA) (PI)
                 (PI) (SG) (?B) (?B) (SG) (SG) (?C) (?C) (?A) (?A)
                 (PHI) (PHI) (SG) (DLTA) (DLTA) (PI) (PI) (PI)
                 (PI) (SG) (?A) (?A) (PHI) (PHI) (SG) (DLTA) (DLTA)
                 (PI) (PI) (SG) (PHI) (PHI) (DLTA) (DLTA) (PI)
                 (PI) (SG) (SG) (DLTA) (DLTA) (SG) (SG) (PHI) (PHI)
                 (?B) (?B) (PI) (PI) (SG) (?A) (?A) (?D) (?D) (?B)
                 (?B) (?C) (?C) (SG) (SG) (?A) (?A) (PHI) (PHI)
                 (DLTA) (DLTA) (PI) (PI) (SG) (?B) (?B) (?A) (?A)
                 (PHI) (PHI) (DLTA) (DLTA) (PI) (PI) (SG) (PHI)
                 (PHI) (DLTA) (DLTA) (PI) (PI) (SG) (?A) (?A) (PHI)
                 (PHI) (DLTA) (DLTA) (PI) (PI) (SG) (?C) (?C) (SG)
                 (SG) (?B) (?B) (?A) (?A) (PHI) (PHI) (DLTA) (DLTA)
                 (SG) (PI) (PI) (DLTA) (DLTA) (DLTA) (DLTA) (PI)
                 (PI) (PI) (PI) (SG) (SG) (SG) (SG) (?B) (?B) (?A)
                 (?A) (PHI) (PHI) (SG) (DLTA) (DLTA) (PI) (PI)
                 (PI) (PI) (SG) (?B) (?B) (?A) (?A) (PHI) (PHI)
                 (DLTA) (DLTA) (PI) (PI) (SG) (?A) (?A) (PHI) (PHI)
                 (DLTA) (DLTA) (PI) (PI) (SG) (PHI) (PHI) (DLTA)
                 (DLTA) (PI) (PI) (SG) (SG) (SG)
 The electronic state is 5-SG.
 Alpha  occ. eigenvalues -- -240.41017 -29.05579 -24.76034 -24.76034 -24.75094
 Alpha  occ. eigenvalues --  -20.27466  -3.84457  -2.55660  -2.55660  -2.50453
 Alpha  occ. eigenvalues --   -0.96112  -0.50774  -0.50774  -0.47313  -0.47313
 Alpha  occ. eigenvalues --   -0.27293  -0.19487  -0.19487  -0.08244
 Alpha virt. eigenvalues --    0.07444   0.14178   0.14874   0.14874   0.15464
 Alpha virt. eigenvalues --    0.15741   0.15741   0.17293   0.17293   0.18178
 Alpha virt. eigenvalues --    0.22222   0.27609   0.27609   0.28834   0.30850
 Alpha virt. eigenvalues --    0.30850   0.32867   0.34859   0.34859   0.34952
 Alpha virt. eigenvalues --    0.36593   0.36593   0.37690   0.49510   0.49510
 Alpha virt. eigenvalues --    0.49921   0.57347   0.60998   0.60998   0.62498
 Alpha virt. eigenvalues --    0.62863   0.62863   0.64600   0.64600   0.69979
 Alpha virt. eigenvalues --    0.69979   0.70956   0.70956   0.71664   0.75102
 Alpha virt. eigenvalues --    0.75102   0.77012   0.77012   0.79425   0.83691
 Alpha virt. eigenvalues --    0.88568   0.88568   0.93862   0.94190   0.94190
 Alpha virt. eigenvalues --    1.03461   1.10082   1.10082   1.14197   1.14197
 Alpha virt. eigenvalues --    1.16626   1.21166   1.21166   1.24621   1.24621
 Alpha virt. eigenvalues --    1.27236   1.27236   1.27430   1.30356   1.30356
 Alpha virt. eigenvalues --    1.32024   1.32024   1.42552   1.42552   1.42784
 Alpha virt. eigenvalues --    1.42784   1.45189   1.45751   1.45751   1.49297
 Alpha virt. eigenvalues --    1.52496   1.52496   1.59074   1.59074   1.64539
 Alpha virt. eigenvalues --    1.66115   1.66115   1.71487   1.71487   1.72403
 Alpha virt. eigenvalues --    1.76546   1.76546   1.85260   1.85260   1.89300
 Alpha virt. eigenvalues --    1.90972   1.90972   1.99886   2.02048   2.02048
 Alpha virt. eigenvalues --    2.13499   2.13499   2.14994   2.14994   2.17629
 Alpha virt. eigenvalues --    2.17629   2.22709   2.31727   2.31727   2.31741
 Alpha virt. eigenvalues --    2.31741   2.37759   2.43973   2.43973   2.44687
 Alpha virt. eigenvalues --    2.44687   2.55599   2.58074   2.58074   2.61064
 Alpha virt. eigenvalues --    2.61064   2.63967   2.63967   2.67478   2.74170
 Alpha virt. eigenvalues --    2.74170   2.75627   2.81786   2.81786   2.85989
 Alpha virt. eigenvalues --    2.85989   2.94261   2.94261   2.96570   2.96570
 Alpha virt. eigenvalues --    3.01437   3.01437   3.05008   3.05008   3.13303
 Alpha virt. eigenvalues --    3.13303   3.14296   3.25893   3.25893   3.26750
 Alpha virt. eigenvalues --    3.30458   3.30458   3.31368   3.31368   3.32020
 Alpha virt. eigenvalues --    3.32020   3.46112   3.52032   3.52032   3.53582
 Alpha virt. eigenvalues --    3.59016   3.59016   3.65744   3.65744   3.70767
 Alpha virt. eigenvalues --    3.70767   3.78218   3.78218   3.83038   3.85290
 Alpha virt. eigenvalues --    3.85290   3.92797   3.92797   3.94378   3.94378
 Alpha virt. eigenvalues --    4.04210   4.04210   4.12871   4.29069   4.29069
 Alpha virt. eigenvalues --    4.34380   4.34380   4.50957   4.50957   4.53077
 Alpha virt. eigenvalues --    4.57736   4.57736   4.62460   4.62460   4.66840
 Alpha virt. eigenvalues --    4.66840   4.68408   4.71104   4.71104   4.75071
 Alpha virt. eigenvalues --    4.75071   4.94110   4.94110   4.98370   5.07947
 Alpha virt. eigenvalues --    5.13416   5.13416   5.17326   5.17326   5.27167
 Alpha virt. eigenvalues --    5.27167   5.27272   5.27272   5.32490   5.32490
 Alpha virt. eigenvalues --    5.32895   5.32895   5.34819   5.54504   5.54504
 Alpha virt. eigenvalues --    5.67630   5.67630   5.69866   5.69866   5.77618
 Alpha virt. eigenvalues --    5.78913   5.78913   5.80316   5.80316   5.80908
 Alpha virt. eigenvalues --    5.80908   5.81755   5.81755   5.86083   5.86083
 Alpha virt. eigenvalues --    5.88278   5.88278   5.90253   5.97877   5.97877
 Alpha virt. eigenvalues --    5.99415   5.99415   6.17444   6.24173   6.24173
 Alpha virt. eigenvalues --    6.30011   6.30011   6.34784   6.70949   6.70949
 Alpha virt. eigenvalues --    6.72013   6.72013   6.72607   6.72607   6.86267
 Alpha virt. eigenvalues --    6.94009   6.94009   6.94065   6.94065   6.95142
 Alpha virt. eigenvalues --    6.95142   6.95611   7.02420   7.02420   7.19118
 Alpha virt. eigenvalues --    7.19118   7.37217   7.41883   7.41883   7.45068
 Alpha virt. eigenvalues --    7.45068   7.82137   7.82137   7.94291   7.94291
 Alpha virt. eigenvalues --    7.96619   7.96719   7.96719   8.12807   8.12807
 Alpha virt. eigenvalues --    8.17198   8.17198   8.34915   8.34915   8.42869
 Alpha virt. eigenvalues --    8.47062   8.47062   8.50756   8.50756   8.53080
 Alpha virt. eigenvalues --    8.53080   8.69545   8.69545   8.84255   8.84255
 Alpha virt. eigenvalues --    9.27235   9.27235   9.36290   9.75427   9.75427
 Alpha virt. eigenvalues --    9.88641   9.88641   9.96168   9.96962   9.96962
 Alpha virt. eigenvalues --   10.18388  10.18388  10.36283  10.36283  10.40058
 Alpha virt. eigenvalues --   10.40058  10.42407  10.50937  10.50937  10.57456
 Alpha virt. eigenvalues --   10.57456  10.61103  10.69005  10.69005  10.87018
 Alpha virt. eigenvalues --   11.00715  11.00715  11.12274  11.12274  11.18281
 Alpha virt. eigenvalues --   11.18281  11.27452  11.37097  11.37097  11.44746
 Alpha virt. eigenvalues --   11.44746  11.65202  11.65496  11.65496  11.84357
 Alpha virt. eigenvalues --   11.84357  11.99799  12.14530  12.14530  12.38569
 Alpha virt. eigenvalues --   12.38569  12.55920  12.55920  12.66667  12.79151
 Alpha virt. eigenvalues --   12.79151  12.82714  12.95352  12.95352  13.27985
 Alpha virt. eigenvalues --   13.27985  13.58223  13.58223  13.64464  13.64464
 Alpha virt. eigenvalues --   13.75062  13.75062  13.76347  13.76347  13.84041
 Alpha virt. eigenvalues --   13.89274  13.89274  14.22428  14.22428  14.41543
 Alpha virt. eigenvalues --   14.41543  15.06318  15.06318  15.22428  15.98107
 Alpha virt. eigenvalues --   16.26611  16.26611  16.27622  16.27622  16.34145
 Alpha virt. eigenvalues --   16.34145  16.49050  16.49050  16.54790  16.54790
 Alpha virt. eigenvalues --   16.95141  16.95141  17.28293  17.28293  17.35396
 Alpha virt. eigenvalues --   17.36693  17.36693  17.47165  17.47165  17.72761
 Alpha virt. eigenvalues --   17.72761  17.88268  17.88268  18.08383  18.08383
 Alpha virt. eigenvalues --   18.22541  18.26960  18.26960  18.57861  18.57861
 Alpha virt. eigenvalues --   19.45951  19.45951  19.93062  20.12012  20.12012
 Alpha virt. eigenvalues --   20.26168  20.26168  20.44217  20.44217  20.51070
 Alpha virt. eigenvalues --   20.51070  20.61126  20.66249  20.66249  20.77063
 Alpha virt. eigenvalues --   20.77063  20.78233  20.78233  20.84105  20.84105
 Alpha virt. eigenvalues --   20.92028  20.92028  21.00774  21.05568  21.05568
 Alpha virt. eigenvalues --   21.33377  21.50125  21.50125  21.60069  21.60069
 Alpha virt. eigenvalues --   22.40676  22.40676  22.48807  22.48807  22.56275
 Alpha virt. eigenvalues --   23.38011  23.38011  23.65722  24.01754  24.01754
 Alpha virt. eigenvalues --   24.06580  24.06580  24.39179  24.39179  24.54684
 Alpha virt. eigenvalues --   24.54684  24.60045  24.60045  25.02693  25.58201
 Alpha virt. eigenvalues --   25.58201  25.58682  25.58682  25.59986  25.59986
 Alpha virt. eigenvalues --   25.61885  25.61885  25.76805  25.76805  25.89752
 Alpha virt. eigenvalues --   25.90164  25.90164  25.98299  25.98299  26.26183
 Alpha virt. eigenvalues --   26.26183  26.36680  26.36680  26.38669  26.51817
 Alpha virt. eigenvalues --   26.51817  26.83272  27.01012  27.01012  28.19699
 Alpha virt. eigenvalues --   28.19699  29.01183  29.13497  29.13497  29.70610
 Alpha virt. eigenvalues --   29.70610  30.38223  30.38223  30.67259  33.12003
 Alpha virt. eigenvalues --   34.17895  34.17895  34.21413  34.21413  34.22814
 Alpha virt. eigenvalues --   34.22814  34.23863  34.23863  34.26107  34.26107
 Alpha virt. eigenvalues --   34.28216  34.29049  34.29049  34.32728  34.32728
 Alpha virt. eigenvalues --   34.32949  34.32949  34.33025  34.33025  34.33049
 Alpha virt. eigenvalues --   34.33049  34.33520  34.33520  34.48395  34.48395
 Alpha virt. eigenvalues --   34.85135  34.85135  35.16305  35.16305  35.31249
 Alpha virt. eigenvalues --   39.18953  39.18953  39.25087  39.25087  39.40204
 Alpha virt. eigenvalues --   39.40204  39.65105  39.65105  39.74250  39.74250
 Alpha virt. eigenvalues --   39.78354  41.88774  41.88774  42.26241  42.26241
 Alpha virt. eigenvalues --   42.66866  42.66866  42.70379  43.05342  43.05342
 Alpha virt. eigenvalues --   43.17818  43.17818  43.44114  43.44114  43.94439
 Alpha virt. eigenvalues --   43.94439  44.10726  44.71245  44.71245  44.71559
 Alpha virt. eigenvalues --   44.71559  44.73100  44.73100  44.77161  44.77161
 Alpha virt. eigenvalues --   44.78386  44.78386  44.89085  44.89085  45.01547
 Alpha virt. eigenvalues --   45.20129  45.20129  46.39465  46.39465  47.00365
 Alpha virt. eigenvalues --   47.00365  47.10519  47.10519  47.45517  47.45517
 Alpha virt. eigenvalues --   47.69471  48.85459  51.69698  51.69698  51.70073
 Alpha virt. eigenvalues --   51.70073  51.72133  51.72133  51.80999  51.80999
 Alpha virt. eigenvalues --   51.97619  51.99534  51.99534  52.09265  52.09265
 Alpha virt. eigenvalues --   53.03736  53.03736  55.54284  56.52595  56.52595
 Alpha virt. eigenvalues --   56.55076  56.55076  56.73519  56.73519  56.82842
 Alpha virt. eigenvalues --   56.82842  56.99551  56.99551  57.23552  60.06991
 Alpha virt. eigenvalues --   60.06991  60.16327  60.16327  60.38774  60.38774
 Alpha virt. eigenvalues --   60.97189  60.97189  61.21154  68.55493  68.55493
 Alpha virt. eigenvalues --   68.92142  68.92142  69.40711  69.40711  69.76752
 Alpha virt. eigenvalues --  108.40427 606.86258
          Condensed to atoms (all electrons):
              1          2
     1  Mn  25.039436  -1.182488
     2  O   -1.182488  11.325540
 Mulliken atomic charges:
              1
     1  Mn   1.143052
     2  O   -2.143052
 Sum of Mulliken atomic charges =  -1.00000
 Mulliken charges with hydrogens summed into heavy atoms:
              1
     1  Mn   1.143052
     2  O   -2.143052
 Sum of Mulliken charges with hydrogens summed into heavy atoms =  -1.00000
          Atomic-Atomic Spin Densities.
              1          2
     1  Mn   3.965533  -0.048029
     2  O   -0.048029   0.130525
 Mulliken atomic spin densities:
              1
     1  Mn   3.917504
     2  O    0.082496
 Sum of Mulliken atomic spin densities =   4.00000
 Electronic spatial extent (au):  <R**2>=            136.6971
 Charge=             -1.0000 electrons
 Dipole moment (field-independent basis, Debye):
    X=              0.0000    Y=              0.0000    Z=              1.7013  Tot=              1.7013
 Quadrupole moment (field-independent basis, Debye-Ang):
   XX=            -31.1192   YY=            -31.1192   ZZ=            -41.8899
   XY=              0.0000   XZ=              0.0000   YZ=              0.0000
 Traceless Quadrupole moment (field-independent basis, Debye-Ang):
   XX=              3.5902   YY=              3.5902   ZZ=             -7.1805
   XY=              0.0000   XZ=              0.0000   YZ=              0.0000
 Octapole moment (field-independent basis, Debye-Ang**2):
  XXX=              0.0000  YYY=              0.0000  ZZZ=            -18.9592  XYY=              0.0000
  XXY=              0.0000  XXZ=             -8.6477  XZZ=              0.0000  YZZ=              0.0000
  YYZ=             -8.6477  XYZ=              0.0000
 Hexadecapole moment (field-independent basis, Debye-Ang**3):
 XXXX=           -101.7790 YYYY=           -101.7790 ZZZZ=           -250.1504 XXXY=              0.0000
 XXXZ=              0.0000 YYYX=              0.0000 YYYZ=              0.0000 ZZZX=              0.0000
 ZZZY=              0.0000 XXYY=            -33.9263 XXZZ=            -58.8088 YYZZ=            -58.8088
 XXYZ=              0.0000 YYXZ=              0.0000 ZZXY=              0.0000
 N-N= 6.394890738248D+01 E-N=-4.507156097026D+03  KE= 1.823535344135D+03
                          Isotropic Fermi Contact Couplings
        Atom                 a.u.       MegaHertz       Gauss      10(-4) cm-1
     1  Mn(55)             0.00000       0.00000       0.00000       0.00000
     2  O(17)              0.00000       0.00000       0.00000       0.00000
 --------------------------------------------------------
       Center         ----  Spin Dipole Couplings  ----
                      3XX-RR        3YY-RR        3ZZ-RR
 --------------------------------------------------------
     1   Atom        1.279724      1.279724     -2.559447
     2   Atom       -0.026377     -0.026377      0.052754
 --------------------------------------------------------
                        XY            XZ            YZ
 --------------------------------------------------------
     1   Atom        0.000000      0.000000      0.000000
     2   Atom        0.000000      0.000000      0.000000
 --------------------------------------------------------


 ---------------------------------------------------------------------------------
              Anisotropic Spin Dipole Couplings in Principal Axis System
 ---------------------------------------------------------------------------------

       Atom             a.u.   MegaHertz   Gauss  10(-4) cm-1        Axes

              Baa    -2.5594  -337.698  -120.499  -112.644  0.0000  0.0000  1.0000
     1 Mn(55) Bbb     1.2797   168.849    60.249    56.322  0.0000  1.0000  0.0000
              Bcc     1.2797   168.849    60.249    56.322  1.0000  0.0000  0.0000
 
              Baa    -0.0264     1.909     0.681     0.637  1.0000  0.0000  0.0000
     2 O(17)  Bbb    -0.0264     1.909     0.681     0.637  0.0000  1.0000  0.0000
              Bcc     0.0528    -3.817    -1.362    -1.273  0.0000  0.0000  1.0000
 

 ---------------------------------------------------------------------------------


 Test job not archived.
 1\1\GINC-N33\SP\ROMP2-FC\Gen\Mn1O1(1-,5)\GPETERSSON\01-Dec-2013\0\\# R
 OMP2 Gen GFinput Int=NoBasisTransform Int(Grid=Ultrafine) IOp(3/32=2,5
 /6=10,8/11=1,9/33=1) Maxdisk=128GB CBSextrapolate(Nmin=25,MinPop) SCF=
 Symm Guess=Read\\MnO- 5Sg+\\-1,5\Mn\O,1,1.655\\Version=EM64L-G09RevA.0
 2\State=5-SG\HF=-1224.637567\MP2=-1225.1702922\E2(CBS)=-0.5374938\CBS-
 Int=-0.5351674\OIii=1.7178836\RMSD=4.580e-11\PG=C*V [C*(O1Mn1)]\\@


 WE'RE IN THE POSITION OF A VISITOR FROM ANOTHER
 DIMENSION WHO COMES TO EARTH AND SEES A CHESS MATCH.
 ASSUMING HE KNOWS IT'S A GAME, HE'S GOT TWO PROBLEMS:
 FIRST, FIGURE OUT THE RULES, AND SECOND, FIGURE OUT HOW TO WIN.
 NINETY PERCENT OF SCIENCE (INCLUDING VIRTUALLY ALL OF CHEMISRY)
 IS IN THAT SECOND CATEGORY.  THEY'RE TRYING TO APPLY
 THE LAWS THAT ARE ALREADY KNOWN.

                     -- SHELDON GLASHOW, 1979
 Job cpu time:  9 days 16 hours 42 minutes 59.1 seconds.
 File lengths (MBytes):  RWF=  69404 Int=      0 D2E=      0 Chk=     31 Scr=      1
 Normal termination of Gaussian 09 at Sun Dec  1 12:41:59 2013.
