 Entering Gaussian System, Link 0=gdv
 Initial command:
 /share/apps/gaussian/gdvh12/gdv/l1.exe /localscratch/68474/Gau-14558.inp -scrdir=/localscratch/68474/
 Entering Link 1 = /share/apps/gaussian/gdvh12/gdv/l1.exe PID=     14559.
  
 Copyright (c) 1988,1990,1992,1993,1995,1998,2003,2009,2011,
            Gaussian, Inc.  All Rights Reserved.
  
 This is the private, development version of
 the Gaussian(R) DV system of programs. It is based on
 the Gaussian(R) 09 system (copyright 2009, Gaussian, Inc.),
 the Gaussian(R) 03 system (copyright 2003, Gaussian, Inc.),
 the Gaussian(R) 98 system (copyright 1998, Gaussian, Inc.),
 the Gaussian(R) 94 system (copyright 1995, Gaussian, Inc.),
 the Gaussian 92(TM) system (copyright 1992, Gaussian, Inc.),
 the Gaussian 90(TM) system (copyright 1990, Gaussian, Inc.),
 the Gaussian 88(TM) system (copyright 1988, Gaussian, Inc.),
 the Gaussian 86(TM) system (copyright 1986, Carnegie Mellon
 University), and the Gaussian 82(TM) system (copyright 1983,
 Carnegie Mellon University). Gaussian is a federally registered
 trademark of Gaussian, Inc.
  
 This software contains proprietary and confidential information,
 including trade secrets, belonging to Gaussian, Inc.
  
 This software is provided under written license and may be
 used, copied, transmitted, or stored only in accord with that
 written license.
  
 The following legend is applicable only to US Government
 contracts under FAR:
  
                    RESTRICTED RIGHTS LEGEND
  
 Use, reproduction and disclosure by the US Government is
 subject to restrictions as set forth in subparagraphs (a)
 and (c) of the Commercial Computer Software - Restricted
 Rights clause in FAR 52.227-19.
  
 Gaussian, Inc.
 340 Quinnipiac St., Bldg. 40, Wallingford CT 06492
  
  
 ---------------------------------------------------------------
 Warning -- This program may not be used in any manner that
 competes with the business of Gaussian, Inc. or will provide
 assistance to any competitor of Gaussian, Inc.  The licensee
 of this program is prohibited from giving any competitor of
 Gaussian, Inc. access to this program.  By using this program,
 the user acknowledges that Gaussian, Inc. is engaged in the
 business of creating and licensing software in the field of
 computational chemistry and represents and warrants to the
 licensee that it is not a competitor of Gaussian, Inc. and that
 it will not use this program in any manner prohibited above.
 ---------------------------------------------------------------
  

 Cite this work as:
 Gaussian Development Version, Revision H.12,
 M. J. Frisch, G. W. Trucks, H. B. Schlegel, G. E. Scuseria, 
 M. A. Robb, J. R. Cheeseman, G. Scalmani, V. Barone, B. Mennucci, 
 G. A. Petersson, H. Nakatsuji, M. Caricato, X. Li, H. P. Hratchian, 
 A. F. Izmaylov, J. Bloino, G. Zheng, J. L. Sonnenberg, M. Hada, 
 M. Ehara, K. Toyota, R. Fukuda, J. Hasegawa, M. Ishida, T. Nakajima, 
 Y. Honda, O. Kitao, H. Nakai, T. Vreven, J. A. Montgomery, Jr., 
 J. E. Peralta, F. Ogliaro, M. Bearpark, J. J. Heyd, E. Brothers, 
 K. N. Kudin, V. N. Staroverov, T. Keith, R. Kobayashi, J. Normand, 
 K. Raghavachari, A. Rendell, J. C. Burant, S. S. Iyengar, J. Tomasi, 
 M. Cossi, N. Rega, J. M. Millam, M. Klene, J. E. Knox, J. B. Cross, 
 V. Bakken, C. Adamo, J. Jaramillo, R. Gomperts, R. E. Stratmann, 
 O. Yazyev, A. J. Austin, R. Cammi, C. Pomelli, J. W. Ochterski, 
 R. L. Martin, K. Morokuma, V. G. Zakrzewski, G. A. Voth, 
 P. Salvador, J. J. Dannenberg, S. Dapprich, P. V. Parandekar, 
 N. J. Mayhall, A. D. Daniels, O. Farkas, J. B. Foresman, 
 J. V. Ortiz, J. Cioslowski, and D. J. Fox, 
 Gaussian, Inc., Wallingford CT, 2010.
 
 ******************************************
 Gaussian DV:  EM64L-GDVRevH.12  9-Jun-2011
                25-Nov-2013 
 ******************************************
 % Mem=12GB
 % Nproc=8
 Will use up to    8 processors via shared memory.
 % Chk=MnO_6Sg+.chk
 ----------------------------------------------------------------------
 # ROCCSD(T) aug-cc-pVDZ GFinput Int=NoBasisTransform Int(Grid=Ultrafin
 e) IOp(3/32=2,5/6=10,8/11=1,9/33=1) Maxdisk=128GB SCF=Symm Guess=Read
 ----------------------------------------------------------------------
 1/38=1/1;
 2/12=2,17=6,18=5,40=1/2;
 3/5=16,7=10,11=2,16=1,24=10,25=1,30=1,32=2,60=-1,75=-5,116=101/1,2,3;
 4/5=1,9=4/1;
 5/5=2,6=10,15=2,38=6/2;
 8/5=-1,6=4,9=120000,10=1,11=1/1,4;
 9/5=7,14=2,33=1/13;
 6/7=2,8=2,9=2,10=2/1;
 99/5=1,9=1/99;
 --------
 MnO 6Sg+
 --------
 Charge =  0 Multiplicity = 6
 Symbolic Z-Matrix:
 Mn
 O                    1     1.648 
 
                          Input orientation:                          
 ---------------------------------------------------------------------
 Center     Atomic      Atomic             Coordinates (Angstroms)
 Number     Number       Type             X           Y           Z
 ---------------------------------------------------------------------
      1         25           0        0.000000    0.000000    0.000000
      2          8           0        0.000000    0.000000    1.648000
 ---------------------------------------------------------------------
 Stoichiometry    MnO(6)
 Framework group  C*V[C*(OMn)]
 Deg. of freedom     1
 Full point group                 C*V     NOp   4
 Largest Abelian subgroup         C2V     NOp   4
 Largest concise Abelian subgroup C1      NOp   1
                         Standard orientation:                         
 ---------------------------------------------------------------------
 Center     Atomic      Atomic             Coordinates (Angstroms)
 Number     Number       Type             X           Y           Z
 ---------------------------------------------------------------------
      1         25           0        0.000000    0.000000    0.399515
      2          8           0        0.000000    0.000000   -1.248485
 ---------------------------------------------------------------------
 Rotational constants (GHZ):      0.0000000     15.0208923     15.0208923
 Standard basis: Aug-CC-pVDZ (5D, 7F)
 AO basis set in the form of general basis input (Overlap normalization):
      1 0
 S  20 1.00       0.000000000000
      0.3960805000D+07  0.8242127169D-05
      0.5931155000D+06  0.6408587132D-04
      0.1349768000D+06  0.3369253069D-03
      0.3823067000D+05  0.1420648029D-02
      0.1247154000D+05  0.5143683106D-02
      0.4501743000D+04  0.1648569034D-01
      0.1755212000D+04  0.4698560097D-01
      0.7273039000D+03  0.1162437024D+00
      0.3163678000D+03  0.2335277048D+00
      0.1430098000D+03  0.3292837068D+00
      0.6621805000D+02  0.2440304050D+00
      0.2991896000D+02  0.7219806148D-01
      0.1430318000D+02  0.7687806158D-01
      0.6839451000D+01  0.7852235161D-01
      0.3012374000D+01  0.1294109027D-01
      0.1418808000D+01 -0.3784873078D-03
      0.6236240000D+00 -0.2503203051D-04
      0.1340980000D+00 -0.2421517050D-04
      0.6554800000D-01  0.3462071071D-04
      0.2958400000D-01  0.4261482088D-06
 S  20 1.00       0.000000000000
      0.3960805000D+07 -0.3936095009D-05
      0.5931155000D+06 -0.3060481007D-04
      0.1349768000D+06 -0.1609626004D-03
      0.3823067000D+05 -0.6792348016D-03
      0.1247154000D+05 -0.2466182006D-02
      0.4501743000D+04 -0.7957629019D-02
      0.1755212000D+04 -0.2307248005D-01
      0.7273039000D+03 -0.5932956014D-01
      0.3163678000D+03 -0.1299451003D+00
      0.1430098000D+03 -0.2212352005D+00
      0.6621805000D+02 -0.2292550005D+00
      0.2991896000D+02  0.3580733008D-01
      0.1430318000D+02  0.5107602012D+00
      0.6839451000D+01  0.5008307012D+00
      0.3012374000D+01  0.9011830021D-01
      0.1418808000D+01 -0.6909909016D-02
      0.6236240000D+00 -0.1912925004D-03
      0.1340980000D+00 -0.6032312014D-03
      0.6554800000D-01  0.5621608013D-03
      0.2958400000D-01 -0.1021109002D-03
 S  20 1.00       0.000000000000
      0.3960805000D+07  0.9462709350D-06
      0.5931155000D+06  0.7360584272D-05
      0.1349768000D+06  0.3869935143D-04
      0.3823067000D+05  0.1635110061D-03
      0.1247154000D+05  0.5941775220D-03
      0.4501743000D+04  0.1927737071D-02
      0.1755212000D+04  0.5641731209D-02
      0.7273039000D+03  0.1487848055D-01
      0.3163678000D+03  0.3414783126D-01
      0.1430098000D+03  0.6405794237D-01
      0.6621805000D+02  0.7557659280D-01
      0.2991896000D+02 -0.1946070072D-01
      0.1430318000D+02 -0.2957874109D+00
      0.6839451000D+01 -0.4521170167D+00
      0.3012374000D+01  0.1224531045D+00
      0.1418808000D+01  0.7169756265D+00
      0.6236240000D+00  0.4092712152D+00
      0.1340980000D+00  0.2221969082D-01
      0.6554800000D-01 -0.9011202334D-02
      0.2958400000D-01  0.3691727137D-02
 S  20 1.00       0.000000000000
      0.3960805000D+07 -0.2095390966D-06
      0.5931155000D+06 -0.1629438973D-05
      0.1349768000D+06 -0.8570591860D-05
      0.3823067000D+05 -0.3619271941D-04
      0.1247154000D+05 -0.1316145978D-03
      0.4501743000D+04 -0.4266809930D-03
      0.1755212000D+04 -0.1250269980D-02
      0.7273039000D+03 -0.3294664946D-02
      0.3163678000D+03 -0.7581859876D-02
      0.1430098000D+03 -0.1422863977D-01
      0.6621805000D+02 -0.1693795972D-01
      0.2991896000D+02  0.4454297927D-02
      0.1430318000D+02  0.6867041888D-01
      0.6839451000D+01  0.1113334982D+00
      0.3012374000D+01 -0.3900819936D-01
      0.1418808000D+01 -0.2215754964D+00
      0.6236240000D+00 -0.2544358958D+00
      0.1340980000D+00  0.2865865953D+00
      0.6554800000D-01  0.5755740906D+00
      0.2958400000D-01  0.2898777953D+00
 S  20 1.00       0.000000000000
      0.3960805000D+07 -0.4121231591D-06
      0.5931155000D+06 -0.3282099471D-05
      0.1349768000D+06 -0.1667433239D-04
      0.3823067000D+05 -0.7370000057D-04
      0.1247154000D+05 -0.2529495363D-03
      0.4501743000D+04 -0.8801426262D-03
      0.1755212000D+04 -0.2365482339D-02
      0.7273039000D+03 -0.6926354993D-02
      0.3163678000D+03 -0.1393851200D-01
      0.1430098000D+03 -0.3143840451D-01
      0.6621805000D+02 -0.2625749377D-01
      0.2991896000D+02 -0.1048313150D-01
      0.1430318000D+02  0.1856472266D+00
      0.6839451000D+01  0.1524839219D+00
      0.3012374000D+01  0.7411369063D-01
      0.1418808000D+01 -0.1018097146D+01
      0.6236240000D+00  0.2980372427D+00
      0.1340980000D+00  0.1971989283D+01
      0.6554800000D-01 -0.1179253169D+01
      0.2958400000D-01 -0.5837703837D+00
 S   1 1.00       0.000000000000
      0.2958400000D-01  0.1000000000D+01
 P  16 1.00       0.000000000000
      0.1620586000D+05  0.4199998593D-04
      0.3836274000D+04  0.3729998750D-03
      0.1246048000D+04  0.2148999280D-02
      0.4767535000D+03  0.9444996836D-02
      0.2021895000D+03  0.3329698884D-01
      0.9209487000D+02  0.9475896825D-01
      0.4414720000D+02  0.2081439303D+00
      0.2185468000D+02  0.3318048888D+00
      0.1108596000D+02  0.3331748884D+00
      0.5674108000D+01  0.1576009472D+00
      0.2823170000D+01  0.2144499282D-01
      0.1368621000D+01 -0.2557999143D-02
      0.6444310000D+00 -0.2026999321D-02
      0.2483820000D+00 -0.3599998794D-03
      0.9725500000D-01  0.3399998861D-04
      0.3663300000D-01 -0.1299999564D-04
 P  16 1.00       0.000000000000
      0.1620586000D+05 -0.1499999917D-04
      0.3836274000D+04 -0.1289999929D-03
      0.1246048000D+04 -0.7479999588D-03
      0.4767535000D+03 -0.3307999818D-02
      0.2021895000D+03 -0.1181099935D-01
      0.9209487000D+02 -0.3453299810D-01
      0.4414720000D+02 -0.7878499566D-01
      0.2185468000D+02 -0.1321829927D+00
      0.1108596000D+02 -0.1371949924D+00
      0.5674108000D+01  0.2707499851D-01
      0.2823170000D+01  0.3288909819D+00
      0.1368621000D+01  0.4572799748D+00
      0.6444310000D+00  0.2889079841D+00
      0.2483820000D+00  0.4743299739D-01
      0.9725500000D-01 -0.3521999806D-02
      0.3663300000D-01  0.1455999920D-02
 P  16 1.00       0.000000000000
      0.1620586000D+05  0.2999996141D-05
      0.3836274000D+04  0.2999996141D-04
      0.1246048000D+04  0.1719997788D-03
      0.4767535000D+03  0.7619990199D-03
      0.2021895000D+03  0.2725996494D-02
      0.9209487000D+02  0.7975989741D-02
      0.4414720000D+02  0.1828697648D-01
      0.2185468000D+02  0.3077596041D-01
      0.1108596000D+02  0.3237295836D-01
      0.5674108000D+01 -0.9977987166D-02
      0.2823170000D+01 -0.9052888355D-01
      0.1368621000D+01 -0.1380038225D+00
      0.6444310000D+00 -0.7796489972D-01
      0.2483820000D+00  0.2295597047D+00
      0.9725500000D-01  0.5761212589D+00
      0.3663300000D-01  0.3485375517D+00
 P  16 1.00       0.000000000000
      0.1620586000D+05  0.3999999049D-05
      0.3836274000D+04  0.3999999049D-04
      0.1246048000D+04  0.2259999463D-03
      0.4767535000D+03  0.1012999759D-02
      0.2021895000D+03  0.3574999150D-02
      0.9209487000D+02  0.1061199748D-01
      0.4414720000D+02  0.2390199432D-01
      0.2185468000D+02  0.4127899019D-01
      0.1108596000D+02  0.4147499014D-01
      0.5674108000D+01 -0.9457997752D-02
      0.2823170000D+01 -0.1236949706D+00
      0.1368621000D+01 -0.1743919585D+00
      0.6444310000D+00 -0.1291699693D+00
      0.2483820000D+00  0.4003479048D+00
      0.9725500000D-01  0.6696458408D+00
      0.3663300000D-01  0.8273198034D-01
 P   1 1.00       0.000000000000
      0.3663300000D-01  0.1000000000D+01
 D   8 1.00       0.000000000000
      0.1006630000D+03  0.3579001209D-02
      0.2983360000D+02  0.2582700873D-01
      0.1088940000D+02  0.9855903330D-01
      0.4393580000D+01  0.2383270805D+00
      0.1817820000D+01  0.3587071212D+00
      0.7278270000D+00  0.3650921234D+00
      0.2712950000D+00  0.2337380790D+00
      0.8830900000D-01  0.5661801913D-01
 D   8 1.00       0.000000000000
      0.1006630000D+03 -0.3454000354D-02
      0.2983360000D+02 -0.2492500256D-01
      0.1088940000D+02 -0.9763501002D-01
      0.4393580000D+01 -0.2366920243D+00
      0.1817820000D+01 -0.2923500300D+00
      0.7278270000D+00 -0.4973000510D-02
      0.2712950000D+00  0.5065880520D+00
      0.8830900000D-01  0.4979510511D+00
 D   1 1.00       0.000000000000
      0.8830900000D-01  0.1000000000D+01
 F   2 1.00       0.000000000000
      0.2703200000D+01  0.4267759482D+00
      0.6438000000D+00  0.7697989066D+00
 S   1 1.00       0.000000000000
      0.1335000000D-01  0.1000000000D+01
 P   1 1.00       0.000000000000
      0.1380000000D-01  0.1000000000D+01
 D   1 1.00       0.000000000000
      0.2875000000D-01  0.1000000000D+01
 F   1 1.00       0.000000000000
      0.2226000000D+00  0.1000000000D+01
 ****
      2 0
 S   8 1.00       0.000000000000
      0.1172000000D+05  0.7096459465D-03
      0.1759000000D+04  0.5467272292D-02
      0.4008000000D+03  0.2782311861D-01
      0.1137000000D+03  0.1047477397D+00
      0.3703000000D+02  0.2829208464D+00
      0.1327000000D+02  0.4484952387D+00
      0.5025000000D+01  0.2708168852D+00
      0.1013000000D+01  0.1545029161D-01
 S   8 1.00       0.000000000000
      0.1172000000D+05 -0.3144434117D-03
      0.1759000000D+04 -0.2482137681D-02
      0.4008000000D+03 -0.1231635538D-01
      0.1137000000D+03 -0.5053891734D-01
      0.3703000000D+02 -0.1393849033D+00
      0.1327000000D+02 -0.3250774948D+00
      0.5025000000D+01 -0.2298483076D+00
      0.1013000000D+01  0.1095379347D+01
 S   1 1.00       0.000000000000
      0.3023000000D+00  0.1000000000D+01
 P   3 1.00       0.000000000000
      0.1770000000D+02  0.6267916628D-01
      0.3854000000D+01  0.3335365659D+00
      0.1046000000D+01  0.7412396416D+00
 P   1 1.00       0.000000000000
      0.2753000000D+00  0.1000000000D+01
 D   1 1.00       0.000000000000
      0.1185000000D+01  0.1000000000D+01
 S   1 1.00       0.000000000000
      0.7896000000D-01  0.1000000000D+01
 P   1 1.00       0.000000000000
      0.6856000000D-01  0.1000000000D+01
 D   1 1.00       0.000000000000
      0.3320000000D+00  0.1000000000D+01
 ****

 There are    44 symmetry adapted cartesian basis functions of A1  symmetry.
 There are     8 symmetry adapted cartesian basis functions of A2  symmetry.
 There are    21 symmetry adapted cartesian basis functions of B1  symmetry.
 There are    21 symmetry adapted cartesian basis functions of B2  symmetry.
 There are    36 symmetry adapted basis functions of A1  symmetry.
 There are     8 symmetry adapted basis functions of A2  symmetry.
 There are    19 symmetry adapted basis functions of B1  symmetry.
 There are    19 symmetry adapted basis functions of B2  symmetry.
    82 basis functions,   483 primitive gaussians,    94 cartesian basis functions
    19 alpha electrons       14 beta electrons
       nuclear repulsion energy        64.2205350231 Hartrees.
 NAtoms=    2 NActive=    2 NUniq=    2 SFac= 1.00D+00 NAtFMM=   60 NAOKFM=F Big=F
 Integral buffers will be    131072 words long.
 Raffenetti 2 integral format.
 Two-electron integral symmetry is turned on.
 One-electron integrals computed using PRISM.
 NBasis=    82 RedAO= F EigKep=  0.00D+00  NBF=    36     8    19    19
 NBsUse=    82 1.00D-04 EigRej=  0.00D+00 NBFU=    36     8    19    19
 Initial guess from the checkpoint file:  MnO_6Sg+.chk
 B after Tr=     0.000000    0.000000    0.000000
         Rot=    1.000000    0.000000    0.000000    0.000000 Ang=   0.00 deg.
 Initial guess orbital symmetries:
       Occupied  (SG) (SG) (SG) (PI) (PI) (SG) (SG) (SG) (PI) (PI)
                 (SG) (SG) (PI) (PI) (DLTA) (DLTA) (SG) (PI) (PI)
       Virtual   (SG) (SG) (PI) (PI) (SG) (SG) (SG) (PI) (PI) (DLTA)
                 (DLTA) (PI) (PI) (SG) (PI) (PI) (SG) (SG) (DLTA)
                 (DLTA) (PHI) (PHI) (PI) (PI) (SG) (PI) (PI) (SG)
                 (SG) (DLTA) (DLTA) (PI) (PI) (PI) (PI) (SG) (SG)
                 (SG) (DLTA) (DLTA) (PI) (PI) (SG) (PHI) (PHI)
                 (DLTA) (DLTA) (PI) (PI) (SG) (SG) (SG) (SG) (PI)
                 (PI) (PI) (PI) (PI) (PI) (DLTA) (DLTA) (DLTA)
                 (DLTA)
 Keep R1 and R2 ints in memory in symmetry-blocked form, NReq=17049998.
 Requested convergence on RMS density matrix=1.00D-10 within 128 cycles.
 Requested convergence on MAX density matrix=1.00D-08.
 Requested convergence on             energy=1.00D-08.
 No special actions if energy rises.
 EnCoef did     5 forward-backward iterations
 Rare condition: small coef for last iteration:  0.000D+00
 EnCoef did   100 forward-backward iterations
 Rare condition: small coef for last iteration:  0.000D+00
 EnCoef did   100 forward-backward iterations
 Rare condition: small coef for last iteration:  0.000D+00
 EnCoef did   100 forward-backward iterations
 Rare condition: small coef for last iteration:  0.000D+00
 EnCoef did   100 forward-backward iterations
 Rare condition: small coef for last iteration:  0.000D+00
 EnCoef did   100 forward-backward iterations
 Rare condition: small coef for last iteration:  0.000D+00
 EnCoef did   100 forward-backward iterations
 Rare condition: small coef for last iteration:  0.000D+00
 SCF Done:  E(ROHF) =  -1224.62423023     A.U. after   31 cycles
            NFock= 31  Conv=0.76D-10     -V/T= 1.9999
 <Sx>= 0.0000 <Sy>= 0.0000 <Sz>= 2.5000 <S**2>= 8.7500 S= 2.5000
 <L.S>= 0.000000000000E+00
 Annihilation of the first spin contaminant:
 S**2 before annihilation     8.7500,   after     8.7500
 GenMOA:  NOpAll=  4 NOp2=4 NOpUse=  4 JSym2X=1
 <Sx>= 0.0000 <Sy>= 0.0000 <Sz>= 2.5000 <S**2>= 8.7500 S= 2.5000
 ExpMin= 1.34D-02 ExpMax= 3.96D+06 ExpMxC= 4.50D+03 IAcc=3 IRadAn=         5 AccDes= 0.00D+00
 HarFok:  IExCor=  205 AccDes= 0.00D+00 IRadAn=         5 IDoV=-2 UseB2=F ITyADJ=14
 ICtDFT= 12500011 ScaDFX=  1.000000  1.000000  1.000000  1.000000
 DSYEVD returned Info=         119 IAlg= 4 N=    59 NDim=    59 NE2=    27297893 trying DSYEV.
 Range of M.O.s used for correlation:    11    82
 NBasis=    82 NAE=    19 NBE=    14 NFC=    10 NFV=     0
 NROrb=     72 NOA=     9 NOB=     4 NVA=    63 NVB=    68

 **** Warning!!: The largest alpha MO coefficient is  0.55825345D+02


 **** Warning!!: The largest beta MO coefficient is  0.53429378D+02

 Singles contribution to E2=   -0.5829545939D-02
 Semi-Direct transformation.
 ModeAB=           2 MOrb=             9 LenV=    1609941243
 LASXX=       385949 LTotXX=      385949 LenRXX=      385949
 LTotAB=      411346 MaxLAS=     2893320 LenRXY=     2893320
 NonZer=     3027456 LenScr=     5297152 LnRSAI=           0
 LnScr1=           0 LExtra=      489786 Total=      9066207
 MaxDsk= 17179869184 SrtSym=           F ITran=            4
 JobTyp=1 Pass  1:  I=   1 to   9.
 (rs|ai) integrals will be sorted in core.
 ModeAB=           2 MOrb=             4 LenV=    1609941243
 LASXX=       181366 LTotXX=      181366 LenRXX=     1285920
 LTotAB=      146810 MaxLAS=     1285920 LenRXY=      146810
 NonZer=     1345536 LenScr=     2691072 LnRSAI=           0
 LnScr1=           0 LExtra=     3769055 Total=      7892857
 MaxDsk= 17179869184 SrtSym=           F ITran=            4
 JobTyp=2 Pass  1:  I=   1 to   4.
 (rs|ai) integrals will be sorted in core.
 Spin components of T(2) and E(2):
     alpha-alpha T2 =       0.3496079789D-01 E2=     -0.1105870330D+00
     alpha-beta  T2 =       0.9042399785D-01 E2=     -0.2220727194D+00
     beta-beta   T2 =       0.1782637215D-01 E2=     -0.4086842524D-01
 ANorm=    0.1073492664D+01
 E2 =    -0.3793577236D+00 EUMP2 =    -0.12250035879514D+04
 (S**2,0)=  0.87500D+01           (S**2,1)=  0.87500D+01
 E(PUHF)=      -0.12246242302D+04        E(PMP2)=      -0.12250035880D+04
 SABFC:  FilMap=F DoRead=T UsPure=F NBasis=    82 NBas6D=    94 NB=    94 NOp=4 jStart=        1450
 MulTab 
              1            2            3            4            5
     1            1            2            3            4            5
     2            2            1            4            3            6
     3            3            4            1            2            7
     4            4            3            2            1            8
     5            5            6            7            8            1
     6            6            5            8            7            2
     7            7            8            5            6            3
     8            8            7            6            5            4
              6            7            8
     1            6            7            8
     2            5            8            7
     3            8            5            6
     4            7            6            5
     5            2            3            4
     6            1            4            3
     7            4            1            2
     8            3            2            1
 Order+ChrTbl 
              1            2            3            4            5
     1            1            1            1            1            1
     2            2            1            1           -1           -1
     3            4            1           -1           -1            1
     4            3            1           -1            1           -1
     5            0            0            0            0            0
     6            0            0            0            0            0
     7            0            0            0            0            0
     8            0            0            0            0            0

 SABF information in SABFC1:
 NS=            0          44          52          73          94
 NS2=           0        1488        2281        3373        4465
 NS4=           0     1107816     1422637     2019415     2616193
 SABFC:  FilMap=T DoRead=T UsPure=F NBasis=    82 NBas6D=    94 NB=    94 NOp=4 jStart=        1450
 MulTab 
              1            2            3            4            5
     1            1            2            3            4            5
     2            2            1            4            3            6
     3            3            4            1            2            7
     4            4            3            2            1            8
     5            5            6            7            8            1
     6            6            5            8            7            2
     7            7            8            5            6            3
     8            8            7            6            5            4
              6            7            8
     1            6            7            8
     2            5            8            7
     3            8            5            6
     4            7            6            5
     5            2            3            4
     6            1            4            3
     7            4            1            2
     8            3            2            1
 Order+ChrTbl 
              1            2            3            4            5
     1            1            1            1            1            1
     2            2            1            1           -1           -1
     3            4            1           -1           -1            1
     4            3            1           -1            1           -1
     5            0            0            0            0            0
     6            0            0            0            0            0
     7            0            0            0            0            0
     8            0            0            0            0            0

 SABF information in SABFC1:
 NS=            0          44          52          73          94
 NS2=           0        1488        2281        3373        4465
 NS4=           0     1107816     1422637     2019415     2616193
 SetICI:  IOpClM=           4 LR1=              0 LR2=              1 LR3=              1
          LRAOJ=      9970345 InStor=           4 jStart=        1450 jR1=          13670
          jR2=          13670 jR3=        2629863 LenR=       2616193 jVInt=      9984015
          jVSAO=      9984015 jVPerm=     5246056 MDV=     1610612591
 Keep R2 and R3 ints in memory in symmetry-blocked form, NReq=16637615.
 FoFCou: FMM=F IPFlag=           0 FMFlag=           0 FMFlg1=           0
         NFxFlg=           0 DoJE=F BraDBF=F KetDBF=F FulRan=T
         wScrn=  0.000000 ICntrl=     600 IOpCl=  0 I1Cent=           0 NGrid=           0
         NMat0=    1 NMatS0=   4465 NMatT0=    0 NMatD0=    1 NMtDS0=    0 NMtDT0=    0
 Petite list used in FoFCou.
 FoFCou:  KetSym=F NOpSet=  1 NOpAb=1 NOp=  1.
 FoFCou:  CnvScl= 1.00D+00 Thresh= 1.00D-10 IAcrcy=      10.
 PrismS was handed  1600249242 working-precision words and   406 shell-pairs
 FoFCou: LinMIO=F DoNuc=F BraDBF=F KetDBF=F HaveP=F PDBF=F HaveZ=F HaveW=F
         NIJTC =      10 NIJTAt=       0 NIJTCD=       0 NIJTT =      10
         IJTBeg=       1 IJTEnd=      10 KLTBeg=       1 KLTEnd=      10
         IPTBeg=       1 IPTEnd=      10 IPTBCv=       1 IPTECv=      10
         IZTBeg=       1 IZTEnd=      10 IZTBCv=       1 IZTECv=      10
         IWTBeg=      11 IWTEnd=      10 IWTBCv=      11 IWTECv=      10
         INTBeg=       1 INTEnd=       0 IFTBCv=       1 IFTECv=      10
 NCel replicated for PrismC:     1
 CoulSu:  IncDef=  1024 NBBP=          82621 NTPThr=   100 NPartT=    8 Incr=         103 LDynOK=F.
 CoulSu:  NPrtUS=   8 ThrOK=T IAlg=1 NPAlg=1 LenDen=           0 LWGrdD=           0 DoCopy=F.
 Enter PrismC: JobTyp=20 DoJE=F Cont=F.
 PrismC:  IPart=     0 DynPar=F LinDyn=F Incr=         103 UseFst=F UseS4=T.
 PrismC was handed   199871771 working-precision words and   406 shell-pairs
 Enter PrismC: JobTyp=20 DoJE=F Cont=F.
 PrismC was handed   199871771 working-precision words and   406 shell-pairs
 Enter PrismC: JobTyp=20 DoJE=F Cont=F.
 Enter PrismC: JobTyp=20 DoJE=F Cont=F.
 Enter PrismC: JobTyp=20 DoJE=F Cont=F.
 PrismC was handed   199871771 working-precision words and   406 shell-pairs
 PrismC was handed   199871771 working-precision words and   406 shell-pairs
 Enter PrismC: JobTyp=20 DoJE=F Cont=F.
 PrismC was handed   199871771 working-precision words and   406 shell-pairs
 PrismC was handed   199871771 working-precision words and   406 shell-pairs
 Enter PrismC: JobTyp=20 DoJE=F Cont=F.
 Enter PrismC: JobTyp=20 DoJE=F Cont=F.
 PrismC was handed   199871771 working-precision words and   406 shell-pairs
 PrismC was handed   199871771 working-precision words and   406 shell-pairs
 IPart=  7 NShTot=        9928 NShNF=        9928 NShFF=           0 NBatch=        1539 AvBLen=         6.5
 IPart=  6 NShTot=        9978 NShNF=        9978 NShFF=           0 NBatch=        1545 AvBLen=         6.5
 IPart=  5 NShTot=       10076 NShNF=       10076 NShFF=           0 NBatch=        1575 AvBLen=         6.4
 IPart=  4 NShTot=       10138 NShNF=       10138 NShFF=           0 NBatch=        1597 AvBLen=         6.3
 IPart=  3 NShTot=       10462 NShNF=       10462 NShFF=           0 NBatch=        1728 AvBLen=         6.1
 IPart=  2 NShTot=       10534 NShNF=       10534 NShFF=           0 NBatch=        1758 AvBLen=         6.0
 IPart=  1 NShTot=       10694 NShNF=       10694 NShFF=           0 NBatch=        1810 AvBLen=         5.9
 IPart=  0 NShTot=       10808 NShNF=       10808 NShFF=           0 NBatch=        1850 AvBLen=         5.8
 CoulSu:  NxtVal=            825.
 Iterations=  50 Convergence= 0.100D-06
 A(0)= 0.10000E+01      ANORM= 0.10692E+01      W(0)=-0.37352818E+00
 Singles contributions to ROMP2 energy
Alpha= -0.3022160770244E-02
Beta=  -0.2807385168542E-02
 Iteration Nr.   1
 **********************
 Bef DD1 bucket IAS1 number    25 has length          567 dot= 0.48074782D-02
 Bef DD1 bucket IAS2 number    26 has length          272 dot= 0.43678532D-02
 Bef DD1 bucket IAD1 number    22 has length        17604 dot= 0.34960798D-01
 Bef DD1 bucket IAD2 number    23 has length        39696 dot= 0.90423998D-01
 Bef DD1 bucket IAD3 number    24 has length         3430 dot= 0.17826372D-01
 Bef DD1 bucket IWS1 number 12996 has length          567 dot= 0.53789217D-03
 Bef DD1 bucket IWS2 number 12995 has length          272 dot= 0.55123373D-03
 Bef DD1 bucket IWD1 number 12994 has length        17604 dot= 0.00000000D+00
 Bef DD1 bucket IWD2 number 12993 has length        39696 dot= 0.00000000D+00
 Bef DD1 bucket IWD3 number 12992 has length         3430 dot= 0.00000000D+00
 Bef DD1 bucket IWAI1 number     0 is not present.
 Bef DD1 bucket IWAI2 number     0 is not present.
 Bef DD1 bucket IWAI3 number     0 is not present.
 Bef DD1 bucket IWAI4 number     0 is not present.
 DD1Dir will call FoFMem   1 times, MxPair=       114
 NAB=    36 NAA=    36 NBB=     6.
 DD1Dir:  Pass   1 NRAB=    36 NRAA=    36 NRBB=     6 NR=   114.
 FoFMem:  NOp1=  1 NOp2=  4 NOpUse=  1 NSOp=  4 NMatL=     2 DoSAO=T
 IM=     1 IB=1 DotPA=          0.00000000
 IM=     1 IB=2 DotPA=          0.00000000
 IM=     1 IB=3 DotPA=          0.00000000
 IM=     1 IB=4 DotPA=          0.83561005
 IM=     2 IB=1 DotPA=          0.00000000
 IM=     2 IB=2 DotPA=          0.00000000
 IM=     2 IB=3 DotPA=          0.00000000
 IM=     2 IB=4 DotPA=          3.81546002
 FoFMem:  NOp1=  1 NOp2=  4 NOpUse=  1 NSOp=  4 NMatL=     2 DoSAO=T
 IM=     1 IB=1 DotFA=          0.00000000
 IM=     1 IB=2 DotFA=          0.00000000
 IM=     1 IB=3 DotFA=          0.00000000
 IM=     1 IB=4 DotFA=          0.03470552
 IM=     2 IB=1 DotFA=          0.00000000
 IM=     2 IB=2 DotFA=          0.00000000
 IM=     2 IB=3 DotFA=          0.00000000
 IM=     2 IB=4 DotFA=          0.08998441
 FoFMem:  NOp1=  1 NOp2=  4 NOpUse=  1 NSOp=  4 NMatL=     2 DoSAO=T
 IM=     1 IB=1 DotPA=          0.00000000
 IM=     1 IB=2 DotPA=          0.00000000
 IM=     1 IB=3 DotPA=          0.83561005
 IM=     1 IB=4 DotPA=          0.00000000
 IM=     2 IB=1 DotPA=          0.00000000
 IM=     2 IB=2 DotPA=          0.00000000
 IM=     2 IB=3 DotPA=          3.81546003
 IM=     2 IB=4 DotPA=          0.00000000
 FoFMem:  NOp1=  1 NOp2=  4 NOpUse=  1 NSOp=  4 NMatL=     2 DoSAO=T
 IM=     1 IB=1 DotFA=          0.00000000
 IM=     1 IB=2 DotFA=          0.00000000
 IM=     1 IB=3 DotFA=          0.03470552
 IM=     1 IB=4 DotFA=          0.00000000
 IM=     2 IB=1 DotFA=          0.00000000
 IM=     2 IB=2 DotFA=          0.00000000
 IM=     2 IB=3 DotFA=          0.08998441
 IM=     2 IB=4 DotFA=          0.00000000
 FoFMem:  NOp1=  1 NOp2=  4 NOpUse=  1 NSOp=  4 NMatL=     1 DoSAO=T
 IM=     1 IB=1 DotPA=          0.00000000
 IM=     1 IB=2 DotPA=          2.87793951
 IM=     1 IB=3 DotPA=          0.00000000
 IM=     1 IB=4 DotPA=          0.00000000
 FoFMem:  NOp1=  1 NOp2=  4 NOpUse=  1 NSOp=  4 NMatL=     1 DoSAO=T
 IM=     1 IB=1 DotFA=          0.00000000
 IM=     1 IB=2 DotFA=          0.08027401
 IM=     1 IB=3 DotFA=          0.00000000
 IM=     1 IB=4 DotFA=          0.00000000
 FoFMem:  NOp1=  1 NOp2=  4 NOpUse=  1 NSOp=  4 NMatL=     1 DoSAO=T
 IM=     1 IB=1 DotPA=          0.50636989
 IM=     1 IB=2 DotPA=          0.00000000
 IM=     1 IB=3 DotPA=          0.00000000
 IM=     1 IB=4 DotPA=          0.00000000
 FoFMem:  NOp1=  1 NOp2=  4 NOpUse=  1 NSOp=  4 NMatL=     1 DoSAO=T
 IM=     1 IB=1 DotFA=          0.03629845
 IM=     1 IB=2 DotFA=          0.00000000
 IM=     1 IB=3 DotFA=          0.00000000
 IM=     1 IB=4 DotFA=          0.00000000
 FoFMem:  NOp1=  1 NOp2=  4 NOpUse=  1 NSOp=  4 NMatL=    10 DoSAO=T
 IM=     1 IB=1 DotPA=          0.00000000
 IM=     1 IB=2 DotPA=          0.00000000
 IM=     1 IB=3 DotPA=          0.00000000
 IM=     1 IB=4 DotPA=          0.86148230
 IM=     2 IB=1 DotPA=          0.00000000
 IM=     2 IB=2 DotPA=          0.00000000
 IM=     2 IB=3 DotPA=          0.00000000
 IM=     2 IB=4 DotPA=          1.22683092
 IM=     3 IB=1 DotPA=          0.00000000
 IM=     3 IB=2 DotPA=          0.00000000
 IM=     3 IB=3 DotPA=          0.00000000
 IM=     3 IB=4 DotPA=          3.92879081
 IM=     4 IB=1 DotPA=          0.00000000
 IM=     4 IB=2 DotPA=          0.00000000
 IM=     4 IB=3 DotPA=          0.00000000
 IM=     4 IB=4 DotPA=          2.95833772
 IM=     5 IB=1 DotPA=          0.00000000
 IM=     5 IB=2 DotPA=          0.00000000
 IM=     5 IB=3 DotPA=          0.00000000
 IM=     5 IB=4 DotPA=          3.53177888
 IM=     6 IB=1 DotPA=          0.00000000
 IM=     6 IB=2 DotPA=          0.00000000
 IM=     6 IB=3 DotPA=          0.00000000
 IM=     6 IB=4 DotPA=          1.40145023
 IM=     7 IB=1 DotPA=          0.00000000
 IM=     7 IB=2 DotPA=          0.00000000
 IM=     7 IB=3 DotPA=          0.00000000
 IM=     7 IB=4 DotPA=          2.77148824
 IM=     8 IB=1 DotPA=          0.00000000
 IM=     8 IB=2 DotPA=          0.00000000
 IM=     8 IB=3 DotPA=          0.00000000
 IM=     8 IB=4 DotPA=          4.55627820
 IM=     9 IB=1 DotPA=          0.00000000
 IM=     9 IB=2 DotPA=          0.00000000
 IM=     9 IB=3 DotPA=          0.00000000
 IM=     9 IB=4 DotPA=          3.96122232
 IM=    10 IB=1 DotPA=          0.00000000
 IM=    10 IB=2 DotPA=          0.00000000
 IM=    10 IB=3 DotPA=          0.00000000
 IM=    10 IB=4 DotPA=          3.00064142
 FoFMem:  NOp1=  1 NOp2=  4 NOpUse=  1 NSOp=  4 NMatL=    10 DoSAO=T
 IM=     1 IB=1 DotFA=          0.00000000
 IM=     1 IB=2 DotFA=          0.00000000
 IM=     1 IB=3 DotFA=          0.00000000
 IM=     1 IB=4 DotFA=          0.01089681
 IM=     2 IB=1 DotFA=          0.00000000
 IM=     2 IB=2 DotFA=          0.00000000
 IM=     2 IB=3 DotFA=          0.00000000
 IM=     2 IB=4 DotFA=          0.03471690
 IM=     3 IB=1 DotFA=          0.00000000
 IM=     3 IB=2 DotFA=          0.00000000
 IM=     3 IB=3 DotFA=          0.00000000
 IM=     3 IB=4 DotFA=          0.02134452
 IM=     4 IB=1 DotFA=          0.00000000
 IM=     4 IB=2 DotFA=          0.00000000
 IM=     4 IB=3 DotFA=          0.00000000
 IM=     4 IB=4 DotFA=          0.00867904
 IM=     5 IB=1 DotFA=          0.00000000
 IM=     5 IB=2 DotFA=          0.00000000
 IM=     5 IB=3 DotFA=          0.00000000
 IM=     5 IB=4 DotFA=          0.03294865
 IM=     6 IB=1 DotFA=          0.00000000
 IM=     6 IB=2 DotFA=          0.00000000
 IM=     6 IB=3 DotFA=          0.00000000
 IM=     6 IB=4 DotFA=          0.03860409
 IM=     7 IB=1 DotFA=          0.00000000
 IM=     7 IB=2 DotFA=          0.00000000
 IM=     7 IB=3 DotFA=          0.00000000
 IM=     7 IB=4 DotFA=          0.02251840
 IM=     8 IB=1 DotFA=          0.00000000
 IM=     8 IB=2 DotFA=          0.00000000
 IM=     8 IB=3 DotFA=          0.00000000
 IM=     8 IB=4 DotFA=          0.09237129
 IM=     9 IB=1 DotFA=          0.00000000
 IM=     9 IB=2 DotFA=          0.00000000
 IM=     9 IB=3 DotFA=          0.00000000
 IM=     9 IB=4 DotFA=          0.01702810
 IM=    10 IB=1 DotFA=          0.00000000
 IM=    10 IB=2 DotFA=          0.00000000
 IM=    10 IB=3 DotFA=          0.00000000
 IM=    10 IB=4 DotFA=          0.00685790
 FoFMem:  NOp1=  1 NOp2=  4 NOpUse=  1 NSOp=  4 NMatL=    10 DoSAO=T
 IM=     1 IB=1 DotPA=          0.00000000
 IM=     1 IB=2 DotPA=          0.00000000
 IM=     1 IB=3 DotPA=          0.86148230
 IM=     1 IB=4 DotPA=          0.00000000
 IM=     2 IB=1 DotPA=          0.00000000
 IM=     2 IB=2 DotPA=          0.00000000
 IM=     2 IB=3 DotPA=          1.22683092
 IM=     2 IB=4 DotPA=          0.00000000
 IM=     3 IB=1 DotPA=          0.00000000
 IM=     3 IB=2 DotPA=          0.00000000
 IM=     3 IB=3 DotPA=          3.92879081
 IM=     3 IB=4 DotPA=          0.00000000
 IM=     4 IB=1 DotPA=          0.00000000
 IM=     4 IB=2 DotPA=          0.00000000
 IM=     4 IB=3 DotPA=          2.95833772
 IM=     4 IB=4 DotPA=          0.00000000
 IM=     5 IB=1 DotPA=          0.00000000
 IM=     5 IB=2 DotPA=          0.00000000
 IM=     5 IB=3 DotPA=          3.53177888
 IM=     5 IB=4 DotPA=          0.00000000
 IM=     6 IB=1 DotPA=          0.00000000
 IM=     6 IB=2 DotPA=          0.00000000
 IM=     6 IB=3 DotPA=          1.40145023
 IM=     6 IB=4 DotPA=          0.00000000
 IM=     7 IB=1 DotPA=          0.00000000
 IM=     7 IB=2 DotPA=          0.00000000
 IM=     7 IB=3 DotPA=          2.77148824
 IM=     7 IB=4 DotPA=          0.00000000
 IM=     8 IB=1 DotPA=          0.00000000
 IM=     8 IB=2 DotPA=          0.00000000
 IM=     8 IB=3 DotPA=          4.55627820
 IM=     8 IB=4 DotPA=          0.00000000
 IM=     9 IB=1 DotPA=          0.00000000
 IM=     9 IB=2 DotPA=          0.00000000
 IM=     9 IB=3 DotPA=          3.96122232
 IM=     9 IB=4 DotPA=          0.00000000
 IM=    10 IB=1 DotPA=          0.00000000
 IM=    10 IB=2 DotPA=          0.00000000
 IM=    10 IB=3 DotPA=          3.00064142
 IM=    10 IB=4 DotPA=          0.00000000
 FoFMem:  NOp1=  1 NOp2=  4 NOpUse=  1 NSOp=  4 NMatL=    10 DoSAO=T
 IM=     1 IB=1 DotFA=          0.00000000
 IM=     1 IB=2 DotFA=          0.00000000
 IM=     1 IB=3 DotFA=          0.01089681
 IM=     1 IB=4 DotFA=          0.00000000
 IM=     2 IB=1 DotFA=          0.00000000
 IM=     2 IB=2 DotFA=          0.00000000
 IM=     2 IB=3 DotFA=          0.03471690
 IM=     2 IB=4 DotFA=          0.00000000
 IM=     3 IB=1 DotFA=          0.00000000
 IM=     3 IB=2 DotFA=          0.00000000
 IM=     3 IB=3 DotFA=          0.02134452
 IM=     3 IB=4 DotFA=          0.00000000
 IM=     4 IB=1 DotFA=          0.00000000
 IM=     4 IB=2 DotFA=          0.00000000
 IM=     4 IB=3 DotFA=          0.00867904
 IM=     4 IB=4 DotFA=          0.00000000
 IM=     5 IB=1 DotFA=          0.00000000
 IM=     5 IB=2 DotFA=          0.00000000
 IM=     5 IB=3 DotFA=          0.03294865
 IM=     5 IB=4 DotFA=          0.00000000
 IM=     6 IB=1 DotFA=          0.00000000
 IM=     6 IB=2 DotFA=          0.00000000
 IM=     6 IB=3 DotFA=          0.03860409
 IM=     6 IB=4 DotFA=          0.00000000
 IM=     7 IB=1 DotFA=          0.00000000
 IM=     7 IB=2 DotFA=          0.00000000
 IM=     7 IB=3 DotFA=          0.02251840
 IM=     7 IB=4 DotFA=          0.00000000
 IM=     8 IB=1 DotFA=          0.00000000
 IM=     8 IB=2 DotFA=          0.00000000
 IM=     8 IB=3 DotFA=          0.09237129
 IM=     8 IB=4 DotFA=          0.00000000
 IM=     9 IB=1 DotFA=          0.00000000
 IM=     9 IB=2 DotFA=          0.00000000
 IM=     9 IB=3 DotFA=          0.01702810
 IM=     9 IB=4 DotFA=          0.00000000
 IM=    10 IB=1 DotFA=          0.00000000
 IM=    10 IB=2 DotFA=          0.00000000
 IM=    10 IB=3 DotFA=          0.00685790
 IM=    10 IB=4 DotFA=          0.00000000
 FoFMem:  NOp1=  1 NOp2=  4 NOpUse=  1 NSOp=  4 NMatL=     8 DoSAO=T
 IM=     1 IB=1 DotPA=          0.00000000
 IM=     1 IB=2 DotPA=          0.67911342
 IM=     1 IB=3 DotPA=          0.00000000
 IM=     1 IB=4 DotPA=          0.00000000
 IM=     2 IB=1 DotPA=          0.00000000
 IM=     2 IB=2 DotPA=          8.86345011
 IM=     2 IB=3 DotPA=          0.00000000
 IM=     2 IB=4 DotPA=          0.00000000
 IM=     3 IB=1 DotPA=          0.00000000
 IM=     3 IB=2 DotPA=          1.20347974
 IM=     3 IB=3 DotPA=          0.00000000
 IM=     3 IB=4 DotPA=          0.00000000
 IM=     4 IB=1 DotPA=          0.00000000
 IM=     4 IB=2 DotPA=          2.47591769
 IM=     4 IB=3 DotPA=          0.00000000
 IM=     4 IB=4 DotPA=          0.00000000
 IM=     5 IB=1 DotPA=          0.00000000
 IM=     5 IB=2 DotPA=          3.91720137
 IM=     5 IB=3 DotPA=          0.00000000
 IM=     5 IB=4 DotPA=          0.00000000
 IM=     6 IB=1 DotPA=          0.00000000
 IM=     6 IB=2 DotPA=          0.91885106
 IM=     6 IB=3 DotPA=          0.00000000
 IM=     6 IB=4 DotPA=          0.00000000
 IM=     7 IB=1 DotPA=          0.00000000
 IM=     7 IB=2 DotPA=          0.91885106
 IM=     7 IB=3 DotPA=          0.00000000
 IM=     7 IB=4 DotPA=          0.00000000
 IM=     8 IB=1 DotPA=          0.00000000
 IM=     8 IB=2 DotPA=          3.29176063
 IM=     8 IB=3 DotPA=          0.00000000
 IM=     8 IB=4 DotPA=          0.00000000
 FoFMem:  NOp1=  1 NOp2=  4 NOpUse=  1 NSOp=  4 NMatL=     8 DoSAO=T
 IM=     1 IB=1 DotFA=          0.00000000
 IM=     1 IB=2 DotFA=          0.00380908
 IM=     1 IB=3 DotFA=          0.00000000
 IM=     1 IB=4 DotFA=          0.00000000
 IM=     2 IB=1 DotFA=          0.00000000
 IM=     2 IB=2 DotFA=          0.03254348
 IM=     2 IB=3 DotFA=          0.00000000
 IM=     2 IB=4 DotFA=          0.00000000
 IM=     3 IB=1 DotFA=          0.00000000
 IM=     3 IB=2 DotFA=          0.02102079
 IM=     3 IB=3 DotFA=          0.00000000
 IM=     3 IB=4 DotFA=          0.00000000
 IM=     4 IB=1 DotFA=          0.00000000
 IM=     4 IB=2 DotFA=          0.01179420
 IM=     4 IB=3 DotFA=          0.00000000
 IM=     4 IB=4 DotFA=          0.00000000
 IM=     5 IB=1 DotFA=          0.00000000
 IM=     5 IB=2 DotFA=          0.02093586
 IM=     5 IB=3 DotFA=          0.00000000
 IM=     5 IB=4 DotFA=          0.00000000
 IM=     6 IB=1 DotFA=          0.00000000
 IM=     6 IB=2 DotFA=          0.01462783
 IM=     6 IB=3 DotFA=          0.00000000
 IM=     6 IB=4 DotFA=          0.00000000
 IM=     7 IB=1 DotFA=          0.00000000
 IM=     7 IB=2 DotFA=          0.01462783
 IM=     7 IB=3 DotFA=          0.00000000
 IM=     7 IB=4 DotFA=          0.00000000
 IM=     8 IB=1 DotFA=          0.00000000
 IM=     8 IB=2 DotFA=          0.08587523
 IM=     8 IB=3 DotFA=          0.00000000
 IM=     8 IB=4 DotFA=          0.00000000
 FoFMem:  NOp1=  1 NOp2=  4 NOpUse=  1 NSOp=  4 NMatL=     8 DoSAO=T
 IM=     1 IB=1 DotPA=          0.50790807
 IM=     1 IB=2 DotPA=          0.00000000
 IM=     1 IB=3 DotPA=          0.00000000
 IM=     1 IB=4 DotPA=          0.00000000
 IM=     2 IB=1 DotPA=          0.65044609
 IM=     2 IB=2 DotPA=          0.00000000
 IM=     2 IB=3 DotPA=          0.00000000
 IM=     2 IB=4 DotPA=          0.00000000
 IM=     3 IB=1 DotPA=          0.64100180
 IM=     3 IB=2 DotPA=          0.00000000
 IM=     3 IB=3 DotPA=          0.00000000
 IM=     3 IB=4 DotPA=          0.00000000
 IM=     4 IB=1 DotPA=          0.90536606
 IM=     4 IB=2 DotPA=          0.00000000
 IM=     4 IB=3 DotPA=          0.00000000
 IM=     4 IB=4 DotPA=          0.00000000
 IM=     5 IB=1 DotPA=          1.86623095
 IM=     5 IB=2 DotPA=          0.00000000
 IM=     5 IB=3 DotPA=          0.00000000
 IM=     5 IB=4 DotPA=          0.00000000
 IM=     6 IB=1 DotPA=          2.01960817
 IM=     6 IB=2 DotPA=          0.00000000
 IM=     6 IB=3 DotPA=          0.00000000
 IM=     6 IB=4 DotPA=          0.00000000
 IM=     7 IB=1 DotPA=          1.14647413
 IM=     7 IB=2 DotPA=          0.00000000
 IM=     7 IB=3 DotPA=          0.00000000
 IM=     7 IB=4 DotPA=          0.00000000
 IM=     8 IB=1 DotPA=          1.14647413
 IM=     8 IB=2 DotPA=          0.00000000
 IM=     8 IB=3 DotPA=          0.00000000
 IM=     8 IB=4 DotPA=          0.00000000
 FoFMem:  NOp1=  1 NOp2=  4 NOpUse=  1 NSOp=  4 NMatL=     8 DoSAO=T
 IM=     1 IB=1 DotFA=          0.00526769
 IM=     1 IB=2 DotFA=          0.00000000
 IM=     1 IB=3 DotFA=          0.00000000
 IM=     1 IB=4 DotFA=          0.00000000
 IM=     2 IB=1 DotFA=          0.01824029
 IM=     2 IB=2 DotFA=          0.00000000
 IM=     2 IB=3 DotFA=          0.00000000
 IM=     2 IB=4 DotFA=          0.00000000
 IM=     3 IB=1 DotFA=          0.03422517
 IM=     3 IB=2 DotFA=          0.00000000
 IM=     3 IB=3 DotFA=          0.00000000
 IM=     3 IB=4 DotFA=          0.00000000
 IM=     4 IB=1 DotFA=          0.02909614
 IM=     4 IB=2 DotFA=          0.00000000
 IM=     4 IB=3 DotFA=          0.00000000
 IM=     4 IB=4 DotFA=          0.00000000
 IM=     5 IB=1 DotFA=          0.01614714
 IM=     5 IB=2 DotFA=          0.00000000
 IM=     5 IB=3 DotFA=          0.00000000
 IM=     5 IB=4 DotFA=          0.00000000
 IM=     6 IB=1 DotFA=          0.02237610
 IM=     6 IB=2 DotFA=          0.00000000
 IM=     6 IB=3 DotFA=          0.00000000
 IM=     6 IB=4 DotFA=          0.00000000
 IM=     7 IB=1 DotFA=          0.00680059
 IM=     7 IB=2 DotFA=          0.00000000
 IM=     7 IB=3 DotFA=          0.00000000
 IM=     7 IB=4 DotFA=          0.00000000
 IM=     8 IB=1 DotFA=          0.00680059
 IM=     8 IB=2 DotFA=          0.00000000
 IM=     8 IB=3 DotFA=          0.00000000
 IM=     8 IB=4 DotFA=          0.00000000
 FoFMem:  NOp1=  1 NOp2=  4 NOpUse=  1 NSOp=  4 NMatL=     9 DoSAO=T
 IM=     1 IB=1 DotPA=          0.00000000
 IM=     1 IB=2 DotPA=          0.00000000
 IM=     1 IB=3 DotPA=          0.00000000
 IM=     1 IB=4 DotPA=          0.43572681
 IM=     2 IB=1 DotPA=          0.00000000
 IM=     2 IB=2 DotPA=          0.00000000
 IM=     2 IB=3 DotPA=          0.00000000
 IM=     2 IB=4 DotPA=          0.69157050
 IM=     3 IB=1 DotPA=          0.00000000
 IM=     3 IB=2 DotPA=          0.00000000
 IM=     3 IB=3 DotPA=          0.00000000
 IM=     3 IB=4 DotPA=          0.90407290
 IM=     4 IB=1 DotPA=          0.00000000
 IM=     4 IB=2 DotPA=          0.00000000
 IM=     4 IB=3 DotPA=          0.00000000
 IM=     4 IB=4 DotPA=          2.14895697
 IM=     5 IB=1 DotPA=          0.00000000
 IM=     5 IB=2 DotPA=          0.00000000
 IM=     5 IB=3 DotPA=          0.00000000
 IM=     5 IB=4 DotPA=          0.72358600
 IM=     6 IB=1 DotPA=          0.00000000
 IM=     6 IB=2 DotPA=          0.00000000
 IM=     6 IB=3 DotPA=          0.00000000
 IM=     6 IB=4 DotPA=          0.55240111
 IM=     7 IB=1 DotPA=          0.00000000
 IM=     7 IB=2 DotPA=          0.00000000
 IM=     7 IB=3 DotPA=          0.00000000
 IM=     7 IB=4 DotPA=          1.34065849
 IM=     8 IB=1 DotPA=          0.00000000
 IM=     8 IB=2 DotPA=          0.00000000
 IM=     8 IB=3 DotPA=          0.00000000
 IM=     8 IB=4 DotPA=          0.66230684
 IM=     9 IB=1 DotPA=          0.00000000
 IM=     9 IB=2 DotPA=          0.00000000
 IM=     9 IB=3 DotPA=          0.00000000
 IM=     9 IB=4 DotPA=          1.65703514
 FoFMem:  NOp1=  1 NOp2=  4 NOpUse=  1 NSOp=  4 NMatL=     9 DoSAO=T
 IM=     1 IB=1 DotFA=          0.00000000
 IM=     1 IB=2 DotFA=          0.00000000
 IM=     1 IB=3 DotFA=          0.00000000
 IM=     1 IB=4 DotFA=          0.01804935
 IM=     2 IB=1 DotFA=          0.00000000
 IM=     2 IB=2 DotFA=          0.00000000
 IM=     2 IB=3 DotFA=          0.00000000
 IM=     2 IB=4 DotFA=          0.00681191
 IM=     3 IB=1 DotFA=          0.00000000
 IM=     3 IB=2 DotFA=          0.00000000
 IM=     3 IB=3 DotFA=          0.00000000
 IM=     3 IB=4 DotFA=          0.02190141
 IM=     4 IB=1 DotFA=          0.00000000
 IM=     4 IB=2 DotFA=          0.00000000
 IM=     4 IB=3 DotFA=          0.00000000
 IM=     4 IB=4 DotFA=          0.04308357
 IM=     5 IB=1 DotFA=          0.00000000
 IM=     5 IB=2 DotFA=          0.00000000
 IM=     5 IB=3 DotFA=          0.00000000
 IM=     5 IB=4 DotFA=          0.00533330
 IM=     6 IB=1 DotFA=          0.00000000
 IM=     6 IB=2 DotFA=          0.00000000
 IM=     6 IB=3 DotFA=          0.00000000
 IM=     6 IB=4 DotFA=          0.00506490
 IM=     7 IB=1 DotFA=          0.00000000
 IM=     7 IB=2 DotFA=          0.00000000
 IM=     7 IB=3 DotFA=          0.00000000
 IM=     7 IB=4 DotFA=          0.01176023
 IM=     8 IB=1 DotFA=          0.00000000
 IM=     8 IB=2 DotFA=          0.00000000
 IM=     8 IB=3 DotFA=          0.00000000
 IM=     8 IB=4 DotFA=          0.01713362
 IM=     9 IB=1 DotFA=          0.00000000
 IM=     9 IB=2 DotFA=          0.00000000
 IM=     9 IB=3 DotFA=          0.00000000
 IM=     9 IB=4 DotFA=          0.04608179
 FoFMem:  NOp1=  1 NOp2=  4 NOpUse=  1 NSOp=  4 NMatL=     9 DoSAO=T
 IM=     1 IB=1 DotPA=          0.00000000
 IM=     1 IB=2 DotPA=          0.00000000
 IM=     1 IB=3 DotPA=          0.43572681
 IM=     1 IB=4 DotPA=          0.00000000
 IM=     2 IB=1 DotPA=          0.00000000
 IM=     2 IB=2 DotPA=          0.00000000
 IM=     2 IB=3 DotPA=          0.69157050
 IM=     2 IB=4 DotPA=          0.00000000
 IM=     3 IB=1 DotPA=          0.00000000
 IM=     3 IB=2 DotPA=          0.00000000
 IM=     3 IB=3 DotPA=          0.90407290
 IM=     3 IB=4 DotPA=          0.00000000
 IM=     4 IB=1 DotPA=          0.00000000
 IM=     4 IB=2 DotPA=          0.00000000
 IM=     4 IB=3 DotPA=          2.14895697
 IM=     4 IB=4 DotPA=          0.00000000
 IM=     5 IB=1 DotPA=          0.00000000
 IM=     5 IB=2 DotPA=          0.00000000
 IM=     5 IB=3 DotPA=          0.72358600
 IM=     5 IB=4 DotPA=          0.00000000
 IM=     6 IB=1 DotPA=          0.00000000
 IM=     6 IB=2 DotPA=          0.00000000
 IM=     6 IB=3 DotPA=          0.55240111
 IM=     6 IB=4 DotPA=          0.00000000
 IM=     7 IB=1 DotPA=          0.00000000
 IM=     7 IB=2 DotPA=          0.00000000
 IM=     7 IB=3 DotPA=          1.34065849
 IM=     7 IB=4 DotPA=          0.00000000
 IM=     8 IB=1 DotPA=          0.00000000
 IM=     8 IB=2 DotPA=          0.00000000
 IM=     8 IB=3 DotPA=          0.66230684
 IM=     8 IB=4 DotPA=          0.00000000
 IM=     9 IB=1 DotPA=          0.00000000
 IM=     9 IB=2 DotPA=          0.00000000
 IM=     9 IB=3 DotPA=          1.65703514
 IM=     9 IB=4 DotPA=          0.00000000
 FoFMem:  NOp1=  1 NOp2=  4 NOpUse=  1 NSOp=  4 NMatL=     9 DoSAO=T
 IM=     1 IB=1 DotFA=          0.00000000
 IM=     1 IB=2 DotFA=          0.00000000
 IM=     1 IB=3 DotFA=          0.01804935
 IM=     1 IB=4 DotFA=          0.00000000
 IM=     2 IB=1 DotFA=          0.00000000
 IM=     2 IB=2 DotFA=          0.00000000
 IM=     2 IB=3 DotFA=          0.00681191
 IM=     2 IB=4 DotFA=          0.00000000
 IM=     3 IB=1 DotFA=          0.00000000
 IM=     3 IB=2 DotFA=          0.00000000
 IM=     3 IB=3 DotFA=          0.02190141
 IM=     3 IB=4 DotFA=          0.00000000
 IM=     4 IB=1 DotFA=          0.00000000
 IM=     4 IB=2 DotFA=          0.00000000
 IM=     4 IB=3 DotFA=          0.04308357
 IM=     4 IB=4 DotFA=          0.00000000
 IM=     5 IB=1 DotFA=          0.00000000
 IM=     5 IB=2 DotFA=          0.00000000
 IM=     5 IB=3 DotFA=          0.00533330
 IM=     5 IB=4 DotFA=          0.00000000
 IM=     6 IB=1 DotFA=          0.00000000
 IM=     6 IB=2 DotFA=          0.00000000
 IM=     6 IB=3 DotFA=          0.00506490
 IM=     6 IB=4 DotFA=          0.00000000
 IM=     7 IB=1 DotFA=          0.00000000
 IM=     7 IB=2 DotFA=          0.00000000
 IM=     7 IB=3 DotFA=          0.01176023
 IM=     7 IB=4 DotFA=          0.00000000
 IM=     8 IB=1 DotFA=          0.00000000
 IM=     8 IB=2 DotFA=          0.00000000
 IM=     8 IB=3 DotFA=          0.01713362
 IM=     8 IB=4 DotFA=          0.00000000
 IM=     9 IB=1 DotFA=          0.00000000
 IM=     9 IB=2 DotFA=          0.00000000
 IM=     9 IB=3 DotFA=          0.04608179
 IM=     9 IB=4 DotFA=          0.00000000
 FoFMem:  NOp1=  1 NOp2=  4 NOpUse=  1 NSOp=  4 NMatL=     6 DoSAO=T
 IM=     1 IB=1 DotPA=          0.00000000
 IM=     1 IB=2 DotPA=          0.38954508
 IM=     1 IB=3 DotPA=          0.00000000
 IM=     1 IB=4 DotPA=          0.00000000
 IM=     2 IB=1 DotPA=          0.00000000
 IM=     2 IB=2 DotPA=          0.88540478
 IM=     2 IB=3 DotPA=          0.00000000
 IM=     2 IB=4 DotPA=          0.00000000
 IM=     3 IB=1 DotPA=          0.00000000
 IM=     3 IB=2 DotPA=          0.70052191
 IM=     3 IB=3 DotPA=          0.00000000
 IM=     3 IB=4 DotPA=          0.00000000
 IM=     4 IB=1 DotPA=          0.00000000
 IM=     4 IB=2 DotPA=          1.27992532
 IM=     4 IB=3 DotPA=          0.00000000
 IM=     4 IB=4 DotPA=          0.00000000
 IM=     5 IB=1 DotPA=          0.00000000
 IM=     5 IB=2 DotPA=          0.70052191
 IM=     5 IB=3 DotPA=          0.00000000
 IM=     5 IB=4 DotPA=          0.00000000
 IM=     6 IB=1 DotPA=          0.00000000
 IM=     6 IB=2 DotPA=          1.27992532
 IM=     6 IB=3 DotPA=          0.00000000
 IM=     6 IB=4 DotPA=          0.00000000
 FoFMem:  NOp1=  1 NOp2=  4 NOpUse=  1 NSOp=  4 NMatL=     6 DoSAO=T
 IM=     1 IB=1 DotFA=          0.00000000
 IM=     1 IB=2 DotFA=          0.00214057
 IM=     1 IB=3 DotFA=          0.00000000
 IM=     1 IB=4 DotFA=          0.00000000
 IM=     2 IB=1 DotFA=          0.00000000
 IM=     2 IB=2 DotFA=          0.00680673
 IM=     2 IB=3 DotFA=          0.00000000
 IM=     2 IB=4 DotFA=          0.00000000
 IM=     3 IB=1 DotFA=          0.00000000
 IM=     3 IB=2 DotFA=          0.00883759
 IM=     3 IB=3 DotFA=          0.00000000
 IM=     3 IB=4 DotFA=          0.00000000
 IM=     4 IB=1 DotFA=          0.00000000
 IM=     4 IB=2 DotFA=          0.04035972
 IM=     4 IB=3 DotFA=          0.00000000
 IM=     4 IB=4 DotFA=          0.00000000
 IM=     5 IB=1 DotFA=          0.00000000
 IM=     5 IB=2 DotFA=          0.00883759
 IM=     5 IB=3 DotFA=          0.00000000
 IM=     5 IB=4 DotFA=          0.00000000
 IM=     6 IB=1 DotFA=          0.00000000
 IM=     6 IB=2 DotFA=          0.04035972
 IM=     6 IB=3 DotFA=          0.00000000
 IM=     6 IB=4 DotFA=          0.00000000
 FoFMem:  NOp1=  1 NOp2=  4 NOpUse=  1 NSOp=  4 NMatL=    12 DoSAO=T
 IM=     1 IB=1 DotPA=          0.03824182
 IM=     1 IB=2 DotPA=          0.00000000
 IM=     1 IB=3 DotPA=          0.00000000
 IM=     1 IB=4 DotPA=          0.00000000
 IM=     2 IB=1 DotPA=          0.26076531
 IM=     2 IB=2 DotPA=          0.00000000
 IM=     2 IB=3 DotPA=          0.00000000
 IM=     2 IB=4 DotPA=          0.00000000
 IM=     3 IB=1 DotPA=          0.28991431
 IM=     3 IB=2 DotPA=          0.00000000
 IM=     3 IB=3 DotPA=          0.00000000
 IM=     3 IB=4 DotPA=          0.00000000
 IM=     4 IB=1 DotPA=          0.66478479
 IM=     4 IB=2 DotPA=          0.00000000
 IM=     4 IB=3 DotPA=          0.00000000
 IM=     4 IB=4 DotPA=          0.00000000
 IM=     5 IB=1 DotPA=          0.34847129
 IM=     5 IB=2 DotPA=          0.00000000
 IM=     5 IB=3 DotPA=          0.00000000
 IM=     5 IB=4 DotPA=          0.00000000
 IM=     6 IB=1 DotPA=          0.83188495
 IM=     6 IB=2 DotPA=          0.00000000
 IM=     6 IB=3 DotPA=          0.00000000
 IM=     6 IB=4 DotPA=          0.00000000
 IM=     7 IB=1 DotPA=          0.29491258
 IM=     7 IB=2 DotPA=          0.00000000
 IM=     7 IB=3 DotPA=          0.00000000
 IM=     7 IB=4 DotPA=          0.00000000
 IM=     8 IB=1 DotPA=          0.60615296
 IM=     8 IB=2 DotPA=          0.00000000
 IM=     8 IB=3 DotPA=          0.00000000
 IM=     8 IB=4 DotPA=          0.00000000
 IM=     9 IB=1 DotPA=          0.52516182
 IM=     9 IB=2 DotPA=          0.00000000
 IM=     9 IB=3 DotPA=          0.00000000
 IM=     9 IB=4 DotPA=          0.00000000
 IM=    10 IB=1 DotPA=          0.35614396
 IM=    10 IB=2 DotPA=          0.00000000
 IM=    10 IB=3 DotPA=          0.00000000
 IM=    10 IB=4 DotPA=          0.00000000
 IM=    11 IB=1 DotPA=          0.52516182
 IM=    11 IB=2 DotPA=          0.00000000
 IM=    11 IB=3 DotPA=          0.00000000
 IM=    11 IB=4 DotPA=          0.00000000
 IM=    12 IB=1 DotPA=          0.35614396
 IM=    12 IB=2 DotPA=          0.00000000
 IM=    12 IB=3 DotPA=          0.00000000
 IM=    12 IB=4 DotPA=          0.00000000
 FoFMem:  NOp1=  1 NOp2=  4 NOpUse=  1 NSOp=  4 NMatL=    12 DoSAO=T
 IM=     1 IB=1 DotFA=          0.00322327
 IM=     1 IB=2 DotFA=          0.00000000
 IM=     1 IB=3 DotFA=          0.00000000
 IM=     1 IB=4 DotFA=          0.00000000
 IM=     2 IB=1 DotFA=          0.01803852
 IM=     2 IB=2 DotFA=          0.00000000
 IM=     2 IB=3 DotFA=          0.00000000
 IM=     2 IB=4 DotFA=          0.00000000
 IM=     3 IB=1 DotFA=          0.00293084
 IM=     3 IB=2 DotFA=          0.00000000
 IM=     3 IB=3 DotFA=          0.00000000
 IM=     3 IB=4 DotFA=          0.00000000
 IM=     4 IB=1 DotFA=          0.00935888
 IM=     4 IB=2 DotFA=          0.00000000
 IM=     4 IB=3 DotFA=          0.00000000
 IM=     4 IB=4 DotFA=          0.00000000
 IM=     5 IB=1 DotFA=          0.01006597
 IM=     5 IB=2 DotFA=          0.00000000
 IM=     5 IB=3 DotFA=          0.00000000
 IM=     5 IB=4 DotFA=          0.00000000
 IM=     6 IB=1 DotFA=          0.01869748
 IM=     6 IB=2 DotFA=          0.00000000
 IM=     6 IB=3 DotFA=          0.00000000
 IM=     6 IB=4 DotFA=          0.00000000
 IM=     7 IB=1 DotFA=          0.01725155
 IM=     7 IB=2 DotFA=          0.00000000
 IM=     7 IB=3 DotFA=          0.00000000
 IM=     7 IB=4 DotFA=          0.00000000
 IM=     8 IB=1 DotFA=          0.00966465
 IM=     8 IB=2 DotFA=          0.00000000
 IM=     8 IB=3 DotFA=          0.00000000
 IM=     8 IB=4 DotFA=          0.00000000
 IM=     9 IB=1 DotFA=          0.00593340
 IM=     9 IB=2 DotFA=          0.00000000
 IM=     9 IB=3 DotFA=          0.00000000
 IM=     9 IB=4 DotFA=          0.00000000
 IM=    10 IB=1 DotFA=          0.01115928
 IM=    10 IB=2 DotFA=          0.00000000
 IM=    10 IB=3 DotFA=          0.00000000
 IM=    10 IB=4 DotFA=          0.00000000
 IM=    11 IB=1 DotFA=          0.00593340
 IM=    11 IB=2 DotFA=          0.00000000
 IM=    11 IB=3 DotFA=          0.00000000
 IM=    11 IB=4 DotFA=          0.00000000
 IM=    12 IB=1 DotFA=          0.01115928
 IM=    12 IB=2 DotFA=          0.00000000
 IM=    12 IB=3 DotFA=          0.00000000
 IM=    12 IB=4 DotFA=          0.00000000
 FoFMem:  NOp1=  1 NOp2=  4 NOpUse=  1 NSOp=  4 NMatL=     9 DoSAO=T
 IM=     1 IB=1 DotPA=          0.00000000
 IM=     1 IB=2 DotPA=          0.00000000
 IM=     1 IB=3 DotPA=          0.00000000
 IM=     1 IB=4 DotPA=          1.32530537
 IM=     2 IB=1 DotPA=          0.00000000
 IM=     2 IB=2 DotPA=          0.00000000
 IM=     2 IB=3 DotPA=          0.00000000
 IM=     2 IB=4 DotPA=          0.75769648
 IM=     3 IB=1 DotPA=          0.00000000
 IM=     3 IB=2 DotPA=          0.00000000
 IM=     3 IB=3 DotPA=          0.00000000
 IM=     3 IB=4 DotPA=          0.38466755
 IM=     4 IB=1 DotPA=          0.00000000
 IM=     4 IB=2 DotPA=          0.00000000
 IM=     4 IB=3 DotPA=          0.00000000
 IM=     4 IB=4 DotPA=          2.16893059
 IM=     5 IB=1 DotPA=          0.00000000
 IM=     5 IB=2 DotPA=          0.00000000
 IM=     5 IB=3 DotPA=          0.00000000
 IM=     5 IB=4 DotPA=          0.78405019
 IM=     6 IB=1 DotPA=          0.00000000
 IM=     6 IB=2 DotPA=          0.00000000
 IM=     6 IB=3 DotPA=          0.00000000
 IM=     6 IB=4 DotPA=          0.44762385
 IM=     7 IB=1 DotPA=          0.00000000
 IM=     7 IB=2 DotPA=          0.00000000
 IM=     7 IB=3 DotPA=          0.00000000
 IM=     7 IB=4 DotPA=          3.02647276
 IM=     8 IB=1 DotPA=          0.00000000
 IM=     8 IB=2 DotPA=          0.00000000
 IM=     8 IB=3 DotPA=          0.00000000
 IM=     8 IB=4 DotPA=          1.39531224
 IM=     9 IB=1 DotPA=          0.00000000
 IM=     9 IB=2 DotPA=          0.00000000
 IM=     9 IB=3 DotPA=          0.00000000
 IM=     9 IB=4 DotPA=          0.81515701
 FoFMem:  NOp1=  1 NOp2=  4 NOpUse=  1 NSOp=  4 NMatL=     9 DoSAO=T
 IM=     1 IB=1 DotFA=          0.00000000
 IM=     1 IB=2 DotFA=          0.00000000
 IM=     1 IB=3 DotFA=          0.00000000
 IM=     1 IB=4 DotFA=          0.05239884
 IM=     2 IB=1 DotFA=          0.00000000
 IM=     2 IB=2 DotFA=          0.00000000
 IM=     2 IB=3 DotFA=          0.00000000
 IM=     2 IB=4 DotFA=          0.01217904
 IM=     3 IB=1 DotFA=          0.00000000
 IM=     3 IB=2 DotFA=          0.00000000
 IM=     3 IB=3 DotFA=          0.00000000
 IM=     3 IB=4 DotFA=          0.02614678
 IM=     4 IB=1 DotFA=          0.00000000
 IM=     4 IB=2 DotFA=          0.00000000
 IM=     4 IB=3 DotFA=          0.00000000
 IM=     4 IB=4 DotFA=          0.08453200
 IM=     5 IB=1 DotFA=          0.00000000
 IM=     5 IB=2 DotFA=          0.00000000
 IM=     5 IB=3 DotFA=          0.00000000
 IM=     5 IB=4 DotFA=          0.00991990
 IM=     6 IB=1 DotFA=          0.00000000
 IM=     6 IB=2 DotFA=          0.00000000
 IM=     6 IB=3 DotFA=          0.00000000
 IM=     6 IB=4 DotFA=          0.01327979
 IM=     7 IB=1 DotFA=          0.00000000
 IM=     7 IB=2 DotFA=          0.00000000
 IM=     7 IB=3 DotFA=          0.00000000
 IM=     7 IB=4 DotFA=          0.02146259
 IM=     8 IB=1 DotFA=          0.00000000
 IM=     8 IB=2 DotFA=          0.00000000
 IM=     8 IB=3 DotFA=          0.00000000
 IM=     8 IB=4 DotFA=          0.05275256
 IM=     9 IB=1 DotFA=          0.00000000
 IM=     9 IB=2 DotFA=          0.00000000
 IM=     9 IB=3 DotFA=          0.00000000
 IM=     9 IB=4 DotFA=          0.08117234
 FoFMem:  NOp1=  1 NOp2=  4 NOpUse=  1 NSOp=  4 NMatL=     9 DoSAO=T
 IM=     1 IB=1 DotPA=          0.00000000
 IM=     1 IB=2 DotPA=          0.00000000
 IM=     1 IB=3 DotPA=          1.32530537
 IM=     1 IB=4 DotPA=          0.00000000
 IM=     2 IB=1 DotPA=          0.00000000
 IM=     2 IB=2 DotPA=          0.00000000
 IM=     2 IB=3 DotPA=          0.75769648
 IM=     2 IB=4 DotPA=          0.00000000
 IM=     3 IB=1 DotPA=          0.00000000
 IM=     3 IB=2 DotPA=          0.00000000
 IM=     3 IB=3 DotPA=          0.38466755
 IM=     3 IB=4 DotPA=          0.00000000
 IM=     4 IB=1 DotPA=          0.00000000
 IM=     4 IB=2 DotPA=          0.00000000
 IM=     4 IB=3 DotPA=          2.16893059
 IM=     4 IB=4 DotPA=          0.00000000
 IM=     5 IB=1 DotPA=          0.00000000
 IM=     5 IB=2 DotPA=          0.00000000
 IM=     5 IB=3 DotPA=          0.78405019
 IM=     5 IB=4 DotPA=          0.00000000
 IM=     6 IB=1 DotPA=          0.00000000
 IM=     6 IB=2 DotPA=          0.00000000
 IM=     6 IB=3 DotPA=          0.44762385
 IM=     6 IB=4 DotPA=          0.00000000
 IM=     7 IB=1 DotPA=          0.00000000
 IM=     7 IB=2 DotPA=          0.00000000
 IM=     7 IB=3 DotPA=          3.02647276
 IM=     7 IB=4 DotPA=          0.00000000
 IM=     8 IB=1 DotPA=          0.00000000
 IM=     8 IB=2 DotPA=          0.00000000
 IM=     8 IB=3 DotPA=          1.39531224
 IM=     8 IB=4 DotPA=          0.00000000
 IM=     9 IB=1 DotPA=          0.00000000
 IM=     9 IB=2 DotPA=          0.00000000
 IM=     9 IB=3 DotPA=          0.81515701
 IM=     9 IB=4 DotPA=          0.00000000
 FoFMem:  NOp1=  1 NOp2=  4 NOpUse=  1 NSOp=  4 NMatL=     9 DoSAO=T
 IM=     1 IB=1 DotFA=          0.00000000
 IM=     1 IB=2 DotFA=          0.00000000
 IM=     1 IB=3 DotFA=          0.05239884
 IM=     1 IB=4 DotFA=          0.00000000
 IM=     2 IB=1 DotFA=          0.00000000
 IM=     2 IB=2 DotFA=          0.00000000
 IM=     2 IB=3 DotFA=          0.01217904
 IM=     2 IB=4 DotFA=          0.00000000
 IM=     3 IB=1 DotFA=          0.00000000
 IM=     3 IB=2 DotFA=          0.00000000
 IM=     3 IB=3 DotFA=          0.02614678
 IM=     3 IB=4 DotFA=          0.00000000
 IM=     4 IB=1 DotFA=          0.00000000
 IM=     4 IB=2 DotFA=          0.00000000
 IM=     4 IB=3 DotFA=          0.08453200
 IM=     4 IB=4 DotFA=          0.00000000
 IM=     5 IB=1 DotFA=          0.00000000
 IM=     5 IB=2 DotFA=          0.00000000
 IM=     5 IB=3 DotFA=          0.00991990
 IM=     5 IB=4 DotFA=          0.00000000
 IM=     6 IB=1 DotFA=          0.00000000
 IM=     6 IB=2 DotFA=          0.00000000
 IM=     6 IB=3 DotFA=          0.01327979
 IM=     6 IB=4 DotFA=          0.00000000
 IM=     7 IB=1 DotFA=          0.00000000
 IM=     7 IB=2 DotFA=          0.00000000
 IM=     7 IB=3 DotFA=          0.02146259
 IM=     7 IB=4 DotFA=          0.00000000
 IM=     8 IB=1 DotFA=          0.00000000
 IM=     8 IB=2 DotFA=          0.00000000
 IM=     8 IB=3 DotFA=          0.05275256
 IM=     8 IB=4 DotFA=          0.00000000
 IM=     9 IB=1 DotFA=          0.00000000
 IM=     9 IB=2 DotFA=          0.00000000
 IM=     9 IB=3 DotFA=          0.08117234
 IM=     9 IB=4 DotFA=          0.00000000
 FoFMem:  NOp1=  1 NOp2=  4 NOpUse=  1 NSOp=  4 NMatL=     6 DoSAO=T
 IM=     1 IB=1 DotPA=          0.00000000
 IM=     1 IB=2 DotPA=          0.58978453
 IM=     1 IB=3 DotPA=          0.00000000
 IM=     1 IB=4 DotPA=          0.00000000
 IM=     2 IB=1 DotPA=          0.00000000
 IM=     2 IB=2 DotPA=          1.73626497
 IM=     2 IB=3 DotPA=          0.00000000
 IM=     2 IB=4 DotPA=          0.00000000
 IM=     3 IB=1 DotPA=          0.00000000
 IM=     3 IB=2 DotPA=          1.55983464
 IM=     3 IB=3 DotPA=          0.00000000
 IM=     3 IB=4 DotPA=          0.00000000
 IM=     4 IB=1 DotPA=          0.00000000
 IM=     4 IB=2 DotPA=          2.65910749
 IM=     4 IB=3 DotPA=          0.00000000
 IM=     4 IB=4 DotPA=          0.00000000
 IM=     5 IB=1 DotPA=          0.00000000
 IM=     5 IB=2 DotPA=          1.55983464
 IM=     5 IB=3 DotPA=          0.00000000
 IM=     5 IB=4 DotPA=          0.00000000
 IM=     6 IB=1 DotPA=          0.00000000
 IM=     6 IB=2 DotPA=          2.65910749
 IM=     6 IB=3 DotPA=          0.00000000
 IM=     6 IB=4 DotPA=          0.00000000
 FoFMem:  NOp1=  1 NOp2=  4 NOpUse=  1 NSOp=  4 NMatL=     6 DoSAO=T
 IM=     1 IB=1 DotFA=          0.00000000
 IM=     1 IB=2 DotFA=          0.00368434
 IM=     1 IB=3 DotFA=          0.00000000
 IM=     1 IB=4 DotFA=          0.00000000
 IM=     2 IB=1 DotFA=          0.00000000
 IM=     2 IB=2 DotFA=          0.01572562
 IM=     2 IB=3 DotFA=          0.00000000
 IM=     2 IB=4 DotFA=          0.00000000
 IM=     3 IB=1 DotFA=          0.00000000
 IM=     3 IB=2 DotFA=          0.01386456
 IM=     3 IB=3 DotFA=          0.00000000
 IM=     3 IB=4 DotFA=          0.00000000
 IM=     4 IB=1 DotFA=          0.00000000
 IM=     4 IB=2 DotFA=          0.06110830
 IM=     4 IB=3 DotFA=          0.00000000
 IM=     4 IB=4 DotFA=          0.00000000
 IM=     5 IB=1 DotFA=          0.00000000
 IM=     5 IB=2 DotFA=          0.01386456
 IM=     5 IB=3 DotFA=          0.00000000
 IM=     5 IB=4 DotFA=          0.00000000
 IM=     6 IB=1 DotFA=          0.00000000
 IM=     6 IB=2 DotFA=          0.06110830
 IM=     6 IB=3 DotFA=          0.00000000
 IM=     6 IB=4 DotFA=          0.00000000
 FoFMem:  NOp1=  1 NOp2=  4 NOpUse=  1 NSOp=  4 NMatL=    12 DoSAO=T
 IM=     1 IB=1 DotPA=          4.76098778
 IM=     1 IB=2 DotPA=          0.00000000
 IM=     1 IB=3 DotPA=          0.00000000
 IM=     1 IB=4 DotPA=          0.00000000
 IM=     2 IB=1 DotPA=          2.91141354
 IM=     2 IB=2 DotPA=          0.00000000
 IM=     2 IB=3 DotPA=          0.00000000
 IM=     2 IB=4 DotPA=          0.00000000
 IM=     3 IB=1 DotPA=          0.47034797
 IM=     3 IB=2 DotPA=          0.00000000
 IM=     3 IB=3 DotPA=          0.00000000
 IM=     3 IB=4 DotPA=          0.00000000
 IM=     4 IB=1 DotPA=          1.43344336
 IM=     4 IB=2 DotPA=          0.00000000
 IM=     4 IB=3 DotPA=          0.00000000
 IM=     4 IB=4 DotPA=          0.00000000
 IM=     5 IB=1 DotPA=          1.42795029
 IM=     5 IB=2 DotPA=          0.00000000
 IM=     5 IB=3 DotPA=          0.00000000
 IM=     5 IB=4 DotPA=          0.00000000
 IM=     6 IB=1 DotPA=          7.49334625
 IM=     6 IB=2 DotPA=          0.00000000
 IM=     6 IB=3 DotPA=          0.00000000
 IM=     6 IB=4 DotPA=          0.00000000
 IM=     7 IB=1 DotPA=          2.41129589
 IM=     7 IB=2 DotPA=          0.00000000
 IM=     7 IB=3 DotPA=          0.00000000
 IM=     7 IB=4 DotPA=          0.00000000
 IM=     8 IB=1 DotPA=         15.28927075
 IM=     8 IB=2 DotPA=          0.00000000
 IM=     8 IB=3 DotPA=          0.00000000
 IM=     8 IB=4 DotPA=          0.00000000
 IM=     9 IB=1 DotPA=          4.95901161
 IM=     9 IB=2 DotPA=          0.00000000
 IM=     9 IB=3 DotPA=          0.00000000
 IM=     9 IB=4 DotPA=          0.00000000
 IM=    10 IB=1 DotPA=          5.84208399
 IM=    10 IB=2 DotPA=          0.00000000
 IM=    10 IB=3 DotPA=          0.00000000
 IM=    10 IB=4 DotPA=          0.00000000
 IM=    11 IB=1 DotPA=          4.95901161
 IM=    11 IB=2 DotPA=          0.00000000
 IM=    11 IB=3 DotPA=          0.00000000
 IM=    11 IB=4 DotPA=          0.00000000
 IM=    12 IB=1 DotPA=          5.84208399
 IM=    12 IB=2 DotPA=          0.00000000
 IM=    12 IB=3 DotPA=          0.00000000
 IM=    12 IB=4 DotPA=          0.00000000
 FoFMem:  NOp1=  1 NOp2=  4 NOpUse=  1 NSOp=  4 NMatL=    12 DoSAO=T
 IM=     1 IB=1 DotFA=          0.10828794
 IM=     1 IB=2 DotFA=          0.00000000
 IM=     1 IB=3 DotFA=          0.00000000
 IM=     1 IB=4 DotFA=          0.00000000
 IM=     2 IB=1 DotFA=          0.05147267
 IM=     2 IB=2 DotFA=          0.00000000
 IM=     2 IB=3 DotFA=          0.00000000
 IM=     2 IB=4 DotFA=          0.00000000
 IM=     3 IB=1 DotFA=          0.00522765
 IM=     3 IB=2 DotFA=          0.00000000
 IM=     3 IB=3 DotFA=          0.00000000
 IM=     3 IB=4 DotFA=          0.00000000
 IM=     4 IB=1 DotFA=          0.02206249
 IM=     4 IB=2 DotFA=          0.00000000
 IM=     4 IB=3 DotFA=          0.00000000
 IM=     4 IB=4 DotFA=          0.00000000
 IM=     5 IB=1 DotFA=          0.02692023
 IM=     5 IB=2 DotFA=          0.00000000
 IM=     5 IB=3 DotFA=          0.00000000
 IM=     5 IB=4 DotFA=          0.00000000
 IM=     6 IB=1 DotFA=          0.10165615
 IM=     6 IB=2 DotFA=          0.00000000
 IM=     6 IB=3 DotFA=          0.00000000
 IM=     6 IB=4 DotFA=          0.00000000
 IM=     7 IB=1 DotFA=          0.04765579
 IM=     7 IB=2 DotFA=          0.00000000
 IM=     7 IB=3 DotFA=          0.00000000
 IM=     7 IB=4 DotFA=          0.00000000
 IM=     8 IB=1 DotFA=          0.23515316
 IM=     8 IB=2 DotFA=          0.00000000
 IM=     8 IB=3 DotFA=          0.00000000
 IM=     8 IB=4 DotFA=          0.00000000
 IM=     9 IB=1 DotFA=          0.04665533
 IM=     9 IB=2 DotFA=          0.00000000
 IM=     9 IB=3 DotFA=          0.00000000
 IM=     9 IB=4 DotFA=          0.00000000
 IM=    10 IB=1 DotFA=          0.18504973
 IM=    10 IB=2 DotFA=          0.00000000
 IM=    10 IB=3 DotFA=          0.00000000
 IM=    10 IB=4 DotFA=          0.00000000
 IM=    11 IB=1 DotFA=          0.04665533
 IM=    11 IB=2 DotFA=          0.00000000
 IM=    11 IB=3 DotFA=          0.00000000
 IM=    11 IB=4 DotFA=          0.00000000
 IM=    12 IB=1 DotFA=          0.18504973
 IM=    12 IB=2 DotFA=          0.00000000
 IM=    12 IB=3 DotFA=          0.00000000
 IM=    12 IB=4 DotFA=          0.00000000
 Aft DD1 bucket IAS1 number    25 has length          567 dot= 0.48074782D-02
 Aft DD1 bucket IAS2 number    26 has length          272 dot= 0.43678532D-02
 Aft DD1 bucket IAD1 number    22 has length        17604 dot= 0.34960798D-01
 Aft DD1 bucket IAD2 number    23 has length        39696 dot= 0.90423998D-01
 Aft DD1 bucket IAD3 number    24 has length         3430 dot= 0.17826372D-01
 Aft DD1 bucket IWS1 number 12996 has length          567 dot= 0.16069369D-01
 Aft DD1 bucket IWS2 number 12995 has length          272 dot= 0.17084807D-01
 Aft DD1 bucket IWD1 number 12994 has length        17604 dot= 0.95000537D-02
 Aft DD1 bucket IWD2 number 12993 has length        39696 dot= 0.37707160D-01
 Aft DD1 bucket IWD3 number 12992 has length         3430 dot= 0.58784901D-02
 Aft DD1 bucket IWAI1 number 19999 has length        22032 dot= 0.59931322D-02
 Aft DD1 bucket IWAI2 number 19998 has length         9072 dot= 0.43440611D-02
 Aft DD1 bucket IWAI3 number 19997 has length        20412 dot= 0.20929107D-02
 Aft DD1 bucket IWAI4 number 19996 has length         1632 dot= 0.12719962D-02
 Bef DD1 bucket IAS1 number    25 has length          567 dot= 0.48074782D-02
 Bef DD1 bucket IAS2 number    26 has length          272 dot= 0.43678532D-02
 Bef DD1 bucket IAD1 number 12999 has length        17604 dot= 0.52160457D-05
 Bef DD1 bucket IAD2 number 12998 has length        39696 dot= 0.20998359D-04
 Bef DD1 bucket IAD3 number 12997 has length         3430 dot= 0.44549087D-05
 Bef DD1 bucket IWS1 number    30 has length          567 dot= 0.00000000D+00
 Bef DD1 bucket IWS2 number    31 has length          272 dot= 0.00000000D+00
 Bef DD1 bucket IWD1 number    27 has length        17604 dot= 0.00000000D+00
 Bef DD1 bucket IWD2 number    28 has length        39696 dot= 0.00000000D+00
 Bef DD1 bucket IWD3 number    29 has length         3430 dot= 0.00000000D+00
 Bef DD1 bucket IWAI1 number     0 is not present.
 Bef DD1 bucket IWAI2 number     0 is not present.
 Bef DD1 bucket IWAI3 number     0 is not present.
 Bef DD1 bucket IWAI4 number     0 is not present.
 DD1Dir will call FoFMem   1 times, MxPair=       114
 NAB=    36 NAA=    36 NBB=     6.
 DD1Dir:  Pass   1 NRAB=    36 NRAA=    36 NRBB=     6 NR=   114.
 FoFMem:  NOp1=  1 NOp2=  4 NOpUse=  1 NSOp=  4 NMatL=     2 DoSAO=T
 IM=     1 IB=1 DotPA=          0.00000000
 IM=     1 IB=2 DotPA=          0.00000000
 IM=     1 IB=3 DotPA=          0.00000000
 IM=     1 IB=4 DotPA=          0.00372676
 IM=     2 IB=1 DotPA=          0.00000000
 IM=     2 IB=2 DotPA=          0.00000000
 IM=     2 IB=3 DotPA=          0.00000000
 IM=     2 IB=4 DotPA=          0.00710758
 FoFMem:  NOp1=  1 NOp2=  4 NOpUse=  1 NSOp=  4 NMatL=     2 DoSAO=T
 IM=     1 IB=1 DotFA=          0.00000000
 IM=     1 IB=2 DotFA=          0.00000000
 IM=     1 IB=3 DotFA=          0.00000000
 IM=     1 IB=4 DotFA=          0.00017805
 IM=     2 IB=1 DotFA=          0.00000000
 IM=     2 IB=2 DotFA=          0.00000000
 IM=     2 IB=3 DotFA=          0.00000000
 IM=     2 IB=4 DotFA=          0.00164665
 FoFMem:  NOp1=  1 NOp2=  4 NOpUse=  1 NSOp=  4 NMatL=     2 DoSAO=T
 IM=     1 IB=1 DotPA=          0.00000000
 IM=     1 IB=2 DotPA=          0.00000000
 IM=     1 IB=3 DotPA=          0.00372676
 IM=     1 IB=4 DotPA=          0.00000000
 IM=     2 IB=1 DotPA=          0.00000000
 IM=     2 IB=2 DotPA=          0.00000000
 IM=     2 IB=3 DotPA=          0.00710758
 IM=     2 IB=4 DotPA=          0.00000000
 FoFMem:  NOp1=  1 NOp2=  4 NOpUse=  1 NSOp=  4 NMatL=     2 DoSAO=T
 IM=     1 IB=1 DotFA=          0.00000000
 IM=     1 IB=2 DotFA=          0.00000000
 IM=     1 IB=3 DotFA=          0.00017805
 IM=     1 IB=4 DotFA=          0.00000000
 IM=     2 IB=1 DotFA=          0.00000000
 IM=     2 IB=2 DotFA=          0.00000000
 IM=     2 IB=3 DotFA=          0.00164665
 IM=     2 IB=4 DotFA=          0.00000000
 FoFMem:  NOp1=  1 NOp2=  4 NOpUse=  1 NSOp=  4 NMatL=     1 DoSAO=T
 IM=     1 IB=1 DotPA=          0.00000000
 IM=     1 IB=2 DotPA=          0.00255207
 IM=     1 IB=3 DotPA=          0.00000000
 IM=     1 IB=4 DotPA=          0.00000000
 FoFMem:  NOp1=  1 NOp2=  4 NOpUse=  1 NSOp=  4 NMatL=     1 DoSAO=T
 IM=     1 IB=1 DotFA=          0.00000000
 IM=     1 IB=2 DotFA=          0.00067698
 IM=     1 IB=3 DotFA=          0.00000000
 IM=     1 IB=4 DotFA=          0.00000000
 FoFMem:  NOp1=  1 NOp2=  4 NOpUse=  1 NSOp=  4 NMatL=     1 DoSAO=T
 IM=     1 IB=1 DotPA=          0.00743711
 IM=     1 IB=2 DotPA=          0.00000000
 IM=     1 IB=3 DotPA=          0.00000000
 IM=     1 IB=4 DotPA=          0.00000000
 FoFMem:  NOp1=  1 NOp2=  4 NOpUse=  1 NSOp=  4 NMatL=     1 DoSAO=T
 IM=     1 IB=1 DotFA=          0.00022193
 IM=     1 IB=2 DotFA=          0.00000000
 IM=     1 IB=3 DotFA=          0.00000000
 IM=     1 IB=4 DotFA=          0.00000000
 FoFMem:  NOp1=  1 NOp2=  4 NOpUse=  1 NSOp=  4 NMatL=    10 DoSAO=T
 IM=     1 IB=1 DotPA=          0.00000000
 IM=     1 IB=2 DotPA=          0.00000000
 IM=     1 IB=3 DotPA=          0.00000000
 IM=     1 IB=4 DotPA=          0.00203803
 IM=     2 IB=1 DotPA=          0.00000000
 IM=     2 IB=2 DotPA=          0.00000000
 IM=     2 IB=3 DotPA=          0.00000000
 IM=     2 IB=4 DotPA=          0.00333083
 IM=     3 IB=1 DotPA=          0.00000000
 IM=     3 IB=2 DotPA=          0.00000000
 IM=     3 IB=3 DotPA=          0.00000000
 IM=     3 IB=4 DotPA=          0.00000000
 IM=     4 IB=1 DotPA=          0.00000000
 IM=     4 IB=2 DotPA=          0.00000000
 IM=     4 IB=3 DotPA=          0.00000000
 IM=     4 IB=4 DotPA=          0.00000000
 IM=     5 IB=1 DotPA=          0.00000000
 IM=     5 IB=2 DotPA=          0.00000000
 IM=     5 IB=3 DotPA=          0.00000000
 IM=     5 IB=4 DotPA=          0.00168292
 IM=     6 IB=1 DotPA=          0.00000000
 IM=     6 IB=2 DotPA=          0.00000000
 IM=     6 IB=3 DotPA=          0.00000000
 IM=     6 IB=4 DotPA=          0.00275046
 IM=     7 IB=1 DotPA=          0.00000000
 IM=     7 IB=2 DotPA=          0.00000000
 IM=     7 IB=3 DotPA=          0.00000000
 IM=     7 IB=4 DotPA=          0.00388244
 IM=     8 IB=1 DotPA=          0.00000000
 IM=     8 IB=2 DotPA=          0.00000000
 IM=     8 IB=3 DotPA=          0.00000000
 IM=     8 IB=4 DotPA=          0.00634524
 IM=     9 IB=1 DotPA=          0.00000000
 IM=     9 IB=2 DotPA=          0.00000000
 IM=     9 IB=3 DotPA=          0.00000000
 IM=     9 IB=4 DotPA=          0.00000000
 IM=    10 IB=1 DotPA=          0.00000000
 IM=    10 IB=2 DotPA=          0.00000000
 IM=    10 IB=3 DotPA=          0.00000000
 IM=    10 IB=4 DotPA=          0.00000000
 FoFMem:  NOp1=  1 NOp2=  4 NOpUse=  1 NSOp=  4 NMatL=    10 DoSAO=T
 IM=     1 IB=1 DotFA=          0.00000000
 IM=     1 IB=2 DotFA=          0.00000000
 IM=     1 IB=3 DotFA=          0.00000000
 IM=     1 IB=4 DotFA=          0.00006270
 IM=     2 IB=1 DotFA=          0.00000000
 IM=     2 IB=2 DotFA=          0.00000000
 IM=     2 IB=3 DotFA=          0.00000000
 IM=     2 IB=4 DotFA=          0.00019811
 IM=     3 IB=1 DotFA=          0.00000000
 IM=     3 IB=2 DotFA=          0.00000000
 IM=     3 IB=3 DotFA=          0.00000000
 IM=     3 IB=4 DotFA=          0.00000000
 IM=     4 IB=1 DotFA=          0.00000000
 IM=     4 IB=2 DotFA=          0.00000000
 IM=     4 IB=3 DotFA=          0.00000000
 IM=     4 IB=4 DotFA=          0.00000000
 IM=     5 IB=1 DotFA=          0.00000000
 IM=     5 IB=2 DotFA=          0.00000000
 IM=     5 IB=3 DotFA=          0.00000000
 IM=     5 IB=4 DotFA=          0.00018109
 IM=     6 IB=1 DotFA=          0.00000000
 IM=     6 IB=2 DotFA=          0.00000000
 IM=     6 IB=3 DotFA=          0.00000000
 IM=     6 IB=4 DotFA=          0.00057633
 IM=     7 IB=1 DotFA=          0.00000000
 IM=     7 IB=2 DotFA=          0.00000000
 IM=     7 IB=3 DotFA=          0.00000000
 IM=     7 IB=4 DotFA=          0.00046699
 IM=     8 IB=1 DotFA=          0.00000000
 IM=     8 IB=2 DotFA=          0.00000000
 IM=     8 IB=3 DotFA=          0.00000000
 IM=     8 IB=4 DotFA=          0.00149239
[...]
 IM=    11 IB=2 DotFA=          0.00000000
 IM=    11 IB=3 DotFA=          0.00000000
 IM=    11 IB=4 DotFA=          0.00000000
 IM=    12 IB=1 DotFA=          0.18437793
 IM=    12 IB=2 DotFA=          0.00000000
 IM=    12 IB=3 DotFA=          0.00000000
 IM=    12 IB=4 DotFA=          0.00000000
 Aft DD1 bucket IAS1 number    25 has length          567 dot= 0.24948994D+00
 Aft DD1 bucket IAS2 number    26 has length          272 dot= 0.73477691D-01
 Aft DD1 bucket IAD1 number 12999 has length        17604 dot= 0.34659551D-01
 Aft DD1 bucket IAD2 number 12998 has length        39696 dot= 0.14466700D+00
 Aft DD1 bucket IAD3 number 12997 has length         3430 dot= 0.10389305D-01
 Aft DD1 bucket IWS1 number    30 has length          567 dot= 0.34122520D-01
 Aft DD1 bucket IWS2 number    31 has length          272 dot= 0.53754060D-01
 Aft DD1 bucket IWD1 number    27 has length        17604 dot= 0.92374116D-02
 Aft DD1 bucket IWD2 number    28 has length        39696 dot= 0.52087467D-01
 Aft DD1 bucket IWD3 number    29 has length         3430 dot= 0.35098991D-02
 Aft DD1 bucket IWAI1 number     0 is not present.
 Aft DD1 bucket IWAI2 number     0 is not present.
 Aft DD1 bucket IWAI3 number     0 is not present.
 Aft DD1 bucket IWAI4 number     0 is not present.
 Aft SD4 bucket IAS1 number    25 has length          567 dot= 0.24948994D+00
 Aft SD4 bucket IAS2 number    26 has length          272 dot= 0.73477691D-01
 Aft SD4 bucket IAD1 number    22 has length        17604 dot= 0.38529937D-01
 Aft SD4 bucket IAD2 number    23 has length        39696 dot= 0.12442465D+00
 Aft SD4 bucket IAD3 number    24 has length         3430 dot= 0.96913543D-02
 Aft SD4 bucket IWS1 number    30 has length          567 dot= 0.34122520D-01
 Aft SD4 bucket IWS2 number    31 has length          272 dot= 0.53754060D-01
 Aft SD4 bucket IWD1 number    27 has length        17604 dot= 0.92374116D-02
 Aft SD4 bucket IWD2 number    28 has length        39696 dot= 0.52087467D-01
 Aft SD4 bucket IWD3 number    29 has length         3430 dot= 0.35098991D-02
 Aft SD4 bucket IWAI1 number     0 is not present.
 Aft SD4 bucket IWAI2 number     0 is not present.
 Aft SD4 bucket IWAI3 number     0 is not present.
 Aft SD4 bucket IWAI4 number     0 is not present.
 TestDE:  II= 99 I=2 DE=    0.590353572370D-01
 TestDE:  II= 99 I=1 DE=    0.180676233496D-01
 TestDE:  II= 99 I=3 DE=    0.272532658338D-02
 Aft DS4 bucket IAS1 number    25 has length          567 dot= 0.24948994D+00
 Aft DS4 bucket IAS2 number    26 has length          272 dot= 0.73477691D-01
 Aft DS4 bucket IAD1 number    22 has length        17604 dot= 0.38529937D-01
 Aft DS4 bucket IAD2 number    23 has length        39696 dot= 0.12442465D+00
 Aft DS4 bucket IAD3 number    24 has length         3430 dot= 0.96913543D-02
 Aft DS4 bucket IWS1 number    30 has length          567 dot= 0.34122520D-01
 Aft DS4 bucket IWS2 number    31 has length          272 dot= 0.53754060D-01
 Aft DS4 bucket IWD1 number    27 has length        17604 dot= 0.28245589D-01
 Aft DS4 bucket IWD2 number    28 has length        39696 dot= 0.68059641D-01
 Aft DS4 bucket IWD3 number    29 has length         3430 dot= 0.39557234D-02
 Aft DS4 bucket IWAI1 number     0 is not present.
 Aft DS4 bucket IWAI2 number     0 is not present.
 Aft DS4 bucket IWAI3 number     0 is not present.
 Aft DS4 bucket IWAI4 number     0 is not present.
 Bef SD5a bucket IAS1 number    25 has length          567 dot= 0.24948994D+00
 Bef SD5a bucket IAS2 number    26 has length          272 dot= 0.73477691D-01
 Bef SD5a bucket IAD1 number 12999 has length        17604 dot= 0.34659551D-01
 Bef SD5a bucket IAD2 number 12998 has length        39696 dot= 0.14466700D+00
 Bef SD5a bucket IAD3 number 12997 has length         3430 dot= 0.10389305D-01
 Bef SD5a bucket IWS1 number    30 has length          567 dot= 0.34122520D-01
 Bef SD5a bucket IWS2 number    31 has length          272 dot= 0.53754060D-01
 Bef SD5a bucket IWD1 number    27 has length        17604 dot= 0.28245589D-01
 Bef SD5a bucket IWD2 number    28 has length        39696 dot= 0.68059641D-01
 Bef SD5a bucket IWD3 number    29 has length         3430 dot= 0.39557234D-02
 Bef SD5a bucket IWAI1 number     0 is not present.
 Bef SD5a bucket IWAI2 number     0 is not present.
 Bef SD5a bucket IWAI3 number     0 is not present.
 Bef SD5a bucket IWAI4 number     0 is not present.
 Bef SD5b bucket IAS1 number     0 is not present.
 Bef SD5b bucket IAS2 number     0 is not present.
 Bef SD5b bucket IAD1 number     0 is not present.
 Bef SD5b bucket IAD2 number     0 is not present.
 Bef SD5b bucket IAD3 number     0 is not present.
 Bef SD5b bucket IWS1 number    30 has length          567 dot= 0.34122520D-01
 Bef SD5b bucket IWS2 number    31 has length          272 dot= 0.53754060D-01
 Bef SD5b bucket IWD1 number    27 has length        17604 dot= 0.28245589D-01
 Bef SD5b bucket IWD2 number    28 has length        39696 dot= 0.68059641D-01
 Bef SD5b bucket IWD3 number    29 has length         3430 dot= 0.39557234D-02
 Bef SD5b bucket IWAI1 number     0 is not present.
 Bef SD5b bucket IWAI2 number     0 is not present.
 Bef SD5b bucket IWAI3 number     0 is not present.
 Bef SD5b bucket IWAI4 number     0 is not present.
 TestDE:  II= 19 I=1 DE=   -0.888121977417D-03
 TestDE:  II= 19 I=2 DE=    0.227442215836D-01
 TestDE:  II= 19 I=3 DE=    0.824095094261D-03
 Aft SD5 bucket IAS1 number    25 has length          567 dot= 0.24948994D+00
 Aft SD5 bucket IAS2 number    26 has length          272 dot= 0.73477691D-01
 Aft SD5 bucket IAD1 number    22 has length        17604 dot= 0.38529937D-01
 Aft SD5 bucket IAD2 number    23 has length        39696 dot= 0.12442465D+00
 Aft SD5 bucket IAD3 number    24 has length         3430 dot= 0.96913543D-02
 Aft SD5 bucket IWS1 number    30 has length          567 dot= 0.51642070D-01
 Aft SD5 bucket IWS2 number    31 has length          272 dot= 0.37240976D-01
 Aft SD5 bucket IWD1 number    27 has length        17604 dot= 0.30856513D-01
 Aft SD5 bucket IWD2 number    28 has length        39696 dot= 0.77653219D-01
 Aft SD5 bucket IWD3 number    29 has length         3430 dot= 0.76929635D-02
 Aft SD5 bucket IWAI1 number     0 is not present.
 Aft SD5 bucket IWAI2 number     0 is not present.
 Aft SD5 bucket IWAI3 number     0 is not present.
 Aft SD5 bucket IWAI4 number     0 is not present.
 Contribution from DD1=    0.22680195D-01
 Bef DD2 bucket IAS1 number    25 has length          567 dot= 0.24948994D+00
 Bef DD2 bucket IAS2 number    26 has length          272 dot= 0.73477691D-01
 Bef DD2 bucket IAD1 number    22 has length        17604 dot= 0.38529937D-01
 Bef DD2 bucket IAD2 number    23 has length        39696 dot= 0.12442465D+00
 Bef DD2 bucket IAD3 number    24 has length         3430 dot= 0.96913543D-02
 Bef DD2 bucket IWS1 number    30 has length          567 dot= 0.51642070D-01
 Bef DD2 bucket IWS2 number    31 has length          272 dot= 0.37240976D-01
 Bef DD2 bucket IWD1 number    27 has length        17604 dot= 0.30856513D-01
 Bef DD2 bucket IWD2 number    28 has length        39696 dot= 0.77653219D-01
 Bef DD2 bucket IWD3 number    29 has length         3430 dot= 0.76929635D-02
 Bef DD2 bucket IWAI1 number     0 is not present.
 Bef DD2 bucket IWAI2 number     0 is not present.
 Bef DD2 bucket IWAI3 number     0 is not present.
 Bef DD2 bucket IWAI4 number     0 is not present.
 ExpSMa:  Full in-core algorithm.
 ExpSMa:  Full in-core algorithm.
 ExpSMa:  Full in-core algorithm.
 ExpSMa:  Full in-core algorithm.
 ExpSMa:  Full in-core algorithm.
 ExpSMa:  Full in-core algorithm.
 ExpSMa:  Full in-core algorithm.
 ExpSMa:  Full in-core algorithm.
 TestDE:  II=419 I=1 DE=    0.184612899889D-01
 TestDE:  II=419 I=2 DE=    0.902578838159D-01
 TestDE:  II=419 I=3 DE=    0.567487139022D-02
 Aft DD2 bucket IAS1 number    25 has length          567 dot= 0.24948994D+00
 Aft DD2 bucket IAS2 number    26 has length          272 dot= 0.73477691D-01
 Aft DD2 bucket IAD1 number    22 has length        17604 dot= 0.38529937D-01
 Aft DD2 bucket IAD2 number    23 has length        39696 dot= 0.12442465D+00
 Aft DD2 bucket IAD3 number    24 has length         3430 dot= 0.96913543D-02
 Aft DD2 bucket IWS1 number    30 has length          567 dot= 0.51642070D-01
 Aft DD2 bucket IWS2 number    31 has length          272 dot= 0.37240976D-01
 Aft DD2 bucket IWD1 number    27 has length        17604 dot= 0.48667452D-01
 Aft DD2 bucket IWD2 number    28 has length        39696 dot= 0.15943293D+00
 Aft DD2 bucket IWD3 number    29 has length         3430 dot= 0.12300318D-01
 Aft DD2 bucket IWAI1 number     0 is not present.
 Aft DD2 bucket IWAI2 number     0 is not present.
 Aft DD2 bucket IWAI3 number     0 is not present.
 Aft DD2 bucket IWAI4 number     0 is not present.
 Contribution from DD2=    0.91713850D-01
 Contribution from DD3=    0.00000000D+00
 Singles added:  Sum=   -0.32941292D-01
 End CIDS3 bucket IAS1 number    25 has length          567 dot= 0.24948994D+00
 End CIDS3 bucket IAS2 number    26 has length          272 dot= 0.73477691D-01
 End CIDS3 bucket IAD1 number    22 has length        17604 dot= 0.38529937D-01
 End CIDS3 bucket IAD2 number    23 has length        39696 dot= 0.12442465D+00
 End CIDS3 bucket IAD3 number    24 has length         3430 dot= 0.96913543D-02
 End CIDS3 bucket IWS1 number    30 has length          567 dot= 0.51642070D-01
 End CIDS3 bucket IWS2 number    31 has length          272 dot= 0.37240976D-01
 End CIDS3 bucket IWD1 number    27 has length        17604 dot= 0.48667452D-01
 End CIDS3 bucket IWD2 number    28 has length        39696 dot= 0.15943293D+00
 End CIDS3 bucket IWD3 number    29 has length         3430 dot= 0.12300318D-01
 End CIDS3 bucket IWAI1 number     0 is not present.
 End CIDS3 bucket IWAI2 number     0 is not present.
 End CIDS3 bucket IWAI3 number     0 is not present.
 End CIDS3 bucket IWAI4 number     0 is not present.
 Entering DoROCS
 TestDE:  II= 99 I=2 DE=    0.902578838159D-01
 TestDE:  II= 99 I=1 DE=    0.184612899889D-01
 TestDE:  II= 99 I=3 DE=    0.567487139022D-02
 TestDE:  II= 99 I=1 DE=    0.204745189469D-01
 TestDE:  II= 11 I=2 DE=    0.902578838159D-01
 TestDE:  II= 99 I=2 DE=    0.944664010777D-01
 TestDE:  II= 98 I=2 DE=    0.937493472576D-01
 TestDE:  II= 98 I=3 DE=    0.545577056046D-02
 TestDE:  II= 89 I=1 DE=    0.254352543746D-01
 TestDE:  II= 89 I=2 DE=    0.104766602354D+00
 TestDE:  II= 88 I=3 DE=    0.835371314214D-02
 TestDE:  II= 88 I=2 DE=    0.123557977018D+00
 TestDE:  II=  5 I=1 DE=   -0.357586334211D-01
 TestDE:  II=  7 I=2 DE=    0.910922630817D-01
 TestDE:  II=  8 I=2 DE=   -0.144736480892D+00
 TestDE:  II=  9 I=3 DE=   -0.375157357086D-02
 TestDE:  II= 50 I=1 DE=   -0.103233790465D-01
 TestDE:  II= 70 I=2 DE=   -0.536442178102D-01
 TestDE:  II= 90 I=3 DE=    0.460213957128D-02
 UMP4Q scratch file information:
   i      file        len
 ---     ------    ------
   1      19999     95440
   2      19998     95440
   3      19997     95440
   4      19996     95440
   5      19995     95440
   6      19994      4624
 total scratch length=      481824
 TestDE:  II= 71 I=2 DE=    0.303803179421D-02
 TestDE:  II= 70 I=2 DE=   -0.409123834009D-03
 TestDE:  II= 72 I=2 DE=    0.366859512320D-03
 TestDE:  II= 75 I=2 DE=   -0.536271270465D-01
 TestDE:  II= 75 I=1 DE=   -0.604142680551D-02
 TestDE:  II= 75 I=3 DE=    0.497925537785D-02
 GetDE: DE=      0.00000000D+00
 TestDE:  II= 65 I=1 DE=    0.385299431277D-01
 TestDE:  II= 65 I=2 DE=    0.124424651438D+00
 TestDE:  II= 65 I=3 DE=    0.969135223383D-02
 Singles A-vector converged to   2.3857142D-08
 Singles A-vector converged to   5.4291302D-08
 The Euclidean norm of the A-vectors is   5.6017889D-08
 The Euclidean norm of the A-vectors is   5.8635176D-08
 The Euclidean norm of the A-vectors is   6.1492239D-08
 A(0)= 0.10000E+01      ANORM= 0.12230E+01      W(0)=-0.37114169E+00
 DE(Corr)= -0.38751803     E(CORR)=     -1225.0117483     Delta=-1.93D-08
 NORM(A)=   0.12229530D+01
 Wavefunction amplitudes converged. E(Corr)=     -1225.0117483    
 Dominant configurations:
 ***********************
 Spin Case        I    J    A    B          Value
    AA           19        20            0.406334D+00
    AA           19        23           -0.158756D+00
    BB           12        15           -0.107040D+00
 Largest amplitude= 4.06D-01
    T4(aaa)= -0.30291134D-02
    T5(aaa)=  0.22596959D-02
    T4(aab)= -0.20936382D-01
    T5(aab)=  0.10739761D-01
    T4(abb)= -0.14486341D-01
    T5(abb)=  0.58875631D-02
    T4(bbb)= -0.63579294D-03
    T5(bbb)=  0.28334544D-03
 Time for triples=       34.21 seconds.
 T4(CCSD)= -0.39087629D-01
 T5(CCSD)=  0.19170366D-01
 CCSD(T)= -0.12250316655D+04
 Discarding MO integrals.

 **********************************************************************

            Population analysis using the SCF density.

 **********************************************************************

 Orbital symmetries:
       Occupied  (SG) (SG) (SG) (PI) (PI) (SG) (SG) (SG) (PI) (PI)
                 (SG) (SG) (PI) (PI) (DLTA) (DLTA) (SG) (PI) (PI)
       Virtual   (SG) (PI) (PI) (SG) (SG) (PI) (PI) (DLTA) (DLTA)
                 (SG) (PI) (PI) (SG) (SG) (PI) (PI) (SG) (DLTA)
                 (DLTA) (PI) (PI) (SG) (PI) (PI) (SG) (SG) (DLTA)
                 (DLTA) (PHI) (PHI) (PI) (PI) (SG) (PI) (PI) (SG)
                 (PI) (PI) (DLTA) (DLTA) (SG) (DLTA) (DLTA) (PI)
                 (PI) (SG) (SG) (PI) (PI) (SG) (SG) (PHI) (PHI)
                 (DLTA) (DLTA) (PI) (PI) (SG) (DLTA) (DLTA) (PI)
                 (PI) (SG)
 The electronic state is 6-SG.
 Alpha  occ. eigenvalues -- -240.53954 -29.17928 -24.88446 -24.88446 -24.87723
 Alpha  occ. eigenvalues --  -20.43480  -4.00854  -2.71633  -2.71633  -2.71130
 Alpha  occ. eigenvalues --   -1.11582  -0.64772  -0.64772  -0.63631  -0.63631
 Alpha  occ. eigenvalues --   -0.59266  -0.33923  -0.33923  -0.33659
 Alpha virt. eigenvalues --   -0.04179   0.01682   0.01682   0.02103   0.03973
 Alpha virt. eigenvalues --    0.06869   0.06869   0.08614   0.08614   0.08874
 Alpha virt. eigenvalues --    0.10178   0.10178   0.14658   0.16124   0.23616
 Alpha virt. eigenvalues --    0.23616   0.29395   0.30515   0.30515   0.34412
 Alpha virt. eigenvalues --    0.34412   0.34856   0.37535   0.37535   0.47706
 Alpha virt. eigenvalues --    0.63515   0.79376   0.79376   0.79426   0.79426
 Alpha virt. eigenvalues --    0.81765   0.81765   0.86987   0.91558   0.91558
 Alpha virt. eigenvalues --    0.93628   1.22719   1.22719   1.23963   1.23963
 Alpha virt. eigenvalues --    1.28319   1.46390   1.46390   1.55047   1.55047
 Alpha virt. eigenvalues --    1.88109   1.95518   2.16856   2.16856   2.27318
 Alpha virt. eigenvalues --    3.19322   3.19322   3.20427   3.20977   3.20977
 Alpha virt. eigenvalues --    3.26936   3.26936   3.60664   3.78337   3.78337
 Alpha virt. eigenvalues --    3.89350   3.89350   4.52398
          Condensed to atoms (all electrons):
              1          2
     1  Mn  23.901590   0.159625
     2  O    0.159625   8.779160
          Atomic-Atomic Spin Densities.
              1          2
     1  Mn   4.968962  -0.067122
     2  O   -0.067122   0.165281
 Mulliken charges and spin densities:
              1          2
     1  Mn   0.938785   4.901840
     2  O   -0.938785   0.098160
 Sum of Mulliken charges =   0.00000 spin densities =   5.000000
 Mulliken charges and spin densities with hydrogens summed into heavy atoms:
              1          2
     1  Mn   0.938785   4.901840
     2  O   -0.938785   0.098160
 Sum of Mulliken charges with hydrogens summed into heavy atoms =   0.00000 spin densities =   5.000000
 Electronic spatial extent (au):  <R**2>=            104.9245
 Charge=              0.0000 electrons
 Dipole moment (field-independent basis, Debye):
    X=              0.0000    Y=              0.0000    Z=              8.9236  Tot=              8.9236
 Quadrupole moment (field-independent basis, Debye-Ang):
   XX=            -19.1535   YY=            -19.1535   ZZ=            -23.7592
   XY=              0.0000   XZ=              0.0000   YZ=              0.0000
 Traceless Quadrupole moment (field-independent basis, Debye-Ang):
   XX=              1.5352   YY=              1.5352   ZZ=             -3.0705
   XY=              0.0000   XZ=              0.0000   YZ=              0.0000
 Octapole moment (field-independent basis, Debye-Ang**2):
  XXX=              0.0000  YYY=              0.0000  ZZZ=             24.2035  XYY=              0.0000
  XXY=              0.0000  XXZ=              5.8954  XZZ=              0.0000  YZZ=              0.0000
  YYZ=              5.8954  XYZ=              0.0000
 Hexadecapole moment (field-independent basis, Debye-Ang**3):
 XXXX=            -22.4879 YYYY=            -22.4879 ZZZZ=           -101.7357 XXXY=              0.0000
 XXXZ=              0.0000 YYYX=              0.0000 YYYZ=              0.0000 ZZZX=              0.0000
 ZZZY=              0.0000 XXYY=             -7.4960 XXZZ=            -20.1878 YYZZ=            -20.1878
 XXYZ=              0.0000 YYXZ=              0.0000 ZZXY=              0.0000
 N-N= 6.422053502306D+01 E-N=-4.488679448392D+03  KE= 1.821600570365D+03
                          Isotropic Fermi Contact Couplings
        Atom                 a.u.       MegaHertz       Gauss      10(-4) cm-1
     1  Mn(55)             1.27079     280.93440     100.24438      93.70963
     2  O(17)              0.00890      -1.07918      -0.38508      -0.35998
 --------------------------------------------------------
       Center         ----  Spin Dipole Couplings  ----
                      3XX-RR        3YY-RR        3ZZ-RR
 --------------------------------------------------------
     1   Atom        0.351545      0.351545     -0.703091
     2   Atom       -0.080432     -0.080432      0.160864
 --------------------------------------------------------
                        XY            XZ            YZ
 --------------------------------------------------------
     1   Atom        0.000000      0.000000      0.000000
     2   Atom        0.000000      0.000000      0.000000
 --------------------------------------------------------


 ---------------------------------------------------------------------------------
              Anisotropic Spin Dipole Couplings in Principal Axis System
 ---------------------------------------------------------------------------------

       Atom             a.u.   MegaHertz   Gauss  10(-4) cm-1        Axes

              Baa    -0.7031   -92.767   -33.102   -30.944  0.0000  0.0000  1.0000
     1 Mn(55) Bbb     0.3515    46.383    16.551    15.472  0.0000  1.0000  0.0000
              Bcc     0.3515    46.383    16.551    15.472  1.0000  0.0000  0.0000
 
              Baa    -0.0804     5.820     2.077     1.941  0.0000  1.0000  0.0000
     2 O(17)  Bbb    -0.0804     5.820     2.077     1.941  1.0000  0.0000  0.0000
              Bcc     0.1609   -11.640    -4.153    -3.883  0.0000  0.0000  1.0000
 

 ---------------------------------------------------------------------------------


 Test job not archived.
 1\1\GINC-C32\SP\ROCCSD(T)-FC\Aug-CC-pVDZ\Mn1O1(6)\GPETERSSON\25-Nov-20
 13\0\\# ROCCSD(T) aug-cc-pVDZ GFinput Int=NoBasisTransform Int(Grid=Ul
 trafine) IOp(3/32=2,5/6=10,8/11=1,9/33=1) Maxdisk=128GB SCF=Symm Guess
 =Read\\MnO 6Sg+\\0,6\Mn\O,1,1.648\\Version=EM64L-GDVRevH.12\State=6-SG
 \HF=-1224.6242302\MP2=-1225.003588\MP3=-1224.9757984\PUHF=-1224.624230
 2\PMP2-0=-1225.003588\MP4SDQ=-1225.0167412\CCSD=-1225.0117483\CCSD(T)=
 -1225.0316655\RMSD=7.615e-11\PG=C*V [C*(O1Mn1)]\\@


 THERE IS NO SUBJECT, HOWEVER COMPLEX,
 WHICH, IF STUDIED WITH PATIENCE AND INTELLIGIENCE
 WILL NOT BECOME
 MORE COMPLEX
                        QUOTED BY D. GORDON ROHMAN
 Job cpu time:  0 days  0 hours 29 minutes 32.8 seconds.
 File lengths (MBytes):  RWF=     80 Int=      0 D2E=      0 Chk=      2 Scr=      1
 Normal termination of Gaussian DV at Mon Nov 25 19:21:15 2013.
