 Entering Gaussian System, Link 0=gdv
 Initial command:
 /share/apps/gaussian/gdvh12/gdv/l1.exe /localscratch/68479/Gau-14833.inp -scrdir=/localscratch/68479/
 Entering Link 1 = /share/apps/gaussian/gdvh12/gdv/l1.exe PID=     14834.
  
 Copyright (c) 1988,1990,1992,1993,1995,1998,2003,2009,2011,
            Gaussian, Inc.  All Rights Reserved.
  
 This is the private, development version of
 the Gaussian(R) DV system of programs. It is based on
 the Gaussian(R) 09 system (copyright 2009, Gaussian, Inc.),
 the Gaussian(R) 03 system (copyright 2003, Gaussian, Inc.),
 the Gaussian(R) 98 system (copyright 1998, Gaussian, Inc.),
 the Gaussian(R) 94 system (copyright 1995, Gaussian, Inc.),
 the Gaussian 92(TM) system (copyright 1992, Gaussian, Inc.),
 the Gaussian 90(TM) system (copyright 1990, Gaussian, Inc.),
 the Gaussian 88(TM) system (copyright 1988, Gaussian, Inc.),
 the Gaussian 86(TM) system (copyright 1986, Carnegie Mellon
 University), and the Gaussian 82(TM) system (copyright 1983,
 Carnegie Mellon University). Gaussian is a federally registered
 trademark of Gaussian, Inc.
  
 This software contains proprietary and confidential information,
 including trade secrets, belonging to Gaussian, Inc.
  
 This software is provided under written license and may be
 used, copied, transmitted, or stored only in accord with that
 written license.
  
 The following legend is applicable only to US Government
 contracts under FAR:
  
                    RESTRICTED RIGHTS LEGEND
  
 Use, reproduction and disclosure by the US Government is
 subject to restrictions as set forth in subparagraphs (a)
 and (c) of the Commercial Computer Software - Restricted
 Rights clause in FAR 52.227-19.
  
 Gaussian, Inc.
 340 Quinnipiac St., Bldg. 40, Wallingford CT 06492
  
  
 ---------------------------------------------------------------
 Warning -- This program may not be used in any manner that
 competes with the business of Gaussian, Inc. or will provide
 assistance to any competitor of Gaussian, Inc.  The licensee
 of this program is prohibited from giving any competitor of
 Gaussian, Inc. access to this program.  By using this program,
 the user acknowledges that Gaussian, Inc. is engaged in the
 business of creating and licensing software in the field of
 computational chemistry and represents and warrants to the
 licensee that it is not a competitor of Gaussian, Inc. and that
 it will not use this program in any manner prohibited above.
 ---------------------------------------------------------------
  

 Cite this work as:
 Gaussian Development Version, Revision H.12,
 M. J. Frisch, G. W. Trucks, H. B. Schlegel, G. E. Scuseria, 
 M. A. Robb, J. R. Cheeseman, G. Scalmani, V. Barone, B. Mennucci, 
 G. A. Petersson, H. Nakatsuji, M. Caricato, X. Li, H. P. Hratchian, 
 A. F. Izmaylov, J. Bloino, G. Zheng, J. L. Sonnenberg, M. Hada, 
 M. Ehara, K. Toyota, R. Fukuda, J. Hasegawa, M. Ishida, T. Nakajima, 
 Y. Honda, O. Kitao, H. Nakai, T. Vreven, J. A. Montgomery, Jr., 
 J. E. Peralta, F. Ogliaro, M. Bearpark, J. J. Heyd, E. Brothers, 
 K. N. Kudin, V. N. Staroverov, T. Keith, R. Kobayashi, J. Normand, 
 K. Raghavachari, A. Rendell, J. C. Burant, S. S. Iyengar, J. Tomasi, 
 M. Cossi, N. Rega, J. M. Millam, M. Klene, J. E. Knox, J. B. Cross, 
 V. Bakken, C. Adamo, J. Jaramillo, R. Gomperts, R. E. Stratmann, 
 O. Yazyev, A. J. Austin, R. Cammi, C. Pomelli, J. W. Ochterski, 
 R. L. Martin, K. Morokuma, V. G. Zakrzewski, G. A. Voth, 
 P. Salvador, J. J. Dannenberg, S. Dapprich, P. V. Parandekar, 
 N. J. Mayhall, A. D. Daniels, O. Farkas, J. B. Foresman, 
 J. V. Ortiz, J. Cioslowski, and D. J. Fox, 
 Gaussian, Inc., Wallingford CT, 2010.
 
 ******************************************
 Gaussian DV:  EM64L-GDVRevH.12  9-Jun-2011
                25-Nov-2013 
 ******************************************
 % Mem=12GB
 % Nproc=8
 Will use up to    8 processors via shared memory.
 % Chk=MnO_6Sg+.chk
 ----------------------------------------------------------------------
 # ROCCSD(T) aug-cc-pVQZ GFinput Int=NoBasisTransform Int(Grid=Ultrafin
 e) IOp(3/32=2,5/6=10,8/11=1,9/33=1) Maxdisk=128GB SCF=Symm Guess=Read
 ----------------------------------------------------------------------
 1/38=1/1;
 2/12=2,17=6,18=5,40=1/2;
 3/5=16,6=2,7=10,11=2,16=1,24=10,25=1,30=1,32=2,60=-1,75=-5,116=101/1,2,3;
 4/5=1,9=4/1;
 5/5=2,6=10,15=2,38=6/2;
 8/5=-1,6=4,9=120000,10=1,11=1/1,4;
 9/5=7,14=2,33=1/13;
 6/7=2,8=2,9=2,10=2/1;
 99/5=1,9=1/99;
 --------
 MnO 6Sg+
 --------
 Charge =  0 Multiplicity = 6
 Symbolic Z-Matrix:
 Mn
 O                    1     1.648 
 
                          Input orientation:                          
 ---------------------------------------------------------------------
 Center     Atomic      Atomic             Coordinates (Angstroms)
 Number     Number       Type             X           Y           Z
 ---------------------------------------------------------------------
      1         25           0        0.000000    0.000000    0.000000
      2          8           0        0.000000    0.000000    1.648000
 ---------------------------------------------------------------------
 Stoichiometry    MnO(6)
 Framework group  C*V[C*(OMn)]
 Deg. of freedom     1
 Full point group                 C*V     NOp   4
 Largest Abelian subgroup         C2V     NOp   4
 Largest concise Abelian subgroup C1      NOp   1
                         Standard orientation:                         
 ---------------------------------------------------------------------
 Center     Atomic      Atomic             Coordinates (Angstroms)
 Number     Number       Type             X           Y           Z
 ---------------------------------------------------------------------
      1         25           0        0.000000    0.000000    0.399515
      2          8           0        0.000000    0.000000   -1.248485
 ---------------------------------------------------------------------
 Rotational constants (GHZ):      0.0000000     15.0208923     15.0208923
 Standard basis: Aug-CC-pVQZ (5D, 7F)
 AO basis set in the form of general basis input (Overlap normalization):
      1 0
 S  21 1.00       0.000000000000
      0.1221050000D+08  0.2018537041D-05
      0.1828157000D+07  0.1569638032D-04
      0.4160303000D+06  0.8257853168D-04
      0.1178436000D+06  0.3488107071D-03
      0.3844814000D+05  0.1270414026D-02
      0.1388171000D+05  0.4133905084D-02
      0.5415002000D+04  0.1224366025D-01
      0.2246460000D+04  0.3306040067D-01
      0.9801463000D+03  0.8019877164D-01
      0.4458952000D+03  0.1671550034D+00
      0.2100558000D+03  0.2743977056D+00
      0.1018046000D+03  0.2963690060D+00
      0.5001126000D+02  0.1592852032D+00
      0.2293939000D+02  0.5681818116D-01
      0.1152264000D+02  0.8278990169D-01
      0.5776338000D+01  0.5840628119D-01
      0.2625959000D+01  0.7343047150D-02
      0.1260322000D+01 -0.2934793060D-03
      0.5771300000D+00 -0.4562245093D-04
      0.1365820000D+00 -0.9934988203D-05
      0.6353500000D-01  0.2391143049D-04
 S  21 1.00       0.000000000000
      0.1221050000D+08 -0.9633563472D-06
      0.1828157000D+07 -0.7493663811D-05
      0.4160303000D+06 -0.3940999693D-04
      0.1178436000D+06 -0.1666153179D-03
      0.3844814000D+05 -0.6069034368D-03
      0.1388171000D+05 -0.1981105835D-02
      0.5415002000D+04 -0.5893479560D-02
      0.2246460000D+04 -0.1613847236D-01
      0.9801463000D+03 -0.4018924608D-01
      0.4458952000D+03 -0.8903413270D-01
      0.2100558000D+03 -0.1646991200D+00
      0.1018046000D+03 -0.2288837499D+00
      0.5001126000D+02 -0.1560682294D+00
      0.2293939000D+02  0.1882582943D+00
      0.1152264000D+02  0.5512718976D+00
      0.5776338000D+01  0.3755106896D+00
      0.2625959000D+01  0.5061601469D-01
      0.1260322000D+01 -0.4926187617D-02
      0.5771300000D+00 -0.6126831305D-03
      0.1365820000D+00 -0.2821971916D-03
      0.6353500000D-01  0.3009188712D-03
 S  21 1.00       0.000000000000
      0.1221050000D+08  0.2318159358D-06
      0.1828157000D+07  0.1804553397D-05
      0.4160303000D+06  0.9481011711D-05
      0.1178436000D+06  0.4014600614D-04
      0.3844814000D+05  0.1460614975D-03
      0.1388171000D+05  0.4784808452D-03
      0.5415002000D+04  0.1424789702D-02
      0.2246460000D+04  0.3944819022D-02
      0.9801463000D+03  0.9957489735D-02
      0.4458952000D+03  0.2293589826D-01
      0.2100558000D+03  0.4503935195D-01
      0.1018046000D+03  0.7052338987D-01
      0.5001126000D+02  0.5293764040D-01
      0.2293939000D+02 -0.8988535528D-01
      0.1152264000D+02 -0.3628005434D+00
      0.5776338000D+01 -0.3623113939D+00
      0.2625959000D+01  0.2658334862D+00
      0.1260322000D+01  0.6895608048D+00
      0.5771300000D+00  0.3338774914D+00
      0.1365820000D+00  0.1595490767D-01
      0.6353500000D-01 -0.4616900812D-02
 S  21 1.00       0.000000000000
      0.1221050000D+08 -0.6621379910D-07
      0.1828157000D+07 -0.5154761820D-06
      0.4160303000D+06 -0.2707979779D-05
      0.1178436000D+06 -0.1146829411D-04
      0.3844814000D+05 -0.4171727366D-04
      0.1388171000D+05 -0.1366957515D-03
      0.5415002000D+04 -0.4069599165D-03
      0.2246460000D+04 -0.1127291264D-02
      0.9801463000D+03 -0.2845359777D-02
      0.4458952000D+03 -0.6561948996D-02
      0.2100558000D+03 -0.1289832781D-01
      0.1018046000D+03 -0.2028542066D-01
      0.5001126000D+02 -0.1528811041D-01
      0.2293939000D+02  0.2622629109D-01
      0.1152264000D+02  0.1109599382D+00
      0.5776338000D+01  0.1148902165D+00
      0.2625959000D+01 -0.9915557045D-01
      0.1260322000D+01 -0.2920540368D+00
      0.5771300000D+00 -0.2933606776D+00
      0.1365820000D+00  0.3877861671D+00
      0.6353500000D-01  0.7687498847D+00
 S  21 1.00       0.000000000000
      0.1221050000D+08 -0.1070037366D-06
      0.1828157000D+07 -0.8530167282D-06
      0.4160303000D+06 -0.4329222507D-05
      0.1178436000D+06 -0.1918222724D-04
      0.3844814000D+05 -0.6589968964D-04
      0.1388171000D+05 -0.2314553271D-03
      0.5415002000D+04 -0.6336246823D-03
      0.2246460000D+04 -0.1938311540D-02
      0.9801463000D+03 -0.4341416095D-02
      0.4458952000D+03 -0.1157382333D-01
      0.2100558000D+03 -0.1882696828D-01
      0.1018046000D+03 -0.3866344666D-01
      0.5001126000D+02 -0.1368730859D-01
      0.2293939000D+02  0.1554596320D-01
      0.1152264000D+02  0.2515401470D+00
      0.5776338000D+01  0.9428583621D-01
      0.2625959000D+01 -0.1366837771D-01
      0.1260322000D+01 -0.1105699985D+01
      0.5771300000D+00  0.4710145422D+00
      0.1365820000D+00  0.1898142321D+01
      0.6353500000D-01 -0.1126414572D+01
 S  21 1.00       0.000000000000
      0.1221050000D+08 -0.1010205061D-06
      0.1828157000D+07 -0.8084008658D-06
      0.4160303000D+06 -0.4079916544D-05
      0.1178436000D+06 -0.1820979631D-04
      0.3844814000D+05 -0.6198282702D-04
      0.1388171000D+05 -0.2201497462D-03
      0.5415002000D+04 -0.5946190923D-03
      0.2246460000D+04 -0.1848511274D-02
      0.9801463000D+03 -0.4063293851D-02
      0.4458952000D+03 -0.1109545091D-01
      0.2100558000D+03 -0.1754956340D-01
      0.1018046000D+03 -0.3767178753D-01
      0.5001126000D+02 -0.1164887022D-01
      0.2293939000D+02  0.1161726594D-01
      0.1152264000D+02  0.2663024474D+00
      0.5776338000D+01  0.1022077886D+00
      0.2625959000D+01 -0.2092246804D+00
      0.1260322000D+01 -0.1254403153D+01
      0.5771300000D+00  0.1719019854D+01
      0.1365820000D+00 -0.4492495678D+00
      0.6353500000D-01 -0.8660746730D+00
 S  21 1.00       0.000000000000
      0.1221050000D+08 -0.7327560959D-07
      0.1828157000D+07 -0.5413750476D-06
      0.4160303000D+06 -0.3065142719D-05
      0.1178436000D+06 -0.1174773584D-04
      0.3844814000D+05 -0.4837685676D-04
      0.1388171000D+05 -0.1359873830D-03
      0.5415002000D+04 -0.4856148071D-03
      0.2246460000D+04 -0.1080456482D-02
      0.9801463000D+03 -0.3534969121D-02
      0.4458952000D+03 -0.5919531505D-02
      0.2100558000D+03 -0.1748727822D-01
      0.1018046000D+03 -0.1482414271D-01
      0.5001126000D+02 -0.3437646343D-01
      0.2293939000D+02  0.7029775669D-01
      0.1152264000D+02  0.8934609393D-01
      0.5776338000D+01  0.3144450110D+00
      0.2625959000D+01 -0.1022568838D+01
      0.1260322000D+01  0.5726047948D+00
      0.5771300000D+00  0.4094683189D+00
      0.1365820000D+00 -0.1484410245D+01
      0.6353500000D-01  0.1999654945D+01
 S   1 1.00       0.000000000000
      0.2852100000D-01  0.1000000000D+01
 P  17 1.00       0.000000000000
      0.3500512000D+05  0.1100000935D-04
      0.8279462000D+04  0.9800008334D-04
      0.2688465000D+04  0.5720004864D-03
      0.1029490000D+04  0.2604002214D-02
      0.4380708000D+03  0.9779008316D-02
      0.2006153000D+03  0.3093802631D-01
      0.9700769000D+02  0.8219406989D-01
      0.4887052000D+02  0.1761491498D+00
      0.2529281000D+02  0.2891332459D+00
      0.1335382000D+02  0.3309562814D+00
      0.7131786000D+01  0.2122181805D+00
      0.3764365000D+01  0.5522704696D-01
      0.1946265000D+01  0.1207001026D-02
      0.9854550000D+00 -0.2355002003D-02
      0.4818650000D+00 -0.1320001122D-02
      0.1892120000D+00 -0.9400007993D-04
      0.7798000000D-01 -0.7000005953D-05
 P  17 1.00       0.000000000000
      0.3500512000D+05 -0.4000144382D-05
      0.8279462000D+04 -0.3400122724D-04
      0.2688465000D+04 -0.1990071830D-03
      0.1029490000D+04 -0.9070327385D-03
      0.4380708000D+03 -0.3425123627D-02
      0.2006153000D+03 -0.1098539651D-01
      0.9700769000D+02 -0.2985707766D-01
      0.4887052000D+02 -0.6636839551D-01
      0.2529281000D+02 -0.1135080970D+00
      0.1335382000D+02 -0.1379959808D+00
      0.7131786000D+01 -0.4935678149D-01
      0.3764365000D+01  0.1912489030D+00
      0.1946265000D+01  0.4023695232D+00
      0.9854550000D+00  0.3821297926D+00
      0.4818650000D+00  0.1682050712D+00
      0.1892120000D+00  0.1790564629D-01
      0.7798000000D-01 -0.9580345794D-03
 P  17 1.00       0.000000000000
      0.3500512000D+05 -0.1226719602D-05
      0.8279462000D+04 -0.9813756819D-05
      0.2688465000D+04 -0.5642910171D-04
      0.1029490000D+04 -0.2551576773D-03
      0.4380708000D+03 -0.9715619251D-03
      0.2006153000D+03 -0.3093786837D-02
      0.9700769000D+02 -0.8498713405D-02
      0.4887052000D+02 -0.1875899616D-01
      0.2529281000D+02 -0.3264423534D-01
      0.1335382000D+02 -0.3922803944D-01
      0.7131786000D+01 -0.1376624738D-01
      0.3764365000D+01  0.6745485749D-01
      0.1946265000D+01  0.1355095809D+00
      0.9854550000D+00  0.1572188377D+00
      0.4818650000D+00 -0.3655624415D-02
      0.1892120000D+00 -0.4131886033D+00
      0.7798000000D-01 -0.6654230078D+00
 P  17 1.00       0.000000000000
      0.3500512000D+05  0.1020807872D-05
      0.8279462000D+04  0.1020807872D-04
      0.2688465000D+04  0.6226928022D-04
      0.1029490000D+04  0.2837845885D-03
      0.4380708000D+03  0.1073889882D-02
      0.2006153000D+03  0.3436039298D-02
      0.9700769000D+02  0.9384286771D-02
      0.4887052000D+02  0.2082856383D-01
      0.2529281000D+02  0.3601103931D-01
      0.1335382000D+02  0.4388044720D-01
      0.7131786000D+01  0.1509060278D-01
      0.3764365000D+01 -0.7232525857D-01
      0.1946265000D+01 -0.1519605223D+00
      0.9854550000D+00 -0.1762537081D+00
      0.4818650000D+00 -0.4958063836D-02
      0.1892120000D+00  0.5837806269D+00
      0.7798000000D-01  0.5117595690D+00
 P  17 1.00       0.000000000000
      0.3500512000D+05  0.3070110986D-05
      0.8279462000D+04  0.2149077690D-04
      0.2688465000D+04  0.1412251053D-03
      0.1029490000D+04  0.5812743466D-03
      0.4380708000D+03  0.2423340938D-02
      0.2006153000D+03  0.7047951453D-02
      0.9700769000D+02  0.2129121969D-01
      0.4887052000D+02  0.4217002113D-01
      0.2529281000D+02  0.8488754538D-01
      0.1335382000D+02  0.8425407915D-01
      0.7131786000D+01  0.6922997936D-01
      0.3764365000D+01 -0.2564433005D+00
      0.1946265000D+01 -0.3876363065D+00
      0.9854550000D+00 -0.4057837326D+00
      0.4818650000D+00  0.1176990495D+01
      0.1892120000D+00  0.3920378223D+00
      0.7798000000D-01 -0.9131819985D+00
 P  17 1.00       0.000000000000
      0.3500512000D+05 -0.3123709254D-05
      0.8279462000D+04 -0.3331956537D-04
      0.2688465000D+04 -0.1718040090D-03
      0.1029490000D+04 -0.8871334281D-03
      0.4380708000D+03 -0.2982101101D-02
      0.2006153000D+03 -0.1076430209D-01
      0.9700769000D+02 -0.2594761154D-01
      0.4887052000D+02 -0.6654333700D-01
      0.2529281000D+02 -0.9548554447D-01
      0.1335382000D+02 -0.1757950682D+00
      0.7131786000D+01 -0.4760220532D-01
      0.3764365000D+01  0.4659980702D+00
      0.1946265000D+01  0.1087617253D+01
      0.9854550000D+00 -0.1546986812D+01
      0.4818650000D+00 -0.5524842083D+00
      0.1892120000D+00  0.1896839125D+01
      0.7798000000D-01 -0.1112509051D+01
 P   1 1.00       0.000000000000
      0.3168500000D-01  0.1000000000D+01
 D  10 1.00       0.000000000000
      0.3014270000D+03  0.3616368463D-03
      0.9032880000D+02  0.3264749258D-02
      0.3483370000D+02  0.1644796504D-01
      0.1497700000D+02  0.5485660306D-01
      0.6849830000D+01  0.1369682025D+00
      0.3252170000D+01  0.2428466555D+00
      0.1543090000D+01  0.3109235396D+00
      0.7156410000D+00  0.3027030633D+00
      0.3193230000D+00  0.2139497678D+00
      0.1344280000D+00  0.8925117226D-01
 D  10 1.00       0.000000000000
      0.3014270000D+03 -0.3973952308D-03
      0.9032880000D+02 -0.3606876060D-02
      0.3483370000D+02 -0.1820546598D-01
      0.1497700000D+02 -0.6164390489D-01
      0.6849830000D+01 -0.1578427869D+00
      0.3252170000D+01 -0.2671026533D+00
      0.1543090000D+01 -0.2536258658D+00
      0.7156410000D+00  0.2525138088D-01
      0.3193230000D+00  0.4196764343D+00
      0.1344280000D+00  0.5064298705D+00
 D  10 1.00       0.000000000000
      0.3014270000D+03 -0.6714271718D-03
      0.9032880000D+02 -0.6129517589D-02
      0.3483370000D+02 -0.3122425259D-01
      0.1497700000D+02 -0.1087076416D+00
      0.6849830000D+01 -0.2853715713D+00
      0.3252170000D+01 -0.3952880130D+00
      0.1543090000D+01 -0.1689662079D-01
      0.7156410000D+00  0.7073329243D+00
      0.3193230000D+00  0.3699344145D+00
      0.1344280000D+00 -0.6482900919D+00
 D  10 1.00       0.000000000000
      0.3014270000D+03 -0.8293500860D-03
      0.9032880000D+02 -0.7624239799D-02
      0.3483370000D+02 -0.3895054908D-01
      0.1497700000D+02 -0.1407360403D+00
      0.6849830000D+01 -0.4000713664D+00
      0.3252170000D+01 -0.3407795057D+00
      0.1543090000D+01  0.8367230750D+00
      0.7156410000D+00  0.4643237635D+00
      0.3193230000D+00 -0.1192698809D+01
      0.1344280000D+00  0.2223936719D+00
 D   1 1.00       0.000000000000
      0.5157000000D-01  0.1000000000D+01
 F   1 1.00       0.000000000000
      0.4464600000D+01  0.1000000000D+01
 F   1 1.00       0.000000000000
      0.1313300000D+01  0.1000000000D+01
 F   1 1.00       0.000000000000
      0.3863000000D+00  0.1000000000D+01
 G   1 1.00       0.000000000000
      0.3166800000D+01  0.1000000000D+01
 G   1 1.00       0.000000000000
      0.8651000000D+00  0.1000000000D+01
 H   1 1.00       0.000000000000
      0.2000300000D+01  0.1000000000D+01
 S   1 1.00       0.000000000000
      0.1280000000D-01  0.1000000000D+01
 P   1 1.00       0.000000000000
      0.1287000000D-01  0.1000000000D+01
 D   1 1.00       0.000000000000
      0.1978000000D-01  0.1000000000D+01
 F   1 1.00       0.000000000000
      0.1282900000D+00  0.1000000000D+01
 G   1 1.00       0.000000000000
      0.3184100000D+00  0.1000000000D+01
 H   1 1.00       0.000000000000
      0.7767100000D+00  0.1000000000D+01
 ****
      2 0
 S   9 1.00       0.000000000000
      0.6142000000D+05  0.9073892679D-04
      0.9199000000D+04  0.7037307878D-03
      0.2091000000D+04  0.3694082531D-02
      0.5909000000D+03  0.1534294431D-01
      0.1923000000D+03  0.5285340844D-01
      0.6932000000D+02  0.1471190548D+00
      0.2697000000D+02  0.3077642591D+00
      0.1110000000D+02  0.4017798693D+00
      0.4682000000D+01  0.2187614704D+00
 S   9 1.00       0.000000000000
      0.6142000000D+05 -0.5610638588D-04
      0.9199000000D+04 -0.4460457677D-03
      0.2091000000D+04 -0.2325609695D-02
      0.5909000000D+03 -0.9841060083D-02
      0.1923000000D+03 -0.3410146134D-01
      0.6932000000D+02 -0.1017236829D+00
      0.2697000000D+02 -0.2328190588D+00
      0.1110000000D+02 -0.4266610114D+00
      0.4682000000D+01 -0.3235402795D+00
 S   1 1.00       0.000000000000
      0.1428000000D+01  0.1000000000D+01
 S   1 1.00       0.000000000000
      0.5547000000D+00  0.1000000000D+01
 S   1 1.00       0.000000000000
      0.2067000000D+00  0.1000000000D+01
 P   3 1.00       0.000000000000
      0.6342000000D+02  0.3132750252D-01
      0.1466000000D+02  0.2166542485D+00
      0.4459000000D+01  0.8352428422D+00
 P   1 1.00       0.000000000000
      0.1531000000D+01  0.1000000000D+01
 P   1 1.00       0.000000000000
      0.5302000000D+00  0.1000000000D+01
 P   1 1.00       0.000000000000
      0.1750000000D+00  0.1000000000D+01
 D   1 1.00       0.000000000000
      0.3775000000D+01  0.1000000000D+01
 D   1 1.00       0.000000000000
      0.1300000000D+01  0.1000000000D+01
 D   1 1.00       0.000000000000
      0.4440000000D+00  0.1000000000D+01
 F   1 1.00       0.000000000000
      0.2666000000D+01  0.1000000000D+01
 F   1 1.00       0.000000000000
      0.8590000000D+00  0.1000000000D+01
 G   1 1.00       0.000000000000
      0.1846000000D+01  0.1000000000D+01
 S   1 1.00       0.000000000000
      0.6959000000D-01  0.1000000000D+01
 P   1 1.00       0.000000000000
      0.5348000000D-01  0.1000000000D+01
 D   1 1.00       0.000000000000
      0.1540000000D+00  0.1000000000D+01
 F   1 1.00       0.000000000000
      0.3240000000D+00  0.1000000000D+01
 G   1 1.00       0.000000000000
      0.7140000000D+00  0.1000000000D+01
 ****

 There are   121 symmetry adapted cartesian basis functions of A1  symmetry.
 There are    38 symmetry adapted cartesian basis functions of A2  symmetry.
 There are    71 symmetry adapted cartesian basis functions of B1  symmetry.
 There are    71 symmetry adapted cartesian basis functions of B2  symmetry.
 There are    83 symmetry adapted basis functions of A1  symmetry.
 There are    31 symmetry adapted basis functions of A2  symmetry.
 There are    53 symmetry adapted basis functions of B1  symmetry.
 There are    53 symmetry adapted basis functions of B2  symmetry.
   220 basis functions,   967 primitive gaussians,   301 cartesian basis functions
    19 alpha electrons       14 beta electrons
       nuclear repulsion energy        64.2205350231 Hartrees.
 NAtoms=    2 NActive=    2 NUniq=    2 SFac= 1.00D+00 NAtFMM=   60 NAOKFM=F Big=F
 Integral buffers will be    131072 words long.
 Raffenetti 2 integral format.
 Two-electron integral symmetry is turned on.
 One-electron integrals computed using PRISM.
 NBasis=   220 RedAO= F EigKep=  0.00D+00  NBF=    83    31    53    53
 NBsUse=   220 1.00D-04 EigRej=  0.00D+00 NBFU=    83    31    53    53
 Initial guess from the checkpoint file:  MnO_6Sg+.chk
 B after Tr=     0.000000    0.000000    0.000000
         Rot=    1.000000    0.000000    0.000000    0.000000 Ang=   0.00 deg.
 Initial guess orbital symmetries:
       Occupied  (SG) (SG) (SG) (PI) (PI) (SG) (SG) (SG) (PI) (PI)
                 (SG) (SG) (PI) (PI) (DLTA) (DLTA) (SG) (PI) (PI)
       Virtual   (SG) (PI) (PI) (SG) (SG) (PI) (PI) (DLTA) (DLTA)
                 (SG) (PI) (PI) (SG) (SG) (PI) (PI) (SG) (DLTA)
                 (DLTA) (PI) (PI) (SG) (PI) (PI) (SG) (SG) (DLTA)
                 (DLTA) (PHI) (PHI) (PI) (PI) (SG) (PI) (PI) (SG)
                 (PI) (PI) (DLTA) (DLTA) (SG) (DLTA) (DLTA) (PI)
                 (PI) (SG) (SG) (PI) (PI) (SG) (SG) (PHI) (PHI)
                 (DLTA) (DLTA) (PI) (PI) (SG) (DLTA) (DLTA) (PI)
                 (PI) (SG) (SG) (SG) (SG) (SG) (SG) (SG) (SG) (PI)
                 (PI) (SG) (PI) (PI) (SG) (PI) (PI) (SG) (PI) (PI)
                 (SG) (PI) (PI) (SG) (PI) (PI) (SG) (PI) (PI) (DLTA)
                 (DLTA) (SG) (PI) (PI) (DLTA) (DLTA) (SG) (PI)
                 (PI) (DLTA) (DLTA) (SG) (PI) (PI) (DLTA) (DLTA)
                 (SG) (PI) (PI) (DLTA) (DLTA) (SG) (PI) (PI) (DLTA)
                 (DLTA) (PHI) (PHI) (SG) (PI) (PI) (DLTA) (DLTA)
                 (PHI) (PHI) (PI) (PI) (DLTA) (DLTA) (PHI) (PHI)
                 (SG) (PI) (PI) (DLTA) (DLTA) (PHI) (PHI) (?A)
                 (?A) (SG) (PI) (PI) (DLTA) (DLTA) (PHI) (PHI)
                 (?A) (?A) (SG) (PI) (PI) (DLTA) (DLTA) (PHI) (PHI)
                 (?A) (?A) (?B) (?B) (DLTA) (DLTA) (PHI) (PHI)
                 (SG) (PI) (PI) (DLTA) (DLTA) (PHI) (PHI) (?A)
                 (?A) (SG) (PI) (PI) (DLTA) (DLTA) (PHI) (PHI)
                 (?A) (?A) (?B) (?B) (PI) (PI) (DLTA) (DLTA) (DLTA)
                 (DLTA) (PHI) (PHI) (PHI) (PHI) (PHI) (PHI) (?A)
                 (?A) (?A) (?A)
 Keep R1 and R2 ints in memory in symmetry-blocked form, NReq=1294804544.
 Requested convergence on RMS density matrix=1.00D-10 within 128 cycles.
 Requested convergence on MAX density matrix=1.00D-08.
 Requested convergence on             energy=1.00D-08.
 No special actions if energy rises.
 EnCoef did     8 forward-backward iterations
 Rare condition: small coef for last iteration: -0.444D-15
 EnCoef did   100 forward-backward iterations
 Rare condition: small coef for last iteration:  0.000D+00
 EnCoef did   100 forward-backward iterations
 EnCoef did   100 forward-backward iterations
 Rare condition: small coef for last iteration: -0.118D-15
 EnCoef did   100 forward-backward iterations
 EnCoef did   100 forward-backward iterations
 Rare condition: small coef for last iteration:  0.544D-15
 EnCoef did    19 forward-backward iterations
 SCF Done:  E(ROHF) =  -1224.64695488     A.U. after   35 cycles
            NFock= 35  Conv=0.38D-10     -V/T= 1.9998
 <Sx>= 0.0000 <Sy>= 0.0000 <Sz>= 2.5000 <S**2>= 8.7500 S= 2.5000
 <L.S>= 0.000000000000E+00
 Annihilation of the first spin contaminant:
 S**2 before annihilation     8.7500,   after     8.7500
 GenMOA:  NOpAll=  4 NOp2=4 NOpUse=  4 JSym2X=1
 <Sx>= 0.0000 <Sy>= 0.0000 <Sz>= 2.5000 <S**2>= 8.7500 S= 2.5000
 ExpMin= 1.28D-02 ExpMax= 1.22D+07 ExpMxC= 5.42D+03 IAcc=3 IRadAn=         5 AccDes= 0.00D+00
 HarFok:  IExCor=  205 AccDes= 0.00D+00 IRadAn=         5 IDoV=-2 UseB2=F ITyADJ=14
 ICtDFT= 12500011 ScaDFX=  1.000000  1.000000  1.000000  1.000000
 DSYEVD returned Info=       10151 IAlg= 4 N=   140 NDim=   140 NE2=    11502494 trying DSYEV.
 DSYEVD returned Info=        3401 IAlg= 4 N=    80 NDim=    80 NE2=    11502494 trying DSYEV.
 Range of M.O.s used for correlation:    11   220
 NBasis=   220 NAE=    19 NBE=    14 NFC=    10 NFV=     0
 NROrb=    210 NOA=     9 NOB=     4 NVA=   201 NVB=   206

 **** Warning!!: The largest alpha MO coefficient is  0.46318207D+02


 **** Warning!!: The largest beta MO coefficient is  0.49853423D+02

 Singles contribution to E2=   -0.5882481374D-02
 Semi-Direct transformation.
 ModeAB=           2 MOrb=             9 LenV=    1608206700
 LASXX=     10167156 LTotXX=    10167156 LenRXX=    10167156
 LTotAB=    10349397 MaxLAS=    85902390 LenRXY=    85902390
 NonZer=    88641000 LenScr=   133721088 LnRSAI=           0
 LnScr1=           0 LExtra=     2647798 Total=    232438432
 MaxDsk= 17179869184 SrtSym=           F ITran=            4
 JobTyp=1 Pass  1:  I=   1 to   9.
 (rs|ai) integrals will be sorted in core.
 ModeAB=           2 MOrb=             4 LenV=    1608206700
 LASXX=      4594325 LTotXX=     4594325 LenRXX=    38178840
 LTotAB=     4279965 MaxLAS=    38178840 LenRXY=     4279965
 NonZer=    39396000 LenScr=    59845632 LnRSAI=           0
 LnScr1=           0 LExtra=    98717344 Total=    201021781
 MaxDsk= 17179869184 SrtSym=           F ITran=            4
 JobTyp=2 Pass  1:  I=   1 to   4.
 (rs|ai) integrals will be sorted in core.
 Spin components of T(2) and E(2):
     alpha-alpha T2 =       0.3644932273D-01 E2=     -0.1382341099D+00
     alpha-beta  T2 =       0.9660875691D-01 E2=     -0.2824118316D+00
     beta-beta   T2 =       0.1829482468D-01 E2=     -0.4641496757D-01
 ANorm=    0.1077325515D+01
 E2 =    -0.4729433905D+00 EUMP2 =    -0.12251198982697D+04
 (S**2,0)=  0.87500D+01           (S**2,1)=  0.87500D+01
 E(PUHF)=      -0.12246469549D+04        E(PMP2)=      -0.12251198983D+04
 SABFC:  FilMap=F DoRead=T UsPure=F NBasis=   220 NBas6D=   301 NB=   301 NOp=4 jStart=        2055
 MulTab 
              1            2            3            4            5
     1            1            2            3            4            5
     2            2            1            4            3            6
     3            3            4            1            2            7
     4            4            3            2            1            8
     5            5            6            7            8            1
     6            6            5            8            7            2
     7            7            8            5            6            3
     8            8            7            6            5            4
              6            7            8
     1            6            7            8
     2            5            8            7
     3            8            5            6
     4            7            6            5
     5            2            3            4
     6            1            4            3
     7            4            1            2
     8            3            2            1
 Order+ChrTbl 
              1            2            3            4            5
     1            1            1            1            1            1
     2            2            1            1           -1           -1
     3            4            1           -1           -1            1
     4            3            1           -1            1           -1
     5            0            0            0            0            0
     6            0            0            0            0            0
     7            0            0            0            0            0
     8            0            0            0            0            0

 SABF information in SABFC1:
 NS=            0         121         159         230         301
 NS2=           0       13234       22873       34162       45451
 NS4=           0    87575995   134035975   197762380   261488785
 SABFC:  FilMap=T DoRead=T UsPure=F NBasis=   220 NBas6D=   301 NB=   301 NOp=4 jStart=        2055
 MulTab 
              1            2            3            4            5
     1            1            2            3            4            5
     2            2            1            4            3            6
     3            3            4            1            2            7
     4            4            3            2            1            8
     5            5            6            7            8            1
     6            6            5            8            7            2
     7            7            8            5            6            3
     8            8            7            6            5            4
              6            7            8
     1            6            7            8
     2            5            8            7
     3            8            5            6
     4            7            6            5
     5            2            3            4
     6            1            4            3
     7            4            1            2
     8            3            2            1
 Order+ChrTbl 
              1            2            3            4            5
     1            1            1            1            1            1
     2            2            1            1           -1           -1
     3            4            1           -1           -1            1
     4            3            1           -1            1           -1
     5            0            0            0            0            0
     6            0            0            0            0            0
     7            0            0            0            0            0
     8            0            0            0            0            0

 SABF information in SABFC1:
 NS=            0         121         159         230         301
 NS2=           0       13234       22873       34162       45451
 NS4=           0    87575995   134035975   197762380   261488785
 SetICI:  IOpClM=           4 LR1=              0 LR2=              1 LR3=              1
          LRAOJ=   1032919426 InStor=           4 jStart=        2055 jR1=         103492
          jR2=         103492 jR3=      261592277 LenR=     261488785 jVInt=   1033022918
          jVSAO=   1033022918 jVPerm=   523081062 MDV=     1610612315
 Keep R2 and R3 ints in memory in symmetry-blocked form, NReq=1294512004.
 FoFCou: FMM=F IPFlag=           0 FMFlag=           0 FMFlg1=           0
         NFxFlg=           0 DoJE=F BraDBF=F KetDBF=F FulRan=T
         wScrn=  0.000000 ICntrl=     600 IOpCl=  0 I1Cent=           0 NGrid=           0
         NMat0=    1 NMatS0=  45451 NMatT0=    0 NMatD0=    1 NMtDS0=    0 NMtDT0=    0
 Petite list used in FoFCou.
 FoFCou:  KetSym=F NOpSet=  1 NOpAb=1 NOp=  1.
 FoFCou:  CnvScl= 1.00D+00 Thresh= 1.00D-10 IAcrcy=      10.
 PrismS was handed   576540401 working-precision words and  1378 shell-pairs
 FoFCou: LinMIO=F DoNuc=F BraDBF=F KetDBF=F HaveP=F PDBF=F HaveZ=F HaveW=F
         NIJTC =      21 NIJTAt=       0 NIJTCD=       0 NIJTT =      21
         IJTBeg=       1 IJTEnd=      21 KLTBeg=       1 KLTEnd=      21
         IPTBeg=       1 IPTEnd=      21 IPTBCv=       1 IPTECv=      21
         IZTBeg=       1 IZTEnd=      21 IZTBCv=       1 IZTECv=      21
         IWTBeg=      22 IWTEnd=      21 IWTBCv=      22 IWTECv=      21
         INTBeg=       1 INTEnd=       0 IFTBCv=       1 IFTECv=      21
 NCel replicated for PrismC:     1
 CoulSu:  IncDef=  1024 NBBP=         950131 NTPThr=   100 NPartT=    8 Incr=        1024 LDynOK=F.
 CoulSu:  NPrtUS=   8 ThrOK=T IAlg=1 NPAlg=1 LenDen=           0 LWGrdD=           0 DoCopy=F.
 Enter PrismC: JobTyp=20 DoJE=F Cont=F.
 PrismC:  IPart=     0 DynPar=T LinDyn=F Incr=        1024 UseFst=F UseS4=T.
 PrismC was handed    71668276 working-precision words and  1378 shell-pairs
 Enter PrismC: JobTyp=20 DoJE=F Cont=F.
 PrismC was handed    71668276 working-precision words and  1378 shell-pairs
 Enter PrismC: JobTyp=20 DoJE=F Cont=F.
 Enter PrismC: JobTyp=20 DoJE=F Cont=F.
 PrismC was handed    71668276 working-precision words and  1378 shell-pairs
 PrismC was handed    71668276 working-precision words and  1378 shell-pairs
 Enter PrismC: JobTyp=20 DoJE=F Cont=F.
 Enter PrismC: JobTyp=20 DoJE=F Cont=F.
 Enter PrismC: JobTyp=20 DoJE=F Cont=F.
 PrismC was handed    71668276 working-precision words and  1378 shell-pairs
 Enter PrismC: JobTyp=20 DoJE=F Cont=F.
 PrismC was handed    71668276 working-precision words and  1378 shell-pairs
 PrismC was handed    71668276 working-precision words and  1378 shell-pairs
 PrismC was handed    71668276 working-precision words and  1378 shell-pairs
 IPart=  4 NShTot=      149872 NShNF=      149872 NShFF=           0 NBatch=        3174 AvBLen=        47.2
 IPart=  2 NShTot=      120185 NShNF=      120185 NShFF=           0 NBatch=        3543 AvBLen=        33.9
 IPart=  6 NShTot=      120672 NShNF=      120672 NShFF=           0 NBatch=        3254 AvBLen=        37.1
 IPart=  0 NShTot=       88816 NShNF=       88816 NShFF=           0 NBatch=        2544 AvBLen=        34.9
 IPart=  5 NShTot=      144963 NShNF=      144963 NShFF=           0 NBatch=        3778 AvBLen=        38.4
 IPart=  1 NShTot=      154556 NShNF=      154556 NShFF=           0 NBatch=        4306 AvBLen=        35.9
 IPart=  7 NShTot=       80357 NShNF=       80357 NShFF=           0 NBatch=        2420 AvBLen=        33.2
 IPart=  3 NShTot=       90424 NShNF=       90424 NShFF=           0 NBatch=        2823 AvBLen=        32.0
 CoulSu:  NxtVal=         976897.
 Iterations=  50 Convergence= 0.100D-06
 A(0)= 0.10000E+01      ANORM= 0.10730E+01      W(0)=-0.46706091E+00
 Singles contributions to ROMP2 energy
Alpha= -0.3050716658404E-02
Beta=  -0.2831764715158E-02
 Iteration Nr.   1
 **********************
 Bef DD1 bucket IAS1 number    25 has length         1809 dot= 0.48648351D-02
 Bef DD1 bucket IAS2 number    26 has length          824 dot= 0.44125259D-02
 Bef DD1 bucket IAD1 number    22 has length       180988 dot= 0.36449323D-01
 Bef DD1 bucket IAD2 number    23 has length       378330 dot= 0.96608757D-01
 Bef DD1 bucket IAD3 number    24 has length        31715 dot= 0.18294825D-01
 Bef DD1 bucket IWS1 number 12996 has length         1809 dot= 0.56640757D-03
 Bef DD1 bucket IWS2 number 12995 has length          824 dot= 0.57307940D-03
 Bef DD1 bucket IWD1 number 12994 has length       180988 dot= 0.00000000D+00
 Bef DD1 bucket IWD2 number 12993 has length       378330 dot= 0.00000000D+00
 Bef DD1 bucket IWD3 number 12992 has length        31715 dot= 0.00000000D+00
 Bef DD1 bucket IWAI1 number     0 is not present.
 Bef DD1 bucket IWAI2 number     0 is not present.
 Bef DD1 bucket IWAI3 number     0 is not present.
 Bef DD1 bucket IWAI4 number     0 is not present.
 DD1Dir will call FoFMem   1 times, MxPair=       114
 NAB=    36 NAA=    36 NBB=     6.
 DD1Dir:  Pass   1 NRAB=    36 NRAA=    36 NRBB=     6 NR=   114.
 FoFMem:  NOp1=  1 NOp2=  4 NOpUse=  1 NSOp=  4 NMatL=     2 DoSAO=T
 IM=     1 IB=1 DotPA=          0.00000000
 IM=     1 IB=2 DotPA=          0.00000000
 IM=     1 IB=3 DotPA=          0.00000000
 IM=     1 IB=4 DotPA=          0.56479715
 IM=     2 IB=1 DotPA=          0.00000000
 IM=     2 IB=2 DotPA=          0.00000000
 IM=     2 IB=3 DotPA=          0.00000000
 IM=     2 IB=4 DotPA=          0.89572767
 FoFMem:  NOp1=  1 NOp2=  4 NOpUse=  1 NSOp=  4 NMatL=     2 DoSAO=T
 IM=     1 IB=1 DotFA=          0.00000000
 IM=     1 IB=2 DotFA=          0.00000000
 IM=     1 IB=3 DotFA=          0.00000000
 IM=     1 IB=4 DotFA=          0.09259743
 IM=     2 IB=1 DotFA=          0.00000000
 IM=     2 IB=2 DotFA=          0.00000000
 IM=     2 IB=3 DotFA=          0.00000000
 IM=     2 IB=4 DotFA=          0.22753113
 FoFMem:  NOp1=  1 NOp2=  4 NOpUse=  1 NSOp=  4 NMatL=     2 DoSAO=T
 IM=     1 IB=1 DotPA=          0.00000000
 IM=     1 IB=2 DotPA=          0.00000000
 IM=     1 IB=3 DotPA=          0.56479715
 IM=     1 IB=4 DotPA=          0.00000000
 IM=     2 IB=1 DotPA=          0.00000000
 IM=     2 IB=2 DotPA=          0.00000000
 IM=     2 IB=3 DotPA=          0.89572767
 IM=     2 IB=4 DotPA=          0.00000000
 FoFMem:  NOp1=  1 NOp2=  4 NOpUse=  1 NSOp=  4 NMatL=     2 DoSAO=T
 IM=     1 IB=1 DotFA=          0.00000000
 IM=     1 IB=2 DotFA=          0.00000000
 IM=     1 IB=3 DotFA=          0.09259743
 IM=     1 IB=4 DotFA=          0.00000000
 IM=     2 IB=1 DotFA=          0.00000000
 IM=     2 IB=2 DotFA=          0.00000000
 IM=     2 IB=3 DotFA=          0.22753113
 IM=     2 IB=4 DotFA=          0.00000000
 FoFMem:  NOp1=  1 NOp2=  4 NOpUse=  1 NSOp=  4 NMatL=     1 DoSAO=T
 IM=     1 IB=1 DotPA=          0.00000000
 IM=     1 IB=2 DotPA=          0.77740015
 IM=     1 IB=3 DotPA=          0.00000000
 IM=     1 IB=4 DotPA=          0.00000000
 FoFMem:  NOp1=  1 NOp2=  4 NOpUse=  1 NSOp=  4 NMatL=     1 DoSAO=T
 IM=     1 IB=1 DotFA=          0.00000000
 IM=     1 IB=2 DotFA=          0.20229645
 IM=     1 IB=3 DotFA=          0.00000000
 IM=     1 IB=4 DotFA=          0.00000000
 FoFMem:  NOp1=  1 NOp2=  4 NOpUse=  1 NSOp=  4 NMatL=     1 DoSAO=T
 IM=     1 IB=1 DotPA=          0.39736603
 IM=     1 IB=2 DotPA=          0.00000000
 IM=     1 IB=3 DotPA=          0.00000000
 IM=     1 IB=4 DotPA=          0.00000000
 FoFMem:  NOp1=  1 NOp2=  4 NOpUse=  1 NSOp=  4 NMatL=     1 DoSAO=T
 IM=     1 IB=1 DotFA=          0.10019723
 IM=     1 IB=2 DotFA=          0.00000000
 IM=     1 IB=3 DotFA=          0.00000000
 IM=     1 IB=4 DotFA=          0.00000000
 FoFMem:  NOp1=  1 NOp2=  4 NOpUse=  1 NSOp=  4 NMatL=    10 DoSAO=T
 IM=     1 IB=1 DotPA=          0.00000000
 IM=     1 IB=2 DotPA=          0.00000000
 IM=     1 IB=3 DotPA=          0.00000000
 IM=     1 IB=4 DotPA=          0.89988663
 IM=     2 IB=1 DotPA=          0.00000000
 IM=     2 IB=2 DotPA=          0.00000000
 IM=     2 IB=3 DotPA=          0.00000000
 IM=     2 IB=4 DotPA=          0.34550581
 IM=     3 IB=1 DotPA=          0.00000000
 IM=     3 IB=2 DotPA=          0.00000000
 IM=     3 IB=3 DotPA=          0.00000000
 IM=     3 IB=4 DotPA=          4.01334958
 IM=     4 IB=1 DotPA=          0.00000000
 IM=     4 IB=2 DotPA=          0.00000000
 IM=     4 IB=3 DotPA=          0.00000000
 IM=     4 IB=4 DotPA=          1.80577123
 IM=     5 IB=1 DotPA=          0.00000000
 IM=     5 IB=2 DotPA=          0.00000000
 IM=     5 IB=3 DotPA=          0.00000000
 IM=     5 IB=4 DotPA=          6.06898864
 IM=     6 IB=1 DotPA=          0.00000000
 IM=     6 IB=2 DotPA=          0.00000000
 IM=     6 IB=3 DotPA=          0.00000000
 IM=     6 IB=4 DotPA=          2.11137992
 IM=     7 IB=1 DotPA=          0.00000000
 IM=     7 IB=2 DotPA=          0.00000000
 IM=     7 IB=3 DotPA=          0.00000000
 IM=     7 IB=4 DotPA=          2.42998729
 IM=     8 IB=1 DotPA=          0.00000000
 IM=     8 IB=2 DotPA=          0.00000000
 IM=     8 IB=3 DotPA=          0.00000000
 IM=     8 IB=4 DotPA=          1.60197015
 IM=     9 IB=1 DotPA=          0.00000000
 IM=     9 IB=2 DotPA=          0.00000000
 IM=     9 IB=3 DotPA=          0.00000000
 IM=     9 IB=4 DotPA=          4.03558557
 IM=    10 IB=1 DotPA=          0.00000000
 IM=    10 IB=2 DotPA=          0.00000000
 IM=    10 IB=3 DotPA=          0.00000000
 IM=    10 IB=4 DotPA=          1.81780921
 FoFMem:  NOp1=  1 NOp2=  4 NOpUse=  1 NSOp=  4 NMatL=    10 DoSAO=T
 IM=     1 IB=1 DotFA=          0.00000000
 IM=     1 IB=2 DotFA=          0.00000000
 IM=     1 IB=3 DotFA=          0.00000000
 IM=     1 IB=4 DotFA=          0.02873087
 IM=     2 IB=1 DotFA=          0.00000000
 IM=     2 IB=2 DotFA=          0.00000000
 IM=     2 IB=3 DotFA=          0.00000000
 IM=     2 IB=4 DotFA=          0.08858391
 IM=     3 IB=1 DotFA=          0.00000000
 IM=     3 IB=2 DotFA=          0.00000000
 IM=     3 IB=3 DotFA=          0.00000000
 IM=     3 IB=4 DotFA=          0.05465347
 IM=     4 IB=1 DotFA=          0.00000000
 IM=     4 IB=2 DotFA=          0.00000000
 IM=     4 IB=3 DotFA=          0.00000000
 IM=     4 IB=4 DotFA=          0.02635584
 IM=     5 IB=1 DotFA=          0.00000000
 IM=     5 IB=2 DotFA=          0.00000000
 IM=     5 IB=3 DotFA=          0.00000000
 IM=     5 IB=4 DotFA=          0.07861259
 IM=     6 IB=1 DotFA=          0.00000000
 IM=     6 IB=2 DotFA=          0.00000000
 IM=     6 IB=3 DotFA=          0.00000000
 IM=     6 IB=4 DotFA=          0.09576925
 IM=     7 IB=1 DotFA=          0.00000000
 IM=     7 IB=2 DotFA=          0.00000000
 IM=     7 IB=3 DotFA=          0.00000000
 IM=     7 IB=4 DotFA=          0.05328707
 IM=     8 IB=1 DotFA=          0.00000000
 IM=     8 IB=2 DotFA=          0.00000000
 IM=     8 IB=3 DotFA=          0.00000000
 IM=     8 IB=4 DotFA=          0.20610589
 IM=     9 IB=1 DotFA=          0.00000000
 IM=     9 IB=2 DotFA=          0.00000000
 IM=     9 IB=3 DotFA=          0.00000000
 IM=     9 IB=4 DotFA=          0.03957240
 IM=    10 IB=1 DotFA=          0.00000000
 IM=    10 IB=2 DotFA=          0.00000000
 IM=    10 IB=3 DotFA=          0.00000000
 IM=    10 IB=4 DotFA=          0.01818910
 FoFMem:  NOp1=  1 NOp2=  4 NOpUse=  1 NSOp=  4 NMatL=    10 DoSAO=T
 IM=     1 IB=1 DotPA=          0.00000000
 IM=     1 IB=2 DotPA=          0.00000000
 IM=     1 IB=3 DotPA=          0.89988663
 IM=     1 IB=4 DotPA=          0.00000000
 IM=     2 IB=1 DotPA=          0.00000000
 IM=     2 IB=2 DotPA=          0.00000000
 IM=     2 IB=3 DotPA=          0.34550582
 IM=     2 IB=4 DotPA=          0.00000000
 IM=     3 IB=1 DotPA=          0.00000000
 IM=     3 IB=2 DotPA=          0.00000000
 IM=     3 IB=3 DotPA=          4.01334958
 IM=     3 IB=4 DotPA=          0.00000000
 IM=     4 IB=1 DotPA=          0.00000000
 IM=     4 IB=2 DotPA=          0.00000000
 IM=     4 IB=3 DotPA=          1.80577123
 IM=     4 IB=4 DotPA=          0.00000000
 IM=     5 IB=1 DotPA=          0.00000000
 IM=     5 IB=2 DotPA=          0.00000000
 IM=     5 IB=3 DotPA=          6.06898863
 IM=     5 IB=4 DotPA=          0.00000000
 IM=     6 IB=1 DotPA=          0.00000000
 IM=     6 IB=2 DotPA=          0.00000000
 IM=     6 IB=3 DotPA=          2.11137992
 IM=     6 IB=4 DotPA=          0.00000000
 IM=     7 IB=1 DotPA=          0.00000000
 IM=     7 IB=2 DotPA=          0.00000000
 IM=     7 IB=3 DotPA=          2.42998729
 IM=     7 IB=4 DotPA=          0.00000000
 IM=     8 IB=1 DotPA=          0.00000000
 IM=     8 IB=2 DotPA=          0.00000000
 IM=     8 IB=3 DotPA=          1.60197015
 IM=     8 IB=4 DotPA=          0.00000000
 IM=     9 IB=1 DotPA=          0.00000000
 IM=     9 IB=2 DotPA=          0.00000000
 IM=     9 IB=3 DotPA=          4.03558557
 IM=     9 IB=4 DotPA=          0.00000000
 IM=    10 IB=1 DotPA=          0.00000000
 IM=    10 IB=2 DotPA=          0.00000000
 IM=    10 IB=3 DotPA=          1.81780921
 IM=    10 IB=4 DotPA=          0.00000000
 FoFMem:  NOp1=  1 NOp2=  4 NOpUse=  1 NSOp=  4 NMatL=    10 DoSAO=T
 IM=     1 IB=1 DotFA=          0.00000000
 IM=     1 IB=2 DotFA=          0.00000000
 IM=     1 IB=3 DotFA=          0.02873087
 IM=     1 IB=4 DotFA=          0.00000000
 IM=     2 IB=1 DotFA=          0.00000000
 IM=     2 IB=2 DotFA=          0.00000000
 IM=     2 IB=3 DotFA=          0.08858391
 IM=     2 IB=4 DotFA=          0.00000000
 IM=     3 IB=1 DotFA=          0.00000000
 IM=     3 IB=2 DotFA=          0.00000000
 IM=     3 IB=3 DotFA=          0.05465347
 IM=     3 IB=4 DotFA=          0.00000000
 IM=     4 IB=1 DotFA=          0.00000000
 IM=     4 IB=2 DotFA=          0.00000000
 IM=     4 IB=3 DotFA=          0.02635584
 IM=     4 IB=4 DotFA=          0.00000000
 IM=     5 IB=1 DotFA=          0.00000000
 IM=     5 IB=2 DotFA=          0.00000000
 IM=     5 IB=3 DotFA=          0.07861259
 IM=     5 IB=4 DotFA=          0.00000000
 IM=     6 IB=1 DotFA=          0.00000000
 IM=     6 IB=2 DotFA=          0.00000000
 IM=     6 IB=3 DotFA=          0.09576925
 IM=     6 IB=4 DotFA=          0.00000000
 IM=     7 IB=1 DotFA=          0.00000000
 IM=     7 IB=2 DotFA=          0.00000000
 IM=     7 IB=3 DotFA=          0.05328707
 IM=     7 IB=4 DotFA=          0.00000000
 IM=     8 IB=1 DotFA=          0.00000000
 IM=     8 IB=2 DotFA=          0.00000000
 IM=     8 IB=3 DotFA=          0.20610589
 IM=     8 IB=4 DotFA=          0.00000000
 IM=     9 IB=1 DotFA=          0.00000000
 IM=     9 IB=2 DotFA=          0.00000000
 IM=     9 IB=3 DotFA=          0.03957240
 IM=     9 IB=4 DotFA=          0.00000000
 IM=    10 IB=1 DotFA=          0.00000000
 IM=    10 IB=2 DotFA=          0.00000000
 IM=    10 IB=3 DotFA=          0.01818910
 IM=    10 IB=4 DotFA=          0.00000000
 FoFMem:  NOp1=  1 NOp2=  4 NOpUse=  1 NSOp=  4 NMatL=     8 DoSAO=T
 IM=     1 IB=1 DotPA=          0.00000000
 IM=     1 IB=2 DotPA=          0.23367419
 IM=     1 IB=3 DotPA=          0.00000000
 IM=     1 IB=4 DotPA=          0.00000000
 IM=     2 IB=1 DotPA=          0.00000000
 IM=     2 IB=2 DotPA=          7.04547736
 IM=     2 IB=3 DotPA=          0.00000000
 IM=     2 IB=4 DotPA=          0.00000000
 IM=     3 IB=1 DotPA=          0.00000000
 IM=     3 IB=2 DotPA=          0.66404858
 IM=     3 IB=3 DotPA=          0.00000000
 IM=     3 IB=4 DotPA=          0.00000000
 IM=     4 IB=1 DotPA=          0.00000000
 IM=     4 IB=2 DotPA=          0.62653849
 IM=     4 IB=3 DotPA=          0.00000000
 IM=     4 IB=4 DotPA=          0.00000000
 IM=     5 IB=1 DotPA=          0.00000000
 IM=     5 IB=2 DotPA=          2.79374662
 IM=     5 IB=3 DotPA=          0.00000000
 IM=     5 IB=4 DotPA=          0.00000000
 IM=     6 IB=1 DotPA=          0.00000000
 IM=     6 IB=2 DotPA=          0.88273114
 IM=     6 IB=3 DotPA=          0.00000000
 IM=     6 IB=4 DotPA=          0.00000000
 IM=     7 IB=1 DotPA=          0.00000000
 IM=     7 IB=2 DotPA=          0.88273114
 IM=     7 IB=3 DotPA=          0.00000000
 IM=     7 IB=4 DotPA=          0.00000000
 IM=     8 IB=1 DotPA=          0.00000000
 IM=     8 IB=2 DotPA=          1.02997172
 IM=     8 IB=3 DotPA=          0.00000000
 IM=     8 IB=4 DotPA=          0.00000000
 FoFMem:  NOp1=  1 NOp2=  4 NOpUse=  1 NSOp=  4 NMatL=     8 DoSAO=T
 IM=     1 IB=1 DotFA=          0.00000000
 IM=     1 IB=2 DotFA=          0.01097741
 IM=     1 IB=3 DotFA=          0.00000000
 IM=     1 IB=4 DotFA=          0.00000000
 IM=     2 IB=1 DotFA=          0.00000000
 IM=     2 IB=2 DotFA=          0.08333632
 IM=     2 IB=3 DotFA=          0.00000000
 IM=     2 IB=4 DotFA=          0.00000000
 IM=     3 IB=1 DotFA=          0.00000000
 IM=     3 IB=2 DotFA=          0.04944359
 IM=     3 IB=3 DotFA=          0.00000000
 IM=     3 IB=4 DotFA=          0.00000000
 IM=     4 IB=1 DotFA=          0.00000000
 IM=     4 IB=2 DotFA=          0.03242586
 IM=     4 IB=3 DotFA=          0.00000000
 IM=     4 IB=4 DotFA=          0.00000000
 IM=     5 IB=1 DotFA=          0.00000000
 IM=     5 IB=2 DotFA=          0.04225340
 IM=     5 IB=3 DotFA=          0.00000000
 IM=     5 IB=4 DotFA=          0.00000000
 IM=     6 IB=1 DotFA=          0.00000000
 IM=     6 IB=2 DotFA=          0.03861291
 IM=     6 IB=3 DotFA=          0.00000000
 IM=     6 IB=4 DotFA=          0.00000000
 IM=     7 IB=1 DotFA=          0.00000000
 IM=     7 IB=2 DotFA=          0.03861291
 IM=     7 IB=3 DotFA=          0.00000000
 IM=     7 IB=4 DotFA=          0.00000000
 IM=     8 IB=1 DotFA=          0.00000000
 IM=     8 IB=2 DotFA=          0.19113328
 IM=     8 IB=3 DotFA=          0.00000000
 IM=     8 IB=4 DotFA=          0.00000000
 FoFMem:  NOp1=  1 NOp2=  4 NOpUse=  1 NSOp=  4 NMatL=     8 DoSAO=T
 IM=     1 IB=1 DotPA=          0.19913406
 IM=     1 IB=2 DotPA=          0.00000000
 IM=     1 IB=3 DotPA=          0.00000000
 IM=     1 IB=4 DotPA=          0.00000000
 IM=     2 IB=1 DotPA=          0.43971722
 IM=     2 IB=2 DotPA=          0.00000000
 IM=     2 IB=3 DotPA=          0.00000000
 IM=     2 IB=4 DotPA=          0.00000000
 IM=     3 IB=1 DotPA=          0.38264017
 IM=     3 IB=2 DotPA=          0.00000000
 IM=     3 IB=3 DotPA=          0.00000000
 IM=     3 IB=4 DotPA=          0.00000000
 IM=     4 IB=1 DotPA=          0.56848774
 IM=     4 IB=2 DotPA=          0.00000000
 IM=     4 IB=3 DotPA=          0.00000000
 IM=     4 IB=4 DotPA=          0.00000000
 IM=     5 IB=1 DotPA=          0.50426667
 IM=     5 IB=2 DotPA=          0.00000000
 IM=     5 IB=3 DotPA=          0.00000000
 IM=     5 IB=4 DotPA=          0.00000000
 IM=     6 IB=1 DotPA=          0.90286716
 IM=     6 IB=2 DotPA=          0.00000000
 IM=     6 IB=3 DotPA=          0.00000000
 IM=     6 IB=4 DotPA=          0.00000000
 IM=     7 IB=1 DotPA=          0.57695887
 IM=     7 IB=2 DotPA=          0.00000000
 IM=     7 IB=3 DotPA=          0.00000000
 IM=     7 IB=4 DotPA=          0.00000000
 IM=     8 IB=1 DotPA=          0.57695887
 IM=     8 IB=2 DotPA=          0.00000000
 IM=     8 IB=3 DotPA=          0.00000000
 IM=     8 IB=4 DotPA=          0.00000000
 FoFMem:  NOp1=  1 NOp2=  4 NOpUse=  1 NSOp=  4 NMatL=     8 DoSAO=T
 IM=     1 IB=1 DotFA=          0.01672574
 IM=     1 IB=2 DotFA=          0.00000000
 IM=     1 IB=3 DotFA=          0.00000000
 IM=     1 IB=4 DotFA=          0.00000000
 IM=     2 IB=1 DotFA=          0.05620344
 IM=     2 IB=2 DotFA=          0.00000000
 IM=     2 IB=3 DotFA=          0.00000000
 IM=     2 IB=4 DotFA=          0.00000000
 IM=     3 IB=1 DotFA=          0.08572701
 IM=     3 IB=2 DotFA=          0.00000000
 IM=     3 IB=3 DotFA=          0.00000000
 IM=     3 IB=4 DotFA=          0.00000000
 IM=     4 IB=1 DotFA=          0.07416814
 IM=     4 IB=2 DotFA=          0.00000000
 IM=     4 IB=3 DotFA=          0.00000000
 IM=     4 IB=4 DotFA=          0.00000000
 IM=     5 IB=1 DotFA=          0.04980538
 IM=     5 IB=2 DotFA=          0.00000000
 IM=     5 IB=3 DotFA=          0.00000000
 IM=     5 IB=4 DotFA=          0.00000000
 IM=     6 IB=1 DotFA=          0.07360997
 IM=     6 IB=2 DotFA=          0.00000000
 IM=     6 IB=3 DotFA=          0.00000000
 IM=     6 IB=4 DotFA=          0.00000000
 IM=     7 IB=1 DotFA=          0.01932525
 IM=     7 IB=2 DotFA=          0.00000000
 IM=     7 IB=3 DotFA=          0.00000000
 IM=     7 IB=4 DotFA=          0.00000000
 IM=     8 IB=1 DotFA=          0.01932525
 IM=     8 IB=2 DotFA=          0.00000000
 IM=     8 IB=3 DotFA=          0.00000000
 IM=     8 IB=4 DotFA=          0.00000000
 FoFMem:  NOp1=  1 NOp2=  4 NOpUse=  1 NSOp=  4 NMatL=     9 DoSAO=T
 IM=     1 IB=1 DotPA=          0.00000000
 IM=     1 IB=2 DotPA=          0.00000000
 IM=     1 IB=3 DotPA=          0.00000000
 IM=     1 IB=4 DotPA=          0.29538906
 IM=     2 IB=1 DotPA=          0.00000000
 IM=     2 IB=2 DotPA=          0.00000000
 IM=     2 IB=3 DotPA=          0.00000000
 IM=     2 IB=4 DotPA=          0.27554834
 IM=     3 IB=1 DotPA=          0.00000000
 IM=     3 IB=2 DotPA=          0.00000000
 IM=     3 IB=3 DotPA=          0.00000000
 IM=     3 IB=4 DotPA=          0.56639943
 IM=     4 IB=1 DotPA=          0.00000000
 IM=     4 IB=2 DotPA=          0.00000000
 IM=     4 IB=3 DotPA=          0.00000000
 IM=     4 IB=4 DotPA=          0.36181701
 IM=     5 IB=1 DotPA=          0.00000000
 IM=     5 IB=2 DotPA=          0.00000000
 IM=     5 IB=3 DotPA=          0.00000000
 IM=     5 IB=4 DotPA=          0.28916528
 IM=     6 IB=1 DotPA=          0.00000000
 IM=     6 IB=2 DotPA=          0.00000000
 IM=     6 IB=3 DotPA=          0.00000000
 IM=     6 IB=4 DotPA=          0.28562833
 IM=     7 IB=1 DotPA=          0.00000000
 IM=     7 IB=2 DotPA=          0.00000000
 IM=     7 IB=3 DotPA=          0.00000000
 IM=     7 IB=4 DotPA=          0.86358679
 IM=     8 IB=1 DotPA=          0.00000000
 IM=     8 IB=2 DotPA=          0.00000000
 IM=     8 IB=3 DotPA=          0.00000000
 IM=     8 IB=4 DotPA=          0.23115883
 IM=     9 IB=1 DotPA=          0.00000000
 IM=     9 IB=2 DotPA=          0.00000000
 IM=     9 IB=3 DotPA=          0.00000000
 IM=     9 IB=4 DotPA=          0.31122141
 FoFMem:  NOp1=  1 NOp2=  4 NOpUse=  1 NSOp=  4 NMatL=     9 DoSAO=T
 IM=     1 IB=1 DotFA=          0.00000000
 IM=     1 IB=2 DotFA=          0.00000000
 IM=     1 IB=3 DotFA=          0.00000000
 IM=     1 IB=4 DotFA=          0.04707315
 IM=     2 IB=1 DotFA=          0.00000000
 IM=     2 IB=2 DotFA=          0.00000000
 IM=     2 IB=3 DotFA=          0.00000000
 IM=     2 IB=4 DotFA=          0.01587959
 IM=     3 IB=1 DotFA=          0.00000000
 IM=     3 IB=2 DotFA=          0.00000000
 IM=     3 IB=3 DotFA=          0.00000000
 IM=     3 IB=4 DotFA=          0.05515510
 IM=     4 IB=1 DotFA=          0.00000000
 IM=     4 IB=2 DotFA=          0.00000000
 IM=     4 IB=3 DotFA=          0.00000000
 IM=     4 IB=4 DotFA=          0.10478429
 IM=     5 IB=1 DotFA=          0.00000000
 IM=     5 IB=2 DotFA=          0.00000000
 IM=     5 IB=3 DotFA=          0.00000000
 IM=     5 IB=4 DotFA=          0.01120831
 IM=     6 IB=1 DotFA=          0.00000000
 IM=     6 IB=2 DotFA=          0.00000000
 IM=     6 IB=3 DotFA=          0.00000000
 IM=     6 IB=4 DotFA=          0.01373407
 IM=     7 IB=1 DotFA=          0.00000000
 IM=     7 IB=2 DotFA=          0.00000000
 IM=     7 IB=3 DotFA=          0.00000000
 IM=     7 IB=4 DotFA=          0.02944204
 IM=     8 IB=1 DotFA=          0.00000000
 IM=     8 IB=2 DotFA=          0.00000000
 IM=     8 IB=3 DotFA=          0.00000000
 IM=     8 IB=4 DotFA=          0.04440247
 IM=     9 IB=1 DotFA=          0.00000000
 IM=     9 IB=2 DotFA=          0.00000000
 IM=     9 IB=3 DotFA=          0.00000000
 IM=     9 IB=4 DotFA=          0.10778136
 FoFMem:  NOp1=  1 NOp2=  4 NOpUse=  1 NSOp=  4 NMatL=     9 DoSAO=T
 IM=     1 IB=1 DotPA=          0.00000000
 IM=     1 IB=2 DotPA=          0.00000000
 IM=     1 IB=3 DotPA=          0.29538906
 IM=     1 IB=4 DotPA=          0.00000000
 IM=     2 IB=1 DotPA=          0.00000000
 IM=     2 IB=2 DotPA=          0.00000000
 IM=     2 IB=3 DotPA=          0.27554834
 IM=     2 IB=4 DotPA=          0.00000000
 IM=     3 IB=1 DotPA=          0.00000000
 IM=     3 IB=2 DotPA=          0.00000000
 IM=     3 IB=3 DotPA=          0.56639943
 IM=     3 IB=4 DotPA=          0.00000000
 IM=     4 IB=1 DotPA=          0.00000000
 IM=     4 IB=2 DotPA=          0.00000000
 IM=     4 IB=3 DotPA=          0.36181701
 IM=     4 IB=4 DotPA=          0.00000000
 IM=     5 IB=1 DotPA=          0.00000000
 IM=     5 IB=2 DotPA=          0.00000000
 IM=     5 IB=3 DotPA=          0.28916528
 IM=     5 IB=4 DotPA=          0.00000000
 IM=     6 IB=1 DotPA=          0.00000000
 IM=     6 IB=2 DotPA=          0.00000000
 IM=     6 IB=3 DotPA=          0.28562833
 IM=     6 IB=4 DotPA=          0.00000000
 IM=     7 IB=1 DotPA=          0.00000000
 IM=     7 IB=2 DotPA=          0.00000000
 IM=     7 IB=3 DotPA=          0.86358679
 IM=     7 IB=4 DotPA=          0.00000000
 IM=     8 IB=1 DotPA=          0.00000000
 IM=     8 IB=2 DotPA=          0.00000000
 IM=     8 IB=3 DotPA=          0.23115883
 IM=     8 IB=4 DotPA=          0.00000000
 IM=     9 IB=1 DotPA=          0.00000000
 IM=     9 IB=2 DotPA=          0.00000000
 IM=     9 IB=3 DotPA=          0.31122141
 IM=     9 IB=4 DotPA=          0.00000000
 FoFMem:  NOp1=  1 NOp2=  4 NOpUse=  1 NSOp=  4 NMatL=     9 DoSAO=T
 IM=     1 IB=1 DotFA=          0.00000000
 IM=     1 IB=2 DotFA=          0.00000000
 IM=     1 IB=3 DotFA=          0.04707315
 IM=     1 IB=4 DotFA=          0.00000000
 IM=     2 IB=1 DotFA=          0.00000000
 IM=     2 IB=2 DotFA=          0.00000000
 IM=     2 IB=3 DotFA=          0.01587959
 IM=     2 IB=4 DotFA=          0.00000000
 IM=     3 IB=1 DotFA=          0.00000000
 IM=     3 IB=2 DotFA=          0.00000000
 IM=     3 IB=3 DotFA=          0.05515510
 IM=     3 IB=4 DotFA=          0.00000000
 IM=     4 IB=1 DotFA=          0.00000000
 IM=     4 IB=2 DotFA=          0.00000000
 IM=     4 IB=3 DotFA=          0.10478429
 IM=     4 IB=4 DotFA=          0.00000000
 IM=     5 IB=1 DotFA=          0.00000000
 IM=     5 IB=2 DotFA=          0.00000000
 IM=     5 IB=3 DotFA=          0.01120831
 IM=     5 IB=4 DotFA=          0.00000000
 IM=     6 IB=1 DotFA=          0.00000000
 IM=     6 IB=2 DotFA=          0.00000000
 IM=     6 IB=3 DotFA=          0.01373407
 IM=     6 IB=4 DotFA=          0.00000000
 IM=     7 IB=1 DotFA=          0.00000000
 IM=     7 IB=2 DotFA=          0.00000000
 IM=     7 IB=3 DotFA=          0.02944204
 IM=     7 IB=4 DotFA=          0.00000000
 IM=     8 IB=1 DotFA=          0.00000000
 IM=     8 IB=2 DotFA=          0.00000000
 IM=     8 IB=3 DotFA=          0.04440247
 IM=     8 IB=4 DotFA=          0.00000000
 IM=     9 IB=1 DotFA=          0.00000000
 IM=     9 IB=2 DotFA=          0.00000000
 IM=     9 IB=3 DotFA=          0.10778136
 IM=     9 IB=4 DotFA=          0.00000000
 FoFMem:  NOp1=  1 NOp2=  4 NOpUse=  1 NSOp=  4 NMatL=     6 DoSAO=T
 IM=     1 IB=1 DotPA=          0.00000000
 IM=     1 IB=2 DotPA=          0.12493052
 IM=     1 IB=3 DotPA=          0.00000000
 IM=     1 IB=4 DotPA=          0.00000000
 IM=     2 IB=1 DotPA=          0.00000000
 IM=     2 IB=2 DotPA=          0.24680914
 IM=     2 IB=3 DotPA=          0.00000000
 IM=     2 IB=4 DotPA=          0.00000000
 IM=     3 IB=1 DotPA=          0.00000000
 IM=     3 IB=2 DotPA=          0.31760318
 IM=     3 IB=3 DotPA=          0.00000000
 IM=     3 IB=4 DotPA=          0.00000000
 IM=     4 IB=1 DotPA=          0.00000000
 IM=     4 IB=2 DotPA=          0.29657234
 IM=     4 IB=3 DotPA=          0.00000000
 IM=     4 IB=4 DotPA=          0.00000000
 IM=     5 IB=1 DotPA=          0.00000000
 IM=     5 IB=2 DotPA=          0.31760318
 IM=     5 IB=3 DotPA=          0.00000000
 IM=     5 IB=4 DotPA=          0.00000000
 IM=     6 IB=1 DotPA=          0.00000000
 IM=     6 IB=2 DotPA=          0.29657234
 IM=     6 IB=3 DotPA=          0.00000000
 IM=     6 IB=4 DotPA=          0.00000000
 FoFMem:  NOp1=  1 NOp2=  4 NOpUse=  1 NSOp=  4 NMatL=     6 DoSAO=T
 IM=     1 IB=1 DotFA=          0.00000000
 IM=     1 IB=2 DotFA=          0.00600375
 IM=     1 IB=3 DotFA=          0.00000000
 IM=     1 IB=4 DotFA=          0.00000000
 IM=     2 IB=1 DotFA=          0.00000000
 IM=     2 IB=2 DotFA=          0.01678656
 IM=     2 IB=3 DotFA=          0.00000000
 IM=     2 IB=4 DotFA=          0.00000000
 IM=     3 IB=1 DotFA=          0.00000000
 IM=     3 IB=2 DotFA=          0.02155097
 IM=     3 IB=3 DotFA=          0.00000000
 IM=     3 IB=4 DotFA=          0.00000000
 IM=     4 IB=1 DotFA=          0.00000000
 IM=     4 IB=2 DotFA=          0.09699736
 IM=     4 IB=3 DotFA=          0.00000000
 IM=     4 IB=4 DotFA=          0.00000000
 IM=     5 IB=1 DotFA=          0.00000000
 IM=     5 IB=2 DotFA=          0.02155097
 IM=     5 IB=3 DotFA=          0.00000000
 IM=     5 IB=4 DotFA=          0.00000000
 IM=     6 IB=1 DotFA=          0.00000000
 IM=     6 IB=2 DotFA=          0.09699736
 IM=     6 IB=3 DotFA=          0.00000000
 IM=     6 IB=4 DotFA=          0.00000000
 FoFMem:  NOp1=  1 NOp2=  4 NOpUse=  1 NSOp=  4 NMatL=    12 DoSAO=T
 IM=     1 IB=1 DotPA=          0.02919983
 IM=     1 IB=2 DotPA=          0.00000000
 IM=     1 IB=3 DotPA=          0.00000000
 IM=     1 IB=4 DotPA=          0.00000000
 IM=     2 IB=1 DotPA=          0.17707699
 IM=     2 IB=2 DotPA=          0.00000000
 IM=     2 IB=3 DotPA=          0.00000000
 IM=     2 IB=4 DotPA=          0.00000000
 IM=     3 IB=1 DotPA=          0.10311765
 IM=     3 IB=2 DotPA=          0.00000000
 IM=     3 IB=3 DotPA=          0.00000000
 IM=     3 IB=4 DotPA=          0.00000000
 IM=     4 IB=1 DotPA=          0.20935448
 IM=     4 IB=2 DotPA=          0.00000000
 IM=     4 IB=3 DotPA=          0.00000000
 IM=     4 IB=4 DotPA=          0.00000000
 IM=     5 IB=1 DotPA=          0.22802786
 IM=     5 IB=2 DotPA=          0.00000000
 IM=     5 IB=3 DotPA=          0.00000000
 IM=     5 IB=4 DotPA=          0.00000000
 IM=     6 IB=1 DotPA=          0.37850542
 IM=     6 IB=2 DotPA=          0.00000000
 IM=     6 IB=3 DotPA=          0.00000000
 IM=     6 IB=4 DotPA=          0.00000000
 IM=     7 IB=1 DotPA=          0.18718455
 IM=     7 IB=2 DotPA=          0.00000000
 IM=     7 IB=3 DotPA=          0.00000000
 IM=     7 IB=4 DotPA=          0.00000000
 IM=     8 IB=1 DotPA=          0.27102311
 IM=     8 IB=2 DotPA=          0.00000000
 IM=     8 IB=3 DotPA=          0.00000000
 IM=     8 IB=4 DotPA=          0.00000000
 IM=     9 IB=1 DotPA=          0.26475330
 IM=     9 IB=2 DotPA=          0.00000000
 IM=     9 IB=3 DotPA=          0.00000000
 IM=     9 IB=4 DotPA=          0.00000000
 IM=    10 IB=1 DotPA=          0.14217787
 IM=    10 IB=2 DotPA=          0.00000000
 IM=    10 IB=3 DotPA=          0.00000000
 IM=    10 IB=4 DotPA=          0.00000000
 IM=    11 IB=1 DotPA=          0.26475330
 IM=    11 IB=2 DotPA=          0.00000000
 IM=    11 IB=3 DotPA=          0.00000000
 IM=    11 IB=4 DotPA=          0.00000000
 IM=    12 IB=1 DotPA=          0.14217787
 IM=    12 IB=2 DotPA=          0.00000000
 IM=    12 IB=3 DotPA=          0.00000000
 IM=    12 IB=4 DotPA=          0.00000000
 FoFMem:  NOp1=  1 NOp2=  4 NOpUse=  1 NSOp=  4 NMatL=    12 DoSAO=T
 IM=     1 IB=1 DotFA=          0.00700865
 IM=     1 IB=2 DotFA=          0.00000000
 IM=     1 IB=3 DotFA=          0.00000000
 IM=     1 IB=4 DotFA=          0.00000000
 IM=     2 IB=1 DotFA=          0.04821083
 IM=     2 IB=2 DotFA=          0.00000000
 IM=     2 IB=3 DotFA=          0.00000000
 IM=     2 IB=4 DotFA=          0.00000000
 IM=     3 IB=1 DotFA=          0.00901350
 IM=     3 IB=2 DotFA=          0.00000000
 IM=     3 IB=3 DotFA=          0.00000000
 IM=     3 IB=4 DotFA=          0.00000000
 IM=     4 IB=1 DotFA=          0.02503863
 IM=     4 IB=2 DotFA=          0.00000000
 IM=     4 IB=3 DotFA=          0.00000000
 IM=     4 IB=4 DotFA=          0.00000000
 IM=     5 IB=1 DotFA=          0.03066369
 IM=     5 IB=2 DotFA=          0.00000000
 IM=     5 IB=3 DotFA=          0.00000000
 IM=     5 IB=4 DotFA=          0.00000000
 IM=     6 IB=1 DotFA=          0.04800249
 IM=     6 IB=2 DotFA=          0.00000000
 IM=     6 IB=3 DotFA=          0.00000000
 IM=     6 IB=4 DotFA=          0.00000000
 IM=     7 IB=1 DotFA=          0.04432214
 IM=     7 IB=2 DotFA=          0.00000000
 IM=     7 IB=3 DotFA=          0.00000000
 IM=     7 IB=4 DotFA=          0.00000000
 IM=     8 IB=1 DotFA=          0.03087076
 IM=     8 IB=2 DotFA=          0.00000000
 IM=     8 IB=3 DotFA=          0.00000000
 IM=     8 IB=4 DotFA=          0.00000000
 IM=     9 IB=1 DotFA=          0.01251752
 IM=     9 IB=2 DotFA=          0.00000000
 IM=     9 IB=3 DotFA=          0.00000000
 IM=     9 IB=4 DotFA=          0.00000000
 IM=    10 IB=1 DotFA=          0.02220606
 IM=    10 IB=2 DotFA=          0.00000000
 IM=    10 IB=3 DotFA=          0.00000000
 IM=    10 IB=4 DotFA=          0.00000000
 IM=    11 IB=1 DotFA=          0.01251752
 IM=    11 IB=2 DotFA=          0.00000000
 IM=    11 IB=3 DotFA=          0.00000000
 IM=    11 IB=4 DotFA=          0.00000000
 IM=    12 IB=1 DotFA=          0.02220606
 IM=    12 IB=2 DotFA=          0.00000000
 IM=    12 IB=3 DotFA=          0.00000000
 IM=    12 IB=4 DotFA=          0.00000000
 FoFMem:  NOp1=  1 NOp2=  4 NOpUse=  1 NSOp=  4 NMatL=     9 DoSAO=T
 IM=     1 IB=1 DotPA=          0.00000000
 IM=     1 IB=2 DotPA=          0.00000000
 IM=     1 IB=3 DotPA=          0.00000000
 IM=     1 IB=4 DotPA=          1.12259504
 IM=     2 IB=1 DotPA=          0.00000000
 IM=     2 IB=2 DotPA=          0.00000000
 IM=     2 IB=3 DotPA=          0.00000000
 IM=     2 IB=4 DotPA=          1.77937352
 IM=     3 IB=1 DotPA=          0.00000000
 IM=     3 IB=2 DotPA=          0.00000000
 IM=     3 IB=3 DotPA=          0.00000000
 IM=     3 IB=4 DotPA=          0.79392881
 IM=     4 IB=1 DotPA=          0.00000000
 IM=     4 IB=2 DotPA=          0.00000000
 IM=     4 IB=3 DotPA=          0.00000000
 IM=     4 IB=4 DotPA=          3.09710801
 IM=     5 IB=1 DotPA=          0.00000000
 IM=     5 IB=2 DotPA=          0.00000000
 IM=     5 IB=3 DotPA=          0.00000000
 IM=     5 IB=4 DotPA=          1.79657158
 IM=     6 IB=1 DotPA=          0.00000000
 IM=     6 IB=2 DotPA=          0.00000000
 IM=     6 IB=3 DotPA=          0.00000000
 IM=     6 IB=4 DotPA=          0.65859834
 IM=     7 IB=1 DotPA=          0.00000000
 IM=     7 IB=2 DotPA=          0.00000000
 IM=     7 IB=3 DotPA=          0.00000000
 IM=     7 IB=4 DotPA=          2.03717597
 IM=     8 IB=1 DotPA=          0.00000000
 IM=     8 IB=2 DotPA=          0.00000000
 IM=     8 IB=3 DotPA=          0.00000000
 IM=     8 IB=4 DotPA=          1.11531924
 IM=     9 IB=1 DotPA=          0.00000000
 IM=     9 IB=2 DotPA=          0.00000000
 IM=     9 IB=3 DotPA=          0.00000000
 IM=     9 IB=4 DotPA=          1.66743468
 FoFMem:  NOp1=  1 NOp2=  4 NOpUse=  1 NSOp=  4 NMatL=     9 DoSAO=T
 IM=     1 IB=1 DotFA=          0.00000000
 IM=     1 IB=2 DotFA=          0.00000000
 IM=     1 IB=3 DotFA=          0.00000000
 IM=     1 IB=4 DotFA=          0.18068632
 IM=     2 IB=1 DotFA=          0.00000000
 IM=     2 IB=2 DotFA=          0.00000000
 IM=     2 IB=3 DotFA=          0.00000000
 IM=     2 IB=4 DotFA=          0.02948665
 IM=     3 IB=1 DotFA=          0.00000000
 IM=     3 IB=2 DotFA=          0.00000000
 IM=     3 IB=3 DotFA=          0.00000000
 IM=     3 IB=4 DotFA=          0.07722124
 IM=     4 IB=1 DotFA=          0.00000000
 IM=     4 IB=2 DotFA=          0.00000000
 IM=     4 IB=3 DotFA=          0.00000000
 IM=     4 IB=4 DotFA=          0.18476220
 IM=     5 IB=1 DotFA=          0.00000000
 IM=     5 IB=2 DotFA=          0.00000000
 IM=     5 IB=3 DotFA=          0.00000000
 IM=     5 IB=4 DotFA=          0.02118283
 IM=     6 IB=1 DotFA=          0.00000000
 IM=     6 IB=2 DotFA=          0.00000000
 IM=     6 IB=3 DotFA=          0.00000000
 IM=     6 IB=4 DotFA=          0.04601659
 IM=     7 IB=1 DotFA=          0.00000000
 IM=     7 IB=2 DotFA=          0.00000000
 IM=     7 IB=3 DotFA=          0.00000000
 IM=     7 IB=4 DotFA=          0.05393282
 IM=     8 IB=1 DotFA=          0.00000000
 IM=     8 IB=2 DotFA=          0.00000000
 IM=     8 IB=3 DotFA=          0.00000000
 IM=     8 IB=4 DotFA=          0.18037275
 IM=     9 IB=1 DotFA=          0.00000000
 IM=     9 IB=2 DotFA=          0.00000000
 IM=     9 IB=3 DotFA=          0.00000000
 IM=     9 IB=4 DotFA=          0.17716424
 FoFMem:  NOp1=  1 NOp2=  4 NOpUse=  1 NSOp=  4 NMatL=     9 DoSAO=T
 IM=     1 IB=1 DotPA=          0.00000000
 IM=     1 IB=2 DotPA=          0.00000000
 IM=     1 IB=3 DotPA=          1.12259504
 IM=     1 IB=4 DotPA=          0.00000000
 IM=     2 IB=1 DotPA=          0.00000000
 IM=     2 IB=2 DotPA=          0.00000000
 IM=     2 IB=3 DotPA=          1.77937352
 IM=     2 IB=4 DotPA=          0.00000000
 IM=     3 IB=1 DotPA=          0.00000000
 IM=     3 IB=2 DotPA=          0.00000000
 IM=     3 IB=3 DotPA=          0.79392881
 IM=     3 IB=4 DotPA=          0.00000000
 IM=     4 IB=1 DotPA=          0.00000000
 IM=     4 IB=2 DotPA=          0.00000000
 IM=     4 IB=3 DotPA=          3.09710801
 IM=     4 IB=4 DotPA=          0.00000000
 IM=     5 IB=1 DotPA=          0.00000000
 IM=     5 IB=2 DotPA=          0.00000000
 IM=     5 IB=3 DotPA=          1.79657158
 IM=     5 IB=4 DotPA=          0.00000000
 IM=     6 IB=1 DotPA=          0.00000000
 IM=     6 IB=2 DotPA=          0.00000000
 IM=     6 IB=3 DotPA=          0.65859834
 IM=     6 IB=4 DotPA=          0.00000000
 IM=     7 IB=1 DotPA=          0.00000000
 IM=     7 IB=2 DotPA=          0.00000000
 IM=     7 IB=3 DotPA=          2.03717597
 IM=     7 IB=4 DotPA=          0.00000000
 IM=     8 IB=1 DotPA=          0.00000000
 IM=     8 IB=2 DotPA=          0.00000000
 IM=     8 IB=3 DotPA=          1.11531924
 IM=     8 IB=4 DotPA=          0.00000000
 IM=     9 IB=1 DotPA=          0.00000000
 IM=     9 IB=2 DotPA=          0.00000000
 IM=     9 IB=3 DotPA=          1.66743468
 IM=     9 IB=4 DotPA=          0.00000000
 FoFMem:  NOp1=  1 NOp2=  4 NOpUse=  1 NSOp=  4 NMatL=     9 DoSAO=T
 IM=     1 IB=1 DotFA=          0.00000000
 IM=     1 IB=2 DotFA=          0.00000000
 IM=     1 IB=3 DotFA=          0.18068632
 IM=     1 IB=4 DotFA=          0.00000000
 IM=     2 IB=1 DotFA=          0.00000000
 IM=     2 IB=2 DotFA=          0.00000000
 IM=     2 IB=3 DotFA=          0.02948665
 IM=     2 IB=4 DotFA=          0.00000000
 IM=     3 IB=1 DotFA=          0.00000000
 IM=     3 IB=2 DotFA=          0.00000000
 IM=     3 IB=3 DotFA=          0.07722124
 IM=     3 IB=4 DotFA=          0.00000000
 IM=     4 IB=1 DotFA=          0.00000000
 IM=     4 IB=2 DotFA=          0.00000000
 IM=     4 IB=3 DotFA=          0.18476220
 IM=     4 IB=4 DotFA=          0.00000000
 IM=     5 IB=1 DotFA=          0.00000000
 IM=     5 IB=2 DotFA=          0.00000000
 IM=     5 IB=3 DotFA=          0.02118283
 IM=     5 IB=4 DotFA=          0.00000000
 IM=     6 IB=1 DotFA=          0.00000000
 IM=     6 IB=2 DotFA=          0.00000000
 IM=     6 IB=3 DotFA=          0.04601659
 IM=     6 IB=4 DotFA=          0.00000000
 IM=     7 IB=1 DotFA=          0.00000000
 IM=     7 IB=2 DotFA=          0.00000000
 IM=     7 IB=3 DotFA=          0.05393282
 IM=     7 IB=4 DotFA=          0.00000000
 IM=     8 IB=1 DotFA=          0.00000000
 IM=     8 IB=2 DotFA=          0.00000000
 IM=     8 IB=3 DotFA=          0.18037275
 IM=     8 IB=4 DotFA=          0.00000000
 IM=     9 IB=1 DotFA=          0.00000000
 IM=     9 IB=2 DotFA=          0.00000000
 IM=     9 IB=3 DotFA=          0.17716424
 IM=     9 IB=4 DotFA=          0.00000000
 FoFMem:  NOp1=  1 NOp2=  4 NOpUse=  1 NSOp=  4 NMatL=     6 DoSAO=T
 IM=     1 IB=1 DotPA=          0.00000000
 IM=     1 IB=2 DotPA=          0.72298723
 IM=     1 IB=3 DotPA=          0.00000000
 IM=     1 IB=4 DotPA=          0.00000000
 IM=     2 IB=1 DotPA=          0.00000000
 IM=     2 IB=2 DotPA=          1.27449624
 IM=     2 IB=3 DotPA=          0.00000000
 IM=     2 IB=4 DotPA=          0.00000000
 IM=     3 IB=1 DotPA=          0.00000000
 IM=     3 IB=2 DotPA=          1.17701724
 IM=     3 IB=3 DotPA=          0.00000000
 IM=     3 IB=4 DotPA=          0.00000000
 IM=     4 IB=1 DotPA=          0.00000000
 IM=     4 IB=2 DotPA=          1.19330272
 IM=     4 IB=3 DotPA=          0.00000000
 IM=     4 IB=4 DotPA=          0.00000000
 IM=     5 IB=1 DotPA=          0.00000000
 IM=     5 IB=2 DotPA=          1.17701724
 IM=     5 IB=3 DotPA=          0.00000000
 IM=     5 IB=4 DotPA=          0.00000000
 IM=     6 IB=1 DotPA=          0.00000000
 IM=     6 IB=2 DotPA=          1.19330272
 IM=     6 IB=3 DotPA=          0.00000000
 IM=     6 IB=4 DotPA=          0.00000000
 FoFMem:  NOp1=  1 NOp2=  4 NOpUse=  1 NSOp=  4 NMatL=     6 DoSAO=T
 IM=     1 IB=1 DotFA=          0.00000000
 IM=     1 IB=2 DotFA=          0.01049674
 IM=     1 IB=3 DotFA=          0.00000000
 IM=     1 IB=4 DotFA=          0.00000000
 IM=     2 IB=1 DotFA=          0.00000000
 IM=     2 IB=2 DotFA=          0.03421991
 IM=     2 IB=3 DotFA=          0.00000000
 IM=     2 IB=4 DotFA=          0.00000000
 IM=     3 IB=1 DotFA=          0.00000000
 IM=     3 IB=2 DotFA=          0.03516272
 IM=     3 IB=3 DotFA=          0.00000000
 IM=     3 IB=4 DotFA=          0.00000000
 IM=     4 IB=1 DotFA=          0.00000000
 IM=     4 IB=2 DotFA=          0.15109837
 IM=     4 IB=3 DotFA=          0.00000000
 IM=     4 IB=4 DotFA=          0.00000000
 IM=     5 IB=1 DotFA=          0.00000000
 IM=     5 IB=2 DotFA=          0.03516272
 IM=     5 IB=3 DotFA=          0.00000000
 IM=     5 IB=4 DotFA=          0.00000000
 IM=     6 IB=1 DotFA=          0.00000000
 IM=     6 IB=2 DotFA=          0.15109837
 IM=     6 IB=3 DotFA=          0.00000000
 IM=     6 IB=4 DotFA=          0.00000000
 FoFMem:  NOp1=  1 NOp2=  4 NOpUse=  1 NSOp=  4 NMatL=    12 DoSAO=T
 IM=     1 IB=1 DotPA=          3.14934444
 IM=     1 IB=2 DotPA=          0.00000000
 IM=     1 IB=3 DotPA=          0.00000000
 IM=     1 IB=4 DotPA=          0.00000000
 IM=     2 IB=1 DotPA=          2.60700997
 IM=     2 IB=2 DotPA=          0.00000000
 IM=     2 IB=3 DotPA=          0.00000000
 IM=     2 IB=4 DotPA=          0.00000000
 IM=     3 IB=1 DotPA=          0.61551246
 IM=     3 IB=2 DotPA=          0.00000000
 IM=     3 IB=3 DotPA=          0.00000000
 IM=     3 IB=4 DotPA=          0.00000000
 IM=     4 IB=1 DotPA=          1.08385829
 IM=     4 IB=2 DotPA=          0.00000000
 IM=     4 IB=3 DotPA=          0.00000000
 IM=     4 IB=4 DotPA=          0.00000000
 IM=     5 IB=1 DotPA=          1.83850803
 IM=     5 IB=2 DotPA=          0.00000000
 IM=     5 IB=3 DotPA=          0.00000000
 IM=     5 IB=4 DotPA=          0.00000000
 IM=     6 IB=1 DotPA=          6.09101687
 IM=     6 IB=2 DotPA=          0.00000000
 IM=     6 IB=3 DotPA=          0.00000000
 IM=     6 IB=4 DotPA=          0.00000000
 IM=     7 IB=1 DotPA=          1.93677872
 IM=     7 IB=2 DotPA=          0.00000000
 IM=     7 IB=3 DotPA=          0.00000000
 IM=     7 IB=4 DotPA=          0.00000000
 IM=     8 IB=1 DotPA=          7.88024347
 IM=     8 IB=2 DotPA=          0.00000000
 IM=     8 IB=3 DotPA=          0.00000000
 IM=     8 IB=4 DotPA=          0.00000000
 IM=     9 IB=1 DotPA=          3.83327345
 IM=     9 IB=2 DotPA=          0.00000000
 IM=     9 IB=3 DotPA=          0.00000000
 IM=     9 IB=4 DotPA=          0.00000000
 IM=    10 IB=1 DotPA=          3.83591759
 IM=    10 IB=2 DotPA=          0.00000000
 IM=    10 IB=3 DotPA=          0.00000000
 IM=    10 IB=4 DotPA=          0.00000000
 IM=    11 IB=1 DotPA=          3.83327345
 IM=    11 IB=2 DotPA=          0.00000000
 IM=    11 IB=3 DotPA=          0.00000000
 IM=    11 IB=4 DotPA=          0.00000000
 IM=    12 IB=1 DotPA=          3.83591759
 IM=    12 IB=2 DotPA=          0.00000000
 IM=    12 IB=3 DotPA=          0.00000000
 IM=    12 IB=4 DotPA=          0.00000000
 FoFMem:  NOp1=  1 NOp2=  4 NOpUse=  1 NSOp=  4 NMatL=    12 DoSAO=T
 IM=     1 IB=1 DotFA=          0.28671350
 IM=     1 IB=2 DotFA=          0.00000000
 IM=     1 IB=3 DotFA=          0.00000000
 IM=     1 IB=4 DotFA=          0.00000000
 IM=     2 IB=1 DotFA=          0.19424519
 IM=     2 IB=2 DotFA=          0.00000000
 IM=     2 IB=3 DotFA=          0.00000000
 IM=     2 IB=4 DotFA=          0.00000000
 IM=     3 IB=1 DotFA=          0.01754856
 IM=     3 IB=2 DotFA=          0.00000000
 IM=     3 IB=3 DotFA=          0.00000000
 IM=     3 IB=4 DotFA=          0.00000000
 IM=     4 IB=1 DotFA=          0.05774226
 IM=     4 IB=2 DotFA=          0.00000000
 IM=     4 IB=3 DotFA=          0.00000000
 IM=     4 IB=4 DotFA=          0.00000000
 IM=     5 IB=1 DotFA=          0.09430979
 IM=     5 IB=2 DotFA=          0.00000000
 IM=     5 IB=3 DotFA=          0.00000000
 IM=     5 IB=4 DotFA=          0.00000000
 IM=     6 IB=1 DotFA=          0.25873021
 IM=     6 IB=2 DotFA=          0.00000000
 IM=     6 IB=3 DotFA=          0.00000000
 IM=     6 IB=4 DotFA=          0.00000000
 IM=     7 IB=1 DotFA=          0.17328289
 IM=     7 IB=2 DotFA=          0.00000000
 IM=     7 IB=3 DotFA=          0.00000000
 IM=     7 IB=4 DotFA=          0.00000000
 IM=     8 IB=1 DotFA=          0.49222006
 IM=     8 IB=2 DotFA=          0.00000000
 IM=     8 IB=3 DotFA=          0.00000000
 IM=     8 IB=4 DotFA=          0.00000000
 IM=     9 IB=1 DotFA=          0.11333229
 IM=     9 IB=2 DotFA=          0.00000000
 IM=     9 IB=3 DotFA=          0.00000000
 IM=     9 IB=4 DotFA=          0.00000000
 IM=    10 IB=1 DotFA=          0.43297538
 IM=    10 IB=2 DotFA=          0.00000000
 IM=    10 IB=3 DotFA=          0.00000000
 IM=    10 IB=4 DotFA=          0.00000000
 IM=    11 IB=1 DotFA=          0.11333229
 IM=    11 IB=2 DotFA=          0.00000000
 IM=    11 IB=3 DotFA=          0.00000000
 IM=    11 IB=4 DotFA=          0.00000000
 IM=    12 IB=1 DotFA=          0.43297538
 IM=    12 IB=2 DotFA=          0.00000000
 IM=    12 IB=3 DotFA=          0.00000000
 IM=    12 IB=4 DotFA=          0.00000000
 Aft DD1 bucket IAS1 number    25 has length         1809 dot= 0.48648351D-02
 Aft DD1 bucket IAS2 number    26 has length          824 dot= 0.44125259D-02
 Aft DD1 bucket IAD1 number    22 has length       180988 dot= 0.36449323D-01
 Aft DD1 bucket IAD2 number    23 has length       378330 dot= 0.96608757D-01
 Aft DD1 bucket IAD3 number    24 has length        31715 dot= 0.18294825D-01
 Aft DD1 bucket IWS1 number 12996 has length         1809 dot= 0.26673297D-01
 Aft DD1 bucket IWS2 number 12995 has length          824 dot= 0.25405984D-01
 Aft DD1 bucket IWD1 number 12994 has length       180988 dot= 0.20739854D-01
 Aft DD1 bucket IWD2 number 12993 has length       378330 dot= 0.89544467D-01
 Aft DD1 bucket IWD3 number 12992 has length        31715 dot= 0.92313057D-02
 Aft DD1 bucket IWAI1 number 19999 has length        66744 dot= 0.11653783D-01
 Aft DD1 bucket IWAI2 number 19998 has length        28944 dot= 0.92793993D-02
 Aft DD1 bucket IWAI3 number 19997 has length        65124 dot= 0.40628996D-02
[...]
 Aft DS4 bucket IWAI1 number     0 is not present.
 Aft DS4 bucket IWAI2 number     0 is not present.
 Aft DS4 bucket IWAI3 number     0 is not present.
 Aft DS4 bucket IWAI4 number     0 is not present.
 Bef SD5a bucket IAS1 number    25 has length         1809 dot= 0.21053666D+00
 Bef SD5a bucket IAS2 number    26 has length          824 dot= 0.79034281D-01
 Bef SD5a bucket IAD1 number 12999 has length       180988 dot= 0.35170546D-01
 Bef SD5a bucket IAD2 number 12998 has length       378330 dot= 0.13934021D+00
 Bef SD5a bucket IAD3 number 12997 has length        31715 dot= 0.11042211D-01
 Bef SD5a bucket IWS1 number    30 has length         1809 dot= 0.40635627D-01
 Bef SD5a bucket IWS2 number    31 has length          824 dot= 0.60719897D-01
 Bef SD5a bucket IWD1 number    27 has length       180988 dot= 0.47478556D-01
 Bef SD5a bucket IWD2 number    28 has length       378330 dot= 0.12693525D+00
 Bef SD5a bucket IWD3 number    29 has length        31715 dot= 0.59787417D-02
 Bef SD5a bucket IWAI1 number     0 is not present.
 Bef SD5a bucket IWAI2 number     0 is not present.
 Bef SD5a bucket IWAI3 number     0 is not present.
 Bef SD5a bucket IWAI4 number     0 is not present.
 Bef SD5b bucket IAS1 number     0 is not present.
 Bef SD5b bucket IAS2 number     0 is not present.
 Bef SD5b bucket IAD1 number     0 is not present.
 Bef SD5b bucket IAD2 number     0 is not present.
 Bef SD5b bucket IAD3 number     0 is not present.
 Bef SD5b bucket IWS1 number    30 has length         1809 dot= 0.40635627D-01
 Bef SD5b bucket IWS2 number    31 has length          824 dot= 0.60719897D-01
 Bef SD5b bucket IWD1 number    27 has length       180988 dot= 0.47478556D-01
 Bef SD5b bucket IWD2 number    28 has length       378330 dot= 0.12693525D+00
 Bef SD5b bucket IWD3 number    29 has length        31715 dot= 0.59787417D-02
 Bef SD5b bucket IWAI1 number     0 is not present.
 Bef SD5b bucket IWAI2 number     0 is not present.
 Bef SD5b bucket IWAI3 number     0 is not present.
 Bef SD5b bucket IWAI4 number     0 is not present.
 TestDE:  II= 19 I=1 DE=    0.576804118044D-02
 TestDE:  II= 19 I=2 DE=    0.385214095064D-01
 TestDE:  II= 19 I=3 DE=    0.143640998219D-02
 Aft SD5 bucket IAS1 number    25 has length         1809 dot= 0.21053666D+00
 Aft SD5 bucket IAS2 number    26 has length          824 dot= 0.79034281D-01
 Aft SD5 bucket IAD1 number    22 has length       180988 dot= 0.37777445D-01
 Aft SD5 bucket IAD2 number    23 has length       378330 dot= 0.12067734D+00
 Aft SD5 bucket IAD3 number    24 has length        31715 dot= 0.10199282D-01
 Aft SD5 bucket IWS1 number    30 has length         1809 dot= 0.51693695D-01
 Aft SD5 bucket IWS2 number    31 has length          824 dot= 0.44624446D-01
 Aft SD5 bucket IWD1 number    27 has length       180988 dot= 0.48814431D-01
 Aft SD5 bucket IWD2 number    28 has length       378330 dot= 0.13778706D+00
 Aft SD5 bucket IWD3 number    29 has length        31715 dot= 0.10265593D-01
 Aft SD5 bucket IWAI1 number     0 is not present.
 Aft SD5 bucket IWAI2 number     0 is not present.
 Aft SD5 bucket IWAI3 number     0 is not present.
 Aft SD5 bucket IWAI4 number     0 is not present.
 Contribution from DD1=    0.45725861D-01
 Bef DD2 bucket IAS1 number    25 has length         1809 dot= 0.21053666D+00
 Bef DD2 bucket IAS2 number    26 has length          824 dot= 0.79034281D-01
 Bef DD2 bucket IAD1 number    22 has length       180988 dot= 0.37777445D-01
 Bef DD2 bucket IAD2 number    23 has length       378330 dot= 0.12067734D+00
 Bef DD2 bucket IAD3 number    24 has length        31715 dot= 0.10199282D-01
 Bef DD2 bucket IWS1 number    30 has length         1809 dot= 0.51693695D-01
 Bef DD2 bucket IWS2 number    31 has length          824 dot= 0.44624446D-01
 Bef DD2 bucket IWD1 number    27 has length       180988 dot= 0.48814431D-01
 Bef DD2 bucket IWD2 number    28 has length       378330 dot= 0.13778706D+00
 Bef DD2 bucket IWD3 number    29 has length        31715 dot= 0.10265593D-01
 Bef DD2 bucket IWAI1 number     0 is not present.
 Bef DD2 bucket IWAI2 number     0 is not present.
 Bef DD2 bucket IWAI3 number     0 is not present.
 Bef DD2 bucket IWAI4 number     0 is not present.
 ExpSMa:  Full in-core algorithm.
 ExpSMa:  Full in-core algorithm.
 ExpSMa:  Full in-core algorithm.
 ExpSMa:  Full in-core algorithm.
 ExpSMa:  Full in-core algorithm.
 ExpSMa:  Full in-core algorithm.
 ExpSMa:  Full in-core algorithm.
 ExpSMa:  Full in-core algorithm.
 TestDE:  II=419 I=1 DE=    0.253940797950D-01
 TestDE:  II=419 I=2 DE=    0.104964923037D+00
 TestDE:  II=419 I=3 DE=    0.654141648423D-02
 Aft DD2 bucket IAS1 number    25 has length         1809 dot= 0.21053666D+00
 Aft DD2 bucket IAS2 number    26 has length          824 dot= 0.79034281D-01
 Aft DD2 bucket IAD1 number    22 has length       180988 dot= 0.37777445D-01
 Aft DD2 bucket IAD2 number    23 has length       378330 dot= 0.12067734D+00
 Aft DD2 bucket IAD3 number    24 has length        31715 dot= 0.10199282D-01
 Aft DD2 bucket IWS1 number    30 has length         1809 dot= 0.51693695D-01
 Aft DD2 bucket IWS2 number    31 has length          824 dot= 0.44624446D-01
 Aft DD2 bucket IWD1 number    27 has length       180988 dot= 0.73710219D-01
 Aft DD2 bucket IWD2 number    28 has length       378330 dot= 0.24054351D+00
 Aft DD2 bucket IWD3 number    29 has length        31715 dot= 0.15791282D-01
 Aft DD2 bucket IWAI1 number     0 is not present.
 Aft DD2 bucket IWAI2 number     0 is not present.
 Aft DD2 bucket IWAI3 number     0 is not present.
 Aft DD2 bucket IWAI4 number     0 is not present.
 Contribution from DD2=    0.91174559D-01
 Contribution from DD3=    0.00000000D+00
 Singles added:  Sum=   -0.29388276D-02
 End CIDS3 bucket IAS1 number    25 has length         1809 dot= 0.21053666D+00
 End CIDS3 bucket IAS2 number    26 has length          824 dot= 0.79034281D-01
 End CIDS3 bucket IAD1 number    22 has length       180988 dot= 0.37777445D-01
 End CIDS3 bucket IAD2 number    23 has length       378330 dot= 0.12067734D+00
 End CIDS3 bucket IAD3 number    24 has length        31715 dot= 0.10199282D-01
 End CIDS3 bucket IWS1 number    30 has length         1809 dot= 0.51693695D-01
 End CIDS3 bucket IWS2 number    31 has length          824 dot= 0.44624446D-01
 End CIDS3 bucket IWD1 number    27 has length       180988 dot= 0.73710219D-01
 End CIDS3 bucket IWD2 number    28 has length       378330 dot= 0.24054351D+00
 End CIDS3 bucket IWD3 number    29 has length        31715 dot= 0.15791282D-01
 End CIDS3 bucket IWAI1 number     0 is not present.
 End CIDS3 bucket IWAI2 number     0 is not present.
 End CIDS3 bucket IWAI3 number     0 is not present.
 End CIDS3 bucket IWAI4 number     0 is not present.
 Entering DoROCS
 TestDE:  II= 99 I=2 DE=    0.104964923037D+00
 TestDE:  II= 99 I=1 DE=    0.253940797950D-01
 TestDE:  II= 99 I=3 DE=    0.654141648423D-02
 TestDE:  II= 99 I=1 DE=    0.275731425943D-01
 TestDE:  II= 11 I=2 DE=    0.104964923037D+00
 TestDE:  II= 99 I=2 DE=    0.109188109777D+00
 TestDE:  II= 98 I=2 DE=    0.109198262378D+00
 TestDE:  II= 98 I=3 DE=    0.647431261381D-02
 TestDE:  II= 89 I=1 DE=    0.327753160395D-01
 TestDE:  II= 89 I=2 DE=    0.120650249650D+00
 TestDE:  II= 88 I=3 DE=    0.960968569921D-02
 TestDE:  II= 88 I=2 DE=    0.139340998339D+00
 TestDE:  II=  5 I=1 DE=   -0.388543935829D-01
 TestDE:  II=  7 I=2 DE=    0.103673288369D+00
 TestDE:  II=  8 I=2 DE=   -0.147068582837D+00
 TestDE:  II=  9 I=3 DE=   -0.497165264716D-02
 TestDE:  II= 50 I=1 DE=   -0.607907754341D-02
 TestDE:  II= 70 I=2 DE=   -0.433952944682D-01
 TestDE:  II= 90 I=3 DE=    0.463803305205D-02
 UMP4Q scratch file information:
   i      file        len
 ---     ------    ------
   1      19999    868050
   2      19998    868050
   3      19997    868050
   4      19996    868050
   5      19995    868050
   6      19994     42436
 total scratch length=     4382686
 TestDE:  II= 71 I=2 DE=    0.277467489858D-02
 TestDE:  II= 70 I=2 DE=   -0.429003615871D-03
 TestDE:  II= 72 I=2 DE=    0.386112240186D-03
 TestDE:  II= 75 I=2 DE=   -0.436792589074D-01
 TestDE:  II= 75 I=1 DE=   -0.298756127282D-02
 TestDE:  II= 75 I=3 DE=    0.506465835610D-02
 GetDE: DE=      0.00000000D+00
 TestDE:  II= 65 I=1 DE=    0.377774330660D-01
 TestDE:  II= 65 I=2 DE=    0.120677302979D+00
 TestDE:  II= 65 I=3 DE=    0.101992746126D-01
 Singles A-vector converged to   1.4285041D-08
 Singles A-vector converged to   4.5685767D-08
 The Euclidean norm of the A-vectors is   4.6111419D-08
 The Euclidean norm of the A-vectors is   4.7363363D-08
 The Euclidean norm of the A-vectors is   4.8979539D-08
 A(0)= 0.10000E+01      ANORM= 0.12076E+01      W(0)=-0.45377597E+00
 DE(Corr)= -0.47063820     E(CORR)=     -1225.1175931     Delta= 5.71D-08
 NORM(A)=   0.12075702D+01
 Wavefunction amplitudes converged. E(Corr)=     -1225.1175931    
 Dominant configurations:
 ***********************
 Spin Case        I    J    A    B          Value
    AA           19        20           -0.370525D+00
    AA           19        23            0.144155D+00
    AA           19        32           -0.118701D+00
    BB           12        15            0.112964D+00
 Largest amplitude= 3.71D-01
    T4(aaa)= -0.38510006D-02
    T5(aaa)=  0.17609684D-02
    T4(aab)= -0.24338404D-01
    T5(aab)=  0.93154025D-02
    T4(abb)= -0.16648906D-01
    T5(abb)=  0.52606935D-02
    T4(bbb)= -0.78600711D-03
    T5(bbb)=  0.29402043D-03
 Time for triples=     1115.92 seconds.
 T4(CCSD)= -0.45624317D-01
 T5(CCSD)=  0.16631085D-01
 CCSD(T)= -0.12251465863D+04
 Discarding MO integrals.

 **********************************************************************

            Population analysis using the SCF density.

 **********************************************************************

 Orbital symmetries:
       Occupied  (SG) (SG) (SG) (PI) (PI) (SG) (SG) (SG) (PI) (PI)
                 (SG) (SG) (PI) (PI) (DLTA) (DLTA) (SG) (PI) (PI)
       Virtual   (SG) (PI) (PI) (SG) (SG) (DLTA) (DLTA) (PI) (PI)
                 (SG) (PI) (PI) (SG) (SG) (PI) (PI) (SG) (DLTA)
                 (DLTA) (PI) (PI) (SG) (PI) (PI) (SG) (SG) (DLTA)
                 (DLTA) (PHI) (PHI) (SG) (PI) (PI) (SG) (DLTA)
                 (DLTA) (PI) (PI) (PI) (PI) (DLTA) (DLTA) (SG)
                 (PI) (PI) (SG) (SG) (PI) (PI) (SG) (PHI) (PHI)
                 (DLTA) (DLTA) (PI) (PI) (PHI) (PHI) (?A) (?A)
                 (SG) (DLTA) (DLTA) (PI) (PI) (SG) (PHI) (PHI)
                 (SG) (PI) (PI) (DLTA) (DLTA) (DLTA) (DLTA) (PI)
                 (PI) (SG) (PI) (PI) (SG) (DLTA) (DLTA) (SG) (PI)
                 (PI) (SG) (SG) (PI) (PI) (?A) (?A) (PHI) (PHI)
                 (DLTA) (DLTA) (SG) (PI) (PI) (SG) (PHI) (PHI)
                 (PI) (PI) (DLTA) (DLTA) (PHI) (PHI) (?B) (?B)
                 (?A) (?A) (DLTA) (DLTA) (?A) (?A) (SG) (PHI) (PHI)
                 (PI) (PI) (SG) (DLTA) (DLTA) (DLTA) (DLTA) (PI)
                 (PI) (SG) (PHI) (PHI) (SG) (SG) (PI) (PI) (DLTA)
                 (DLTA) (PI) (PI) (PI) (PI) (SG) (SG) (DLTA) (DLTA)
                 (PI) (PI) (SG) (SG) (?A) (?A) (PHI) (PHI) (PI)
                 (PI) (DLTA) (DLTA) (PI) (PI) (SG) (SG) (PHI) (PHI)
                 (DLTA) (DLTA) (?B) (?B) (?A) (?A) (PHI) (PHI)
                 (SG) (PI) (PI) (PI) (PI) (DLTA) (DLTA) (SG) (DLTA)
                 (DLTA) (PI) (PI) (SG) (PHI) (PHI) (DLTA) (DLTA)
                 (PI) (PI) (?A) (?A) (PHI) (PHI) (DLTA) (DLTA)
                 (SG) (PI) (PI) (SG) (SG)
 The electronic state is 6-SG.
 Alpha  occ. eigenvalues -- -240.53408 -29.17564 -24.88066 -24.88066 -24.87337
 Alpha  occ. eigenvalues --  -20.42343  -4.00604  -2.71443  -2.71443  -2.70815
 Alpha  occ. eigenvalues --   -1.11242  -0.64557  -0.64557  -0.63423  -0.63423
 Alpha  occ. eigenvalues --   -0.58793  -0.34054  -0.34054  -0.33554
 Alpha virt. eigenvalues --   -0.04066   0.01425   0.01425   0.01785   0.03404
 Alpha virt. eigenvalues --    0.05851   0.05851   0.05975   0.05975   0.06729
 Alpha virt. eigenvalues --    0.07229   0.07229   0.11727   0.12972   0.18210
 Alpha virt. eigenvalues --    0.18210   0.18603   0.18603   0.18614   0.21819
 Alpha virt. eigenvalues --    0.21819   0.25068   0.25245   0.25245   0.33048
 Alpha virt. eigenvalues --    0.46162   0.47943   0.47943   0.47975   0.47975
 Alpha virt. eigenvalues --    0.48875   0.51011   0.51011   0.55349   0.56219
 Alpha virt. eigenvalues --    0.56219   0.57464   0.57464   0.68709   0.68709
 Alpha virt. eigenvalues --    0.71079   0.71079   0.71839   0.73527   0.73527
 Alpha virt. eigenvalues --    0.80365   1.11991   1.17216   1.17216   1.24463
 Alpha virt. eigenvalues --    1.40281   1.40281   1.40450   1.40450   1.46080
 Alpha virt. eigenvalues --    1.46080   1.47293   1.47293   1.49958   1.49958
 Alpha virt. eigenvalues --    1.54759   1.58240   1.58240   1.64233   1.64233
 Alpha virt. eigenvalues --    1.67632   1.72418   1.72418   1.73323   1.73323
 Alpha virt. eigenvalues --    1.73671   1.75791   1.75791   1.85720   1.85720
 Alpha virt. eigenvalues --    1.89982   1.89982   1.98445   2.10443   2.10443
 Alpha virt. eigenvalues --    2.11161   2.21747   2.21747   2.39070   2.79879
 Alpha virt. eigenvalues --    2.79879   2.83081   3.02568   3.27851   3.27851
 Alpha virt. eigenvalues --    3.77871   3.77871   3.78763   3.78763   3.89925
 Alpha virt. eigenvalues --    3.89925   3.92623   3.94017   3.94017   4.21408
 Alpha virt. eigenvalues --    4.26215   4.26215   4.30774   4.30774   4.31180
 Alpha virt. eigenvalues --    4.31180   4.32724   4.32724   4.39852   4.39852
 Alpha virt. eigenvalues --    4.40054   4.40054   4.43932   4.43932   4.47109
 Alpha virt. eigenvalues --    4.47109   4.47390   4.47453   4.47453   4.49467
 Alpha virt. eigenvalues --    4.49467   4.53215   4.69637   4.69637   4.73636
 Alpha virt. eigenvalues --    4.73636   4.75556   4.75556   4.82750   4.90370
 Alpha virt. eigenvalues --    4.90370   5.16327   5.66702   5.69718   5.69718
 Alpha virt. eigenvalues --    5.69754   5.69754   5.80475   5.80475   6.12802
 Alpha virt. eigenvalues --    6.12802   6.30464   6.42959   6.69039   6.69039
 Alpha virt. eigenvalues --    7.93818   7.93818   8.75847   9.57115  10.81330
 Alpha virt. eigenvalues --   10.81330  10.91166  10.91166  11.06230  11.06230
 Alpha virt. eigenvalues --   11.11691  11.11691  11.15678  11.15678  11.16071
 Alpha virt. eigenvalues --   11.82609  12.06820  12.06820  12.16796  12.16796
 Alpha virt. eigenvalues --   12.29053  12.29053  12.30644  12.30644  12.41342
 Alpha virt. eigenvalues --   12.41342  12.53781  12.56433  12.56433  12.59737
 Alpha virt. eigenvalues --   12.59737  12.61433  12.61433  12.87348  12.96395
 Alpha virt. eigenvalues --   12.96395  13.43320  13.43320  13.52675  13.52675
 Alpha virt. eigenvalues --   13.54346  13.61222  13.61222  13.87809  13.87809
 Alpha virt. eigenvalues --   13.99057  13.99057  14.00671  14.00671  14.13781
 Alpha virt. eigenvalues --   14.13781  14.49597  14.61614  14.61614  15.03982
 Alpha virt. eigenvalues --   42.56424
          Condensed to atoms (all electrons):
              1          2
     1  Mn  23.821481   0.226696
     2  O    0.226696   8.725126
          Atomic-Atomic Spin Densities.
              1          2
     1  Mn   4.950427  -0.048318
     2  O   -0.048318   0.146208
 Mulliken charges and spin densities:
              1          2
     1  Mn   0.951823   4.902110
     2  O   -0.951823   0.097890
 Sum of Mulliken charges =   0.00000 spin densities =   5.000000
 Mulliken charges and spin densities with hydrogens summed into heavy atoms:
              1          2
     1  Mn   0.951823   4.902110
     2  O   -0.951823   0.097890
 Sum of Mulliken charges with hydrogens summed into heavy atoms =   0.00000 spin densities =   5.000000
 Electronic spatial extent (au):  <R**2>=            104.8799
 Charge=              0.0000 electrons
 Dipole moment (field-independent basis, Debye):
    X=              0.0000    Y=              0.0000    Z=              8.8778  Tot=              8.8778
 Quadrupole moment (field-independent basis, Debye-Ang):
   XX=            -19.1068   YY=            -19.1068   ZZ=            -23.7925
   XY=              0.0000   XZ=              0.0000   YZ=              0.0000
 Traceless Quadrupole moment (field-independent basis, Debye-Ang):
   XX=              1.5619   YY=              1.5619   ZZ=             -3.1238
   XY=              0.0000   XZ=              0.0000   YZ=              0.0000
 Octapole moment (field-independent basis, Debye-Ang**2):
  XXX=              0.0000  YYY=              0.0000  ZZZ=             24.2089  XYY=              0.0000
  XXY=              0.0000  XXZ=              5.8036  XZZ=              0.0000  YZZ=              0.0000
  YYZ=              5.8036  XYZ=              0.0000
 Hexadecapole moment (field-independent basis, Debye-Ang**3):
 XXXX=            -22.4561 YYYY=            -22.4561 ZZZZ=           -102.0671 XXXY=              0.0000
 XXXZ=              0.0000 YYYX=              0.0000 YYYZ=              0.0000 ZZZX=              0.0000
 ZZZY=              0.0000 XXYY=             -7.4854 XXZZ=            -20.0875 YYZZ=            -20.0875
 XXYZ=              0.0000 YYXZ=              0.0000 ZZXY=              0.0000
 N-N= 6.422053502306D+01 E-N=-4.489183559670D+03  KE= 1.821842022408D+03
                          Isotropic Fermi Contact Couplings
        Atom                 a.u.       MegaHertz       Gauss      10(-4) cm-1
     1  Mn(55)             1.30647     288.82256     103.05907      96.34084
     2  O(17)              0.00750      -0.90950      -0.32453      -0.30338
 --------------------------------------------------------
       Center         ----  Spin Dipole Couplings  ----
                      3XX-RR        3YY-RR        3ZZ-RR
 --------------------------------------------------------
     1   Atom        0.349094      0.349094     -0.698188
     2   Atom       -0.076253     -0.076253      0.152505
 --------------------------------------------------------
                        XY            XZ            YZ
 --------------------------------------------------------
     1   Atom        0.000000      0.000000      0.000000
     2   Atom        0.000000      0.000000      0.000000
 --------------------------------------------------------


 ---------------------------------------------------------------------------------
              Anisotropic Spin Dipole Couplings in Principal Axis System
 ---------------------------------------------------------------------------------

       Atom             a.u.   MegaHertz   Gauss  10(-4) cm-1        Axes

              Baa    -0.6982   -92.120   -32.871   -30.728  0.0000  0.0000  1.0000
     1 Mn(55) Bbb     0.3491    46.060    16.435    15.364  0.0000  1.0000  0.0000
              Bcc     0.3491    46.060    16.435    15.364  1.0000  0.0000  0.0000
 
              Baa    -0.0763     5.518     1.969     1.840  0.0000  1.0000  0.0000
     2 O(17)  Bbb    -0.0763     5.518     1.969     1.840  1.0000  0.0000  0.0000
              Bcc     0.1525   -11.035    -3.938    -3.681  0.0000  0.0000  1.0000
 

 ---------------------------------------------------------------------------------


 Test job not archived.
 1\1\GINC-C32\SP\ROCCSD(T)-FC\Aug-CC-pVQZ\Mn1O1(6)\GPETERSSON\25-Nov-20
 13\0\\# ROCCSD(T) aug-cc-pVQZ GFinput Int=NoBasisTransform Int(Grid=Ul
 trafine) IOp(3/32=2,5/6=10,8/11=1,9/33=1) Maxdisk=128GB SCF=Symm Guess
 =Read\\MnO 6Sg+\\0,6\Mn\O,1,1.648\\Version=EM64L-GDVRevH.12\State=6-SG
 \HF=-1224.6469549\MP2=-1225.1198983\MP3=-1225.085109\PUHF=-1224.646954
 9\PMP2-0=-1225.1198983\MP4SDQ=-1225.1214338\CCSD=-1225.1175931\CCSD(T)
 =-1225.1465863\RMSD=3.777e-11\PG=C*V [C*(O1Mn1)]\\@


 WOMEN HOLD UP HALF THE SKY. -- MAO TSE TUNG
 Job cpu time:  0 days  7 hours 45 minutes 58.7 seconds.
 File lengths (MBytes):  RWF=   2144 Int=      0 D2E=      0 Chk=      5 Scr=      1
 Normal termination of Gaussian DV at Mon Nov 25 20:38:19 2013.
