 Entering Gaussian System, Link 0=g09
 AtFile(1): 7ZaPa-NR.gbs
 Initial command:
 /share/apps/gaussian/g09root/g09/l1.exe /localscratch/69883/Gau-28476.inp -scrdir=/localscratch/69883/
 Entering Link 1 = /share/apps/gaussian/g09root/g09/l1.exe PID=     28477.
  
 Copyright (c) 1988,1990,1992,1993,1995,1998,2003,2009, Gaussian, Inc.
                  All Rights Reserved.
  
 This is part of the Gaussian(R) 09 program.  It is based on
 the Gaussian(R) 03 system (copyright 2003, Gaussian, Inc.),
 the Gaussian(R) 98 system (copyright 1998, Gaussian, Inc.),
 the Gaussian(R) 94 system (copyright 1995, Gaussian, Inc.),
 the Gaussian 92(TM) system (copyright 1992, Gaussian, Inc.),
 the Gaussian 90(TM) system (copyright 1990, Gaussian, Inc.),
 the Gaussian 88(TM) system (copyright 1988, Gaussian, Inc.),
 the Gaussian 86(TM) system (copyright 1986, Carnegie Mellon
 University), and the Gaussian 82(TM) system (copyright 1983,
 Carnegie Mellon University). Gaussian is a federally registered
 trademark of Gaussian, Inc.
  
 This software contains proprietary and confidential information,
 including trade secrets, belonging to Gaussian, Inc.
  
 This software is provided under written license and may be
 used, copied, transmitted, or stored only in accord with that
 written license.
  
 The following legend is applicable only to US Government
 contracts under FAR:
  
                    RESTRICTED RIGHTS LEGEND
  
 Use, reproduction and disclosure by the US Government is
 subject to restrictions as set forth in subparagraphs (a)
 and (c) of the Commercial Computer Software - Restricted
 Rights clause in FAR 52.227-19.
  
 Gaussian, Inc.
 340 Quinnipiac St., Bldg. 40, Wallingford CT 06492
  
  
 ---------------------------------------------------------------
 Warning -- This program may not be used in any manner that
 competes with the business of Gaussian, Inc. or will provide
 assistance to any competitor of Gaussian, Inc.  The licensee
 of this program is prohibited from giving any competitor of
 Gaussian, Inc. access to this program.  By using this program,
 the user acknowledges that Gaussian, Inc. is engaged in the
 business of creating and licensing software in the field of
 computational chemistry and represents and warrants to the
 licensee that it is not a competitor of Gaussian, Inc. and that
 it will not use this program in any manner prohibited above.
 ---------------------------------------------------------------
  

 Cite this work as:
 Gaussian 09, Revision A.02,
 M. J. Frisch, G. W. Trucks, H. B. Schlegel, G. E. Scuseria, 
 M. A. Robb, J. R. Cheeseman, G. Scalmani, V. Barone, B. Mennucci, 
 G. A. Petersson, H. Nakatsuji, M. Caricato, X. Li, H. P. Hratchian, 
 A. F. Izmaylov, J. Bloino, G. Zheng, J. L. Sonnenberg, M. Hada, 
 M. Ehara, K. Toyota, R. Fukuda, J. Hasegawa, M. Ishida, T. Nakajima, 
 Y. Honda, O. Kitao, H. Nakai, T. Vreven, J. A. Montgomery, Jr., 
 J. E. Peralta, F. Ogliaro, M. Bearpark, J. J. Heyd, E. Brothers, 
 K. N. Kudin, V. N. Staroverov, R. Kobayashi, J. Normand, 
 K. Raghavachari, A. Rendell, J. C. Burant, S. S. Iyengar, J. Tomasi, 
 M. Cossi, N. Rega, J. M. Millam, M. Klene, J. E. Knox, J. B. Cross, 
 V. Bakken, C. Adamo, J. Jaramillo, R. Gomperts, R. E. Stratmann, 
 O. Yazyev, A. J. Austin, R. Cammi, C. Pomelli, J. W. Ochterski, 
 R. L. Martin, K. Morokuma, V. G. Zakrzewski, G. A. Voth, 
 P. Salvador, J. J. Dannenberg, S. Dapprich, A. D. Daniels, 
 O. Farkas, J. B. Foresman, J. V. Ortiz, J. Cioslowski, 
 and D. J. Fox, Gaussian, Inc., Wallingford CT, 2009.
 
 ******************************************
 Gaussian 09:  EM64L-G09RevA.02 11-Jun-2009
                 1-Dec-2013 
 ******************************************
 % Mem=64GB
 % Nproc=16
 Will use up to   16 processors via shared memory.
 % Chk=MnO_6Sg+.chk
 ----------------------------------------------------------------------
 # ROMP2 Gen GFinput Int=NoBasisTransform Int(Grid=Ultrafine) IOp(3/32=
 2,5/6=10,8/11=1,9/33=1) Maxdisk=128GB CBSextrapolate(Nmin=25,MinPop) S
 CF=Symm Guess=Read
 ----------------------------------------------------------------------
 1/38=1/1;
 2/12=2,17=6,18=5,40=1/2;
 3/5=7,11=2,16=1,24=10,25=1,30=1,32=2,60=-1,75=-5,116=101/1,2,3;
 4/5=1,9=4/1;
 5/5=2,6=10,15=2,38=6/2;
 8/5=-1,10=1,11=1/1;
 9/16=-3,33=1,75=2,81=25,83=4/6,4;
 6/7=2,8=2,9=2,10=2/1;
 99/5=1,9=1/99;
 --------
 MnO 6Sg+
 --------
 Symbolic Z-matrix:
 Charge =  0 Multiplicity = 6
 Mn
 O                    1     1.648 
 
                          Input orientation:                          
 ---------------------------------------------------------------------
 Center     Atomic      Atomic             Coordinates (Angstroms)
 Number     Number       Type             X           Y           Z
 ---------------------------------------------------------------------
      1         25           0        0.000000    0.000000    0.000000
      2          8           0        0.000000    0.000000    1.648000
 ---------------------------------------------------------------------
 Stoichiometry    MnO(6)
 Framework group  C*V[C*(OMn)]
 Deg. of freedom     1
 Full point group                 C*V     NOp   4
 Largest Abelian subgroup         C2V     NOp   4
 Largest concise Abelian subgroup C1      NOp   1
                         Standard orientation:                         
 ---------------------------------------------------------------------
 Center     Atomic      Atomic             Coordinates (Angstroms)
 Number     Number       Type             X           Y           Z
 ---------------------------------------------------------------------
      1         25           0        0.000000    0.000000    0.399515
      2          8           0        0.000000    0.000000   -1.248485
 ---------------------------------------------------------------------
 Rotational constants (GHZ):      0.0000000     15.0208923     15.0208923
 General basis read from cards:  (5D, 7F)
 AO basis set in the form of general basis input (Overlap normalization):
      1 0
 S  17 1.00       0.000000000000
      0.2589493270D+08  0.8345046128D-06
      0.3915590060D+07  0.6371710381D-05
      0.9055796150D+06  0.3272147157D-04
      0.2604384670D+06  0.1359125783D-03
      0.8599643530D+05  0.4879517470D-03
      0.3156560560D+05  0.1546128034D-02
      0.1265370630D+05  0.4409810302D-02
      0.5449984580D+04  0.1151136886D-01
      0.2487175490D+04  0.2774051072D-01
      0.1188494540D+04  0.6149760294D-01
      0.5886025610D+03  0.1232692391D+00
      0.2994870200D+03  0.2136282509D+00
      0.1553950050D+03  0.2936708136D+00
      0.8171102500D+02  0.2685713793D+00
      0.4323132600D+02  0.1250063753D+00
      0.2209756900D+02  0.1798110546D-01
      0.1177981200D+02  0.5318590157D-03
 S  14 1.00       0.000000000000
      0.1265370630D+05 -0.6202247539D-05
      0.5449984580D+04 -0.3735853271D-04
      0.2487175490D+04 -0.2120746887D-03
      0.1188494540D+04 -0.1024919842D-02
      0.5886025610D+03 -0.4194317792D-02
      0.2994870200D+03 -0.1499657785D-01
      0.1553950050D+03 -0.4254438216D-01
      0.8171102500D+02 -0.8168749794D-01
      0.4323132600D+02 -0.4381978663D-01
      0.2209756900D+02  0.1997379039D+00
      0.1177981200D+02  0.4781788922D+00
      0.6344478000D+01  0.3651921171D+00
      0.3379594000D+01  0.8599723555D-01
      0.1758933000D+01  0.5069478582D-02
 P  16 1.00       0.000000000000
      0.6215066830D+05  0.3658368025D-05
      0.1605785870D+05  0.3040125515D-04
      0.5095463040D+04  0.1942728360D-03
      0.1894670610D+04  0.9375256041D-03
      0.7943393290D+03  0.3667330265D-02
      0.3640172220D+03  0.1203952149D-01
      0.1779262930D+03  0.3395429900D-01
      0.9102101000D+02  0.8267138332D-01
      0.4804124400D+02  0.1672413778D+00
      0.2588433500D+02  0.2680427000D+00
      0.1412423700D+02  0.3166198643D+00
      0.7757358000D+01  0.2238827862D+00
      0.4265247000D+01  0.7362136419D-01
      0.2334783000D+01  0.9238527106D-02
      0.1263938000D+01  0.6522422156D-03
      0.6707880000D+00  0.7512240983D-04
 S  12 1.00       0.000000000000
      0.1553950050D+03  0.3207473173D-03
      0.8171102500D+02  0.1635075977D-02
      0.4323132600D+02  0.2270045328D-02
      0.2209756900D+02 -0.1175159291D-01
      0.1177981200D+02 -0.1070077816D+00
      0.6344478000D+01 -0.1906156711D+00
      0.3379594000D+01  0.7178881681D-01
      0.1758933000D+01  0.4993416407D+00
      0.8905110000D+00  0.4989305857D+00
      0.4394750000D+00  0.1284134265D+00
      0.2129450000D+00  0.1879287424D-02
      0.1024330000D+00  0.2085585178D-02
 P  15 1.00       0.000000000000
      0.1894670610D+04 -0.3752337511D-06
      0.7943393290D+03 -0.6741318899D-05
      0.3640172220D+03 -0.4604637999D-04
      0.1779262930D+03 -0.2958788339D-03
      0.9102101000D+02 -0.1363055780D-02
      0.4804124400D+02 -0.4803816519D-02
      0.2588433500D+02 -0.1144981877D-01
      0.1412423700D+02 -0.2075328029D-01
      0.7757358000D+01  0.9126067826D-02
      0.4265247000D+01  0.1470275665D+00
      0.2334783000D+01  0.3161714576D+00
      0.1263938000D+01  0.3643078859D+00
      0.6707880000D+00  0.2328497102D+00
      0.3449150000D+00  0.5803189254D-01
      0.1691460000D+00  0.4006137164D-02
 D  16 1.00       0.000000000000
      0.2037588350D+04  0.5318668661D-05
      0.6431313760D+03  0.5280175861D-04
      0.2499805510D+03  0.3394553281D-03
      0.1123964430D+03  0.1552351480D-02
      0.5571694100D+02  0.5566017632D-02
      0.2939108100D+02  0.1585923990D-01
      0.1609252400D+02  0.3752382651D-01
      0.8997171000D+01  0.7924094840D-01
      0.5086100000D+01  0.1424682790D+00
      0.2891615000D+01  0.2044505211D+00
      0.1648666000D+01  0.2392174661D+00
      0.9404310000D+00  0.2366743861D+00
      0.5345870000D+00  0.1965911391D+00
      0.3005770000D+00  0.1278922490D+00
      0.1649950000D+00  0.5132305391D-01
      0.8661500000D-01  0.6931609830D-02
 D   1 1.00       0.000000000000
      0.5896327149D-01  0.1000000000D+01
 D   1 1.00       0.000000000000
      0.1836400000D-01  0.1000000000D+01
 S  10 1.00       0.000000000000
      0.2209756900D+02 -0.3950878983D-05
      0.1177981200D+02  0.1295726278D-02
      0.6344478000D+01  0.4498875778D-02
      0.3379594000D+01 -0.4621039709D-02
      0.1758933000D+01 -0.3409251314D-01
      0.8905110000D+00 -0.1211369853D+00
      0.4394750000D+00 -0.1550246145D+00
      0.2129450000D+00  0.2572299487D+00
      0.1024330000D+00  0.6896735934D+00
      0.4958300000D-01  0.2538345197D+00
 S   1 1.00       0.000000000000
      0.4054418890D-01  0.1000000000D+01
 S   1 1.00       0.000000000000
      0.1524100000D-01  0.1000000000D+01
 S   1 1.00       0.000000000000
      0.5008000000D-02  0.1000000000D+01
 P  10 1.00       0.000000000000
      0.2588433500D+02  0.8575377771D-03
      0.1412423700D+02 -0.1176375226D-02
      0.7757358000D+01  0.3668448901D-02
      0.4265247000D+01 -0.1681091342D-01
      0.2334783000D+01 -0.8126246574D-03
      0.1263938000D+01 -0.5573713192D-01
      0.6707880000D+00  0.2239477374D-01
      0.3449150000D+00 -0.3802982727D-01
      0.1691460000D+00  0.4811362917D+00
      0.6019844190D-01  0.6231395465D+00
 P   1 1.00       0.000000000000
      0.8557927624D-01  0.1000000000D+01
 P   1 1.00       0.000000000000
      0.3564500000D-01  0.1000000000D+01
 S   1 1.00       0.000000000000
      0.5308124000D+01  0.1000000000D+01
 S   1 1.00       0.000000000000
      0.2719949000D+01  0.1000000000D+01
 S   1 1.00       0.000000000000
      0.1393736000D+01  0.1000000000D+01
 S   1 1.00       0.000000000000
      0.7141680000D+00  0.1000000000D+01
 S   1 1.00       0.000000000000
      0.3659480000D+00  0.1000000000D+01
 S   1 1.00       0.000000000000
      0.1875170000D+00  0.1000000000D+01
 P   1 1.00       0.000000000000
      0.2493935000D+01  0.1000000000D+01
 P   1 1.00       0.000000000000
      0.1421672000D+01  0.1000000000D+01
 P   1 1.00       0.000000000000
      0.8104270000D+00  0.1000000000D+01
 P   1 1.00       0.000000000000
      0.4619850000D+00  0.1000000000D+01
 P   1 1.00       0.000000000000
      0.2633560000D+00  0.1000000000D+01
 P   1 1.00       0.000000000000
      0.1501260000D+00  0.1000000000D+01
 D   1 1.00       0.000000000000
      0.6136618000D+01  0.1000000000D+01
 D   1 1.00       0.000000000000
      0.2887252000D+01  0.1000000000D+01
 D   1 1.00       0.000000000000
      0.1358439000D+01  0.1000000000D+01
 D   1 1.00       0.000000000000
      0.6391400000D+00  0.1000000000D+01
 D   1 1.00       0.000000000000
      0.3007120000D+00  0.1000000000D+01
 D   1 1.00       0.000000000000
      0.1414840000D+00  0.1000000000D+01
 F   1 1.00       0.000000000000
      0.1604415900D+02  0.1000000000D+01
 F   1 1.00       0.000000000000
      0.7173713000D+01  0.1000000000D+01
 F   1 1.00       0.000000000000
      0.3207532000D+01  0.1000000000D+01
 F   1 1.00       0.000000000000
      0.1434162000D+01  0.1000000000D+01
 F   1 1.00       0.000000000000
      0.6412470000D+00  0.1000000000D+01
 F   1 1.00       0.000000000000
      0.2867160000D+00  0.1000000000D+01
 F   1 1.00       0.000000000000
      0.1281970000D+00  0.1000000000D+01
 G   1 1.00       0.000000000000
      0.1121282800D+02  0.1000000000D+01
 G   1 1.00       0.000000000000
      0.5020983000D+01  0.1000000000D+01
 G   1 1.00       0.000000000000
      0.2248342000D+01  0.1000000000D+01
 G   1 1.00       0.000000000000
      0.1006783000D+01  0.1000000000D+01
 G   1 1.00       0.000000000000
      0.4508270000D+00  0.1000000000D+01
 G   1 1.00       0.000000000000
      0.2018750000D+00  0.1000000000D+01
 H   1 1.00       0.000000000000
      0.9011096000D+01  0.1000000000D+01
 H   1 1.00       0.000000000000
      0.3829841000D+01  0.1000000000D+01
 H   1 1.00       0.000000000000
      0.1627735000D+01  0.1000000000D+01
 H   1 1.00       0.000000000000
      0.6918100000D+00  0.1000000000D+01
 H   1 1.00       0.000000000000
      0.2940280000D+00  0.1000000000D+01
 I   1 1.00       0.000000000000
      0.7195010000D+01  0.1000000000D+01
 I   1 1.00       0.000000000000
      0.2853562000D+01  0.1000000000D+01
 I   1 1.00       0.000000000000
      0.1131731000D+01  0.1000000000D+01
 I   1 1.00       0.000000000000
      0.4488470000D+00  0.1000000000D+01
 J   1 1.00       0.000000000000
      0.5521743000D+01  0.1000000000D+01
 J   1 1.00       0.000000000000
      0.1967658000D+01  0.1000000000D+01
 J   1 1.00       0.000000000000
      0.7011690000D+00  0.1000000000D+01
 K   1 1.00       0.000000000000
      0.3854124916D+01  0.1000000000D+01
 ****
      2 0
 S  16 1.00       0.000000000000
      0.1411246410D+07  0.1627429822D-05
      0.2499102240D+06  0.1092621996D-04
      0.5603410580D+05  0.6238741867D-04
      0.1521153640D+05  0.2783303491D-03
      0.4812287750D+04  0.1040541872D-02
      0.1717755460D+04  0.3380392793D-02
      0.6733958240D+03  0.9828484765D-02
      0.2835101840D+03  0.2605310129D-01
      0.1258620070D+03  0.6280818057D-01
      0.5804472200D+02  0.1348202075D+00
      0.2747198500D+02  0.2435563460D+00
      0.1321062900D+02  0.3323287378D+00
      0.6399806000D+01  0.2607930483D+00
      0.3099614000D+01  0.7430834326D-01
      0.1489856000D+01  0.4189538074D-02
      0.7052010000D+00  0.8706455725D-03
 S  11 1.00       0.000000000000
      0.2835101840D+03 -0.1122588094D-03
      0.1258620070D+03 -0.5559335617D-03
      0.5804472200D+02 -0.2851687904D-02
      0.2747198500D+02 -0.1133494995D-01
      0.1321062900D+02 -0.3657977704D-01
      0.6399806000D+01 -0.7288994197D-01
      0.3099614000D+01 -0.1062032356D-01
      0.1489856000D+01  0.2196705572D+00
      0.7052010000D+00  0.4294832072D+00
      0.3258480000D+00  0.3775832849D+00
      0.1454600000D+00  0.9640261255D-01
 S   1 1.00       0.000000000000
      0.5814297870D-01  0.1000000000D+01
 P  13 1.00       0.000000000000
      0.2085279200D+04  0.1447911740D-04
      0.5101470830D+03  0.1283233588D-03
      0.1616811510D+03  0.7792790007D-03
      0.6114945200D+02  0.3400506049D-02
      0.2597660200D+02  0.1157685214D-01
      0.1187542600D+02  0.3269740339D-01
      0.5677133000D+01  0.8011404242D-01
      0.2786475000D+01  0.1605265057D+00
      0.1387844000D+01  0.2460495026D+00
      0.6952810000D+00  0.2898982926D+00
      0.3470020000D+00  0.2606799382D+00
      0.1700990000D+00  0.1479363112D+00
      0.8008000000D-01  0.2980261453D-01
 P   1 1.00       0.000000000000
      0.4261436033D-01  0.1000000000D+01
 S   1 1.00       0.000000000000
      0.4249866000D+01  0.1000000000D+01
 S   1 1.00       0.000000000000
      0.2167470000D+01  0.1000000000D+01
 S   1 1.00       0.000000000000
      0.1105429000D+01  0.1000000000D+01
 S   1 1.00       0.000000000000
      0.5637790000D+00  0.1000000000D+01
 S   1 1.00       0.000000000000
      0.2875320000D+00  0.1000000000D+01
 S   1 1.00       0.000000000000
      0.1466440000D+00  0.1000000000D+01
 P   1 1.00       0.000000000000
      0.5659724000D+01  0.1000000000D+01
 P   1 1.00       0.000000000000
      0.2575878000D+01  0.1000000000D+01
 P   1 1.00       0.000000000000
      0.1172344000D+01  0.1000000000D+01
 P   1 1.00       0.000000000000
      0.5335620000D+00  0.1000000000D+01
 P   1 1.00       0.000000000000
      0.2428370000D+00  0.1000000000D+01
 P   1 1.00       0.000000000000
      0.1105210000D+00  0.1000000000D+01
 D   1 1.00       0.000000000000
      0.9464211000D+01  0.1000000000D+01
 D   1 1.00       0.000000000000
      0.4752286000D+01  0.1000000000D+01
 D   1 1.00       0.000000000000
      0.2386276000D+01  0.1000000000D+01
 D   1 1.00       0.000000000000
      0.1198226000D+01  0.1000000000D+01
 D   1 1.00       0.000000000000
      0.6016680000D+00  0.1000000000D+01
 D   1 1.00       0.000000000000
      0.3021170000D+00  0.1000000000D+01
 D   1 1.00       0.000000000000
      0.1517020000D+00  0.1000000000D+01
 F   1 1.00       0.000000000000
      0.7001836000D+01  0.1000000000D+01
 F   1 1.00       0.000000000000
      0.3552509000D+01  0.1000000000D+01
 F   1 1.00       0.000000000000
      0.1802430000D+01  0.1000000000D+01
 F   1 1.00       0.000000000000
      0.9144960000D+00  0.1000000000D+01
 F   1 1.00       0.000000000000
      0.4639860000D+00  0.1000000000D+01
 F   1 1.00       0.000000000000
      0.2354110000D+00  0.1000000000D+01
 G   1 1.00       0.000000000000
      0.6472481000D+01  0.1000000000D+01
 G   1 1.00       0.000000000000
      0.3119071000D+01  0.1000000000D+01
 G   1 1.00       0.000000000000
      0.1503072000D+01  0.1000000000D+01
 G   1 1.00       0.000000000000
      0.7243260000D+00  0.1000000000D+01
 G   1 1.00       0.000000000000
      0.3490500000D+00  0.1000000000D+01
 H   1 1.00       0.000000000000
      0.5355083000D+01  0.1000000000D+01
 H   1 1.00       0.000000000000
      0.2414696000D+01  0.1000000000D+01
 H   1 1.00       0.000000000000
      0.1088827000D+01  0.1000000000D+01
 H   1 1.00       0.000000000000
      0.4909703000D+00  0.1000000000D+01
 I   1 1.00       0.000000000000
      0.4322113000D+01  0.1000000000D+01
 I   1 1.00       0.000000000000
      0.1716263000D+01  0.1000000000D+01
 I   1 1.00       0.000000000000
      0.6815089000D+00  0.1000000000D+01
 J   1 1.00       0.000000000000
      0.3060973723D+01  0.1000000000D+01
 ****

 There are   208 symmetry adapted basis functions of A1  symmetry.
 There are   106 symmetry adapted basis functions of A2  symmetry.
 There are   151 symmetry adapted basis functions of B1  symmetry.
 There are   151 symmetry adapted basis functions of B2  symmetry.
 Integral buffers will be    131072 words long.
 Raffenetti 2 integral format.
 Two-electron integral symmetry is turned on.
   616 basis functions,  1358 primitive gaussians,  1044 cartesian basis functions
    19 alpha electrons       14 beta electrons
       nuclear repulsion energy        64.2205350231 Hartrees.
 NAtoms=    2 NActive=    2 NUniq=    2 SFac= 7.50D-01 NAtFMM=   80 NAOKFM=F Big=F
 One-electron integrals computed using PRISM.
 NBasis=   616 RedAO= F  NBF=   208   106   151   151
 NBsUse=   616 1.00D-04 NBFU=   208   106   151   151
 Initial guess read from the checkpoint file:  MnO_6Sg+.chk
 B after Tr=     0.000000    0.000000    0.000000
         Rot=    1.000000    0.000000    0.000000    0.000000 Ang=   0.00 deg.
 Initial guess orbital symmetries:
       Occupied  (SG) (SG) (SG) (PI) (PI) (SG) (SG) (SG) (PI) (PI)
                 (SG) (SG) (PI) (PI) (DLTA) (DLTA) (SG) (PI) (PI)
       Virtual   (SG) (SG) (PI) (PI) (SG) (SG) (SG) (PI) (PI) (DLTA)
                 (DLTA) (PI) (PI) (SG) (PI) (PI) (SG) (SG) (DLTA)
                 (DLTA) (PHI) (PHI) (PI) (PI) (SG) (PI) (PI) (SG)
                 (SG) (DLTA) (DLTA) (PI) (PI) (PI) (PI) (SG) (SG)
                 (SG) (DLTA) (DLTA) (PI) (PI) (SG) (PHI) (PHI)
                 (DLTA) (DLTA) (PI) (PI) (SG) (SG) (SG) (SG) (PI)
                 (PI) (SG) (SG) (PI) (PI) (DLTA) (DLTA) (SG) (PI)
                 (PI) (DLTA) (DLTA) (SG) (PI) (PI) (DLTA) (DLTA)
                 (SG) (SG) (SG) (PI) (PI) (SG) (PI) (PI) (SG) (PI)
                 (PI) (SG) (SG) (SG) (SG) (SG) (SG) (SG) (PI) (PI)
                 (SG) (PI) (PI) (SG) (PI) (PI) (SG) (PI) (PI) (SG)
                 (PI) (PI) (SG) (PI) (PI) (SG) (SG) (PI) (PI) (DLTA)
                 (DLTA) (SG) (PI) (PI) (DLTA) (DLTA) (SG) (PI)
                 (PI) (DLTA) (DLTA) (SG) (PI) (PI) (DLTA) (DLTA)
                 (SG) (PI) (PI) (DLTA) (DLTA) (SG) (PI) (PI) (DLTA)
                 (DLTA) (SG) (PI) (PI) (DLTA) (DLTA) (PHI) (PHI)
                 (SG) (PI) (PI) (DLTA) (DLTA) (PHI) (PHI) (SG)
                 (PI) (PI) (DLTA) (DLTA) (PHI) (PHI) (SG) (PI)
                 (PI) (DLTA) (DLTA) (PHI) (PHI) (PI) (PI) (DLTA)
                 (DLTA) (PHI) (PHI) (SG) (PI) (PI) (DLTA) (DLTA)
                 (PHI) (PHI) (SG) (PI) (PI) (DLTA) (DLTA) (PHI)
                 (PHI) (SG) (PI) (PI) (DLTA) (DLTA) (PHI) (PHI)
                 (?A) (?A) (SG) (PI) (PI) (DLTA) (DLTA) (PHI) (PHI)
                 (?A) (?A) (SG) (PI) (PI) (DLTA) (DLTA) (PHI) (PHI)
                 (?A) (?A) (SG) (PI) (PI) (DLTA) (DLTA) (PHI) (PHI)
                 (?A) (?A) (SG) (PI) (PI) (DLTA) (DLTA) (PHI) (PHI)
                 (?A) (?A) (SG) (PI) (PI) (DLTA) (DLTA) (PHI) (PHI)
                 (?A) (?A) (SG) (PI) (PI) (DLTA) (DLTA) (PHI) (PHI)
                 (?A) (?A) (?B) (?B) (SG) (PI) (PI) (DLTA) (DLTA)
                 (PHI) (PHI) (?A) (?A) (?B) (?B) (SG) (PI) (PI)
                 (DLTA) (DLTA) (PHI) (PHI) (?A) (?A) (?B) (?B)
                 (SG) (PI) (PI) (DLTA) (DLTA) (PHI) (PHI) (?A)
                 (?A) (?B) (?B) (SG) (PI) (PI) (DLTA) (DLTA) (PHI)
                 (PHI) (?A) (?A) (?B) (?B) (SG) (PI) (PI) (DLTA)
                 (DLTA) (PHI) (PHI) (?A) (?A) (?B) (?B) (SG) (SG)
                 (SG) (PI) (PI) (DLTA) (DLTA) (PHI) (PHI) (?A)
                 (?A) (?B) (?B) (SG) (SG) (SG) (PI) (PI) (DLTA)
                 (DLTA) (PHI) (PHI) (?A) (?A) (?B) (?B) (SG) (SG)
                 (SG) (PI) (PI) (DLTA) (DLTA) (PHI) (PHI) (?A)
                 (?A) (?B) (?B) (SG) (SG) (SG) (PI) (PI) (DLTA)
                 (DLTA) (PHI) (PHI) (?A) (?A) (?B) (?B) (SG) (SG)
                 (?C) (?C) (SG) (PI) (PI) (DLTA) (DLTA) (PHI) (PHI)
                 (?A) (?A) (?B) (?B) (SG) (SG) (?C) (?C) (SG) (PI)
                 (PI) (DLTA) (DLTA) (PHI) (PHI) (?A) (?A) (?B)
                 (?B) (SG) (SG) (?C) (?C) (SG) (PI) (PI) (DLTA)
                 (DLTA) (PHI) (PHI) (?A) (?A) (?B) (?B) (SG) (SG)
                 (?C) (?C) (?D) (?D) (SG) (SG) (PI) (PI) (SG) (PI)
                 (PI) (SG) (SG) (SG) (SG) (PI) (PI) (SG) (PI) (PI)
                 (SG) (PI) (PI) (SG) (PI) (PI) (DLTA) (DLTA) (SG)
                 (PI) (PI) (DLTA) (DLTA) (SG) (PI) (PI) (DLTA)
                 (DLTA) (PI) (PI) (DLTA) (DLTA) (SG) (DLTA) (DLTA)
                 (DLTA) (DLTA) (DLTA) (DLTA) (SG) (PI) (PI) (DLTA)
                 (DLTA) (PHI) (PHI) (SG) (PI) (PI) (DLTA) (DLTA)
                 (PHI) (PHI) (SG) (PI) (PI) (DLTA) (DLTA) (PHI)
                 (PHI) (PI) (PI) (DLTA) (DLTA) (PHI) (PHI) (PI)
                 (PI) (DLTA) (DLTA) (PHI) (PHI) (PI) (PI) (PHI)
                 (PHI) (SG) (PI) (PI) (DLTA) (DLTA) (PHI) (PHI)
                 (?A) (?A) (SG) (PI) (PI) (DLTA) (DLTA) (PHI) (PHI)
                 (?A) (?A) (SG) (PI) (PI) (DLTA) (DLTA) (PHI) (PHI)
                 (?A) (?A) (DLTA) (DLTA) (PHI) (PHI) (?A) (?A)
                 (PHI) (PHI) (?A) (?A) (SG) (PI) (PI) (DLTA) (DLTA)
                 (PHI) (PHI) (?A) (?A) (?B) (?B) (SG) (PI) (PI)
                 (DLTA) (DLTA) (PHI) (PHI) (?A) (?A) (?B) (?B)
                 (PHI) (PHI) (?A) (?A) (?B) (?B) (?A) (?A) (?B)
                 (?B) (PI) (PI) (DLTA) (DLTA) (PHI) (PHI) (?A)
                 (?A) (?B) (?B) (SG) (SG) (DLTA) (DLTA) (PHI) (PHI)
                 (?A) (?A) (?B) (?B) (SG) (SG) (?A) (?A) (?B) (?B)
                 (SG) (SG) (PHI) (PHI) (?A) (?A) (?B) (?B) (SG)
                 (SG) (?C) (?C)
 Requested convergence on RMS density matrix=1.00D-10 within 128 cycles.
 Requested convergence on MAX density matrix=1.00D-08.
 Requested convergence on             energy=1.00D-08.
 No special actions if energy rises.
 EnCoef did     3 forward-backward iterations
 Rare condition: small coef for last iteration:  0.000D+00
 EnCoef did   100 forward-backward iterations
 EnCoef did   100 forward-backward iterations
 EnCoef did   100 forward-backward iterations
 Restarting incremental Fock formation.
 SCF Done:  E(ROHF) =  -1224.64835801     A.U. after   37 cycles
             Convg  =    0.3214D-10             -V/T =  1.9999
 <Sx>= 0.0000 <Sy>= 0.0000 <Sz>= 2.5000 <S**2>= 8.7500 S= 2.5000
 <L.S>= 0.000000000000E+00
 Annihilation of the first spin contaminant:
 S**2 before annihilation     8.7500,   after     8.7500
 DiagDN has N=   616 LTot=  1880 but NE2=     3 cannot use DSYEVD.
 GenMOA:  NOpAll=  4 NOp2=4 NOpUse=  4 JSym2X=1
 <Sx>= 0.0000 <Sy>= 0.0000 <Sz>= 2.5000 <S**2>= 8.7500 S= 2.5000
 ExpMin= 5.01D-03 ExpMax= 2.59D+07 ExpMxC= 5.45D+03 IAcc=3 IRadAn=         5 AccDes= 0.00D+00
 HarFok:  IExCor=  205 AccDes= 0.00D+00 IRadAn=         5 IDoV=-2
 ScaDFX=  1.000000  1.000000  1.000000  1.000000
 Range of M.O.s used for correlation:    11   616
 NBasis=   616 NAE=    19 NBE=    14 NFC=    10 NFV=     0
 NROrb=    606 NOA=     9 NOB=     4 NVA=   597 NVB=   602

 **** Warning!!: The largest alpha MO coefficient is  0.23222805D+03


 **** Warning!!: The largest beta MO coefficient is  0.23222778D+03

 Singles contribution to E2=   -0.5880649173D-02
 Disk-based method using OVN memory for  9 occupieds at a time.
 Permanent disk used for amplitudes and <ij||ab> integrals=    40856412 words.
 Estimated scratch disk usage=  9052366406 words.
 IUseRI=2 ITolRI= 6 IR12RI=0
 Actual    scratch disk usage=  8977174907 words.
 GetIJB would need an additional  5030299238 words of memory to use all  16 processors.
 JobTyp=2 Pass  1:  I=   1 to   9 NPSUse= 10 ParTrn=T ParDer=T DoDerP=F.
 T,EIJ(AA): I=   1 J=   2      0.1517012E-03     -0.8349291E-03
 T,EIJ(AA): I=   1 J=   3      0.1517012E-03     -0.8349291E-03
 T,EIJ(AA): I=   1 J=   4      0.7037300E-04     -0.4010237E-03
 T,EIJ(AA): I=   1 J=   5      0.7037300E-04     -0.4010237E-03
 T,EIJ(AA): I=   1 J=   6      0.2599684E-03     -0.1175098E-02
 T,EIJ(AA): I=   1 J=   7      0.7862253E-03     -0.3342635E-02
 T,EIJ(AA): I=   1 J=   8      0.7862253E-03     -0.3342635E-02
 T,EIJ(AA): I=   1 J=   9      0.7298458E-03     -0.2841887E-02
 T,EIJ(AA): I=   2 J=   3      0.1132438E-02     -0.6505123E-02
 T,EIJ(AA): I=   2 J=   4      0.1172444E-02     -0.6937048E-02
 T,EIJ(AA): I=   2 J=   5      0.1172444E-02     -0.6937048E-02
 T,EIJ(AA): I=   2 J=   6      0.1774868E-02     -0.8784838E-02
 T,EIJ(AA): I=   2 J=   7      0.1566477E-03     -0.5628522E-03
 T,EIJ(AA): I=   2 J=   8      0.3545449E-03     -0.1428983E-02
 T,EIJ(AA): I=   2 J=   9      0.7058206E-03     -0.2606811E-02
 T,EIJ(AA): I=   3 J=   4      0.1172444E-02     -0.6937048E-02
 T,EIJ(AA): I=   3 J=   5      0.1172444E-02     -0.6937048E-02
 T,EIJ(AA): I=   3 J=   6      0.1774868E-02     -0.8784838E-02
 T,EIJ(AA): I=   3 J=   7      0.3545449E-03     -0.1428983E-02
 T,EIJ(AA): I=   3 J=   8      0.1566477E-03     -0.5628522E-03
 T,EIJ(AA): I=   3 J=   9      0.7058206E-03     -0.2606811E-02
 T,EIJ(AA): I=   4 J=   5      0.1844071E-02     -0.1167400E-01
 T,EIJ(AA): I=   4 J=   6      0.1312608E-02     -0.5902830E-02
 T,EIJ(AA): I=   4 J=   7      0.2271393E-03     -0.1011804E-02
 T,EIJ(AA): I=   4 J=   8      0.2271393E-03     -0.1011804E-02
 T,EIJ(AA): I=   4 J=   9      0.5041462E-03     -0.1948126E-02
 T,EIJ(AA): I=   5 J=   6      0.1312608E-02     -0.5902830E-02
 T,EIJ(AA): I=   5 J=   7      0.2271393E-03     -0.1011804E-02
 T,EIJ(AA): I=   5 J=   8      0.2271393E-03     -0.1011804E-02
 T,EIJ(AA): I=   5 J=   9      0.5041462E-03     -0.1948126E-02
 T,EIJ(AA): I=   6 J=   7      0.1058811E-02     -0.3220499E-02
 T,EIJ(AA): I=   6 J=   8      0.1058811E-02     -0.3220499E-02
 T,EIJ(AA): I=   6 J=   9      0.6379431E-03     -0.2001567E-02
 T,EIJ(AA): I=   7 J=   8      0.3796319E-02     -0.9727552E-02
 T,EIJ(AA): I=   7 J=   9      0.4444325E-02     -0.9135750E-02
 T,EIJ(AA): I=   8 J=   9      0.4444325E-02     -0.9135750E-02
 T,EIJ(AB): I=   1 J=   1      0.2017058E-02     -0.1287424E-01
 T,EIJ(AB): I=   1 J=   2      0.2272636E-02     -0.1129453E-01
 T,EIJ(AB): I=   1 J=   3      0.2280451E-02     -0.1162378E-01
 T,EIJ(AB): I=   1 J=   4      0.2280451E-02     -0.1162378E-01
 T,EIJ(AB): I=   2 J=   1      0.2538672E-03     -0.1477817E-02
 T,EIJ(AB): I=   2 J=   2      0.1115881E-02     -0.3927053E-02
 T,EIJ(AB): I=   2 J=   3      0.9537356E-03     -0.3368271E-02
 T,EIJ(AB): I=   2 J=   4      0.5897321E-03     -0.1954746E-02
 T,EIJ(AB): I=   3 J=   1      0.2538672E-03     -0.1477817E-02
 T,EIJ(AB): I=   3 J=   2      0.1115881E-02     -0.3927053E-02
 T,EIJ(AB): I=   3 J=   3      0.5897321E-03     -0.1954746E-02
 T,EIJ(AB): I=   3 J=   4      0.9537356E-03     -0.3368271E-02
 T,EIJ(AB): I=   4 J=   1      0.9554584E-04     -0.5555045E-03
 T,EIJ(AB): I=   4 J=   2      0.8163170E-03     -0.2920300E-02
 T,EIJ(AB): I=   4 J=   3      0.4192656E-03     -0.1372473E-02
 T,EIJ(AB): I=   4 J=   4      0.4192656E-03     -0.1372473E-02
 T,EIJ(AB): I=   5 J=   1      0.9554584E-04     -0.5555045E-03
 T,EIJ(AB): I=   5 J=   2      0.8163170E-03     -0.2920300E-02
 T,EIJ(AB): I=   5 J=   3      0.4192656E-03     -0.1372473E-02
 T,EIJ(AB): I=   5 J=   4      0.4192656E-03     -0.1372473E-02
 T,EIJ(AB): I=   6 J=   1      0.6286372E-03     -0.3412215E-02
 T,EIJ(AB): I=   6 J=   2      0.4249993E-02     -0.1115889E-01
 T,EIJ(AB): I=   6 J=   3      0.1987691E-02     -0.5046925E-02
 T,EIJ(AB): I=   6 J=   4      0.1987691E-02     -0.5046925E-02
 T,EIJ(AB): I=   7 J=   1      0.2188428E-02     -0.1139441E-01
 T,EIJ(AB): I=   7 J=   2      0.5987261E-02     -0.1441660E-01
 T,EIJ(AB): I=   7 J=   3      0.8624208E-02     -0.2526550E-01
 T,EIJ(AB): I=   7 J=   4      0.5144462E-02     -0.1393211E-01
 T,EIJ(AB): I=   8 J=   1      0.2188428E-02     -0.1139441E-01
 T,EIJ(AB): I=   8 J=   2      0.5987261E-02     -0.1441660E-01
 T,EIJ(AB): I=   8 J=   3      0.5144462E-02     -0.1393211E-01
 T,EIJ(AB): I=   8 J=   4      0.8624208E-02     -0.2526550E-01
 T,EIJ(AB): I=   9 J=   1      0.1896991E-02     -0.9160176E-02
 T,EIJ(AB): I=   9 J=   2      0.1220142E-01     -0.2363400E-01
 T,EIJ(AB): I=   9 J=   3      0.6133087E-02     -0.1338776E-01
 T,EIJ(AB): I=   9 J=   4      0.6133087E-02     -0.1338776E-01
 Actual    scratch disk usage=  9052360262 words.
 GetIJB would need an additional  5030220938 words of memory to use all  16 processors.
 JobTyp=3 Pass  1:  I=   1 to   4 NPSUse= 10 ParTrn=T ParDer=T DoDerP=F.
 T,EIJ(BB): I=   1 J=   2      0.9149441E-03     -0.3666750E-02
 T,EIJ(BB): I=   1 J=   3      0.8870422E-03     -0.3692247E-02
 T,EIJ(BB): I=   1 J=   4      0.8870422E-03     -0.3692247E-02
 T,EIJ(BB): I=   2 J=   3      0.5507068E-02     -0.1224418E-01
 T,EIJ(BB): I=   2 J=   4      0.5507068E-02     -0.1224418E-01
 T,EIJ(BB): I=   3 J=   4      0.4616070E-02     -0.1135794E-01
 Spin components of T(2) and E(2):
     alpha-alpha T2 =       0.3663905649D-01 E2=     -0.1420591920D+00
     alpha-beta  T2 =       0.9728512829D-01 E2=     -0.2955655296D+00
     beta-beta   T2 =       0.1831923422D-01 E2=     -0.4689755089D-01
 ANorm=    0.1077735123D+01
 E2 =    -0.4904029217D+00 EUMP2 =    -0.12251387609325D+04

 Complete Basis Set (CBS) Extrapolation:
 M. R. Nyden and G. A. Petersson, JCP 75, 1843 (1981)
 G. A. Petersson and M. A. Al-Laham, JCP 94, 6081 (1991)
 G. A. Petersson, T. Tensfeldt, and J. A. Montgomery, JCP 94, 6091 (1991)
 J. A. Montgomery, J. W. Ochterski, and G. A. Petersson, JCP 101, 5900 (1994)
 
 Minimum Number of PNO for Extrapolation =  25
 Absolute Overlaps: IRadAn =         5
 LocTrn: ILocal=3 LocCor=F DoCore=F.
 Entering OneElI...
 Overlap between basis sets.
 Requested accuracy = 0.1000D-12
 PrsmSu:  NPrtUS=   1 ThrOK=F IAlg=1
 PRISM was handed  8588073595 working-precision words and    47 shell-pairs
 IPart=  0 NShTot=          47 NBatch=          11 AvBLen=         4.3
 CnvPC2: ToCart=F DoDens=F IPureD=0 IPureF=0.
 Transformed matrix in CnvPC2: 
                 1             2             3             4             5 
      1   0.100000D+01  0.383382D+00  0.000000D+00  0.000000D+00  0.000000D+00
      2   0.383382D+00  0.100000D+01  0.000000D+00  0.000000D+00  0.000000D+00
      3   0.000000D+00  0.000000D+00  0.100000D+01  0.000000D+00  0.000000D+00
      4   0.000000D+00  0.000000D+00  0.000000D+00  0.100000D+01  0.000000D+00
      5   0.000000D+00  0.000000D+00  0.000000D+00  0.000000D+00  0.100000D+01
      6   0.246887D-01  0.314681D+00  0.000000D+00  0.000000D+00  0.000000D+00
      7   0.000000D+00  0.000000D+00  0.327626D+00  0.000000D+00  0.000000D+00
      8   0.000000D+00  0.000000D+00  0.000000D+00  0.327626D+00  0.000000D+00
      9   0.000000D+00  0.000000D+00  0.000000D+00  0.000000D+00  0.327626D+00
     10   0.000000D+00  0.000000D+00  0.000000D+00  0.000000D+00  0.000000D+00
     11   0.000000D+00  0.000000D+00  0.000000D+00  0.000000D+00  0.000000D+00
     12   0.000000D+00  0.000000D+00  0.000000D+00  0.000000D+00  0.000000D+00
     13   0.000000D+00  0.000000D+00  0.000000D+00  0.000000D+00  0.000000D+00
     14   0.000000D+00  0.000000D+00  0.000000D+00  0.000000D+00  0.000000D+00
     15  -0.389891D-03  0.660268D-02  0.000000D+00  0.000000D+00  0.000000D+00
     16   0.000000D+00  0.000000D+00  0.156230D-01  0.000000D+00  0.000000D+00
     17   0.000000D+00  0.000000D+00  0.000000D+00  0.156230D-01  0.000000D+00
     18   0.000000D+00  0.000000D+00  0.000000D+00  0.000000D+00  0.156230D-01
     19   0.000000D+00  0.000000D+00  0.000000D+00  0.000000D+00  0.000000D+00
     20   0.692564D-03  0.486930D-02  0.000000D+00  0.000000D+00 -0.253871D-02
     21   0.000000D+00  0.000000D+00  0.741961D-03  0.000000D+00  0.000000D+00
     22   0.000000D+00  0.000000D+00  0.000000D+00  0.741961D-03  0.000000D+00
     23   0.148690D-02  0.100974D-01  0.000000D+00  0.000000D+00 -0.459591D-02
                 6             7             8             9            10 
      1   0.246887D-01  0.000000D+00  0.000000D+00  0.000000D+00  0.000000D+00
      2   0.314681D+00  0.000000D+00  0.000000D+00  0.000000D+00  0.000000D+00
      3   0.000000D+00  0.327626D+00  0.000000D+00  0.000000D+00  0.000000D+00
      4   0.000000D+00  0.000000D+00  0.327626D+00  0.000000D+00  0.000000D+00
      5   0.000000D+00  0.000000D+00  0.000000D+00  0.327626D+00  0.000000D+00
      6   0.100000D+01  0.000000D+00  0.000000D+00  0.000000D+00  0.000000D+00
      7   0.000000D+00  0.100000D+01  0.000000D+00  0.000000D+00  0.000000D+00
      8   0.000000D+00  0.000000D+00  0.100000D+01  0.000000D+00  0.000000D+00
      9   0.000000D+00  0.000000D+00  0.000000D+00  0.100000D+01  0.000000D+00
     10   0.000000D+00  0.000000D+00  0.000000D+00  0.000000D+00  0.100000D+01
     11   0.000000D+00  0.000000D+00  0.000000D+00  0.000000D+00  0.000000D+00
     12   0.000000D+00  0.000000D+00  0.000000D+00  0.000000D+00  0.000000D+00
     13   0.000000D+00  0.000000D+00  0.000000D+00  0.000000D+00  0.000000D+00
     14   0.000000D+00  0.000000D+00  0.000000D+00  0.000000D+00  0.000000D+00
     15   0.255042D+00  0.000000D+00  0.000000D+00  0.000000D+00  0.000000D+00
     16   0.000000D+00  0.270441D+00  0.000000D+00  0.000000D+00  0.000000D+00
     17   0.000000D+00  0.000000D+00  0.270441D+00  0.000000D+00  0.000000D+00
     18   0.000000D+00  0.000000D+00  0.000000D+00  0.270441D+00  0.000000D+00
     19   0.123007D-03  0.000000D+00  0.000000D+00 -0.345176D-03  0.331745D-02
     20   0.465345D-01  0.000000D+00  0.000000D+00 -0.563212D-01  0.720462D-01
     21   0.000000D+00  0.172386D-01  0.000000D+00  0.000000D+00  0.000000D+00
     22   0.000000D+00  0.000000D+00  0.172386D-01  0.000000D+00  0.000000D+00
     23   0.789465D-01  0.000000D+00  0.000000D+00 -0.880594D-01  0.977640D-01
                11            12            13            14            15 
      1   0.000000D+00  0.000000D+00  0.000000D+00  0.000000D+00 -0.389891D-03
      2   0.000000D+00  0.000000D+00  0.000000D+00  0.000000D+00  0.660268D-02
      3   0.000000D+00  0.000000D+00  0.000000D+00  0.000000D+00  0.000000D+00
      4   0.000000D+00  0.000000D+00  0.000000D+00  0.000000D+00  0.000000D+00
      5   0.000000D+00  0.000000D+00  0.000000D+00  0.000000D+00  0.000000D+00
      6   0.000000D+00  0.000000D+00  0.000000D+00  0.000000D+00  0.255042D+00
      7   0.000000D+00  0.000000D+00  0.000000D+00  0.000000D+00  0.000000D+00
      8   0.000000D+00  0.000000D+00  0.000000D+00  0.000000D+00  0.000000D+00
      9   0.000000D+00  0.000000D+00  0.000000D+00  0.000000D+00  0.000000D+00
     10   0.000000D+00  0.000000D+00  0.000000D+00  0.000000D+00  0.000000D+00
     11   0.100000D+01  0.000000D+00  0.000000D+00  0.000000D+00  0.000000D+00
     12   0.000000D+00  0.100000D+01  0.000000D+00  0.000000D+00  0.000000D+00
     13   0.000000D+00  0.000000D+00  0.100000D+01  0.000000D+00  0.000000D+00
     14   0.000000D+00  0.000000D+00  0.000000D+00  0.100000D+01  0.000000D+00
     15   0.000000D+00  0.000000D+00  0.000000D+00  0.000000D+00  0.100000D+01
     16   0.000000D+00  0.000000D+00  0.000000D+00  0.000000D+00  0.000000D+00
     17   0.000000D+00  0.000000D+00  0.000000D+00  0.000000D+00  0.000000D+00
     18   0.000000D+00  0.000000D+00  0.000000D+00  0.000000D+00  0.000000D+00
     19   0.000000D+00  0.000000D+00  0.000000D+00  0.000000D+00  0.343320D-01
     20   0.000000D+00  0.000000D+00  0.000000D+00  0.000000D+00  0.312145D+00
     21  -0.407941D-01  0.000000D+00  0.000000D+00  0.000000D+00  0.000000D+00
     22   0.000000D+00 -0.407941D-01  0.000000D+00  0.000000D+00  0.000000D+00
     23   0.000000D+00  0.000000D+00  0.000000D+00  0.000000D+00  0.162794D+00
                16            17            18            19            20 
      1   0.000000D+00  0.000000D+00  0.000000D+00  0.000000D+00  0.692564D-03
      2   0.000000D+00  0.000000D+00  0.000000D+00  0.000000D+00  0.486930D-02
      3   0.156230D-01  0.000000D+00  0.000000D+00  0.000000D+00  0.000000D+00
      4   0.000000D+00  0.156230D-01  0.000000D+00  0.000000D+00  0.000000D+00
      5   0.000000D+00  0.000000D+00  0.156230D-01  0.000000D+00 -0.253871D-02
      6   0.000000D+00  0.000000D+00  0.000000D+00  0.123007D-03  0.465345D-01
      7   0.270441D+00  0.000000D+00  0.000000D+00  0.000000D+00  0.000000D+00
      8   0.000000D+00  0.270441D+00  0.000000D+00  0.000000D+00  0.000000D+00
      9   0.000000D+00  0.000000D+00  0.270441D+00 -0.345176D-03 -0.563212D-01
     10   0.000000D+00  0.000000D+00  0.000000D+00  0.331745D-02  0.720462D-01
     11   0.000000D+00  0.000000D+00  0.000000D+00  0.000000D+00  0.000000D+00
     12   0.000000D+00  0.000000D+00  0.000000D+00  0.000000D+00  0.000000D+00
     13   0.000000D+00  0.000000D+00  0.000000D+00  0.000000D+00  0.000000D+00
     14   0.000000D+00  0.000000D+00  0.000000D+00  0.000000D+00  0.000000D+00
     15   0.000000D+00  0.000000D+00  0.000000D+00  0.343320D-01  0.312145D+00
     16   0.100000D+01  0.000000D+00  0.000000D+00  0.000000D+00  0.000000D+00
     17   0.000000D+00  0.100000D+01  0.000000D+00  0.000000D+00  0.000000D+00
     18   0.000000D+00  0.000000D+00  0.100000D+01 -0.594129D-01 -0.466639D+00
     19   0.000000D+00  0.000000D+00 -0.594129D-01  0.100000D+01  0.236704D+00
     20   0.000000D+00  0.000000D+00 -0.466639D+00  0.236704D+00  0.100000D+01
     21   0.160174D+00  0.000000D+00  0.000000D+00  0.000000D+00  0.000000D+00
     22   0.000000D+00  0.160174D+00  0.000000D+00  0.000000D+00  0.000000D+00
     23   0.000000D+00  0.000000D+00 -0.214246D+00  0.000000D+00  0.000000D+00
                21            22            23 
      1   0.000000D+00  0.000000D+00  0.148690D-02
      2   0.000000D+00  0.000000D+00  0.100974D-01
      3   0.741961D-03  0.000000D+00  0.000000D+00
      4   0.000000D+00  0.741961D-03  0.000000D+00
      5   0.000000D+00  0.000000D+00 -0.459591D-02
      6   0.000000D+00  0.000000D+00  0.789465D-01
      7   0.172386D-01  0.000000D+00  0.000000D+00
      8   0.000000D+00  0.172386D-01  0.000000D+00
      9   0.000000D+00  0.000000D+00 -0.880594D-01
     10   0.000000D+00  0.000000D+00  0.977640D-01
     11  -0.407941D-01  0.000000D+00  0.000000D+00
     12   0.000000D+00 -0.407941D-01  0.000000D+00
     13   0.000000D+00  0.000000D+00  0.000000D+00
     14   0.000000D+00  0.000000D+00  0.000000D+00
     15   0.000000D+00  0.000000D+00  0.162794D+00
     16   0.160174D+00  0.000000D+00  0.000000D+00
     17   0.000000D+00  0.160174D+00  0.000000D+00
     18   0.000000D+00  0.000000D+00 -0.214246D+00
     19   0.000000D+00  0.000000D+00  0.000000D+00
     20   0.000000D+00  0.000000D+00  0.000000D+00
     21   0.100000D+01  0.000000D+00  0.000000D+00
     22   0.000000D+00  0.100000D+01  0.000000D+00
     23   0.000000D+00  0.000000D+00  0.100000D+01
 Entering OneElI...
 Overlap between basis sets.
 Requested accuracy = 0.1000D-12
 PrsmSu:  NPrtUS=   1 ThrOK=F IAlg=1
 PRISM was handed  8586744298 working-precision words and   710 shell-pairs
 IPart=  0 NShTot=         710 NBatch=          91 AvBLen=         7.8
 CnvPC2: ToCart=F DoDens=F IPureD=0 IPureF=0.
 Transformed matrix in CnvPC2: 
                 1             2             3             4             5 
      1   0.999778D+00  0.393836D+00  0.000000D+00  0.000000D+00  0.000000D+00
      2   0.278094D+00  0.990222D+00  0.000000D+00  0.000000D+00  0.000000D+00
      3   0.000000D+00  0.000000D+00  0.999030D+00  0.000000D+00  0.000000D+00
      4   0.000000D+00  0.000000D+00  0.000000D+00  0.999030D+00  0.000000D+00
      5   0.000000D+00  0.000000D+00  0.000000D+00  0.000000D+00  0.999030D+00
      6   0.108385D-01  0.308485D+00  0.000000D+00  0.000000D+00  0.000000D+00
      7   0.000000D+00  0.000000D+00  0.315555D+00  0.000000D+00  0.000000D+00
      8   0.000000D+00  0.000000D+00  0.000000D+00  0.315555D+00  0.000000D+00
      9   0.000000D+00  0.000000D+00  0.000000D+00  0.000000D+00  0.315555D+00
     10   0.000000D+00  0.000000D+00  0.000000D+00  0.000000D+00  0.000000D+00
     11   0.000000D+00  0.000000D+00  0.000000D+00  0.000000D+00  0.000000D+00
     12   0.000000D+00  0.000000D+00  0.000000D+00  0.000000D+00  0.000000D+00
     13   0.000000D+00  0.000000D+00  0.000000D+00  0.000000D+00  0.000000D+00
     14   0.000000D+00  0.000000D+00  0.000000D+00  0.000000D+00  0.000000D+00
     15   0.000000D+00  0.000000D+00  0.000000D+00  0.000000D+00  0.000000D+00
     16   0.000000D+00  0.000000D+00  0.000000D+00  0.000000D+00  0.000000D+00
     17   0.000000D+00  0.000000D+00  0.000000D+00  0.000000D+00  0.000000D+00
     18   0.000000D+00  0.000000D+00  0.000000D+00  0.000000D+00  0.000000D+00
     19   0.000000D+00  0.000000D+00  0.000000D+00  0.000000D+00  0.000000D+00
     20   0.000000D+00  0.000000D+00  0.000000D+00  0.000000D+00  0.000000D+00
     21   0.000000D+00  0.000000D+00  0.000000D+00  0.000000D+00  0.000000D+00
     22   0.000000D+00  0.000000D+00  0.000000D+00  0.000000D+00  0.000000D+00
     23   0.000000D+00  0.000000D+00  0.000000D+00  0.000000D+00  0.000000D+00
     24   0.000000D+00  0.000000D+00  0.000000D+00  0.000000D+00  0.000000D+00
     25   0.677390D-04  0.878770D-02  0.000000D+00  0.000000D+00  0.000000D+00
     26   0.730406D-02  0.470480D-01  0.000000D+00  0.000000D+00  0.000000D+00
     27   0.350806D-02  0.226845D-01  0.000000D+00  0.000000D+00  0.000000D+00
     28   0.152276D-02  0.986228D-02  0.000000D+00  0.000000D+00  0.000000D+00
     29   0.000000D+00  0.000000D+00 -0.453942D-02  0.000000D+00  0.000000D+00
     30   0.000000D+00  0.000000D+00  0.000000D+00 -0.453942D-02  0.000000D+00
     31   0.000000D+00  0.000000D+00  0.000000D+00  0.000000D+00 -0.453942D-02
     32   0.000000D+00  0.000000D+00  0.109103D-01  0.000000D+00  0.000000D+00
     33   0.000000D+00  0.000000D+00  0.000000D+00  0.109103D-01  0.000000D+00
     34   0.000000D+00  0.000000D+00  0.000000D+00  0.000000D+00  0.109103D-01
     35   0.000000D+00  0.000000D+00  0.369814D-02  0.000000D+00  0.000000D+00
     36   0.000000D+00  0.000000D+00  0.000000D+00  0.369814D-02  0.000000D+00
     37   0.000000D+00  0.000000D+00  0.000000D+00  0.000000D+00  0.369814D-02
     38   0.259271D+00  0.925253D+00  0.000000D+00  0.000000D+00  0.000000D+00
     39   0.163685D+00  0.747427D+00  0.000000D+00  0.000000D+00  0.000000D+00
     40   0.101339D+00  0.540616D+00  0.000000D+00  0.000000D+00  0.000000D+00
     41   0.620830D-01  0.362482D+00  0.000000D+00  0.000000D+00  0.000000D+00
     42   0.378235D-01  0.232067D+00  0.000000D+00  0.000000D+00  0.000000D+00
     43   0.229775D-01  0.144748D+00  0.000000D+00  0.000000D+00  0.000000D+00
     44   0.000000D+00  0.000000D+00  0.436817D+00  0.000000D+00  0.000000D+00
     45   0.000000D+00  0.000000D+00  0.000000D+00  0.436817D+00  0.000000D+00
     46   0.000000D+00  0.000000D+00  0.000000D+00  0.000000D+00  0.436817D+00
     47   0.000000D+00  0.000000D+00  0.267749D+00  0.000000D+00  0.000000D+00
     48   0.000000D+00  0.000000D+00  0.000000D+00  0.267749D+00  0.000000D+00
     49   0.000000D+00  0.000000D+00  0.000000D+00  0.000000D+00  0.267749D+00
     50   0.000000D+00  0.000000D+00  0.151864D+00  0.000000D+00  0.000000D+00
     51   0.000000D+00  0.000000D+00  0.000000D+00  0.151864D+00  0.000000D+00
     52   0.000000D+00  0.000000D+00  0.000000D+00  0.000000D+00  0.151864D+00
     53   0.000000D+00  0.000000D+00  0.817021D-01  0.000000D+00  0.000000D+00
     54   0.000000D+00  0.000000D+00  0.000000D+00  0.817021D-01  0.000000D+00
     55   0.000000D+00  0.000000D+00  0.000000D+00  0.000000D+00  0.817021D-01
     56   0.000000D+00  0.000000D+00  0.425040D-01  0.000000D+00  0.000000D+00
     57   0.000000D+00  0.000000D+00  0.000000D+00  0.425040D-01  0.000000D+00
     58   0.000000D+00  0.000000D+00  0.000000D+00  0.000000D+00  0.425040D-01
     59   0.000000D+00  0.000000D+00  0.216649D-01  0.000000D+00  0.000000D+00
     60   0.000000D+00  0.000000D+00  0.000000D+00  0.216649D-01  0.000000D+00
     61   0.000000D+00  0.000000D+00  0.000000D+00  0.000000D+00  0.216649D-01
     62   0.000000D+00  0.000000D+00  0.000000D+00  0.000000D+00  0.000000D+00
     63   0.000000D+00  0.000000D+00  0.000000D+00  0.000000D+00  0.000000D+00
     64   0.000000D+00  0.000000D+00  0.000000D+00  0.000000D+00  0.000000D+00
     65   0.000000D+00  0.000000D+00  0.000000D+00  0.000000D+00  0.000000D+00
     66   0.000000D+00  0.000000D+00  0.000000D+00  0.000000D+00  0.000000D+00
     67   0.000000D+00  0.000000D+00  0.000000D+00  0.000000D+00  0.000000D+00
     68   0.000000D+00  0.000000D+00  0.000000D+00  0.000000D+00  0.000000D+00
     69   0.000000D+00  0.000000D+00  0.000000D+00  0.000000D+00  0.000000D+00
     70   0.000000D+00  0.000000D+00  0.000000D+00  0.000000D+00  0.000000D+00
     71   0.000000D+00  0.000000D+00  0.000000D+00  0.000000D+00  0.000000D+00
     72   0.000000D+00  0.000000D+00  0.000000D+00  0.000000D+00  0.000000D+00
     73   0.000000D+00  0.000000D+00  0.000000D+00  0.000000D+00  0.000000D+00
     74   0.000000D+00  0.000000D+00  0.000000D+00  0.000000D+00  0.000000D+00
     75   0.000000D+00  0.000000D+00  0.000000D+00  0.000000D+00  0.000000D+00
     76   0.000000D+00  0.000000D+00  0.000000D+00  0.000000D+00  0.000000D+00
     77   0.000000D+00  0.000000D+00  0.000000D+00  0.000000D+00  0.000000D+00
     78   0.000000D+00  0.000000D+00  0.000000D+00  0.000000D+00  0.000000D+00
     79   0.000000D+00  0.000000D+00  0.000000D+00  0.000000D+00  0.000000D+00
     80   0.000000D+00  0.000000D+00  0.000000D+00  0.000000D+00  0.000000D+00
     81   0.000000D+00  0.000000D+00  0.000000D+00  0.000000D+00  0.000000D+00
     82   0.000000D+00  0.000000D+00  0.000000D+00  0.000000D+00  0.000000D+00
     83   0.000000D+00  0.000000D+00  0.000000D+00  0.000000D+00  0.000000D+00
     84   0.000000D+00  0.000000D+00  0.000000D+00  0.000000D+00  0.000000D+00
     85   0.000000D+00  0.000000D+00  0.000000D+00  0.000000D+00  0.000000D+00
     86   0.000000D+00  0.000000D+00  0.000000D+00  0.000000D+00  0.000000D+00
     87   0.000000D+00  0.000000D+00  0.000000D+00  0.000000D+00  0.000000D+00
     88   0.000000D+00  0.000000D+00  0.000000D+00  0.000000D+00  0.000000D+00
     89   0.000000D+00  0.000000D+00  0.000000D+00  0.000000D+00  0.000000D+00
     90   0.000000D+00  0.000000D+00  0.000000D+00  0.000000D+00  0.000000D+00
     91   0.000000D+00  0.000000D+00  0.000000D+00  0.000000D+00  0.000000D+00
     92   0.000000D+00  0.000000D+00  0.000000D+00  0.000000D+00  0.000000D+00
     93   0.000000D+00  0.000000D+00  0.000000D+00  0.000000D+00  0.000000D+00
     94   0.000000D+00  0.000000D+00  0.000000D+00  0.000000D+00  0.000000D+00
     95   0.000000D+00  0.000000D+00  0.000000D+00  0.000000D+00  0.000000D+00
     96   0.000000D+00  0.000000D+00  0.000000D+00  0.000000D+00  0.000000D+00
     97   0.000000D+00  0.000000D+00  0.000000D+00  0.000000D+00  0.000000D+00
     98   0.000000D+00  0.000000D+00  0.000000D+00  0.000000D+00  0.000000D+00
     99   0.000000D+00  0.000000D+00  0.000000D+00  0.000000D+00  0.000000D+00
    100   0.000000D+00  0.000000D+00  0.000000D+00  0.000000D+00  0.000000D+00
    101   0.000000D+00  0.000000D+00  0.000000D+00  0.000000D+00  0.000000D+00
    102   0.000000D+00  0.000000D+00  0.000000D+00  0.000000D+00  0.000000D+00
    103   0.000000D+00  0.000000D+00  0.000000D+00  0.000000D+00  0.000000D+00
    104   0.000000D+00  0.000000D+00  0.000000D+00  0.000000D+00  0.000000D+00
    105   0.000000D+00  0.000000D+00  0.000000D+00  0.000000D+00  0.000000D+00
    106   0.000000D+00  0.000000D+00  0.000000D+00  0.000000D+00  0.000000D+00
    107   0.000000D+00  0.000000D+00  0.000000D+00  0.000000D+00  0.000000D+00
    108   0.000000D+00  0.000000D+00  0.000000D+00  0.000000D+00  0.000000D+00
    109   0.000000D+00  0.000000D+00  0.000000D+00  0.000000D+00  0.000000D+00
    110   0.000000D+00  0.000000D+00  0.000000D+00  0.000000D+00  0.000000D+00
    111   0.000000D+00  0.000000D+00  0.000000D+00  0.000000D+00  0.000000D+00
    112   0.000000D+00  0.000000D+00  0.000000D+00  0.000000D+00  0.000000D+00
    113   0.000000D+00  0.000000D+00  0.000000D+00  0.000000D+00  0.000000D+00
    114   0.000000D+00  0.000000D+00  0.000000D+00  0.000000D+00  0.000000D+00
    115   0.000000D+00  0.000000D+00  0.000000D+00  0.000000D+00  0.000000D+00
    116   0.000000D+00  0.000000D+00  0.000000D+00  0.000000D+00  0.000000D+00
    117   0.000000D+00  0.000000D+00  0.000000D+00  0.000000D+00  0.000000D+00
    118   0.000000D+00  0.000000D+00  0.000000D+00  0.000000D+00  0.000000D+00
    119   0.000000D+00  0.000000D+00  0.000000D+00  0.000000D+00  0.000000D+00
    120   0.000000D+00  0.000000D+00  0.000000D+00  0.000000D+00  0.000000D+00
    121   0.000000D+00  0.000000D+00  0.000000D+00  0.000000D+00  0.000000D+00
    122   0.000000D+00  0.000000D+00  0.000000D+00  0.000000D+00  0.000000D+00
    123   0.000000D+00  0.000000D+00  0.000000D+00  0.000000D+00  0.000000D+00
    124   0.000000D+00  0.000000D+00  0.000000D+00  0.000000D+00  0.000000D+00
    125   0.000000D+00  0.000000D+00  0.000000D+00  0.000000D+00  0.000000D+00
    126   0.000000D+00  0.000000D+00  0.000000D+00  0.000000D+00  0.000000D+00
    127   0.000000D+00  0.000000D+00  0.000000D+00  0.000000D+00  0.000000D+00
    128   0.000000D+00  0.000000D+00  0.000000D+00  0.000000D+00  0.000000D+00
    129   0.000000D+00  0.000000D+00  0.000000D+00  0.000000D+00  0.000000D+00
    130   0.000000D+00  0.000000D+00  0.000000D+00  0.000000D+00  0.000000D+00
    131   0.000000D+00  0.000000D+00  0.000000D+00  0.000000D+00  0.000000D+00
    132   0.000000D+00  0.000000D+00  0.000000D+00  0.000000D+00  0.000000D+00
    133   0.000000D+00  0.000000D+00  0.000000D+00  0.000000D+00  0.000000D+00
    134   0.000000D+00  0.000000D+00  0.000000D+00  0.000000D+00  0.000000D+00
    135   0.000000D+00  0.000000D+00  0.000000D+00  0.000000D+00  0.000000D+00
    136   0.000000D+00  0.000000D+00  0.000000D+00  0.000000D+00  0.000000D+00
    137   0.000000D+00  0.000000D+00  0.000000D+00  0.000000D+00  0.000000D+00
    138   0.000000D+00  0.000000D+00  0.000000D+00  0.000000D+00  0.000000D+00
    139   0.000000D+00  0.000000D+00  0.000000D+00  0.000000D+00  0.000000D+00
    140   0.000000D+00  0.000000D+00  0.000000D+00  0.000000D+00  0.000000D+00
    141   0.000000D+00  0.000000D+00  0.000000D+00  0.000000D+00  0.000000D+00
    142   0.000000D+00  0.000000D+00  0.000000D+00  0.000000D+00  0.000000D+00
    143   0.000000D+00  0.000000D+00  0.000000D+00  0.000000D+00  0.000000D+00
    144   0.000000D+00  0.000000D+00  0.000000D+00  0.000000D+00  0.000000D+00
    145   0.000000D+00  0.000000D+00  0.000000D+00  0.000000D+00  0.000000D+00
    146   0.000000D+00  0.000000D+00  0.000000D+00  0.000000D+00  0.000000D+00
    147   0.000000D+00  0.000000D+00  0.000000D+00  0.000000D+00  0.000000D+00
    148   0.000000D+00  0.000000D+00  0.000000D+00  0.000000D+00  0.000000D+00
    149   0.000000D+00  0.000000D+00  0.000000D+00  0.000000D+00  0.000000D+00
    150   0.000000D+00  0.000000D+00  0.000000D+00  0.000000D+00  0.000000D+00
    151   0.000000D+00  0.000000D+00  0.000000D+00  0.000000D+00  0.000000D+00
    152   0.000000D+00  0.000000D+00  0.000000D+00  0.000000D+00  0.000000D+00
    153   0.000000D+00  0.000000D+00  0.000000D+00  0.000000D+00  0.000000D+00
    154   0.000000D+00  0.000000D+00  0.000000D+00  0.000000D+00  0.000000D+00
    155   0.000000D+00  0.000000D+00  0.000000D+00  0.000000D+00  0.000000D+00
    156   0.000000D+00  0.000000D+00  0.000000D+00  0.000000D+00  0.000000D+00
    157   0.000000D+00  0.000000D+00  0.000000D+00  0.000000D+00  0.000000D+00
    158   0.000000D+00  0.000000D+00  0.000000D+00  0.000000D+00  0.000000D+00
    159   0.000000D+00  0.000000D+00  0.000000D+00  0.000000D+00  0.000000D+00
    160   0.000000D+00  0.000000D+00  0.000000D+00  0.000000D+00  0.000000D+00
    161   0.000000D+00  0.000000D+00  0.000000D+00  0.000000D+00  0.000000D+00
    162   0.000000D+00  0.000000D+00  0.000000D+00  0.000000D+00  0.000000D+00
    163   0.000000D+00  0.000000D+00  0.000000D+00  0.000000D+00  0.000000D+00
    164   0.000000D+00  0.000000D+00  0.000000D+00  0.000000D+00  0.000000D+00
    165   0.000000D+00  0.000000D+00  0.000000D+00  0.000000D+00  0.000000D+00
    166   0.000000D+00  0.000000D+00  0.000000D+00  0.000000D+00  0.000000D+00
    167   0.000000D+00  0.000000D+00  0.000000D+00  0.000000D+00  0.000000D+00
    168   0.000000D+00  0.000000D+00  0.000000D+00  0.000000D+00  0.000000D+00
    169   0.000000D+00  0.000000D+00  0.000000D+00  0.000000D+00  0.000000D+00
    170   0.000000D+00  0.000000D+00  0.000000D+00  0.000000D+00  0.000000D+00
    171   0.000000D+00  0.000000D+00  0.000000D+00  0.000000D+00  0.000000D+00
    172   0.000000D+00  0.000000D+00  0.000000D+00  0.000000D+00  0.000000D+00
    173   0.000000D+00  0.000000D+00  0.000000D+00  0.000000D+00  0.000000D+00
    174   0.000000D+00  0.000000D+00  0.000000D+00  0.000000D+00  0.000000D+00
    175   0.000000D+00  0.000000D+00  0.000000D+00  0.000000D+00  0.000000D+00
    176   0.000000D+00  0.000000D+00  0.000000D+00  0.000000D+00  0.000000D+00
    177   0.000000D+00  0.000000D+00  0.000000D+00  0.000000D+00  0.000000D+00
    178   0.000000D+00  0.000000D+00  0.000000D+00  0.000000D+00  0.000000D+00
    179   0.000000D+00  0.000000D+00  0.000000D+00  0.000000D+00  0.000000D+00
    180   0.000000D+00  0.000000D+00  0.000000D+00  0.000000D+00  0.000000D+00
    181   0.000000D+00  0.000000D+00  0.000000D+00  0.000000D+00  0.000000D+00
    182   0.000000D+00  0.000000D+00  0.000000D+00  0.000000D+00  0.000000D+00
    183   0.000000D+00  0.000000D+00  0.000000D+00  0.000000D+00  0.000000D+00
    184   0.000000D+00  0.000000D+00  0.000000D+00  0.000000D+00  0.000000D+00
    185   0.000000D+00  0.000000D+00  0.000000D+00  0.000000D+00  0.000000D+00
    186   0.000000D+00  0.000000D+00  0.000000D+00  0.000000D+00  0.000000D+00
    187   0.000000D+00  0.000000D+00  0.000000D+00  0.000000D+00  0.000000D+00
    188   0.000000D+00  0.000000D+00  0.000000D+00  0.000000D+00  0.000000D+00
    189   0.000000D+00  0.000000D+00  0.000000D+00  0.000000D+00  0.000000D+00
    190   0.000000D+00  0.000000D+00  0.000000D+00  0.000000D+00  0.000000D+00
    191   0.000000D+00  0.000000D+00  0.000000D+00  0.000000D+00  0.000000D+00
    192   0.000000D+00  0.000000D+00  0.000000D+00  0.000000D+00  0.000000D+00
    193   0.000000D+00  0.000000D+00  0.000000D+00  0.000000D+00  0.000000D+00
    194   0.000000D+00  0.000000D+00  0.000000D+00  0.000000D+00  0.000000D+00
    195   0.000000D+00  0.000000D+00  0.000000D+00  0.000000D+00  0.000000D+00
    196   0.000000D+00  0.000000D+00  0.000000D+00  0.000000D+00  0.000000D+00
    197   0.000000D+00  0.000000D+00  0.000000D+00  0.000000D+00  0.000000D+00
    198   0.000000D+00  0.000000D+00  0.000000D+00  0.000000D+00  0.000000D+00
    199   0.000000D+00  0.000000D+00  0.000000D+00  0.000000D+00  0.000000D+00
    200   0.000000D+00  0.000000D+00  0.000000D+00  0.000000D+00  0.000000D+00
    201   0.000000D+00  0.000000D+00  0.000000D+00  0.000000D+00  0.000000D+00
    202   0.000000D+00  0.000000D+00  0.000000D+00  0.000000D+00  0.000000D+00
    203   0.000000D+00  0.000000D+00  0.000000D+00  0.000000D+00  0.000000D+00
    204   0.000000D+00  0.000000D+00  0.000000D+00  0.000000D+00  0.000000D+00
    205   0.000000D+00  0.000000D+00  0.000000D+00  0.000000D+00  0.000000D+00
    206   0.000000D+00  0.000000D+00  0.000000D+00  0.000000D+00  0.000000D+00
    207   0.000000D+00  0.000000D+00  0.000000D+00  0.000000D+00  0.000000D+00
    208   0.000000D+00  0.000000D+00  0.000000D+00  0.000000D+00  0.000000D+00
    209   0.000000D+00  0.000000D+00  0.000000D+00  0.000000D+00  0.000000D+00
    210   0.000000D+00  0.000000D+00  0.000000D+00  0.000000D+00  0.000000D+00
    211   0.000000D+00  0.000000D+00  0.000000D+00  0.000000D+00  0.000000D+00
    212   0.000000D+00  0.000000D+00  0.000000D+00  0.000000D+00  0.000000D+00
    213   0.000000D+00  0.000000D+00  0.000000D+00  0.000000D+00  0.000000D+00
    214   0.000000D+00  0.000000D+00  0.000000D+00  0.000000D+00  0.000000D+00
    215   0.000000D+00  0.000000D+00  0.000000D+00  0.000000D+00  0.000000D+00
    216   0.000000D+00  0.000000D+00  0.000000D+00  0.000000D+00  0.000000D+00
    217   0.000000D+00  0.000000D+00  0.000000D+00  0.000000D+00  0.000000D+00
    218   0.000000D+00  0.000000D+00  0.000000D+00  0.000000D+00  0.000000D+00
    219   0.000000D+00  0.000000D+00  0.000000D+00  0.000000D+00  0.000000D+00
    220   0.000000D+00  0.000000D+00  0.000000D+00  0.000000D+00  0.000000D+00
    221   0.000000D+00  0.000000D+00  0.000000D+00  0.000000D+00  0.000000D+00
    222   0.000000D+00  0.000000D+00  0.000000D+00  0.000000D+00  0.000000D+00
    223   0.000000D+00  0.000000D+00  0.000000D+00  0.000000D+00  0.000000D+00
    224   0.000000D+00  0.000000D+00  0.000000D+00  0.000000D+00  0.000000D+00
    225   0.000000D+00  0.000000D+00  0.000000D+00  0.000000D+00  0.000000D+00
    226   0.000000D+00  0.000000D+00  0.000000D+00  0.000000D+00  0.000000D+00
    227   0.000000D+00  0.000000D+00  0.000000D+00  0.000000D+00  0.000000D+00
    228   0.000000D+00  0.000000D+00  0.000000D+00  0.000000D+00  0.000000D+00
    229   0.000000D+00  0.000000D+00  0.000000D+00  0.000000D+00  0.000000D+00
    230   0.000000D+00  0.000000D+00  0.000000D+00  0.000000D+00  0.000000D+00
    231   0.000000D+00  0.000000D+00  0.000000D+00  0.000000D+00  0.000000D+00
    232   0.000000D+00  0.000000D+00  0.000000D+00  0.000000D+00  0.000000D+00
    233   0.000000D+00  0.000000D+00  0.000000D+00  0.000000D+00  0.000000D+00
    234   0.000000D+00  0.000000D+00  0.000000D+00  0.000000D+00  0.000000D+00
    235   0.000000D+00  0.000000D+00  0.000000D+00  0.000000D+00  0.000000D+00
    236   0.000000D+00  0.000000D+00  0.000000D+00  0.000000D+00  0.000000D+00
    237   0.000000D+00  0.000000D+00  0.000000D+00  0.000000D+00  0.000000D+00
    238   0.000000D+00  0.000000D+00  0.000000D+00  0.000000D+00  0.000000D+00
    239   0.000000D+00  0.000000D+00  0.000000D+00  0.000000D+00  0.000000D+00
    240   0.000000D+00  0.000000D+00  0.000000D+00  0.000000D+00  0.000000D+00
    241   0.000000D+00  0.000000D+00  0.000000D+00  0.000000D+00  0.000000D+00
    242   0.000000D+00  0.000000D+00  0.000000D+00  0.000000D+00  0.000000D+00
    243   0.000000D+00  0.000000D+00  0.000000D+00  0.000000D+00  0.000000D+00
    244   0.000000D+00  0.000000D+00  0.000000D+00  0.000000D+00  0.000000D+00
    245   0.000000D+00  0.000000D+00  0.000000D+00  0.000000D+00  0.000000D+00
    246   0.000000D+00  0.000000D+00  0.000000D+00  0.000000D+00  0.000000D+00
    247   0.000000D+00  0.000000D+00  0.000000D+00  0.000000D+00  0.000000D+00
    248   0.000000D+00  0.000000D+00  0.000000D+00  0.000000D+00  0.000000D+00
    249   0.000000D+00  0.000000D+00  0.000000D+00  0.000000D+00  0.000000D+00
    250   0.000000D+00  0.000000D+00  0.000000D+00  0.000000D+00  0.000000D+00
    251   0.000000D+00  0.000000D+00  0.000000D+00  0.000000D+00  0.000000D+00
    252   0.000000D+00  0.000000D+00  0.000000D+00  0.000000D+00  0.000000D+00
    253   0.000000D+00  0.000000D+00  0.000000D+00  0.000000D+00  0.000000D+00
    254   0.000000D+00  0.000000D+00  0.000000D+00  0.000000D+00  0.000000D+00
    255   0.000000D+00  0.000000D+00  0.000000D+00  0.000000D+00  0.000000D+00
    256   0.000000D+00  0.000000D+00  0.000000D+00  0.000000D+00  0.000000D+00
    257   0.000000D+00  0.000000D+00  0.000000D+00  0.000000D+00  0.000000D+00
    258   0.000000D+00  0.000000D+00  0.000000D+00  0.000000D+00  0.000000D+00
    259   0.000000D+00  0.000000D+00  0.000000D+00  0.000000D+00  0.000000D+00
    260   0.000000D+00  0.000000D+00  0.000000D+00  0.000000D+00  0.000000D+00
    261   0.000000D+00  0.000000D+00  0.000000D+00  0.000000D+00  0.000000D+00
    262   0.000000D+00  0.000000D+00  0.000000D+00  0.000000D+00  0.000000D+00
    263   0.000000D+00  0.000000D+00  0.000000D+00  0.000000D+00  0.000000D+00
    264   0.000000D+00  0.000000D+00  0.000000D+00  0.000000D+00  0.000000D+00
    265   0.000000D+00  0.000000D+00  0.000000D+00  0.000000D+00  0.000000D+00
    266   0.000000D+00  0.000000D+00  0.000000D+00  0.000000D+00  0.000000D+00
    267   0.000000D+00  0.000000D+00  0.000000D+00  0.000000D+00  0.000000D+00
    268   0.000000D+00  0.000000D+00  0.000000D+00  0.000000D+00  0.000000D+00
    269   0.000000D+00  0.000000D+00  0.000000D+00  0.000000D+00  0.000000D+00
    270   0.000000D+00  0.000000D+00  0.000000D+00  0.000000D+00  0.000000D+00
    271   0.000000D+00  0.000000D+00  0.000000D+00  0.000000D+00  0.000000D+00
    272   0.000000D+00  0.000000D+00  0.000000D+00  0.000000D+00  0.000000D+00
    273   0.000000D+00  0.000000D+00  0.000000D+00  0.000000D+00  0.000000D+00
    274   0.000000D+00  0.000000D+00  0.000000D+00  0.000000D+00  0.000000D+00
    275   0.000000D+00  0.000000D+00  0.000000D+00  0.000000D+00  0.000000D+00
    276   0.000000D+00  0.000000D+00  0.000000D+00  0.000000D+00  0.000000D+00
    277   0.000000D+00  0.000000D+00  0.000000D+00  0.000000D+00  0.000000D+00
    278   0.000000D+00  0.000000D+00  0.000000D+00  0.000000D+00  0.000000D+00
    279   0.000000D+00  0.000000D+00  0.000000D+00  0.000000D+00  0.000000D+00
    280   0.000000D+00  0.000000D+00  0.000000D+00  0.000000D+00  0.000000D+00
    281   0.000000D+00  0.000000D+00  0.000000D+00  0.000000D+00  0.000000D+00
    282   0.000000D+00  0.000000D+00  0.000000D+00  0.000000D+00  0.000000D+00
    283   0.000000D+00  0.000000D+00  0.000000D+00  0.000000D+00  0.000000D+00
    284   0.000000D+00  0.000000D+00  0.000000D+00  0.000000D+00  0.000000D+00
    285   0.000000D+00  0.000000D+00  0.000000D+00  0.000000D+00  0.000000D+00
    286   0.000000D+00  0.000000D+00  0.000000D+00  0.000000D+00  0.000000D+00
    287   0.000000D+00  0.000000D+00  0.000000D+00  0.000000D+00  0.000000D+00
    288   0.000000D+00  0.000000D+00  0.000000D+00  0.000000D+00  0.000000D+00
    289   0.000000D+00  0.000000D+00  0.000000D+00  0.000000D+00  0.000000D+00
    290   0.000000D+00  0.000000D+00  0.000000D+00  0.000000D+00  0.000000D+00
    291   0.000000D+00  0.000000D+00  0.000000D+00  0.000000D+00  0.000000D+00
    292   0.000000D+00  0.000000D+00  0.000000D+00  0.000000D+00  0.000000D+00
    293   0.000000D+00  0.000000D+00  0.000000D+00  0.000000D+00  0.000000D+00
    294   0.000000D+00  0.000000D+00  0.000000D+00  0.000000D+00  0.000000D+00
    295   0.000000D+00  0.000000D+00  0.000000D+00  0.000000D+00  0.000000D+00
    296   0.000000D+00  0.000000D+00  0.000000D+00  0.000000D+00  0.000000D+00
    297   0.000000D+00  0.000000D+00  0.000000D+00  0.000000D+00  0.000000D+00
    298   0.000000D+00  0.000000D+00  0.000000D+00  0.000000D+00  0.000000D+00
    299   0.000000D+00  0.000000D+00  0.000000D+00  0.000000D+00  0.000000D+00
    300   0.000000D+00  0.000000D+00  0.000000D+00  0.000000D+00  0.000000D+00
    301   0.000000D+00  0.000000D+00  0.000000D+00  0.000000D+00  0.000000D+00
    302   0.000000D+00  0.000000D+00  0.000000D+00  0.000000D+00  0.000000D+00
    303   0.000000D+00  0.000000D+00  0.000000D+00  0.000000D+00  0.000000D+00
    304   0.000000D+00  0.000000D+00  0.000000D+00  0.000000D+00  0.000000D+00
    305   0.000000D+00  0.000000D+00  0.000000D+00  0.000000D+00  0.000000D+00
    306   0.000000D+00  0.000000D+00  0.000000D+00  0.000000D+00  0.000000D+00
    307   0.000000D+00  0.000000D+00  0.000000D+00  0.000000D+00  0.000000D+00
    308   0.000000D+00  0.000000D+00  0.000000D+00  0.000000D+00  0.000000D+00
    309   0.000000D+00  0.000000D+00  0.000000D+00  0.000000D+00  0.000000D+00
    310   0.000000D+00  0.000000D+00  0.000000D+00  0.000000D+00  0.000000D+00
    311   0.000000D+00  0.000000D+00  0.000000D+00  0.000000D+00  0.000000D+00
    312   0.000000D+00  0.000000D+00  0.000000D+00  0.000000D+00  0.000000D+00
    313   0.000000D+00  0.000000D+00  0.000000D+00  0.000000D+00  0.000000D+00
    314   0.000000D+00  0.000000D+00  0.000000D+00  0.000000D+00  0.000000D+00
    315   0.000000D+00  0.000000D+00  0.000000D+00  0.000000D+00  0.000000D+00
    316   0.000000D+00  0.000000D+00  0.000000D+00  0.000000D+00  0.000000D+00
    317   0.000000D+00  0.000000D+00  0.000000D+00  0.000000D+00  0.000000D+00
    318   0.000000D+00  0.000000D+00  0.000000D+00  0.000000D+00  0.000000D+00
    319   0.000000D+00  0.000000D+00  0.000000D+00  0.000000D+00  0.000000D+00
    320   0.000000D+00  0.000000D+00  0.000000D+00  0.000000D+00  0.000000D+00
    321   0.000000D+00  0.000000D+00  0.000000D+00  0.000000D+00  0.000000D+00
    322   0.000000D+00  0.000000D+00  0.000000D+00  0.000000D+00  0.000000D+00
    323   0.000000D+00  0.000000D+00  0.000000D+00  0.000000D+00  0.000000D+00
    324   0.000000D+00  0.000000D+00  0.000000D+00  0.000000D+00  0.000000D+00
    325   0.000000D+00  0.000000D+00  0.000000D+00  0.000000D+00  0.000000D+00
    326   0.000000D+00  0.000000D+00  0.000000D+00  0.000000D+00  0.000000D+00
    327   0.000000D+00  0.000000D+00  0.000000D+00  0.000000D+00  0.000000D+00
    328   0.000000D+00  0.000000D+00  0.000000D+00  0.000000D+00  0.000000D+00
    329   0.000000D+00  0.000000D+00  0.000000D+00  0.000000D+00  0.000000D+00
    330   0.000000D+00  0.000000D+00  0.000000D+00  0.000000D+00  0.000000D+00
    331   0.000000D+00  0.000000D+00  0.000000D+00  0.000000D+00  0.000000D+00
    332   0.000000D+00  0.000000D+00  0.000000D+00  0.000000D+00  0.000000D+00
    333   0.000000D+00  0.000000D+00  0.000000D+00  0.000000D+00  0.000000D+00
    334   0.000000D+00  0.000000D+00  0.000000D+00  0.000000D+00  0.000000D+00
    335   0.000000D+00  0.000000D+00  0.000000D+00  0.000000D+00  0.000000D+00
    336   0.000000D+00  0.000000D+00  0.000000D+00  0.000000D+00  0.000000D+00
    337   0.000000D+00  0.000000D+00  0.000000D+00  0.000000D+00  0.000000D+00
    338   0.000000D+00  0.000000D+00  0.000000D+00  0.000000D+00  0.000000D+00
    339   0.000000D+00  0.000000D+00  0.000000D+00  0.000000D+00  0.000000D+00
    340   0.000000D+00  0.000000D+00  0.000000D+00  0.000000D+00  0.000000D+00
    341   0.000000D+00  0.000000D+00  0.000000D+00  0.000000D+00  0.000000D+00
    342   0.000000D+00  0.000000D+00  0.000000D+00  0.000000D+00  0.000000D+00
    343   0.000000D+00  0.000000D+00  0.000000D+00  0.000000D+00  0.000000D+00
    344   0.000000D+00  0.000000D+00  0.000000D+00  0.000000D+00  0.000000D+00
    345   0.000000D+00  0.000000D+00  0.000000D+00  0.000000D+00  0.000000D+00
    346   0.000000D+00  0.000000D+00  0.000000D+00  0.000000D+00  0.000000D+00
    347   0.000000D+00  0.000000D+00  0.000000D+00  0.000000D+00  0.000000D+00
    348   0.000000D+00  0.000000D+00  0.000000D+00  0.000000D+00  0.000000D+00
    349   0.000000D+00  0.000000D+00  0.000000D+00  0.000000D+00  0.000000D+00
    350   0.000000D+00  0.000000D+00  0.000000D+00  0.000000D+00  0.000000D+00
    351   0.000000D+00  0.000000D+00  0.000000D+00  0.000000D+00  0.000000D+00
    352   0.000000D+00  0.000000D+00  0.000000D+00  0.000000D+00  0.000000D+00
    353   0.000000D+00  0.000000D+00  0.000000D+00  0.000000D+00  0.000000D+00
    354   0.000000D+00  0.000000D+00  0.000000D+00  0.000000D+00  0.000000D+00
    355   0.000000D+00  0.000000D+00  0.000000D+00  0.000000D+00  0.000000D+00
    356   0.000000D+00  0.000000D+00  0.000000D+00  0.000000D+00  0.000000D+00
    357   0.000000D+00  0.000000D+00  0.000000D+00  0.000000D+00  0.000000D+00
    358   0.000000D+00  0.000000D+00  0.000000D+00  0.000000D+00  0.000000D+00
    359   0.000000D+00  0.000000D+00  0.000000D+00  0.000000D+00  0.000000D+00
    360   0.000000D+00  0.000000D+00  0.000000D+00  0.000000D+00  0.000000D+00
    361   0.000000D+00  0.000000D+00  0.000000D+00  0.000000D+00  0.000000D+00
    362   0.000000D+00  0.000000D+00  0.000000D+00  0.000000D+00  0.000000D+00
    363   0.000000D+00  0.000000D+00  0.000000D+00  0.000000D+00  0.000000D+00
    364   0.000000D+00  0.000000D+00  0.000000D+00  0.000000D+00  0.000000D+00
    365   0.104011D-02  0.701522D-02  0.000000D+00  0.000000D+00 -0.257029D-02
    366   0.544653D-02  0.351057D-01  0.000000D+00  0.000000D+00 -0.290569D-02
    367   0.000000D+00  0.000000D+00  0.154016D-02  0.000000D+00  0.000000D+00
    368   0.000000D+00  0.000000D+00  0.000000D+00  0.154016D-02  0.000000D+00
    369   0.318127D-02  0.208967D-01  0.000000D+00  0.000000D+00 -0.580838D-02
    370   0.000000D+00  0.000000D+00  0.305804D-02  0.000000D+00  0.000000D+00
    371   0.000000D+00  0.000000D+00  0.000000D+00  0.305804D-02  0.000000D+00
    372   0.644635D-02  0.414038D-01  0.000000D+00  0.000000D+00  0.541430D-03
    373   0.000000D+00  0.000000D+00  0.000000D+00  0.000000D+00  0.000000D+00
    374   0.000000D+00  0.000000D+00  0.000000D+00  0.000000D+00  0.000000D+00
    375   0.216231D-05  0.354858D-04  0.000000D+00  0.000000D+00 -0.467770D-04
    376   0.227840D-03  0.182602D-02  0.000000D+00  0.000000D+00 -0.136467D-02
    377   0.196183D-02  0.131800D-01  0.000000D+00  0.000000D+00 -0.524895D-02
    378   0.462258D-02  0.299207D-01  0.000000D+00  0.000000D+00 -0.618698D-02
    379   0.000000D+00  0.000000D+00  0.000000D+00  0.000000D+00  0.000000D+00
    380   0.000000D+00  0.000000D+00  0.000000D+00  0.000000D+00  0.000000D+00
    381   0.000000D+00  0.000000D+00  0.000000D+00  0.000000D+00  0.000000D+00
    382   0.000000D+00  0.000000D+00  0.000000D+00  0.000000D+00  0.000000D+00
    383   0.000000D+00  0.000000D+00  0.000000D+00  0.000000D+00  0.000000D+00
    384   0.000000D+00  0.000000D+00  0.000000D+00  0.000000D+00  0.000000D+00
    385   0.000000D+00  0.000000D+00  0.908651D-05  0.000000D+00  0.000000D+00
    386   0.000000D+00  0.000000D+00  0.000000D+00  0.908651D-05  0.000000D+00
    387   0.798089D-05  0.131176D-03  0.000000D+00  0.000000D+00 -0.173091D-03
    388   0.000000D+00  0.000000D+00  0.713238D-03  0.000000D+00  0.000000D+00
    389   0.000000D+00  0.000000D+00  0.000000D+00  0.713238D-03  0.000000D+00
    390   0.132105D-02  0.977935D-02  0.000000D+00  0.000000D+00 -0.627461D-02
    391   0.000000D+00  0.000000D+00  0.388041D-02  0.000000D+00  0.000000D+00
    392   0.000000D+00  0.000000D+00  0.000000D+00  0.388041D-02  0.000000D+00
    393   0.814558D-02  0.525603D-01  0.000000D+00  0.000000D+00 -0.139475D-01
    394   0.000000D+00  0.000000D+00  0.517201D-02  0.000000D+00  0.000000D+00
    395   0.000000D+00  0.000000D+00  0.000000D+00  0.517201D-02  0.000000D+00
    396   0.109725D-01  0.699785D-01  0.000000D+00  0.000000D+00 -0.578976D-02
    397   0.000000D+00  0.000000D+00  0.000000D+00  0.000000D+00  0.000000D+00
    398   0.000000D+00  0.000000D+00  0.000000D+00  0.000000D+00  0.000000D+00
    399   0.000000D+00  0.000000D+00  0.000000D+00  0.000000D+00  0.000000D+00
    400   0.000000D+00  0.000000D+00  0.000000D+00  0.000000D+00  0.000000D+00
    401   0.000000D+00  0.000000D+00  0.000000D+00  0.000000D+00  0.000000D+00
    402   0.000000D+00  0.000000D+00  0.000000D+00  0.000000D+00  0.000000D+00
    403   0.000000D+00  0.000000D+00  0.000000D+00  0.000000D+00  0.000000D+00
    404   0.000000D+00  0.000000D+00  0.000000D+00  0.000000D+00  0.000000D+00
    405   0.000000D+00  0.000000D+00  0.000000D+00  0.000000D+00  0.000000D+00
    406   0.000000D+00  0.000000D+00  0.000000D+00  0.000000D+00  0.000000D+00
    407   0.000000D+00  0.000000D+00  0.000000D+00  0.000000D+00  0.000000D+00
    408   0.000000D+00  0.000000D+00  0.000000D+00  0.000000D+00  0.000000D+00
    409   0.000000D+00  0.000000D+00  0.000000D+00  0.000000D+00  0.000000D+00
    410   0.000000D+00  0.000000D+00  0.000000D+00  0.000000D+00  0.000000D+00
    411   0.000000D+00  0.000000D+00  0.000000D+00  0.000000D+00  0.000000D+00
    412   0.249208D-04  0.379886D-03  0.000000D+00  0.000000D+00 -0.487569D-03
    413   0.000000D+00  0.000000D+00  0.457568D-04  0.000000D+00  0.000000D+00
    414   0.000000D+00  0.000000D+00  0.000000D+00  0.457568D-04  0.000000D+00
    415   0.000000D+00  0.000000D+00  0.000000D+00  0.000000D+00  0.000000D+00
    416   0.000000D+00  0.000000D+00  0.000000D+00  0.000000D+00  0.000000D+00
    417   0.221124D-02  0.162580D-01  0.000000D+00  0.000000D+00 -0.106485D-01
    418   0.000000D+00  0.000000D+00  0.205512D-02  0.000000D+00  0.000000D+00
    419   0.000000D+00  0.000000D+00  0.000000D+00  0.205512D-02  0.000000D+00
    420   0.000000D+00  0.000000D+00  0.000000D+00  0.000000D+00  0.000000D+00
    421   0.000000D+00  0.000000D+00  0.000000D+00  0.000000D+00  0.000000D+00
    422   0.118859D-01  0.755839D-01  0.000000D+00  0.000000D+00 -0.205764D-01
    423   0.000000D+00  0.000000D+00  0.967867D-02  0.000000D+00  0.000000D+00
    424   0.000000D+00  0.000000D+00  0.000000D+00  0.967867D-02  0.000000D+00
    425   0.000000D+00  0.000000D+00  0.000000D+00  0.000000D+00  0.000000D+00
    426   0.000000D+00  0.000000D+00  0.000000D+00  0.000000D+00  0.000000D+00
    427   0.152882D-01  0.960221D-01  0.000000D+00  0.000000D+00 -0.637537D-02
    428   0.000000D+00  0.000000D+00  0.123101D-01  0.000000D+00  0.000000D+00
    429   0.000000D+00  0.000000D+00  0.000000D+00  0.123101D-01  0.000000D+00
    430   0.000000D+00  0.000000D+00  0.000000D+00  0.000000D+00  0.000000D+00
    431   0.000000D+00  0.000000D+00  0.000000D+00  0.000000D+00  0.000000D+00
    432   0.000000D+00  0.000000D+00  0.000000D+00  0.000000D+00  0.000000D+00
    433   0.000000D+00  0.000000D+00  0.000000D+00  0.000000D+00  0.000000D+00
    434   0.000000D+00  0.000000D+00  0.000000D+00  0.000000D+00  0.000000D+00
    435   0.000000D+00  0.000000D+00  0.000000D+00  0.000000D+00  0.000000D+00
    436   0.000000D+00  0.000000D+00  0.000000D+00  0.000000D+00  0.000000D+00
    437   0.000000D+00  0.000000D+00  0.000000D+00  0.000000D+00  0.000000D+00
    438   0.000000D+00  0.000000D+00  0.000000D+00  0.000000D+00  0.000000D+00
    439   0.000000D+00  0.000000D+00  0.000000D+00  0.000000D+00  0.000000D+00
    440   0.000000D+00  0.000000D+00  0.000000D+00  0.000000D+00  0.000000D+00
    441   0.000000D+00  0.000000D+00  0.000000D+00  0.000000D+00  0.000000D+00
    442   0.000000D+00  0.000000D+00  0.000000D+00  0.000000D+00  0.000000D+00
    443   0.000000D+00  0.000000D+00  0.000000D+00  0.000000D+00  0.000000D+00
    444   0.000000D+00  0.000000D+00  0.000000D+00  0.000000D+00  0.000000D+00
    445   0.000000D+00  0.000000D+00  0.000000D+00  0.000000D+00  0.000000D+00
    446   0.000000D+00  0.289214D-04  0.000000D+00  0.000000D+00 -0.497137D-04
    447   0.000000D+00  0.000000D+00  0.474109D-05  0.000000D+00  0.000000D+00
    448   0.000000D+00  0.000000D+00  0.000000D+00  0.474109D-05  0.000000D+00
    449   0.000000D+00  0.000000D+00  0.000000D+00  0.000000D+00  0.000000D+00
    450   0.000000D+00  0.000000D+00  0.000000D+00  0.000000D+00  0.000000D+00
    451   0.000000D+00  0.000000D+00  0.000000D+00  0.000000D+00  0.000000D+00
    452   0.000000D+00  0.000000D+00  0.000000D+00  0.000000D+00  0.000000D+00
    453   0.607244D-03  0.556828D-02  0.000000D+00  0.000000D+00 -0.525048D-02
    454   0.000000D+00  0.000000D+00  0.978505D-03  0.000000D+00  0.000000D+00
    455   0.000000D+00  0.000000D+00  0.000000D+00  0.978505D-03  0.000000D+00
    456   0.000000D+00  0.000000D+00  0.000000D+00  0.000000D+00  0.000000D+00
    457   0.000000D+00  0.000000D+00  0.000000D+00  0.000000D+00  0.000000D+00
    458   0.000000D+00  0.000000D+00  0.000000D+00  0.000000D+00  0.000000D+00
    459   0.000000D+00  0.000000D+00  0.000000D+00  0.000000D+00  0.000000D+00
    460   0.996070D-02  0.641598D-01  0.000000D+00  0.000000D+00 -0.264721D-01
    461   0.000000D+00  0.000000D+00  0.116057D-01  0.000000D+00  0.000000D+00
    462   0.000000D+00  0.000000D+00  0.000000D+00  0.116057D-01  0.000000D+00
    463   0.000000D+00  0.000000D+00  0.000000D+00  0.000000D+00  0.000000D+00
    464   0.000000D+00  0.000000D+00  0.000000D+00  0.000000D+00  0.000000D+00
    465   0.000000D+00  0.000000D+00  0.000000D+00  0.000000D+00  0.000000D+00
    466   0.000000D+00  0.000000D+00  0.000000D+00  0.000000D+00  0.000000D+00
    467   0.197459D-01  0.121323D+00  0.000000D+00  0.000000D+00 -0.131206D-01
    468   0.000000D+00  0.000000D+00  0.220431D-01  0.000000D+00  0.000000D+00
    469   0.000000D+00  0.000000D+00  0.000000D+00  0.220431D-01  0.000000D+00
    470   0.000000D+00  0.000000D+00  0.000000D+00  0.000000D+00  0.000000D+00
    471   0.000000D+00  0.000000D+00  0.000000D+00  0.000000D+00  0.000000D+00
    472   0.000000D+00  0.000000D+00  0.000000D+00  0.000000D+00  0.000000D+00
    473   0.000000D+00  0.000000D+00  0.000000D+00  0.000000D+00  0.000000D+00
    474   0.000000D+00  0.000000D+00  0.000000D+00  0.000000D+00  0.000000D+00
[...]
                                                  ----------
                         Total pair energies =    -0.486525 A.U.

                         Single Excitations  =    -0.005881 A.U.

                          Total second order =    -0.492406 A.U.

                         E2(CBS) - E2(Dir) =      -0.003565 A.U.

 E2(CBS)=      -0.493968 CBS-Int=       0.001562 OIii=       1.584185

 **********************************************************************

            Population analysis using the SCF density.

 **********************************************************************

 Orbital symmetries:
       Occupied  (SG) (SG) (SG) (PI) (PI) (SG) (SG) (SG) (PI) (PI)
                 (SG) (SG) (PI) (PI) (DLTA) (DLTA) (SG) (PI) (PI)
       Virtual   (SG) (SG) (PI) (PI) (SG) (SG) (DLTA) (DLTA) (PI)
                 (PI) (SG) (PI) (PI) (SG) (SG) (DLTA) (DLTA) (PI)
                 (PI) (SG) (PI) (PI) (SG) (PI) (PI) (SG) (SG) (DLTA)
                 (DLTA) (PI) (PI) (PHI) (PHI) (SG) (PI) (PI) (DLTA)
                 (DLTA) (SG) (DLTA) (DLTA) (PI) (PI) (SG) (SG)
                 (PI) (PI) (SG) (PI) (PI) (SG) (PHI) (PHI) (?A)
                 (?A) (DLTA) (DLTA) (SG) (PI) (PI) (SG) (DLTA)
                 (DLTA) (PHI) (PHI) (PI) (PI) (PHI) (PHI) (DLTA)
                 (DLTA) (PI) (PI) (SG) (SG) (DLTA) (DLTA) (PI)
                 (PI) (SG) (PI) (PI) (SG) (PI) (PI) (DLTA) (DLTA)
                 (?A) (?A) (?B) (?B) (SG) (PHI) (PHI) (SG) (DLTA)
                 (DLTA) (PI) (PI) (?A) (?A) (SG) (PHI) (PHI) (PI)
                 (PI) (SG) (DLTA) (DLTA) (PI) (PI) (SG) (PHI) (PHI)
                 (?A) (?A) (DLTA) (DLTA) (SG) (SG) (PI) (PI) (PHI)
                 (PHI) (DLTA) (DLTA) (PHI) (PHI) (PI) (PI) (PI)
                 (PI) (DLTA) (DLTA) (?B) (?B) (SG) (SG) (SG) (SG)
                 (PI) (PI) (?A) (?A) (DLTA) (DLTA) (SG) (?B) (?B)
                 (SG) (PI) (PI) (DLTA) (DLTA) (PI) (PI) (PHI) (PHI)
                 (SG) (DLTA) (DLTA) (PHI) (PHI) (?A) (?A) (PI)
                 (PI) (SG) (PI) (PI) (DLTA) (DLTA) (?A) (?A) (SG)
                 (?B) (?B) (PI) (PI) (PHI) (PHI) (SG) (DLTA) (DLTA)
                 (?A) (?A) (PI) (PI) (SG) (SG) (PHI) (PHI) (SG)
                 (SG) (?B) (?B) (PHI) (PHI) (PI) (PI) (DLTA) (DLTA)
                 (SG) (DLTA) (DLTA) (PI) (PI) (?A) (?A) (?C) (?C)
                 (SG) (PI) (PI) (DLTA) (DLTA) (?A) (?A) (SG) (SG)
                 (PHI) (PHI) (SG) (DLTA) (DLTA) (PHI) (PHI) (SG)
                 (PI) (PI) (?B) (?B) (SG) (DLTA) (DLTA) (PHI) (PHI)
                 (PI) (PI) (SG) (PI) (PI) (?A) (?A) (PHI) (PHI)
                 (SG) (DLTA) (DLTA) (PI) (PI) (SG) (DLTA) (DLTA)
                 (PI) (PI) (?B) (?B) (?A) (?A) (SG) (DLTA) (DLTA)
                 (DLTA) (DLTA) (PHI) (PHI) (PI) (PI) (SG) (SG)
                 (SG) (?B) (?B) (PI) (PI) (?A) (?A) (PI) (PI) (PHI)
                 (PHI) (SG) (?A) (?A) (DLTA) (DLTA) (PHI) (PHI)
                 (SG) (PI) (PI) (PHI) (PHI) (DLTA) (DLTA) (SG)
                 (PI) (PI) (?B) (?B) (SG) (?A) (?A) (SG) (DLTA)
                 (DLTA) (DLTA) (DLTA) (PI) (PI) (SG) (PHI) (PHI)
                 (PI) (PI) (SG) (DLTA) (DLTA) (PI) (PI) (SG) (?A)
                 (?A) (PHI) (PHI) (PI) (PI) (SG) (DLTA) (DLTA)
                 (SG) (PHI) (PHI) (PI) (PI) (SG) (SG) (?B) (?B)
                 (?A) (?A) (DLTA) (DLTA) (SG) (PHI) (PHI) (DLTA)
                 (DLTA) (PI) (PI) (PI) (PI) (SG) (SG) (?C) (?C)
                 (SG) (SG) (?B) (?B) (?A) (?A) (PHI) (PHI) (DLTA)
                 (DLTA) (PI) (PI) (?B) (?B) (SG) (?A) (?A) (PHI)
                 (PHI) (DLTA) (DLTA) (PI) (PI) (SG) (DLTA) (DLTA)
                 (PI) (PI) (PI) (PI) (SG) (?A) (?A) (PHI) (PHI)
                 (PHI) (PHI) (DLTA) (DLTA) (SG) (PI) (PI) (SG)
                 (SG) (?B) (?B) (?A) (?A) (DLTA) (DLTA) (SG) (PHI)
                 (PHI) (SG) (PI) (PI) (DLTA) (DLTA) (PI) (PI) (DLTA)
                 (DLTA) (SG) (PI) (PI) (SG) (?B) (?B) (?A) (?A)
                 (PHI) (PHI) (DLTA) (DLTA) (PI) (PI) (SG) (?B)
                 (?B) (SG) (SG) (?C) (?C) (?A) (?A) (PHI) (PHI)
                 (SG) (DLTA) (DLTA) (PI) (PI) (PI) (PI) (?A) (?A)
                 (SG) (PHI) (PHI) (SG) (DLTA) (DLTA) (PI) (PI)
                 (SG) (PHI) (PHI) (DLTA) (DLTA) (PI) (PI) (SG)
                 (SG) (DLTA) (DLTA) (SG) (SG) (PHI) (PHI) (?B)
                 (?B) (PI) (PI) (?A) (?A) (SG) (?D) (?D) (?C) (?C)
                 (SG) (SG) (?B) (?B) (?A) (?A) (PHI) (PHI) (DLTA)
                 (DLTA) (PI) (PI) (SG) (?B) (?B) (?A) (?A) (PHI)
                 (PHI) (DLTA) (DLTA) (PI) (PI) (SG) (PHI) (PHI)
                 (DLTA) (DLTA) (PI) (PI) (SG) (?A) (?A) (PHI) (PHI)
                 (DLTA) (DLTA) (PI) (PI) (SG) (?C) (?C) (SG) (SG)
                 (?B) (?B) (?A) (?A) (PHI) (PHI) (DLTA) (DLTA)
                 (SG) (PI) (PI) (DLTA) (DLTA) (DLTA) (DLTA) (PI)
                 (PI) (PI) (PI) (SG) (SG) (SG) (SG) (?B) (?B) (?A)
                 (?A) (PHI) (PHI) (SG) (DLTA) (DLTA) (PI) (PI)
                 (PI) (PI) (SG) (?B) (?B) (?A) (?A) (PHI) (PHI)
                 (DLTA) (DLTA) (PI) (PI) (SG) (?A) (?A) (PHI) (PHI)
                 (DLTA) (DLTA) (PI) (PI) (SG) (PHI) (PHI) (DLTA)
                 (DLTA) (PI) (PI) (SG) (SG) (SG)
 The electronic state is 6-SG.
 Alpha  occ. eigenvalues -- -240.53502 -29.17584 -24.88090 -24.88090 -24.87363
 Alpha  occ. eigenvalues --  -20.42257  -4.00598  -2.71436  -2.71436  -2.70808
 Alpha  occ. eigenvalues --   -1.11213  -0.64550  -0.64550  -0.63415  -0.63415
 Alpha  occ. eigenvalues --   -0.58783  -0.34052  -0.34052  -0.33556
 Alpha virt. eigenvalues --   -0.04038   0.00982   0.02630   0.02630   0.03831
 Alpha virt. eigenvalues --    0.05185   0.05556   0.05556   0.06173   0.06173
 Alpha virt. eigenvalues --    0.08337   0.12444   0.12444   0.15378   0.16920
 Alpha virt. eigenvalues --    0.18876   0.18876   0.19544   0.19544   0.20769
 Alpha virt. eigenvalues --    0.21199   0.21199   0.24600   0.33052   0.33052
 Alpha virt. eigenvalues --    0.33691   0.39585   0.44494   0.44494   0.45078
 Alpha virt. eigenvalues --    0.45078   0.45233   0.45233   0.47421   0.52488
 Alpha virt. eigenvalues --    0.52488   0.52645   0.52645   0.55286   0.60408
 Alpha virt. eigenvalues --    0.60408   0.60810   0.60810   0.63528   0.66261
 Alpha virt. eigenvalues --    0.70999   0.70999   0.75174   0.79374   0.79374
 Alpha virt. eigenvalues --    0.87555   0.91493   0.91493   0.93515   0.93515
 Alpha virt. eigenvalues --    0.99720   0.99720   1.01665   1.03465   1.03465
 Alpha virt. eigenvalues --    1.06670   1.10298   1.10298   1.13252   1.13252
 Alpha virt. eigenvalues --    1.16874   1.16874   1.21942   1.21942   1.27369
 Alpha virt. eigenvalues --    1.27369   1.27652   1.27652   1.29767   1.31965
 Alpha virt. eigenvalues --    1.33056   1.33056   1.39619   1.39619   1.45119
 Alpha virt. eigenvalues --    1.46854   1.46854   1.51874   1.57594   1.57594
 Alpha virt. eigenvalues --    1.58985   1.58985   1.65924   1.65924   1.69439
 Alpha virt. eigenvalues --    1.69439   1.71712   1.80894   1.80894   1.85056
 Alpha virt. eigenvalues --    1.90987   1.90987   1.93858   1.93858   2.00740
 Alpha virt. eigenvalues --    2.00740   2.00872   2.13417   2.13417   2.14748
 Alpha virt. eigenvalues --    2.14748   2.19591   2.27702   2.27702   2.28761
 Alpha virt. eigenvalues --    2.28761   2.40170   2.42560   2.42560   2.43167
 Alpha virt. eigenvalues --    2.43167   2.46329   2.46329   2.52233   2.54989
 Alpha virt. eigenvalues --    2.57283   2.57283   2.63975   2.63975   2.69530
 Alpha virt. eigenvalues --    2.69530   2.74266   2.74266   2.76105   2.76105
 Alpha virt. eigenvalues --    2.81033   2.81033   2.86855   2.86855   2.94582
 Alpha virt. eigenvalues --    2.95409   2.95409   3.08172   3.08419   3.08419
 Alpha virt. eigenvalues --    3.10870   3.10870   3.13258   3.13258   3.14089
 Alpha virt. eigenvalues --    3.14089   3.28394   3.33542   3.33542   3.38026
 Alpha virt. eigenvalues --    3.42566   3.42566   3.46902   3.46902   3.51935
 Alpha virt. eigenvalues --    3.51935   3.57345   3.57345   3.59682   3.62704
 Alpha virt. eigenvalues --    3.62704   3.72840   3.72840   3.75191   3.75191
 Alpha virt. eigenvalues --    3.84164   3.84164   3.97612   4.12381   4.12381
 Alpha virt. eigenvalues --    4.19089   4.19089   4.32982   4.32982   4.34006
 Alpha virt. eigenvalues --    4.41363   4.41363   4.41718   4.41718   4.51602
 Alpha virt. eigenvalues --    4.51602   4.53516   4.54882   4.54882   4.58638
 Alpha virt. eigenvalues --    4.58638   4.78267   4.78267   4.80311   4.92248
 Alpha virt. eigenvalues --    4.97340   4.97340   5.02108   5.02108   5.11279
 Alpha virt. eigenvalues --    5.11279   5.12442   5.12442   5.14931   5.14931
 Alpha virt. eigenvalues --    5.17204   5.17204   5.18289   5.39013   5.39013
 Alpha virt. eigenvalues --    5.49278   5.49278   5.50817   5.50817   5.59090
 Alpha virt. eigenvalues --    5.59090   5.60144   5.62747   5.62747   5.64220
 Alpha virt. eigenvalues --    5.64220   5.65909   5.65909   5.67428   5.67428
 Alpha virt. eigenvalues --    5.68777   5.68777   5.72311   5.80986   5.80986
 Alpha virt. eigenvalues --    5.81875   5.81875   6.00370   6.07008   6.07008
 Alpha virt. eigenvalues --    6.10933   6.10933   6.19654   6.53405   6.53405
 Alpha virt. eigenvalues --    6.56676   6.56676   6.58014   6.58014   6.65048
 Alpha virt. eigenvalues --    6.73637   6.73637   6.74150   6.74150   6.74551
 Alpha virt. eigenvalues --    6.74551   6.80116   6.82050   6.82050   7.01919
 Alpha virt. eigenvalues --    7.01919   7.22652   7.25587   7.25587   7.28954
 Alpha virt. eigenvalues --    7.28954   7.67405   7.67405   7.79054   7.79054
 Alpha virt. eigenvalues --    7.79933   7.81627   7.81627   7.97146   7.97146
 Alpha virt. eigenvalues --    8.00356   8.00356   8.20523   8.20523   8.24649
 Alpha virt. eigenvalues --    8.27206   8.27206   8.31291   8.31291   8.38565
 Alpha virt. eigenvalues --    8.38565   8.51617   8.51617   8.69927   8.69927
 Alpha virt. eigenvalues --    9.12575   9.12575   9.22906   9.60775   9.60775
 Alpha virt. eigenvalues --    9.74790   9.74790   9.81851   9.82548   9.82548
 Alpha virt. eigenvalues --   10.02390  10.02390  10.21713  10.21713  10.25833
 Alpha virt. eigenvalues --   10.25833  10.26703  10.36477  10.36477  10.39582
 Alpha virt. eigenvalues --   10.39582  10.46465  10.52087  10.52087  10.73833
 Alpha virt. eigenvalues --   10.86021  10.86021  10.98058  10.98058  11.03650
 Alpha virt. eigenvalues --   11.03650  11.12500  11.21550  11.21550  11.28971
 Alpha virt. eigenvalues --   11.28971  11.47020  11.49349  11.49349  11.69844
 Alpha virt. eigenvalues --   11.69844  11.84749  11.98207  11.98207  12.22643
 Alpha virt. eigenvalues --   12.22643  12.40111  12.40111  12.54060  12.63809
 Alpha virt. eigenvalues --   12.63809  12.68400  12.80784  12.80784  13.15428
 Alpha virt. eigenvalues --   13.15428  13.43511  13.43511  13.49968  13.49968
 Alpha virt. eigenvalues --   13.61796  13.61796  13.62165  13.62165  13.71111
 Alpha virt. eigenvalues --   13.74825  13.74825  14.08380  14.08380  14.28694
 Alpha virt. eigenvalues --   14.28694  14.92963  14.92963  15.07374  15.87839
 Alpha virt. eigenvalues --   16.08757  16.08757  16.09987  16.09987  16.16895
 Alpha virt. eigenvalues --   16.16895  16.32171  16.32171  16.38520  16.38520
 Alpha virt. eigenvalues --   16.82490  16.82490  17.13769  17.13769  17.21908
 Alpha virt. eigenvalues --   17.21908  17.23329  17.32726  17.32726  17.58893
 Alpha virt. eigenvalues --   17.58893  17.74340  17.74340  17.94503  17.94503
 Alpha virt. eigenvalues --   18.07604  18.13616  18.13616  18.45583  18.45583
 Alpha virt. eigenvalues --   19.32845  19.32845  19.81622  19.97207  19.97207
 Alpha virt. eigenvalues --   20.11510  20.11510  20.29683  20.29683  20.36636
 Alpha virt. eigenvalues --   20.36636  20.45042  20.53143  20.53143  20.61010
 Alpha virt. eigenvalues --   20.61010  20.62461  20.62461  20.68797  20.68797
 Alpha virt. eigenvalues --   20.78421  20.78421  20.86803  20.91440  20.91440
 Alpha virt. eigenvalues --   21.20424  21.37938  21.37938  21.47444  21.47444
 Alpha virt. eigenvalues --   22.24869  22.24869  22.34174  22.34174  22.46370
 Alpha virt. eigenvalues --   23.26367  23.26367  23.49179  23.86778  23.86778
 Alpha virt. eigenvalues --   23.92307  23.92307  24.25874  24.25874  24.40065
 Alpha virt. eigenvalues --   24.40065  24.46497  24.46497  24.92501  25.43606
 Alpha virt. eigenvalues --   25.43606  25.43963  25.43963  25.45128  25.45128
 Alpha virt. eigenvalues --   25.47526  25.47526  25.62918  25.62918  25.76884
 Alpha virt. eigenvalues --   25.76884  25.76949  25.85532  25.85532  26.14203
 Alpha virt. eigenvalues --   26.14203  26.22460  26.22460  26.29115  26.38424
 Alpha virt. eigenvalues --   26.38424  26.70689  26.89698  26.89698  28.11670
 Alpha virt. eigenvalues --   28.11670  28.88251  29.00190  29.00190  29.59321
 Alpha virt. eigenvalues --   29.59321  30.24854  30.24854  30.54247  33.06108
 Alpha virt. eigenvalues --   34.03322  34.03322  34.06464  34.06464  34.07827
 Alpha virt. eigenvalues --   34.07827  34.09126  34.09126  34.12343  34.12343
 Alpha virt. eigenvalues --   34.14231  34.14231  34.14744  34.17266  34.17266
 Alpha virt. eigenvalues --   34.17604  34.17604  34.17859  34.17859  34.18085
 Alpha virt. eigenvalues --   34.18085  34.19201  34.19201  34.35099  34.35099
 Alpha virt. eigenvalues --   34.73264  34.73264  35.04384  35.04384  35.19674
 Alpha virt. eigenvalues --   39.03982  39.03982  39.10406  39.10406  39.25923
 Alpha virt. eigenvalues --   39.25923  39.50931  39.50931  39.60023  39.60023
 Alpha virt. eigenvalues --   39.63986  41.73914  41.73914  42.12065  42.12065
 Alpha virt. eigenvalues --   42.52273  42.52273  42.56002  42.90406  42.90406
 Alpha virt. eigenvalues --   43.03242  43.03242  43.30231  43.30231  43.82003
 Alpha virt. eigenvalues --   43.82003  43.97885  44.56880  44.56880  44.57324
 Alpha virt. eigenvalues --   44.57324  44.59267  44.59267  44.63830  44.63830
 Alpha virt. eigenvalues --   44.65557  44.65557  44.77636  44.77636  44.90403
 Alpha virt. eigenvalues --   45.09330  45.09330  46.26991  46.26991  46.85639
 Alpha virt. eigenvalues --   46.85639  47.00042  47.00042  47.32005  47.32005
 Alpha virt. eigenvalues --   47.59419  48.74129  51.55927  51.55927  51.56608
 Alpha virt. eigenvalues --   51.56608  51.59213  51.59213  51.68999  51.68999
 Alpha virt. eigenvalues --   51.86172  51.88211  51.88211  51.97788  51.97788
 Alpha virt. eigenvalues --   52.90355  52.90355  55.43946  56.39290  56.39290
 Alpha virt. eigenvalues --   56.42412  56.42412  56.61681  56.61681  56.70980
 Alpha virt. eigenvalues --   56.70980  56.89846  56.89846  57.13177  59.94078
 Alpha virt. eigenvalues --   59.94078  60.04190  60.04190  60.27744  60.27744
 Alpha virt. eigenvalues --   60.88174  60.88174  61.10664  68.43068  68.43068
 Alpha virt. eigenvalues --   68.81369  68.81369  69.29309  69.29309  69.67159
 Alpha virt. eigenvalues --  108.29145 606.87374
          Condensed to atoms (all electrons):
              1          2
     1  Mn  23.550255   0.293562
     2  O    0.293562   8.862620
 Mulliken atomic charges:
              1
     1  Mn   1.156182
     2  O   -1.156182
 Sum of Mulliken atomic charges =   0.00000
 Mulliken charges with hydrogens summed into heavy atoms:
              1
     1  Mn   1.156182
     2  O   -1.156182
 Sum of Mulliken charges with hydrogens summed into heavy atoms =   0.00000
          Atomic-Atomic Spin Densities.
              1          2
     1  Mn   4.925959  -0.039715
     2  O   -0.039715   0.153470
 Mulliken atomic spin densities:
              1
     1  Mn   4.886245
     2  O    0.113755
 Sum of Mulliken atomic spin densities =   5.00000
 Electronic spatial extent (au):  <R**2>=            104.8731
 Charge=              0.0000 electrons
 Dipole moment (field-independent basis, Debye):
    X=              0.0000    Y=              0.0000    Z=              8.8783  Tot=              8.8783
 Quadrupole moment (field-independent basis, Debye-Ang):
   XX=            -19.1017   YY=            -19.1017   ZZ=            -23.7936
   XY=              0.0000   XZ=              0.0000   YZ=              0.0000
 Traceless Quadrupole moment (field-independent basis, Debye-Ang):
   XX=              1.5640   YY=              1.5640   ZZ=             -3.1279
   XY=              0.0000   XZ=              0.0000   YZ=              0.0000
 Octapole moment (field-independent basis, Debye-Ang**2):
  XXX=              0.0000  YYY=              0.0000  ZZZ=             24.2284  XYY=              0.0000
  XXY=              0.0000  XXZ=              5.7932  XZZ=              0.0000  YZZ=              0.0000
  YYZ=              5.7932  XYZ=              0.0000
 Hexadecapole moment (field-independent basis, Debye-Ang**3):
 XXXX=            -22.4491 YYYY=            -22.4491 ZZZZ=           -102.0885 XXXY=              0.0000
 XXXZ=              0.0000 YYYX=              0.0000 YYYZ=              0.0000 ZZZX=              0.0000
 ZZZY=              0.0000 XXYY=             -7.4830 XXZZ=            -20.0423 YYZZ=            -20.0423
 XXYZ=              0.0000 YYXZ=              0.0000 ZZXY=              0.0000
 N-N= 6.422053502306D+01 E-N=-4.489149612307D+03  KE= 1.821804682374D+03
                          Isotropic Fermi Contact Couplings
        Atom                 a.u.       MegaHertz       Gauss      10(-4) cm-1
     1  Mn(55)             1.30013     287.41955     102.55844      95.87284
     2  O(17)              0.00760      -0.92186      -0.32894      -0.30750
 --------------------------------------------------------
       Center         ----  Spin Dipole Couplings  ----
                      3XX-RR        3YY-RR        3ZZ-RR
 --------------------------------------------------------
     1   Atom        0.343097      0.343097     -0.686193
     2   Atom       -0.075707     -0.075707      0.151414
 --------------------------------------------------------
                        XY            XZ            YZ
 --------------------------------------------------------
     1   Atom        0.000000      0.000000      0.000000
     2   Atom        0.000000      0.000000      0.000000
 --------------------------------------------------------


 ---------------------------------------------------------------------------------
              Anisotropic Spin Dipole Couplings in Principal Axis System
 ---------------------------------------------------------------------------------

       Atom             a.u.   MegaHertz   Gauss  10(-4) cm-1        Axes

              Baa    -0.6862   -90.538   -32.306   -30.200  0.0000  0.0000  1.0000
     1 Mn(55) Bbb     0.3431    45.269    16.153    15.100  0.0000  1.0000  0.0000
              Bcc     0.3431    45.269    16.153    15.100  1.0000  0.0000  0.0000
 
              Baa    -0.0757     5.478     1.955     1.827  1.0000  0.0000  0.0000
     2 O(17)  Bbb    -0.0757     5.478     1.955     1.827  0.0000  1.0000  0.0000
              Bcc     0.1514   -10.956    -3.909    -3.655  0.0000  0.0000  1.0000
 

 ---------------------------------------------------------------------------------


 Test job not archived.
 1\1\GINC-N37\SP\ROMP2-FC\Gen\Mn1O1(6)\GPETERSSON\02-Dec-2013\0\\# ROMP
 2 Gen GFinput Int=NoBasisTransform Int(Grid=Ultrafine) IOp(3/32=2,5/6=
 10,8/11=1,9/33=1) Maxdisk=128GB CBSextrapolate(Nmin=25,MinPop) SCF=Sym
 m Guess=Read\\MnO 6Sg+\\0,6\Mn\O,1,1.648\\Version=EM64L-G09RevA.02\Sta
 te=6-SG\HF=-1224.648358\MP2=-1225.1387609\E2(CBS)=-0.4939677\CBS-Int=-
 0.492406\OIii=1.584185\RMSD=3.214e-11\PG=C*V [C*(O1Mn1)]\\@


 IF IT HAPPENS, IT MUST BE POSSIBLE.

 -- THE UNNAMED LAW FROM PAUL DICKSON'S 
    "THE OFFICIAL RULES"
 Job cpu time: 10 days  7 hours  0 minutes 26.6 seconds.
 File lengths (MBytes):  RWF=  69481 Int=      0 D2E=      0 Chk=     30 Scr=      1
 Normal termination of Gaussian 09 at Mon Dec  2 07:19:14 2013.
