 Entering Gaussian System, Link 0=gdv
 Initial command:
 /share/apps/gaussian/gdvh12/gdv/l1.exe /localscratch/68475/Gau-14686.inp -scrdir=/localscratch/68475/
 Entering Link 1 = /share/apps/gaussian/gdvh12/gdv/l1.exe PID=     14687.
  
 Copyright (c) 1988,1990,1992,1993,1995,1998,2003,2009,2011,
            Gaussian, Inc.  All Rights Reserved.
  
 This is the private, development version of
 the Gaussian(R) DV system of programs. It is based on
 the Gaussian(R) 09 system (copyright 2009, Gaussian, Inc.),
 the Gaussian(R) 03 system (copyright 2003, Gaussian, Inc.),
 the Gaussian(R) 98 system (copyright 1998, Gaussian, Inc.),
 the Gaussian(R) 94 system (copyright 1995, Gaussian, Inc.),
 the Gaussian 92(TM) system (copyright 1992, Gaussian, Inc.),
 the Gaussian 90(TM) system (copyright 1990, Gaussian, Inc.),
 the Gaussian 88(TM) system (copyright 1988, Gaussian, Inc.),
 the Gaussian 86(TM) system (copyright 1986, Carnegie Mellon
 University), and the Gaussian 82(TM) system (copyright 1983,
 Carnegie Mellon University). Gaussian is a federally registered
 trademark of Gaussian, Inc.
  
 This software contains proprietary and confidential information,
 including trade secrets, belonging to Gaussian, Inc.
  
 This software is provided under written license and may be
 used, copied, transmitted, or stored only in accord with that
 written license.
  
 The following legend is applicable only to US Government
 contracts under FAR:
  
                    RESTRICTED RIGHTS LEGEND
  
 Use, reproduction and disclosure by the US Government is
 subject to restrictions as set forth in subparagraphs (a)
 and (c) of the Commercial Computer Software - Restricted
 Rights clause in FAR 52.227-19.
  
 Gaussian, Inc.
 340 Quinnipiac St., Bldg. 40, Wallingford CT 06492
  
  
 ---------------------------------------------------------------
 Warning -- This program may not be used in any manner that
 competes with the business of Gaussian, Inc. or will provide
 assistance to any competitor of Gaussian, Inc.  The licensee
 of this program is prohibited from giving any competitor of
 Gaussian, Inc. access to this program.  By using this program,
 the user acknowledges that Gaussian, Inc. is engaged in the
 business of creating and licensing software in the field of
 computational chemistry and represents and warrants to the
 licensee that it is not a competitor of Gaussian, Inc. and that
 it will not use this program in any manner prohibited above.
 ---------------------------------------------------------------
  

 Cite this work as:
 Gaussian Development Version, Revision H.12,
 M. J. Frisch, G. W. Trucks, H. B. Schlegel, G. E. Scuseria, 
 M. A. Robb, J. R. Cheeseman, G. Scalmani, V. Barone, B. Mennucci, 
 G. A. Petersson, H. Nakatsuji, M. Caricato, X. Li, H. P. Hratchian, 
 A. F. Izmaylov, J. Bloino, G. Zheng, J. L. Sonnenberg, M. Hada, 
 M. Ehara, K. Toyota, R. Fukuda, J. Hasegawa, M. Ishida, T. Nakajima, 
 Y. Honda, O. Kitao, H. Nakai, T. Vreven, J. A. Montgomery, Jr., 
 J. E. Peralta, F. Ogliaro, M. Bearpark, J. J. Heyd, E. Brothers, 
 K. N. Kudin, V. N. Staroverov, T. Keith, R. Kobayashi, J. Normand, 
 K. Raghavachari, A. Rendell, J. C. Burant, S. S. Iyengar, J. Tomasi, 
 M. Cossi, N. Rega, J. M. Millam, M. Klene, J. E. Knox, J. B. Cross, 
 V. Bakken, C. Adamo, J. Jaramillo, R. Gomperts, R. E. Stratmann, 
 O. Yazyev, A. J. Austin, R. Cammi, C. Pomelli, J. W. Ochterski, 
 R. L. Martin, K. Morokuma, V. G. Zakrzewski, G. A. Voth, 
 P. Salvador, J. J. Dannenberg, S. Dapprich, P. V. Parandekar, 
 N. J. Mayhall, A. D. Daniels, O. Farkas, J. B. Foresman, 
 J. V. Ortiz, J. Cioslowski, and D. J. Fox, 
 Gaussian, Inc., Wallingford CT, 2010.
 
 ******************************************
 Gaussian DV:  EM64L-GDVRevH.12  9-Jun-2011
                25-Nov-2013 
 ******************************************
 % Mem=12GB
 % Nproc=8
 Will use up to    8 processors via shared memory.
 % Chk=MnO_6Sg+.chk
 ----------------------------------------------------------------------
 # ROCCSD(T) aug-cc-pVTZ GFinput Int=NoBasisTransform Int(Grid=Ultrafin
 e) IOp(3/32=2,5/6=10,8/11=1,9/33=1) Maxdisk=128GB SCF=Symm Guess=Read
 ----------------------------------------------------------------------
 1/38=1/1;
 2/12=2,17=6,18=5,40=1/2;
 3/5=16,6=1,7=10,11=2,16=1,24=10,25=1,30=1,32=2,60=-1,75=-5,116=101/1,2,3;
 4/5=1,9=4/1;
 5/5=2,6=10,15=2,38=6/2;
 8/5=-1,6=4,9=120000,10=1,11=1/1,4;
 9/5=7,14=2,33=1/13;
 6/7=2,8=2,9=2,10=2/1;
 99/5=1,9=1/99;
 --------
 MnO 6Sg+
 --------
 Charge =  0 Multiplicity = 6
 Symbolic Z-Matrix:
 Mn
 O                    1     1.648 
 
                          Input orientation:                          
 ---------------------------------------------------------------------
 Center     Atomic      Atomic             Coordinates (Angstroms)
 Number     Number       Type             X           Y           Z
 ---------------------------------------------------------------------
      1         25           0        0.000000    0.000000    0.000000
      2          8           0        0.000000    0.000000    1.648000
 ---------------------------------------------------------------------
 Stoichiometry    MnO(6)
 Framework group  C*V[C*(OMn)]
 Deg. of freedom     1
 Full point group                 C*V     NOp   4
 Largest Abelian subgroup         C2V     NOp   4
 Largest concise Abelian subgroup C1      NOp   1
                         Standard orientation:                         
 ---------------------------------------------------------------------
 Center     Atomic      Atomic             Coordinates (Angstroms)
 Number     Number       Type             X           Y           Z
 ---------------------------------------------------------------------
      1         25           0        0.000000    0.000000    0.399515
      2          8           0        0.000000    0.000000   -1.248485
 ---------------------------------------------------------------------
 Rotational constants (GHZ):      0.0000000     15.0208923     15.0208923
 Standard basis: Aug-CC-pVTZ (5D, 7F)
 AO basis set in the form of general basis input (Overlap normalization):
      1 0
 S  19 1.00       0.000000000000
      0.3960805000D+07  0.8242127214D-05
      0.5931155000D+06  0.6408587166D-04
      0.1349768000D+06  0.3369253087D-03
      0.3823067000D+05  0.1420648037D-02
      0.1247154000D+05  0.5143683133D-02
      0.4501743000D+04  0.1648569043D-01
      0.1755212000D+04  0.4698560122D-01
      0.7273039000D+03  0.1162437030D+00
      0.3163678000D+03  0.2335277061D+00
      0.1430098000D+03  0.3292837085D+00
      0.6621805000D+02  0.2440304063D+00
      0.2991896000D+02  0.7219806187D-01
      0.1430318000D+02  0.7687806199D-01
      0.6839451000D+01  0.7852235204D-01
      0.3012374000D+01  0.1294109034D-01
      0.1418808000D+01 -0.3784873098D-03
      0.6236240000D+00 -0.2503203065D-04
      0.1340980000D+00 -0.2421517063D-04
      0.6554800000D-01  0.3462071090D-04
 S  19 1.00       0.000000000000
      0.3960805000D+07 -0.3936078317D-05
      0.5931155000D+06 -0.3060468028D-04
      0.1349768000D+06 -0.1609619178D-03
      0.3823067000D+05 -0.6792319211D-03
      0.1247154000D+05 -0.2466171547D-02
      0.4501743000D+04 -0.7957595272D-02
      0.1755212000D+04 -0.2307238221D-01
      0.7273039000D+03 -0.5932930853D-01
      0.3163678000D+03 -0.1299445492D+00
      0.1430098000D+03 -0.2212342623D+00
      0.6621805000D+02 -0.2292540283D+00
      0.2991896000D+02  0.3580717823D-01
      0.1430318000D+02  0.5107580351D+00
      0.6839451000D+01  0.5008285772D+00
      0.3012374000D+01  0.9011791803D-01
      0.1418808000D+01 -0.6909879712D-02
      0.6236240000D+00 -0.1912916892D-03
      0.1340980000D+00 -0.6032286432D-03
      0.6554800000D-01  0.5621584173D-03
 S  19 1.00       0.000000000000
      0.3960805000D+07  0.9469997228D-06
      0.5931155000D+06  0.7366253160D-05
      0.1349768000D+06  0.3872915644D-04
      0.3823067000D+05  0.1636369370D-03
      0.1247154000D+05  0.5946351386D-03
      0.4501743000D+04  0.1929221753D-02
      0.1755212000D+04  0.5646076290D-02
      0.7273039000D+03  0.1488993948D-01
      0.3163678000D+03  0.3417413084D-01
      0.1430098000D+03  0.6410727776D-01
      0.6621805000D+02  0.7563479948D-01
      0.2991896000D+02 -0.1947568873D-01
      0.1430318000D+02 -0.2960152170D+00
      0.6839451000D+01 -0.4524652229D+00
      0.3012374000D+01  0.1225474140D+00
      0.1418808000D+01  0.7175278183D+00
      0.6236240000D+00  0.4095864228D+00
      0.1340980000D+00  0.2223680372D-01
      0.6554800000D-01 -0.9018142475D-02
 S  19 1.00       0.000000000000
      0.3960805000D+07 -0.2791723309D-06
      0.5931155000D+06 -0.2170927926D-05
      0.1349768000D+06 -0.1141873830D-04
      0.3823067000D+05 -0.4822014605D-04
      0.1247154000D+05 -0.1753522596D-03
      0.4501743000D+04 -0.5684739952D-03
      0.1755212000D+04 -0.1665754936D-02
      0.7273039000D+03 -0.4389535450D-02
      0.3163678000D+03 -0.1010143467D-01
      0.1430098000D+03 -0.1895704713D-01
      0.6621805000D+02 -0.2256671797D-01
      0.2991896000D+02  0.5934533246D-02
      0.1430318000D+02  0.9149071088D-01
      0.6839451000D+01  0.1483314222D+00
      0.3012374000D+01 -0.5197125557D-01
      0.1418808000D+01 -0.2952086212D+00
      0.6236240000D+00 -0.3389890635D+00
      0.1340980000D+00  0.3818239609D+00
      0.6554800000D-01  0.7668466797D+00
 S  19 1.00       0.000000000000
      0.3960805000D+07 -0.4289946180D-06
      0.5931155000D+06 -0.3416461748D-05
      0.1349768000D+06 -0.1735694463D-04
      0.3823067000D+05 -0.7671712421D-04
      0.1247154000D+05 -0.2633047604D-03
      0.4501743000D+04 -0.9161738217D-03
      0.1755212000D+04 -0.2462320231D-02
      0.7273039000D+03 -0.7209905458D-02
      0.3163678000D+03 -0.1450912548D-01
      0.1430098000D+03 -0.3272542694D-01
      0.6621805000D+02 -0.2733242056D-01
      0.2991896000D+02 -0.1091228895D-01
      0.1430318000D+02  0.1932472352D+00
      0.6839451000D+01  0.1587262942D+00
      0.3012374000D+01  0.7714774988D-01
      0.1418808000D+01 -0.1059775911D+01
      0.6236240000D+00  0.3102382632D+00
      0.1340980000D+00  0.2052718393D+01
      0.6554800000D-01 -0.1227529324D+01
 S  19 1.00       0.000000000000
      0.3960805000D+07 -0.3896900577D-06
      0.5931155000D+06 -0.3126751868D-05
      0.1349768000D+06 -0.1571183486D-04
      0.3823067000D+05 -0.7044782367D-04
      0.1247154000D+05 -0.2374199497D-03
      0.4501743000D+04 -0.8446877814D-03
      0.1755212000D+04 -0.2209786256D-02
      0.7273039000D+03 -0.6690416285D-02
      0.3163678000D+03 -0.1292489101D-01
      0.1430098000D+03 -0.3091961738D-01
      0.6621805000D+02 -0.2308968790D-01
      0.2991896000D+02 -0.1570400727D-01
      0.1430318000D+02  0.1995889111D+00
      0.6839451000D+01  0.1579157095D+00
      0.3012374000D+01 -0.3149253193D-01
      0.1418808000D+01 -0.1312736628D+01
      0.6236240000D+00  0.1509198911D+01
      0.1340980000D+00 -0.1934917485D+00
      0.6554800000D-01 -0.1024748766D+01
 S   1 1.00       0.000000000000
      0.2958400000D-01  0.1000000000D+01
 P  15 1.00       0.000000000000
      0.1620586000D+05  0.4199998380D-04
      0.3836274000D+04  0.3729998561D-03
      0.1246048000D+04  0.2148999171D-02
      0.4767535000D+03  0.9444996357D-02
      0.2021895000D+03  0.3329698716D-01
      0.9209487000D+02  0.9475896345D-01
      0.4414720000D+02  0.2081439197D+00
      0.2185468000D+02  0.3318048720D+00
      0.1108596000D+02  0.3331748715D+00
      0.5674108000D+01  0.1576009392D+00
      0.2823170000D+01  0.2144499173D-01
      0.1368621000D+01 -0.2557999013D-02
      0.6444310000D+00 -0.2026999218D-02
      0.2483820000D+00 -0.3599998611D-03
      0.9725500000D-01  0.3399998689D-04
 P  15 1.00       0.000000000000
      0.1620586000D+05 -0.1500193068D-04
      0.3836274000D+04 -0.1290166039D-03
      0.1246048000D+04 -0.7480962768D-03
      0.4767535000D+03 -0.3308425780D-02
      0.2021895000D+03 -0.1181252022D-01
      0.9209487000D+02 -0.3453744482D-01
      0.4414720000D+02 -0.7879514060D-01
      0.2185468000D+02 -0.1322000136D+00
      0.1108596000D+02 -0.1372126587D+00
      0.5674108000D+01  0.2707848489D-01
      0.2823170000D+01  0.3289333323D+00
      0.1368621000D+01  0.4573388576D+00
      0.6444310000D+00  0.2889451860D+00
      0.2483820000D+00  0.4743910521D-01
      0.9725500000D-01 -0.3522453325D-02
 P  15 1.00       0.000000000000
      0.1620586000D+05  0.4110077733D-05
      0.3836274000D+04  0.4110077733D-04
      0.1246048000D+04  0.2356444567D-03
      0.4767535000D+03  0.1043959744D-02
      0.2021895000D+03  0.3734690634D-02
      0.9209487000D+02  0.1092732667D-01
      0.4414720000D+02  0.2505366384D-01
      0.2185468000D+02  0.4216391744D-01
      0.1108596000D+02  0.4435184882D-01
      0.5674108000D+01 -0.1367011854D-01
      0.2823170000D+01 -0.1240270757D+00
      0.1368621000D+01 -0.1890690558D+00
      0.6444310000D+00 -0.1068140702D+00
      0.2483820000D+00  0.3145031482D+00
      0.9725500000D-01  0.7893020680D+00
 P  15 1.00       0.000000000000
      0.1620586000D+05  0.4238244548D-05
      0.3836274000D+04  0.4238244548D-04
      0.1246048000D+04  0.2394608170D-03
      0.4767535000D+03  0.1073335432D-02
      0.2021895000D+03  0.3787931065D-02
      0.9209487000D+02  0.1124406279D-01
      0.4414720000D+02  0.2532563030D-01
      0.2185468000D+02  0.4373762418D-01
      0.1108596000D+02  0.4394529816D-01
      0.5674108000D+01 -0.1002132923D-01
      0.2823170000D+01 -0.1310624149D+00
      0.1368621000D+01 -0.1847789858D+00
      0.6444310000D+00 -0.1368635121D+00
      0.2483820000D+00  0.4241931821D+00
      0.9725500000D-01  0.7095308772D+00
 P  15 1.00       0.000000000000
      0.1620586000D+05  0.1068866023D-04
      0.3836274000D+04  0.8657814786D-04
      0.1246048000D+04  0.5472594037D-03
      0.4767535000D+03  0.2213621534D-02
      0.2021895000D+03  0.8669572312D-02
      0.9209487000D+02  0.2304154486D-01
      0.4414720000D+02  0.5912539292D-01
      0.2185468000D+02  0.8579039360D-01
      0.1108596000D+02  0.1258375969D+00
      0.5674108000D+01 -0.6955004325D-01
      0.2823170000D+01 -0.3023971620D+00
      0.1368621000D+01 -0.6938714806D+00
      0.6444310000D+00  0.7402613349D+00
      0.2483820000D+00  0.1046409148D+01
      0.9725500000D-01 -0.9848071923D+00
 P   1 1.00       0.000000000000
      0.3663300000D-01  0.1000000000D+01
 D   7 1.00       0.000000000000
      0.1006630000D+03  0.3632009266D-02
      0.2983360000D+02  0.2620952872D-01
      0.1088940000D+02  0.1000187765D+00
      0.4393580000D+01  0.2418569076D+00
      0.1817820000D+01  0.3640198792D+00
      0.7278270000D+00  0.3704994487D+00
      0.2712950000D+00  0.2371999390D+00
 D   7 1.00       0.000000000000
      0.1006630000D+03 -0.5031236994D-02
      0.2983360000D+02 -0.3630676956D-01
      0.1088940000D+02 -0.1422191152D+00
      0.4393580000D+01 -0.3447752017D+00
      0.1817820000D+01 -0.4258489100D+00
      0.7278270000D+00 -0.7243874224D-02
      0.2712950000D+00  0.7379167013D+00
 D   7 1.00       0.000000000000
      0.1006630000D+03  0.6275468177D-02
      0.2983360000D+02  0.4544719443D-01
      0.1088940000D+02  0.1869085000D+00
      0.4393580000D+01  0.4259944547D+00
      0.1817820000D+01  0.2063221603D+00
      0.7278270000D+00 -0.7485446881D+00
      0.2712950000D+00 -0.2850839774D+00
 D   1 1.00       0.000000000000
      0.8830900000D-01  0.1000000000D+01
 F   1 1.00       0.000000000000
      0.2738200000D+01  0.1000000000D+01
 F   1 1.00       0.000000000000
      0.6543000000D+00  0.1000000000D+01
 G   1 1.00       0.000000000000
      0.1733500000D+01  0.1000000000D+01
 S   1 1.00       0.000000000000
      0.1335000000D-01  0.1000000000D+01
 P   1 1.00       0.000000000000
      0.1380000000D-01  0.1000000000D+01
 D   1 1.00       0.000000000000
      0.2875000000D-01  0.1000000000D+01
 F   1 1.00       0.000000000000
      0.2226000000D+00  0.1000000000D+01
 G   1 1.00       0.000000000000
      0.6321300000D+00  0.1000000000D+01
 ****
      2 0
 S   8 1.00       0.000000000000
      0.1533000000D+05  0.5201983071D-03
      0.2299000000D+04  0.4023344781D-02
      0.5224000000D+03  0.2072908333D-01
      0.1473000000D+03  0.8108232708D-01
      0.4755000000D+02  0.2362263521D+00
      0.1676000000D+02  0.4435182094D+00
      0.6207000000D+01  0.3586705887D+00
      0.6882000000D+00 -0.8349797237D-02
 S   8 1.00       0.000000000000
      0.1533000000D+05 -0.1972360117D-03
      0.2299000000D+04 -0.1535010700D-02
      0.5224000000D+03 -0.7951183914D-02
      0.1473000000D+03 -0.3211345289D-01
      0.4755000000D+02 -0.1002696430D+00
      0.1676000000D+02 -0.2340471118D+00
      0.6207000000D+01 -0.3014109278D+00
      0.6882000000D+00  0.1034919650D+01
 S   1 1.00       0.000000000000
      0.1752000000D+01  0.1000000000D+01
 S   1 1.00       0.000000000000
      0.2384000000D+00  0.1000000000D+01
 P   3 1.00       0.000000000000
      0.3446000000D+02  0.4116348957D-01
      0.7749000000D+01  0.2577628359D+00
      0.2280000000D+01  0.8024192744D+00
 P   1 1.00       0.000000000000
      0.7156000000D+00  0.1000000000D+01
 P   1 1.00       0.000000000000
      0.2140000000D+00  0.1000000000D+01
 D   1 1.00       0.000000000000
      0.2314000000D+01  0.1000000000D+01
 D   1 1.00       0.000000000000
      0.6450000000D+00  0.1000000000D+01
 F   1 1.00       0.000000000000
      0.1428000000D+01  0.1000000000D+01
 S   1 1.00       0.000000000000
      0.7376000000D-01  0.1000000000D+01
 P   1 1.00       0.000000000000
      0.5974000000D-01  0.1000000000D+01
 D   1 1.00       0.000000000000
      0.2140000000D+00  0.1000000000D+01
 F   1 1.00       0.000000000000
      0.5000000000D+00  0.1000000000D+01
 ****

 There are    75 symmetry adapted cartesian basis functions of A1  symmetry.
 There are    19 symmetry adapted cartesian basis functions of A2  symmetry.
 There are    40 symmetry adapted cartesian basis functions of B1  symmetry.
 There are    40 symmetry adapted cartesian basis functions of B2  symmetry.
 There are    56 symmetry adapted basis functions of A1  symmetry.
 There are    17 symmetry adapted basis functions of A2  symmetry.
 There are    33 symmetry adapted basis functions of B1  symmetry.
 There are    33 symmetry adapted basis functions of B2  symmetry.
   139 basis functions,   620 primitive gaussians,   174 cartesian basis functions
    19 alpha electrons       14 beta electrons
       nuclear repulsion energy        64.2205350231 Hartrees.
 NAtoms=    2 NActive=    2 NUniq=    2 SFac= 1.00D+00 NAtFMM=   60 NAOKFM=F Big=F
 Integral buffers will be    131072 words long.
 Raffenetti 2 integral format.
 Two-electron integral symmetry is turned on.
 One-electron integrals computed using PRISM.
 NBasis=   139 RedAO= F EigKep=  0.00D+00  NBF=    56    17    33    33
 NBsUse=   139 1.00D-04 EigRej=  0.00D+00 NBFU=    56    17    33    33
 Initial guess from the checkpoint file:  MnO_6Sg+.chk
 B after Tr=     0.000000    0.000000    0.000000
         Rot=    1.000000    0.000000    0.000000    0.000000 Ang=   0.00 deg.
 Initial guess orbital symmetries:
       Occupied  (SG) (SG) (SG) (PI) (PI) (SG) (SG) (SG) (PI) (PI)
                 (SG) (SG) (PI) (PI) (DLTA) (DLTA) (SG) (PI) (PI)
       Virtual   (SG) (PI) (PI) (SG) (SG) (PI) (PI) (DLTA) (DLTA)
                 (SG) (PI) (PI) (SG) (SG) (PI) (PI) (SG) (DLTA)
                 (DLTA) (PI) (PI) (SG) (PI) (PI) (SG) (SG) (DLTA)
                 (DLTA) (PHI) (PHI) (PI) (PI) (SG) (PI) (PI) (SG)
                 (PI) (PI) (DLTA) (DLTA) (SG) (DLTA) (DLTA) (PI)
                 (PI) (SG) (SG) (PI) (PI) (SG) (SG) (PHI) (PHI)
                 (DLTA) (DLTA) (PI) (PI) (SG) (DLTA) (DLTA) (PI)
                 (PI) (SG) (SG) (SG) (SG) (SG) (SG) (SG) (PI) (PI)
                 (PI) (PI) (SG) (PI) (PI) (SG) (PI) (PI) (SG) (PI)
                 (PI) (SG) (PI) (PI) (DLTA) (DLTA) (DLTA) (DLTA)
                 (PI) (PI) (DLTA) (DLTA) (PI) (PI) (DLTA) (DLTA)
                 (PHI) (PHI) (SG) (PI) (PI) (DLTA) (DLTA) (PHI)
                 (PHI) (?A) (?A) (DLTA) (DLTA) (PHI) (PHI) (DLTA)
                 (DLTA) (PHI) (PHI) (?A) (?A) (PHI) (PHI)
 Keep R1 and R2 ints in memory in symmetry-blocked form, NReq=145728073.
 Requested convergence on RMS density matrix=1.00D-10 within 128 cycles.
 Requested convergence on MAX density matrix=1.00D-08.
 Requested convergence on             energy=1.00D-08.
 No special actions if energy rises.
 Rare condition: small coef for last iteration:  0.000D+00
 EnCoef did   100 forward-backward iterations
 Rare condition: small coef for last iteration:  0.000D+00
 EnCoef did   100 forward-backward iterations
 Rare condition: small coef for last iteration:  0.000D+00
 EnCoef did   100 forward-backward iterations
 EnCoef did   100 forward-backward iterations
 Rare condition: small coef for last iteration: -0.357D-15
 EnCoef did   100 forward-backward iterations
 SCF Done:  E(ROHF) =  -1224.64168340     A.U. after   32 cycles
            NFock= 32  Conv=0.27D-10     -V/T= 1.9998
 <Sx>= 0.0000 <Sy>= 0.0000 <Sz>= 2.5000 <S**2>= 8.7500 S= 2.5000
 <L.S>= 0.000000000000E+00
 Annihilation of the first spin contaminant:
 S**2 before annihilation     8.7500,   after     8.7500
 GenMOA:  NOpAll=  4 NOp2=4 NOpUse=  4 JSym2X=1
 <Sx>= 0.0000 <Sy>= 0.0000 <Sz>= 2.5000 <S**2>= 8.7500 S= 2.5000
 ExpMin= 1.34D-02 ExpMax= 3.96D+06 ExpMxC= 4.50D+03 IAcc=3 IRadAn=         5 AccDes= 0.00D+00
 HarFok:  IExCor=  205 AccDes= 0.00D+00 IRadAn=         5 IDoV=-2 UseB2=F ITyADJ=14
 ICtDFT= 12500011 ScaDFX=  1.000000  1.000000  1.000000  1.000000
 DSYEVD returned Info=        4511 IAlg= 4 N=    93 NDim=    93 NE2=    17317300 trying DSYEV.
 Range of M.O.s used for correlation:    11   139
 NBasis=   139 NAE=    19 NBE=    14 NFC=    10 NFV=     0
 NROrb=    129 NOA=     9 NOB=     4 NVA=   120 NVB=   125

 **** Warning!!: The largest alpha MO coefficient is  0.59067248D+02


 **** Warning!!: The largest beta MO coefficient is  0.57435164D+02

 Singles contribution to E2=   -0.5883557029D-02
 Semi-Direct transformation.
 ModeAB=           2 MOrb=             9 LenV=    1609442009
 LASXX=      2315162 LTotXX=     2315162 LenRXX=     2315162
 LTotAB=     2388600 MaxLAS=    17676225 LenRXY=    17676225
 NonZer=    18358893 LenScr=    28302336 LnRSAI=           0
 LnScr1=           0 LExtra=     1142139 Total=     49435862
 MaxDsk= 17179869184 SrtSym=           F ITran=            4
 JobTyp=1 Pass  1:  I=   1 to   9.
 (rs|ai) integrals will be sorted in core.
 ModeAB=           2 MOrb=             4 LenV=    1609442009
 LASXX=      1058538 LTotXX=     1058538 LenRXX=     7856100
 LTotAB=      942514 MaxLAS=     7856100 LenRXY=      942514
 NonZer=     8159508 LenScr=    13003776 LnRSAI=           0
 LnScr1=           0 LExtra=    21133526 Total=     42935916
 MaxDsk= 17179869184 SrtSym=           F ITran=            4
 JobTyp=2 Pass  1:  I=   1 to   4.
 (rs|ai) integrals will be sorted in core.
 Spin components of T(2) and E(2):
     alpha-alpha T2 =       0.3599653907D-01 E2=     -0.1314418665D+00
     alpha-beta  T2 =       0.9520963497D-01 E2=     -0.2651853400D+00
     beta-beta   T2 =       0.1821216183D-01 E2=     -0.4536455250D-01
 ANorm=    0.1076430757D+01
 E2 =    -0.4478753161D+00 EUMP2 =    -0.12250895587186D+04
 (S**2,0)=  0.87500D+01           (S**2,1)=  0.87500D+01
 E(PUHF)=      -0.12246416834D+04        E(PMP2)=      -0.12250895587D+04
 SABFC:  FilMap=F DoRead=T UsPure=F NBasis=   139 NBas6D=   174 NB=   174 NOp=4 jStart=        1707
 MulTab 
              1            2            3            4            5
     1            1            2            3            4            5
     2            2            1            4            3            6
     3            3            4            1            2            7
     4            4            3            2            1            8
     5            5            6            7            8            1
     6            6            5            8            7            2
     7            7            8            5            6            3
     8            8            7            6            5            4
              6            7            8
     1            6            7            8
     2            5            8            7
     3            8            5            6
     4            7            6            5
     5            2            3            4
     6            1            4            3
     7            4            1            2
     8            3            2            1
 Order+ChrTbl 
              1            2            3            4            5
     1            1            1            1            1            1
     2            2            1            1           -1           -1
     3            4            1           -1           -1            1
     4            3            1           -1            1           -1
     5            0            0            0            0            0
     6            0            0            0            0            0
     7            0            0            0            0            0
     8            0            0            0            0            0

 SABF information in SABFC1:
 NS=            0          75          94         134         174
 NS2=           0        4680        7705       11465       15225
 NS4=           0    10953540    15530365    22601045    29671725
 SABFC:  FilMap=T DoRead=T UsPure=F NBasis=   139 NBas6D=   174 NB=   174 NOp=4 jStart=        1707
 MulTab 
              1            2            3            4            5
     1            1            2            3            4            5
     2            2            1            4            3            6
     3            3            4            1            2            7
     4            4            3            2            1            8
     5            5            6            7            8            1
     6            6            5            8            7            2
     7            7            8            5            6            3
     8            8            7            6            5            4
              6            7            8
     1            6            7            8
     2            5            8            7
     3            8            5            6
     4            7            6            5
     5            2            3            4
     6            1            4            3
     7            4            1            2
     8            3            2            1
 Order+ChrTbl 
              1            2            3            4            5
     1            1            1            1            1            1
     2            2            1            1           -1           -1
     3            4            1           -1           -1            1
     4            3            1           -1            1           -1
     5            0            0            0            0            0
     6            0            0            0            0            0
     7            0            0            0            0            0
     8            0            0            0            0            0

 SABF information in SABFC1:
 NS=            0          75          94         134         174
 NS2=           0        4680        7705       11465       15225
 NS4=           0    10953540    15530365    22601045    29671725
 SetICI:  IOpClM=           4 LR1=              0 LR2=              1 LR3=              1
          LRAOJ=    115907925 InStor=           4 jStart=        1707 jR1=          38247
          jR2=          38247 jR3=       29709972 LenR=      29671725 jVInt=    115946172
          jVSAO=    115946172 jVPerm=    59381697 MDV=     1610612477
 Keep R2 and R3 ints in memory in symmetry-blocked form, NReq=145618071.
 FoFCou: FMM=F IPFlag=           0 FMFlag=           0 FMFlg1=           0
         NFxFlg=           0 DoJE=F BraDBF=F KetDBF=F FulRan=T
         wScrn=  0.000000 ICntrl=     600 IOpCl=  0 I1Cent=           0 NGrid=           0
         NMat0=    1 NMatS0=  15225 NMatT0=    0 NMatD0=    1 NMtDS0=    0 NMtDT0=    0
 Petite list used in FoFCou.
 FoFCou:  KetSym=F NOpSet=  1 NOpAb=1 NOp=  1.
 FoFCou:  CnvScl= 1.00D+00 Thresh= 1.00D-10 IAcrcy=      10.
 PrismS was handed  1494119399 working-precision words and   780 shell-pairs
 FoFCou: LinMIO=F DoNuc=F BraDBF=F KetDBF=F HaveP=F PDBF=F HaveZ=F HaveW=F
         NIJTC =      15 NIJTAt=       0 NIJTCD=       0 NIJTT =      15
         IJTBeg=       1 IJTEnd=      15 KLTBeg=       1 KLTEnd=      15
         IPTBeg=       1 IPTEnd=      15 IPTBCv=       1 IPTECv=      15
         IZTBeg=       1 IZTEnd=      15 IZTBCv=       1 IZTECv=      15
         IWTBeg=      16 IWTEnd=      15 IWTBCv=      16 IWTECv=      15
         INTBeg=       1 INTEnd=       0 IFTBCv=       1 IFTECv=      15
 NCel replicated for PrismC:     1
 CoulSu:  IncDef=  1024 NBBP=         304590 NTPThr=   100 NPartT=    8 Incr=         380 LDynOK=F.
 CoulSu:  NPrtUS=   8 ThrOK=T IAlg=1 NPAlg=1 LenDen=           0 LWGrdD=           0 DoCopy=F.
 Enter PrismC: JobTyp=20 DoJE=F Cont=F.
 PrismC:  IPart=     0 DynPar=T LinDyn=F Incr=         380 UseFst=F UseS4=T.
 PrismC was handed   186547643 working-precision words and   780 shell-pairs
 Enter PrismC: JobTyp=20 DoJE=F Cont=F.
 PrismC was handed   186547643 working-precision words and   780 shell-pairs
 Enter PrismC: JobTyp=20 DoJE=F Cont=F.
 Enter PrismC: JobTyp=20 DoJE=F Cont=F.
 PrismC was handed   186547643 working-precision words and   780 shell-pairs
 PrismC was handed   186547643 working-precision words and   780 shell-pairs
 Enter PrismC: JobTyp=20 DoJE=F Cont=F.
 Enter PrismC: JobTyp=20 DoJE=F Cont=F.
 Enter PrismC: JobTyp=20 DoJE=F Cont=F.
 Enter PrismC: JobTyp=20 DoJE=F Cont=F.
 PrismC was handed   186547643 working-precision words and   780 shell-pairs
 PrismC was handed   186547643 working-precision words and   780 shell-pairs
 PrismC was handed   186547643 working-precision words and   780 shell-pairs
 PrismC was handed   186547643 working-precision words and   780 shell-pairs
 IPart=  1 NShTot=       30567 NShNF=       30567 NShFF=           0 NBatch=         943 AvBLen=        32.4
 IPart=  3 NShTot=       32122 NShNF=       32122 NShFF=           0 NBatch=         919 AvBLen=        35.0
 IPart=  0 NShTot=       32103 NShNF=       32103 NShFF=           0 NBatch=         836 AvBLen=        38.4
 IPart=  6 NShTot=       38980 NShNF=       38980 NShFF=           0 NBatch=         913 AvBLen=        42.7
 IPart=  2 NShTot=       33179 NShNF=       33179 NShFF=           0 NBatch=         918 AvBLen=        36.1
 IPart=  4 NShTot=       37554 NShNF=       37554 NShFF=           0 NBatch=        1100 AvBLen=        34.1
 IPart=  7 NShTot=       40198 NShNF=       40198 NShFF=           0 NBatch=        1057 AvBLen=        38.0
 IPart=  5 NShTot=       59874 NShNF=       59874 NShFF=           0 NBatch=        1357 AvBLen=        44.1
 CoulSu:  NxtVal=         314641.
 Iterations=  50 Convergence= 0.100D-06
 A(0)= 0.10000E+01      ANORM= 0.10721E+01      W(0)=-0.44199176E+00
 Singles contributions to ROMP2 energy
Alpha= -0.3051157100371E-02
Beta=  -0.2832399928495E-02
 Iteration Nr.   1
 **********************
 Bef DD1 bucket IAS1 number    25 has length         1080 dot= 0.48691601D-02
 Bef DD1 bucket IAS2 number    26 has length          500 dot= 0.44156784D-02
 Bef DD1 bucket IAD1 number    22 has length        64312 dot= 0.35996539D-01
 Bef DD1 bucket IAD2 number    23 has length       137790 dot= 0.95209635D-01
 Bef DD1 bucket IAD3 number    24 has length        11650 dot= 0.18212162D-01
 Bef DD1 bucket IWS1 number 12996 has length         1080 dot= 0.56544941D-03
 Bef DD1 bucket IWS2 number 12995 has length          500 dot= 0.57246322D-03
 Bef DD1 bucket IWD1 number 12994 has length        64312 dot= 0.00000000D+00
 Bef DD1 bucket IWD2 number 12993 has length       137790 dot= 0.00000000D+00
 Bef DD1 bucket IWD3 number 12992 has length        11650 dot= 0.00000000D+00
 Bef DD1 bucket IWAI1 number     0 is not present.
 Bef DD1 bucket IWAI2 number     0 is not present.
 Bef DD1 bucket IWAI3 number     0 is not present.
 Bef DD1 bucket IWAI4 number     0 is not present.
 DD1Dir will call FoFMem   1 times, MxPair=       114
 NAB=    36 NAA=    36 NBB=     6.
 DD1Dir:  Pass   1 NRAB=    36 NRAA=    36 NRBB=     6 NR=   114.
 FoFMem:  NOp1=  1 NOp2=  4 NOpUse=  1 NSOp=  4 NMatL=     2 DoSAO=T
 IM=     1 IB=1 DotPA=          0.00000000
 IM=     1 IB=2 DotPA=          0.00000000
 IM=     1 IB=3 DotPA=          0.00000000
 IM=     1 IB=4 DotPA=          1.18226187
 IM=     2 IB=1 DotPA=          0.00000000
 IM=     2 IB=2 DotPA=          0.00000000
 IM=     2 IB=3 DotPA=          0.00000000
 IM=     2 IB=4 DotPA=          1.54744385
 FoFMem:  NOp1=  1 NOp2=  4 NOpUse=  1 NSOp=  4 NMatL=     2 DoSAO=T
 IM=     1 IB=1 DotFA=          0.00000000
 IM=     1 IB=2 DotFA=          0.00000000
 IM=     1 IB=3 DotFA=          0.00000000
 IM=     1 IB=4 DotFA=          0.06214766
 IM=     2 IB=1 DotFA=          0.00000000
 IM=     2 IB=2 DotFA=          0.00000000
 IM=     2 IB=3 DotFA=          0.00000000
 IM=     2 IB=4 DotFA=          0.15548259
 FoFMem:  NOp1=  1 NOp2=  4 NOpUse=  1 NSOp=  4 NMatL=     2 DoSAO=T
 IM=     1 IB=1 DotPA=          0.00000000
 IM=     1 IB=2 DotPA=          0.00000000
 IM=     1 IB=3 DotPA=          1.18226187
 IM=     1 IB=4 DotPA=          0.00000000
 IM=     2 IB=1 DotPA=          0.00000000
 IM=     2 IB=2 DotPA=          0.00000000
 IM=     2 IB=3 DotPA=          1.54744385
 IM=     2 IB=4 DotPA=          0.00000000
 FoFMem:  NOp1=  1 NOp2=  4 NOpUse=  1 NSOp=  4 NMatL=     2 DoSAO=T
 IM=     1 IB=1 DotFA=          0.00000000
 IM=     1 IB=2 DotFA=          0.00000000
 IM=     1 IB=3 DotFA=          0.06214766
 IM=     1 IB=4 DotFA=          0.00000000
 IM=     2 IB=1 DotFA=          0.00000000
 IM=     2 IB=2 DotFA=          0.00000000
 IM=     2 IB=3 DotFA=          0.15548259
 IM=     2 IB=4 DotFA=          0.00000000
 FoFMem:  NOp1=  1 NOp2=  4 NOpUse=  1 NSOp=  4 NMatL=     1 DoSAO=T
 IM=     1 IB=1 DotPA=          0.00000000
 IM=     1 IB=2 DotPA=          1.44098613
 IM=     1 IB=3 DotPA=          0.00000000
 IM=     1 IB=4 DotPA=          0.00000000
 FoFMem:  NOp1=  1 NOp2=  4 NOpUse=  1 NSOp=  4 NMatL=     1 DoSAO=T
 IM=     1 IB=1 DotFA=          0.00000000
 IM=     1 IB=2 DotFA=          0.13348565
 IM=     1 IB=3 DotFA=          0.00000000
 IM=     1 IB=4 DotFA=          0.00000000
 FoFMem:  NOp1=  1 NOp2=  4 NOpUse=  1 NSOp=  4 NMatL=     1 DoSAO=T
 IM=     1 IB=1 DotPA=          0.80294935
 IM=     1 IB=2 DotPA=          0.00000000
 IM=     1 IB=3 DotPA=          0.00000000
 IM=     1 IB=4 DotPA=          0.00000000
 FoFMem:  NOp1=  1 NOp2=  4 NOpUse=  1 NSOp=  4 NMatL=     1 DoSAO=T
 IM=     1 IB=1 DotFA=          0.06869106
 IM=     1 IB=2 DotFA=          0.00000000
 IM=     1 IB=3 DotFA=          0.00000000
 IM=     1 IB=4 DotFA=          0.00000000
 FoFMem:  NOp1=  1 NOp2=  4 NOpUse=  1 NSOp=  4 NMatL=    10 DoSAO=T
 IM=     1 IB=1 DotPA=          0.00000000
 IM=     1 IB=2 DotPA=          0.00000000
 IM=     1 IB=3 DotPA=          0.00000000
 IM=     1 IB=4 DotPA=          1.29522104
 IM=     2 IB=1 DotPA=          0.00000000
 IM=     2 IB=2 DotPA=          0.00000000
 IM=     2 IB=3 DotPA=          0.00000000
 IM=     2 IB=4 DotPA=          0.80575489
 IM=     3 IB=1 DotPA=          0.00000000
 IM=     3 IB=2 DotPA=          0.00000000
 IM=     3 IB=3 DotPA=          0.00000000
 IM=     3 IB=4 DotPA=          8.69838261
 IM=     4 IB=1 DotPA=          0.00000000
 IM=     4 IB=2 DotPA=          0.00000000
 IM=     4 IB=3 DotPA=          0.00000000
 IM=     4 IB=4 DotPA=          2.84890909
 IM=     5 IB=1 DotPA=          0.00000000
 IM=     5 IB=2 DotPA=          0.00000000
 IM=     5 IB=3 DotPA=          0.00000000
 IM=     5 IB=4 DotPA=         10.83218231
 IM=     6 IB=1 DotPA=          0.00000000
 IM=     6 IB=2 DotPA=          0.00000000
 IM=     6 IB=3 DotPA=          0.00000000
 IM=     6 IB=4 DotPA=          3.02353437
 IM=     7 IB=1 DotPA=          0.00000000
 IM=     7 IB=2 DotPA=          0.00000000
 IM=     7 IB=3 DotPA=          0.00000000
 IM=     7 IB=4 DotPA=          5.53100232
 IM=     8 IB=1 DotPA=          0.00000000
 IM=     8 IB=2 DotPA=          0.00000000
 IM=     8 IB=3 DotPA=          0.00000000
 IM=     8 IB=4 DotPA=          2.91773250
 IM=     9 IB=1 DotPA=          0.00000000
 IM=     9 IB=2 DotPA=          0.00000000
 IM=     9 IB=3 DotPA=          0.00000000
 IM=     9 IB=4 DotPA=          8.70516331
 IM=    10 IB=1 DotPA=          0.00000000
 IM=    10 IB=2 DotPA=          0.00000000
 IM=    10 IB=3 DotPA=          0.00000000
 IM=    10 IB=4 DotPA=          2.86556611
 FoFMem:  NOp1=  1 NOp2=  4 NOpUse=  1 NSOp=  4 NMatL=    10 DoSAO=T
 IM=     1 IB=1 DotFA=          0.00000000
 IM=     1 IB=2 DotFA=          0.00000000
 IM=     1 IB=3 DotFA=          0.00000000
 IM=     1 IB=4 DotFA=          0.02095367
 IM=     2 IB=1 DotFA=          0.00000000
 IM=     2 IB=2 DotFA=          0.00000000
 IM=     2 IB=3 DotFA=          0.00000000
 IM=     2 IB=4 DotFA=          0.05955083
 IM=     3 IB=1 DotFA=          0.00000000
 IM=     3 IB=2 DotFA=          0.00000000
 IM=     3 IB=3 DotFA=          0.00000000
 IM=     3 IB=4 DotFA=          0.04811308
 IM=     4 IB=1 DotFA=          0.00000000
 IM=     4 IB=2 DotFA=          0.00000000
 IM=     4 IB=3 DotFA=          0.00000000
 IM=     4 IB=4 DotFA=          0.01982122
 IM=     5 IB=1 DotFA=          0.00000000
 IM=     5 IB=2 DotFA=          0.00000000
 IM=     5 IB=3 DotFA=          0.00000000
 IM=     5 IB=4 DotFA=          0.06662463
 IM=     6 IB=1 DotFA=          0.00000000
 IM=     6 IB=2 DotFA=          0.00000000
 IM=     6 IB=3 DotFA=          0.00000000
 IM=     6 IB=4 DotFA=          0.06716722
 IM=     7 IB=1 DotFA=          0.00000000
 IM=     7 IB=2 DotFA=          0.00000000
 IM=     7 IB=3 DotFA=          0.00000000
 IM=     7 IB=4 DotFA=          0.03947773
 IM=     8 IB=1 DotFA=          0.00000000
 IM=     8 IB=2 DotFA=          0.00000000
 IM=     8 IB=3 DotFA=          0.00000000
 IM=     8 IB=4 DotFA=          0.14415756
 IM=     9 IB=1 DotFA=          0.00000000
 IM=     9 IB=2 DotFA=          0.00000000
 IM=     9 IB=3 DotFA=          0.00000000
 IM=     9 IB=4 DotFA=          0.03594368
 IM=    10 IB=1 DotFA=          0.00000000
 IM=    10 IB=2 DotFA=          0.00000000
 IM=    10 IB=3 DotFA=          0.00000000
 IM=    10 IB=4 DotFA=          0.01470323
 FoFMem:  NOp1=  1 NOp2=  4 NOpUse=  1 NSOp=  4 NMatL=    10 DoSAO=T
 IM=     1 IB=1 DotPA=          0.00000000
 IM=     1 IB=2 DotPA=          0.00000000
 IM=     1 IB=3 DotPA=          1.29522104
 IM=     1 IB=4 DotPA=          0.00000000
 IM=     2 IB=1 DotPA=          0.00000000
 IM=     2 IB=2 DotPA=          0.00000000
 IM=     2 IB=3 DotPA=          0.80575489
 IM=     2 IB=4 DotPA=          0.00000000
 IM=     3 IB=1 DotPA=          0.00000000
 IM=     3 IB=2 DotPA=          0.00000000
 IM=     3 IB=3 DotPA=          8.69838261
 IM=     3 IB=4 DotPA=          0.00000000
 IM=     4 IB=1 DotPA=          0.00000000
 IM=     4 IB=2 DotPA=          0.00000000
 IM=     4 IB=3 DotPA=          2.84890909
 IM=     4 IB=4 DotPA=          0.00000000
 IM=     5 IB=1 DotPA=          0.00000000
 IM=     5 IB=2 DotPA=          0.00000000
 IM=     5 IB=3 DotPA=         10.83218231
 IM=     5 IB=4 DotPA=          0.00000000
 IM=     6 IB=1 DotPA=          0.00000000
 IM=     6 IB=2 DotPA=          0.00000000
 IM=     6 IB=3 DotPA=          3.02353437
 IM=     6 IB=4 DotPA=          0.00000000
 IM=     7 IB=1 DotPA=          0.00000000
 IM=     7 IB=2 DotPA=          0.00000000
 IM=     7 IB=3 DotPA=          5.53100232
 IM=     7 IB=4 DotPA=          0.00000000
 IM=     8 IB=1 DotPA=          0.00000000
 IM=     8 IB=2 DotPA=          0.00000000
 IM=     8 IB=3 DotPA=          2.91773250
 IM=     8 IB=4 DotPA=          0.00000000
 IM=     9 IB=1 DotPA=          0.00000000
 IM=     9 IB=2 DotPA=          0.00000000
 IM=     9 IB=3 DotPA=          8.70516331
 IM=     9 IB=4 DotPA=          0.00000000
 IM=    10 IB=1 DotPA=          0.00000000
 IM=    10 IB=2 DotPA=          0.00000000
 IM=    10 IB=3 DotPA=          2.86556611
 IM=    10 IB=4 DotPA=          0.00000000
 FoFMem:  NOp1=  1 NOp2=  4 NOpUse=  1 NSOp=  4 NMatL=    10 DoSAO=T
 IM=     1 IB=1 DotFA=          0.00000000
 IM=     1 IB=2 DotFA=          0.00000000
 IM=     1 IB=3 DotFA=          0.02095367
 IM=     1 IB=4 DotFA=          0.00000000
 IM=     2 IB=1 DotFA=          0.00000000
 IM=     2 IB=2 DotFA=          0.00000000
 IM=     2 IB=3 DotFA=          0.05955083
 IM=     2 IB=4 DotFA=          0.00000000
 IM=     3 IB=1 DotFA=          0.00000000
 IM=     3 IB=2 DotFA=          0.00000000
 IM=     3 IB=3 DotFA=          0.04811308
 IM=     3 IB=4 DotFA=          0.00000000
 IM=     4 IB=1 DotFA=          0.00000000
 IM=     4 IB=2 DotFA=          0.00000000
 IM=     4 IB=3 DotFA=          0.01982122
 IM=     4 IB=4 DotFA=          0.00000000
 IM=     5 IB=1 DotFA=          0.00000000
 IM=     5 IB=2 DotFA=          0.00000000
 IM=     5 IB=3 DotFA=          0.06662463
 IM=     5 IB=4 DotFA=          0.00000000
 IM=     6 IB=1 DotFA=          0.00000000
 IM=     6 IB=2 DotFA=          0.00000000
 IM=     6 IB=3 DotFA=          0.06716722
 IM=     6 IB=4 DotFA=          0.00000000
 IM=     7 IB=1 DotFA=          0.00000000
 IM=     7 IB=2 DotFA=          0.00000000
 IM=     7 IB=3 DotFA=          0.03947773
 IM=     7 IB=4 DotFA=          0.00000000
 IM=     8 IB=1 DotFA=          0.00000000
 IM=     8 IB=2 DotFA=          0.00000000
 IM=     8 IB=3 DotFA=          0.14415756
 IM=     8 IB=4 DotFA=          0.00000000
 IM=     9 IB=1 DotFA=          0.00000000
 IM=     9 IB=2 DotFA=          0.00000000
 IM=     9 IB=3 DotFA=          0.03594368
 IM=     9 IB=4 DotFA=          0.00000000
 IM=    10 IB=1 DotFA=          0.00000000
 IM=    10 IB=2 DotFA=          0.00000000
 IM=    10 IB=3 DotFA=          0.01470323
 IM=    10 IB=4 DotFA=          0.00000000
 FoFMem:  NOp1=  1 NOp2=  4 NOpUse=  1 NSOp=  4 NMatL=     8 DoSAO=T
 IM=     1 IB=1 DotPA=          0.00000000
 IM=     1 IB=2 DotPA=          0.47883891
 IM=     1 IB=3 DotPA=          0.00000000
 IM=     1 IB=4 DotPA=          0.00000000
 IM=     2 IB=1 DotPA=          0.00000000
 IM=     2 IB=2 DotPA=         12.00022865
 IM=     2 IB=3 DotPA=          0.00000000
 IM=     2 IB=4 DotPA=          0.00000000
 IM=     3 IB=1 DotPA=          0.00000000
 IM=     3 IB=2 DotPA=          0.70855001
 IM=     3 IB=3 DotPA=          0.00000000
 IM=     3 IB=4 DotPA=          0.00000000
 IM=     4 IB=1 DotPA=          0.00000000
 IM=     4 IB=2 DotPA=          1.09439709
 IM=     4 IB=3 DotPA=          0.00000000
 IM=     4 IB=4 DotPA=          0.00000000
 IM=     5 IB=1 DotPA=          0.00000000
 IM=     5 IB=2 DotPA=          5.00026770
 IM=     5 IB=3 DotPA=          0.00000000
 IM=     5 IB=4 DotPA=          0.00000000
 IM=     6 IB=1 DotPA=          0.00000000
 IM=     6 IB=2 DotPA=          1.70292914
 IM=     6 IB=3 DotPA=          0.00000000
 IM=     6 IB=4 DotPA=          0.00000000
 IM=     7 IB=1 DotPA=          0.00000000
 IM=     7 IB=2 DotPA=          1.70292914
 IM=     7 IB=3 DotPA=          0.00000000
 IM=     7 IB=4 DotPA=          0.00000000
 IM=     8 IB=1 DotPA=          0.00000000
 IM=     8 IB=2 DotPA=          2.08864613
 IM=     8 IB=3 DotPA=          0.00000000
 IM=     8 IB=4 DotPA=          0.00000000
 FoFMem:  NOp1=  1 NOp2=  4 NOpUse=  1 NSOp=  4 NMatL=     8 DoSAO=T
 IM=     1 IB=1 DotFA=          0.00000000
 IM=     1 IB=2 DotFA=          0.00929730
 IM=     1 IB=3 DotFA=          0.00000000
 IM=     1 IB=4 DotFA=          0.00000000
 IM=     2 IB=1 DotFA=          0.00000000
 IM=     2 IB=2 DotFA=          0.07019626
 IM=     2 IB=3 DotFA=          0.00000000
 IM=     2 IB=4 DotFA=          0.00000000
 IM=     3 IB=1 DotFA=          0.00000000
 IM=     3 IB=2 DotFA=          0.04637756
 IM=     3 IB=3 DotFA=          0.00000000
 IM=     3 IB=4 DotFA=          0.00000000
 IM=     4 IB=1 DotFA=          0.00000000
 IM=     4 IB=2 DotFA=          0.02506529
 IM=     4 IB=3 DotFA=          0.00000000
 IM=     4 IB=4 DotFA=          0.00000000
 IM=     5 IB=1 DotFA=          0.00000000
 IM=     5 IB=2 DotFA=          0.03808282
 IM=     5 IB=3 DotFA=          0.00000000
 IM=     5 IB=4 DotFA=          0.00000000
 IM=     6 IB=1 DotFA=          0.00000000
 IM=     6 IB=2 DotFA=          0.02584448
 IM=     6 IB=3 DotFA=          0.00000000
 IM=     6 IB=4 DotFA=          0.00000000
 IM=     7 IB=1 DotFA=          0.00000000
 IM=     7 IB=2 DotFA=          0.02584448
 IM=     7 IB=3 DotFA=          0.00000000
 IM=     7 IB=4 DotFA=          0.00000000
 IM=     8 IB=1 DotFA=          0.00000000
 IM=     8 IB=2 DotFA=          0.12836600
 IM=     8 IB=3 DotFA=          0.00000000
 IM=     8 IB=4 DotFA=          0.00000000
 FoFMem:  NOp1=  1 NOp2=  4 NOpUse=  1 NSOp=  4 NMatL=     8 DoSAO=T
 IM=     1 IB=1 DotPA=          0.38085130
 IM=     1 IB=2 DotPA=          0.00000000
 IM=     1 IB=3 DotPA=          0.00000000
 IM=     1 IB=4 DotPA=          0.00000000
 IM=     2 IB=1 DotPA=          0.43890501
 IM=     2 IB=2 DotPA=          0.00000000
 IM=     2 IB=3 DotPA=          0.00000000
 IM=     2 IB=4 DotPA=          0.00000000
 IM=     3 IB=1 DotPA=          0.81005909
 IM=     3 IB=2 DotPA=          0.00000000
 IM=     3 IB=3 DotPA=          0.00000000
 IM=     3 IB=4 DotPA=          0.00000000
 IM=     4 IB=1 DotPA=          0.59156171
 IM=     4 IB=2 DotPA=          0.00000000
 IM=     4 IB=3 DotPA=          0.00000000
 IM=     4 IB=4 DotPA=          0.00000000
 IM=     5 IB=1 DotPA=          0.85303694
 IM=     5 IB=2 DotPA=          0.00000000
 IM=     5 IB=3 DotPA=          0.00000000
 IM=     5 IB=4 DotPA=          0.00000000
 IM=     6 IB=1 DotPA=          0.73277401
 IM=     6 IB=2 DotPA=          0.00000000
 IM=     6 IB=3 DotPA=          0.00000000
 IM=     6 IB=4 DotPA=          0.00000000
 IM=     7 IB=1 DotPA=          0.67316246
 IM=     7 IB=2 DotPA=          0.00000000
 IM=     7 IB=3 DotPA=          0.00000000
 IM=     7 IB=4 DotPA=          0.00000000
 IM=     8 IB=1 DotPA=          0.67316246
 IM=     8 IB=2 DotPA=          0.00000000
 IM=     8 IB=3 DotPA=          0.00000000
 IM=     8 IB=4 DotPA=          0.00000000
 FoFMem:  NOp1=  1 NOp2=  4 NOpUse=  1 NSOp=  4 NMatL=     8 DoSAO=T
 IM=     1 IB=1 DotFA=          0.01344040
 IM=     1 IB=2 DotFA=          0.00000000
 IM=     1 IB=3 DotFA=          0.00000000
 IM=     1 IB=4 DotFA=          0.00000000
 IM=     2 IB=1 DotFA=          0.03744959
 IM=     2 IB=2 DotFA=          0.00000000
 IM=     2 IB=3 DotFA=          0.00000000
 IM=     2 IB=4 DotFA=          0.00000000
 IM=     3 IB=1 DotFA=          0.05996945
 IM=     3 IB=2 DotFA=          0.00000000
 IM=     3 IB=3 DotFA=          0.00000000
 IM=     3 IB=4 DotFA=          0.00000000
 IM=     4 IB=1 DotFA=          0.06761066
 IM=     4 IB=2 DotFA=          0.00000000
 IM=     4 IB=3 DotFA=          0.00000000
 IM=     4 IB=4 DotFA=          0.00000000
 IM=     5 IB=1 DotFA=          0.03645930
 IM=     5 IB=2 DotFA=          0.00000000
 IM=     5 IB=3 DotFA=          0.00000000
 IM=     5 IB=4 DotFA=          0.00000000
 IM=     6 IB=1 DotFA=          0.05029191
 IM=     6 IB=2 DotFA=          0.00000000
 IM=     6 IB=3 DotFA=          0.00000000
 IM=     6 IB=4 DotFA=          0.00000000
 IM=     7 IB=1 DotFA=          0.01388898
 IM=     7 IB=2 DotFA=          0.00000000
 IM=     7 IB=3 DotFA=          0.00000000
 IM=     7 IB=4 DotFA=          0.00000000
 IM=     8 IB=1 DotFA=          0.01388898
 IM=     8 IB=2 DotFA=          0.00000000
 IM=     8 IB=3 DotFA=          0.00000000
 IM=     8 IB=4 DotFA=          0.00000000
 FoFMem:  NOp1=  1 NOp2=  4 NOpUse=  1 NSOp=  4 NMatL=     9 DoSAO=T
 IM=     1 IB=1 DotPA=          0.00000000
 IM=     1 IB=2 DotPA=          0.00000000
 IM=     1 IB=3 DotPA=          0.00000000
 IM=     1 IB=4 DotPA=          0.61875009
 IM=     2 IB=1 DotPA=          0.00000000
 IM=     2 IB=2 DotPA=          0.00000000
 IM=     2 IB=3 DotPA=          0.00000000
 IM=     2 IB=4 DotPA=          0.83377197
 IM=     3 IB=1 DotPA=          0.00000000
 IM=     3 IB=2 DotPA=          0.00000000
 IM=     3 IB=3 DotPA=          0.00000000
 IM=     3 IB=4 DotPA=          1.25700836
 IM=     4 IB=1 DotPA=          0.00000000
 IM=     4 IB=2 DotPA=          0.00000000
 IM=     4 IB=3 DotPA=          0.00000000
 IM=     4 IB=4 DotPA=          0.48392872
 IM=     5 IB=1 DotPA=          0.00000000
 IM=     5 IB=2 DotPA=          0.00000000
 IM=     5 IB=3 DotPA=          0.00000000
 IM=     5 IB=4 DotPA=          0.84013675
 IM=     6 IB=1 DotPA=          0.00000000
 IM=     6 IB=2 DotPA=          0.00000000
 IM=     6 IB=3 DotPA=          0.00000000
 IM=     6 IB=4 DotPA=          0.33784556
 IM=     7 IB=1 DotPA=          0.00000000
 IM=     7 IB=2 DotPA=          0.00000000
 IM=     7 IB=3 DotPA=          0.00000000
 IM=     7 IB=4 DotPA=          1.01447256
 IM=     8 IB=1 DotPA=          0.00000000
 IM=     8 IB=2 DotPA=          0.00000000
 IM=     8 IB=3 DotPA=          0.00000000
 IM=     8 IB=4 DotPA=          0.57433976
 IM=     9 IB=1 DotPA=          0.00000000
 IM=     9 IB=2 DotPA=          0.00000000
 IM=     9 IB=3 DotPA=          0.00000000
 IM=     9 IB=4 DotPA=          0.52971431
 FoFMem:  NOp1=  1 NOp2=  4 NOpUse=  1 NSOp=  4 NMatL=     9 DoSAO=T
 IM=     1 IB=1 DotFA=          0.00000000
 IM=     1 IB=2 DotFA=          0.00000000
 IM=     1 IB=3 DotFA=          0.00000000
 IM=     1 IB=4 DotFA=          0.03196820
 IM=     2 IB=1 DotFA=          0.00000000
 IM=     2 IB=2 DotFA=          0.00000000
 IM=     2 IB=3 DotFA=          0.00000000
 IM=     2 IB=4 DotFA=          0.01276944
 IM=     3 IB=1 DotFA=          0.00000000
 IM=     3 IB=2 DotFA=          0.00000000
 IM=     3 IB=3 DotFA=          0.00000000
 IM=     3 IB=4 DotFA=          0.03954636
 IM=     4 IB=1 DotFA=          0.00000000
 IM=     4 IB=2 DotFA=          0.00000000
 IM=     4 IB=3 DotFA=          0.00000000
 IM=     4 IB=4 DotFA=          0.07207307
 IM=     5 IB=1 DotFA=          0.00000000
 IM=     5 IB=2 DotFA=          0.00000000
 IM=     5 IB=3 DotFA=          0.00000000
 IM=     5 IB=4 DotFA=          0.00963276
 IM=     6 IB=1 DotFA=          0.00000000
 IM=     6 IB=2 DotFA=          0.00000000
 IM=     6 IB=3 DotFA=          0.00000000
 IM=     6 IB=4 DotFA=          0.00969787
 IM=     7 IB=1 DotFA=          0.00000000
 IM=     7 IB=2 DotFA=          0.00000000
 IM=     7 IB=3 DotFA=          0.00000000
 IM=     7 IB=4 DotFA=          0.02239566
 IM=     8 IB=1 DotFA=          0.00000000
 IM=     8 IB=2 DotFA=          0.00000000
 IM=     8 IB=3 DotFA=          0.00000000
 IM=     8 IB=4 DotFA=          0.02969602
 IM=     9 IB=1 DotFA=          0.00000000
 IM=     9 IB=2 DotFA=          0.00000000
 IM=     9 IB=3 DotFA=          0.00000000
 IM=     9 IB=4 DotFA=          0.07428512
 FoFMem:  NOp1=  1 NOp2=  4 NOpUse=  1 NSOp=  4 NMatL=     9 DoSAO=T
 IM=     1 IB=1 DotPA=          0.00000000
 IM=     1 IB=2 DotPA=          0.00000000
 IM=     1 IB=3 DotPA=          0.61875009
 IM=     1 IB=4 DotPA=          0.00000000
 IM=     2 IB=1 DotPA=          0.00000000
 IM=     2 IB=2 DotPA=          0.00000000
 IM=     2 IB=3 DotPA=          0.83377197
 IM=     2 IB=4 DotPA=          0.00000000
 IM=     3 IB=1 DotPA=          0.00000000
 IM=     3 IB=2 DotPA=          0.00000000
 IM=     3 IB=3 DotPA=          1.25700836
 IM=     3 IB=4 DotPA=          0.00000000
 IM=     4 IB=1 DotPA=          0.00000000
 IM=     4 IB=2 DotPA=          0.00000000
 IM=     4 IB=3 DotPA=          0.48392872
 IM=     4 IB=4 DotPA=          0.00000000
 IM=     5 IB=1 DotPA=          0.00000000
 IM=     5 IB=2 DotPA=          0.00000000
 IM=     5 IB=3 DotPA=          0.84013675
 IM=     5 IB=4 DotPA=          0.00000000
 IM=     6 IB=1 DotPA=          0.00000000
 IM=     6 IB=2 DotPA=          0.00000000
 IM=     6 IB=3 DotPA=          0.33784556
 IM=     6 IB=4 DotPA=          0.00000000
 IM=     7 IB=1 DotPA=          0.00000000
 IM=     7 IB=2 DotPA=          0.00000000
 IM=     7 IB=3 DotPA=          1.01447256
 IM=     7 IB=4 DotPA=          0.00000000
 IM=     8 IB=1 DotPA=          0.00000000
 IM=     8 IB=2 DotPA=          0.00000000
 IM=     8 IB=3 DotPA=          0.57433976
 IM=     8 IB=4 DotPA=          0.00000000
 IM=     9 IB=1 DotPA=          0.00000000
 IM=     9 IB=2 DotPA=          0.00000000
 IM=     9 IB=3 DotPA=          0.52971431
 IM=     9 IB=4 DotPA=          0.00000000
 FoFMem:  NOp1=  1 NOp2=  4 NOpUse=  1 NSOp=  4 NMatL=     9 DoSAO=T
 IM=     1 IB=1 DotFA=          0.00000000
 IM=     1 IB=2 DotFA=          0.00000000
 IM=     1 IB=3 DotFA=          0.03196820
 IM=     1 IB=4 DotFA=          0.00000000
 IM=     2 IB=1 DotFA=          0.00000000
 IM=     2 IB=2 DotFA=          0.00000000
 IM=     2 IB=3 DotFA=          0.01276944
 IM=     2 IB=4 DotFA=          0.00000000
 IM=     3 IB=1 DotFA=          0.00000000
 IM=     3 IB=2 DotFA=          0.00000000
 IM=     3 IB=3 DotFA=          0.03954636
 IM=     3 IB=4 DotFA=          0.00000000
 IM=     4 IB=1 DotFA=          0.00000000
 IM=     4 IB=2 DotFA=          0.00000000
 IM=     4 IB=3 DotFA=          0.07207307
 IM=     4 IB=4 DotFA=          0.00000000
 IM=     5 IB=1 DotFA=          0.00000000
 IM=     5 IB=2 DotFA=          0.00000000
 IM=     5 IB=3 DotFA=          0.00963276
 IM=     5 IB=4 DotFA=          0.00000000
 IM=     6 IB=1 DotFA=          0.00000000
 IM=     6 IB=2 DotFA=          0.00000000
 IM=     6 IB=3 DotFA=          0.00969787
 IM=     6 IB=4 DotFA=          0.00000000
 IM=     7 IB=1 DotFA=          0.00000000
 IM=     7 IB=2 DotFA=          0.00000000
 IM=     7 IB=3 DotFA=          0.02239566
 IM=     7 IB=4 DotFA=          0.00000000
 IM=     8 IB=1 DotFA=          0.00000000
 IM=     8 IB=2 DotFA=          0.00000000
 IM=     8 IB=3 DotFA=          0.02969602
 IM=     8 IB=4 DotFA=          0.00000000
 IM=     9 IB=1 DotFA=          0.00000000
 IM=     9 IB=2 DotFA=          0.00000000
 IM=     9 IB=3 DotFA=          0.07428512
 IM=     9 IB=4 DotFA=          0.00000000
 FoFMem:  NOp1=  1 NOp2=  4 NOpUse=  1 NSOp=  4 NMatL=     6 DoSAO=T
 IM=     1 IB=1 DotPA=          0.00000000
 IM=     1 IB=2 DotPA=          0.28638385
 IM=     1 IB=3 DotPA=          0.00000000
 IM=     1 IB=4 DotPA=          0.00000000
 IM=     2 IB=1 DotPA=          0.00000000
 IM=     2 IB=2 DotPA=          0.42065418
 IM=     2 IB=3 DotPA=          0.00000000
 IM=     2 IB=4 DotPA=          0.00000000
 IM=     3 IB=1 DotPA=          0.00000000
 IM=     3 IB=2 DotPA=          0.49573196
 IM=     3 IB=3 DotPA=          0.00000000
 IM=     3 IB=4 DotPA=          0.00000000
 IM=     4 IB=1 DotPA=          0.00000000
 IM=     4 IB=2 DotPA=          0.57711178
 IM=     4 IB=3 DotPA=          0.00000000
 IM=     4 IB=4 DotPA=          0.00000000
 IM=     5 IB=1 DotPA=          0.00000000
 IM=     5 IB=2 DotPA=          0.49573196
 IM=     5 IB=3 DotPA=          0.00000000
 IM=     5 IB=4 DotPA=          0.00000000
 IM=     6 IB=1 DotPA=          0.00000000
 IM=     6 IB=2 DotPA=          0.57711178
 IM=     6 IB=3 DotPA=          0.00000000
 IM=     6 IB=4 DotPA=          0.00000000
 FoFMem:  NOp1=  1 NOp2=  4 NOpUse=  1 NSOp=  4 NMatL=     6 DoSAO=T
 IM=     1 IB=1 DotFA=          0.00000000
 IM=     1 IB=2 DotFA=          0.00473538
 IM=     1 IB=3 DotFA=          0.00000000
 IM=     1 IB=4 DotFA=          0.00000000
 IM=     2 IB=1 DotFA=          0.00000000
 IM=     2 IB=2 DotFA=          0.01467500
 IM=     2 IB=3 DotFA=          0.00000000
 IM=     2 IB=4 DotFA=          0.00000000
 IM=     3 IB=1 DotFA=          0.00000000
 IM=     3 IB=2 DotFA=          0.01515747
 IM=     3 IB=3 DotFA=          0.00000000
 IM=     3 IB=4 DotFA=          0.00000000
 IM=     4 IB=1 DotFA=          0.00000000
 IM=     4 IB=2 DotFA=          0.06418682
 IM=     4 IB=3 DotFA=          0.00000000
 IM=     4 IB=4 DotFA=          0.00000000
 IM=     5 IB=1 DotFA=          0.00000000
 IM=     5 IB=2 DotFA=          0.01515747
 IM=     5 IB=3 DotFA=          0.00000000
 IM=     5 IB=4 DotFA=          0.00000000
 IM=     6 IB=1 DotFA=          0.00000000
 IM=     6 IB=2 DotFA=          0.06418682
 IM=     6 IB=3 DotFA=          0.00000000
 IM=     6 IB=4 DotFA=          0.00000000
 FoFMem:  NOp1=  1 NOp2=  4 NOpUse=  1 NSOp=  4 NMatL=    12 DoSAO=T
 IM=     1 IB=1 DotPA=          0.02981720
 IM=     1 IB=2 DotPA=          0.00000000
 IM=     1 IB=3 DotPA=          0.00000000
 IM=     1 IB=4 DotPA=          0.00000000
 IM=     2 IB=1 DotPA=          0.40081335
 IM=     2 IB=2 DotPA=          0.00000000
 IM=     2 IB=3 DotPA=          0.00000000
 IM=     2 IB=4 DotPA=          0.00000000
 IM=     3 IB=1 DotPA=          0.22114386
 IM=     3 IB=2 DotPA=          0.00000000
 IM=     3 IB=3 DotPA=          0.00000000
 IM=     3 IB=4 DotPA=          0.00000000
 IM=     4 IB=1 DotPA=          0.34865060
 IM=     4 IB=2 DotPA=          0.00000000
 IM=     4 IB=3 DotPA=          0.00000000
 IM=     4 IB=4 DotPA=          0.00000000
 IM=     5 IB=1 DotPA=          0.23881651
 IM=     5 IB=2 DotPA=          0.00000000
 IM=     5 IB=3 DotPA=          0.00000000
 IM=     5 IB=4 DotPA=          0.00000000
 IM=     6 IB=1 DotPA=          0.32411831
 IM=     6 IB=2 DotPA=          0.00000000
 IM=     6 IB=3 DotPA=          0.00000000
 IM=     6 IB=4 DotPA=          0.00000000
 IM=     7 IB=1 DotPA=          0.42488828
 IM=     7 IB=2 DotPA=          0.00000000
 IM=     7 IB=3 DotPA=          0.00000000
 IM=     7 IB=4 DotPA=          0.00000000
 IM=     8 IB=1 DotPA=          0.23205382
 IM=     8 IB=2 DotPA=          0.00000000
 IM=     8 IB=3 DotPA=          0.00000000
 IM=     8 IB=4 DotPA=          0.00000000
 IM=     9 IB=1 DotPA=          0.31172028
 IM=     9 IB=2 DotPA=          0.00000000
 IM=     9 IB=3 DotPA=          0.00000000
 IM=     9 IB=4 DotPA=          0.00000000
 IM=    10 IB=1 DotPA=          0.18057183
 IM=    10 IB=2 DotPA=          0.00000000
 IM=    10 IB=3 DotPA=          0.00000000
 IM=    10 IB=4 DotPA=          0.00000000
 IM=    11 IB=1 DotPA=          0.31172028
 IM=    11 IB=2 DotPA=          0.00000000
 IM=    11 IB=3 DotPA=          0.00000000
 IM=    11 IB=4 DotPA=          0.00000000
 IM=    12 IB=1 DotPA=          0.18057183
 IM=    12 IB=2 DotPA=          0.00000000
 IM=    12 IB=3 DotPA=          0.00000000
 IM=    12 IB=4 DotPA=          0.00000000
 FoFMem:  NOp1=  1 NOp2=  4 NOpUse=  1 NSOp=  4 NMatL=    12 DoSAO=T
 IM=     1 IB=1 DotFA=          0.00580251
 IM=     1 IB=2 DotFA=          0.00000000
 IM=     1 IB=3 DotFA=          0.00000000
 IM=     1 IB=4 DotFA=          0.00000000
 IM=     2 IB=1 DotFA=          0.03344478
 IM=     2 IB=2 DotFA=          0.00000000
 IM=     2 IB=3 DotFA=          0.00000000
 IM=     2 IB=4 DotFA=          0.00000000
 IM=     3 IB=1 DotFA=          0.00679030
 IM=     3 IB=2 DotFA=          0.00000000
 IM=     3 IB=3 DotFA=          0.00000000
 IM=     3 IB=4 DotFA=          0.00000000
 IM=     4 IB=1 DotFA=          0.02097231
 IM=     4 IB=2 DotFA=          0.00000000
 IM=     4 IB=3 DotFA=          0.00000000
 IM=     4 IB=4 DotFA=          0.00000000
 IM=     5 IB=1 DotFA=          0.02053150
 IM=     5 IB=2 DotFA=          0.00000000
 IM=     5 IB=3 DotFA=          0.00000000
 IM=     5 IB=4 DotFA=          0.00000000
 IM=     6 IB=1 DotFA=          0.03653117
 IM=     6 IB=2 DotFA=          0.00000000
 IM=     6 IB=3 DotFA=          0.00000000
 IM=     6 IB=4 DotFA=          0.00000000
 IM=     7 IB=1 DotFA=          0.03093297
 IM=     7 IB=2 DotFA=          0.00000000
 IM=     7 IB=3 DotFA=          0.00000000
 IM=     7 IB=4 DotFA=          0.00000000
 IM=     8 IB=1 DotFA=          0.02258060
 IM=     8 IB=2 DotFA=          0.00000000
 IM=     8 IB=3 DotFA=          0.00000000
 IM=     8 IB=4 DotFA=          0.00000000
 IM=     9 IB=1 DotFA=          0.01015823
 IM=     9 IB=2 DotFA=          0.00000000
 IM=     9 IB=3 DotFA=          0.00000000
 IM=     9 IB=4 DotFA=          0.00000000
 IM=    10 IB=1 DotFA=          0.01865023
 IM=    10 IB=2 DotFA=          0.00000000
 IM=    10 IB=3 DotFA=          0.00000000
 IM=    10 IB=4 DotFA=          0.00000000
 IM=    11 IB=1 DotFA=          0.01015823
 IM=    11 IB=2 DotFA=          0.00000000
 IM=    11 IB=3 DotFA=          0.00000000
 IM=    11 IB=4 DotFA=          0.00000000
 IM=    12 IB=1 DotFA=          0.01865023
 IM=    12 IB=2 DotFA=          0.00000000
 IM=    12 IB=3 DotFA=          0.00000000
 IM=    12 IB=4 DotFA=          0.00000000
 FoFMem:  NOp1=  1 NOp2=  4 NOpUse=  1 NSOp=  4 NMatL=     9 DoSAO=T
 IM=     1 IB=1 DotPA=          0.00000000
 IM=     1 IB=2 DotPA=          0.00000000
 IM=     1 IB=3 DotPA=          0.00000000
 IM=     1 IB=4 DotPA=          2.07553970
 IM=     2 IB=1 DotPA=          0.00000000
 IM=     2 IB=2 DotPA=          0.00000000
 IM=     2 IB=3 DotPA=          0.00000000
 IM=     2 IB=4 DotPA=          2.57394850
 IM=     3 IB=1 DotPA=          0.00000000
 IM=     3 IB=2 DotPA=          0.00000000
 IM=     3 IB=3 DotPA=          0.00000000
 IM=     3 IB=4 DotPA=          0.70706926
 IM=     4 IB=1 DotPA=          0.00000000
 IM=     4 IB=2 DotPA=          0.00000000
 IM=     4 IB=3 DotPA=          0.00000000
 IM=     4 IB=4 DotPA=          3.54708488
 IM=     5 IB=1 DotPA=          0.00000000
 IM=     5 IB=2 DotPA=          0.00000000
 IM=     5 IB=3 DotPA=          0.00000000
 IM=     5 IB=4 DotPA=          2.57942121
 IM=     6 IB=1 DotPA=          0.00000000
 IM=     6 IB=2 DotPA=          0.00000000
 IM=     6 IB=3 DotPA=          0.00000000
 IM=     6 IB=4 DotPA=          0.53447147
 IM=     7 IB=1 DotPA=          0.00000000
 IM=     7 IB=2 DotPA=          0.00000000
 IM=     7 IB=3 DotPA=          0.00000000
 IM=     7 IB=4 DotPA=          1.63962571
 IM=     8 IB=1 DotPA=          0.00000000
 IM=     8 IB=2 DotPA=          0.00000000
 IM=     8 IB=3 DotPA=          0.00000000
 IM=     8 IB=4 DotPA=          2.52326313
 IM=     9 IB=1 DotPA=          0.00000000
 IM=     9 IB=2 DotPA=          0.00000000
 IM=     9 IB=3 DotPA=          0.00000000
 IM=     9 IB=4 DotPA=          2.15430800
 FoFMem:  NOp1=  1 NOp2=  4 NOpUse=  1 NSOp=  4 NMatL=     9 DoSAO=T
 IM=     1 IB=1 DotFA=          0.00000000
 IM=     1 IB=2 DotFA=          0.00000000
 IM=     1 IB=3 DotFA=          0.00000000
 IM=     1 IB=4 DotFA=          0.11317302
 IM=     2 IB=1 DotFA=          0.00000000
 IM=     2 IB=2 DotFA=          0.00000000
 IM=     2 IB=3 DotFA=          0.00000000
 IM=     2 IB=4 DotFA=          0.02256803
 IM=     3 IB=1 DotFA=          0.00000000
 IM=     3 IB=2 DotFA=          0.00000000
 IM=     3 IB=3 DotFA=          0.00000000
 IM=     3 IB=4 DotFA=          0.05128552
 IM=     4 IB=1 DotFA=          0.00000000
 IM=     4 IB=2 DotFA=          0.00000000
 IM=     4 IB=3 DotFA=          0.00000000
 IM=     4 IB=4 DotFA=          0.13298906
 IM=     5 IB=1 DotFA=          0.00000000
 IM=     5 IB=2 DotFA=          0.00000000
 IM=     5 IB=3 DotFA=          0.00000000
 IM=     5 IB=4 DotFA=          0.01750101
 IM=     6 IB=1 DotFA=          0.00000000
 IM=     6 IB=2 DotFA=          0.00000000
 IM=     6 IB=3 DotFA=          0.00000000
 IM=     6 IB=4 DotFA=          0.02960140
 IM=     7 IB=1 DotFA=          0.00000000
 IM=     7 IB=2 DotFA=          0.00000000
 IM=     7 IB=3 DotFA=          0.00000000
 IM=     7 IB=4 DotFA=          0.04099256
 IM=     8 IB=1 DotFA=          0.00000000
 IM=     8 IB=2 DotFA=          0.00000000
 IM=     8 IB=3 DotFA=          0.00000000
 IM=     8 IB=4 DotFA=          0.11269356
 IM=     9 IB=1 DotFA=          0.00000000
 IM=     9 IB=2 DotFA=          0.00000000
 IM=     9 IB=3 DotFA=          0.00000000
 IM=     9 IB=4 DotFA=          0.12531528
 FoFMem:  NOp1=  1 NOp2=  4 NOpUse=  1 NSOp=  4 NMatL=     9 DoSAO=T
 IM=     1 IB=1 DotPA=          0.00000000
 IM=     1 IB=2 DotPA=          0.00000000
 IM=     1 IB=3 DotPA=          2.07553970
 IM=     1 IB=4 DotPA=          0.00000000
 IM=     2 IB=1 DotPA=          0.00000000
 IM=     2 IB=2 DotPA=          0.00000000
 IM=     2 IB=3 DotPA=          2.57394850
 IM=     2 IB=4 DotPA=          0.00000000
 IM=     3 IB=1 DotPA=          0.00000000
 IM=     3 IB=2 DotPA=          0.00000000
 IM=     3 IB=3 DotPA=          0.70706926
 IM=     3 IB=4 DotPA=          0.00000000
 IM=     4 IB=1 DotPA=          0.00000000
 IM=     4 IB=2 DotPA=          0.00000000
 IM=     4 IB=3 DotPA=          3.54708488
 IM=     4 IB=4 DotPA=          0.00000000
 IM=     5 IB=1 DotPA=          0.00000000
 IM=     5 IB=2 DotPA=          0.00000000
 IM=     5 IB=3 DotPA=          2.57942121
 IM=     5 IB=4 DotPA=          0.00000000
 IM=     6 IB=1 DotPA=          0.00000000
 IM=     6 IB=2 DotPA=          0.00000000
 IM=     6 IB=3 DotPA=          0.53447147
 IM=     6 IB=4 DotPA=          0.00000000
 IM=     7 IB=1 DotPA=          0.00000000
 IM=     7 IB=2 DotPA=          0.00000000
 IM=     7 IB=3 DotPA=          1.63962571
 IM=     7 IB=4 DotPA=          0.00000000
 IM=     8 IB=1 DotPA=          0.00000000
 IM=     8 IB=2 DotPA=          0.00000000
 IM=     8 IB=3 DotPA=          2.52326313
 IM=     8 IB=4 DotPA=          0.00000000
 IM=     9 IB=1 DotPA=          0.00000000
 IM=     9 IB=2 DotPA=          0.00000000
 IM=     9 IB=3 DotPA=          2.15430800
 IM=     9 IB=4 DotPA=          0.00000000
 FoFMem:  NOp1=  1 NOp2=  4 NOpUse=  1 NSOp=  4 NMatL=     9 DoSAO=T
 IM=     1 IB=1 DotFA=          0.00000000
 IM=     1 IB=2 DotFA=          0.00000000
 IM=     1 IB=3 DotFA=          0.11317302
 IM=     1 IB=4 DotFA=          0.00000000
 IM=     2 IB=1 DotFA=          0.00000000
 IM=     2 IB=2 DotFA=          0.00000000
 IM=     2 IB=3 DotFA=          0.02256803
 IM=     2 IB=4 DotFA=          0.00000000
 IM=     3 IB=1 DotFA=          0.00000000
 IM=     3 IB=2 DotFA=          0.00000000
 IM=     3 IB=3 DotFA=          0.05128552
 IM=     3 IB=4 DotFA=          0.00000000
 IM=     4 IB=1 DotFA=          0.00000000
 IM=     4 IB=2 DotFA=          0.00000000
 IM=     4 IB=3 DotFA=          0.13298906
 IM=     4 IB=4 DotFA=          0.00000000
 IM=     5 IB=1 DotFA=          0.00000000
 IM=     5 IB=2 DotFA=          0.00000000
 IM=     5 IB=3 DotFA=          0.01750101
 IM=     5 IB=4 DotFA=          0.00000000
 IM=     6 IB=1 DotFA=          0.00000000
 IM=     6 IB=2 DotFA=          0.00000000
 IM=     6 IB=3 DotFA=          0.02960140
 IM=     6 IB=4 DotFA=          0.00000000
 IM=     7 IB=1 DotFA=          0.00000000
 IM=     7 IB=2 DotFA=          0.00000000
 IM=     7 IB=3 DotFA=          0.04099256
 IM=     7 IB=4 DotFA=          0.00000000
 IM=     8 IB=1 DotFA=          0.00000000
 IM=     8 IB=2 DotFA=          0.00000000
 IM=     8 IB=3 DotFA=          0.11269356
 IM=     8 IB=4 DotFA=          0.00000000
 IM=     9 IB=1 DotFA=          0.00000000
 IM=     9 IB=2 DotFA=          0.00000000
 IM=     9 IB=3 DotFA=          0.12531528
 IM=     9 IB=4 DotFA=          0.00000000
 FoFMem:  NOp1=  1 NOp2=  4 NOpUse=  1 NSOp=  4 NMatL=     6 DoSAO=T
 IM=     1 IB=1 DotPA=          0.00000000
 IM=     1 IB=2 DotPA=          1.12566198
 IM=     1 IB=3 DotPA=          0.00000000
 IM=     1 IB=4 DotPA=          0.00000000
 IM=     2 IB=1 DotPA=          0.00000000
 IM=     2 IB=2 DotPA=          2.16067881
 IM=     2 IB=3 DotPA=          0.00000000
 IM=     2 IB=4 DotPA=          0.00000000
 IM=     3 IB=1 DotPA=          0.00000000
 IM=     3 IB=2 DotPA=          1.63710015
 IM=     3 IB=3 DotPA=          0.00000000
 IM=     3 IB=4 DotPA=          0.00000000
 IM=     4 IB=1 DotPA=          0.00000000
 IM=     4 IB=2 DotPA=          1.84392831
 IM=     4 IB=3 DotPA=          0.00000000
 IM=     4 IB=4 DotPA=          0.00000000
 IM=     5 IB=1 DotPA=          0.00000000
 IM=     5 IB=2 DotPA=          1.63710015
 IM=     5 IB=3 DotPA=          0.00000000
 IM=     5 IB=4 DotPA=          0.00000000
 IM=     6 IB=1 DotPA=          0.00000000
 IM=     6 IB=2 DotPA=          1.84392831
 IM=     6 IB=3 DotPA=          0.00000000
 IM=     6 IB=4 DotPA=          0.00000000
 FoFMem:  NOp1=  1 NOp2=  4 NOpUse=  1 NSOp=  4 NMatL=     6 DoSAO=T
 IM=     1 IB=1 DotFA=          0.00000000
 IM=     1 IB=2 DotFA=          0.00776629
 IM=     1 IB=3 DotFA=          0.00000000
 IM=     1 IB=4 DotFA=          0.00000000
 IM=     2 IB=1 DotFA=          0.00000000
 IM=     2 IB=2 DotFA=          0.02781250
 IM=     2 IB=3 DotFA=          0.00000000
 IM=     2 IB=4 DotFA=          0.00000000
 IM=     3 IB=1 DotFA=          0.00000000
 IM=     3 IB=2 DotFA=          0.02436665
 IM=     3 IB=3 DotFA=          0.00000000
 IM=     3 IB=4 DotFA=          0.00000000
 IM=     4 IB=1 DotFA=          0.00000000
 IM=     4 IB=2 DotFA=          0.09827556
 IM=     4 IB=3 DotFA=          0.00000000
 IM=     4 IB=4 DotFA=          0.00000000
 IM=     5 IB=1 DotFA=          0.00000000
 IM=     5 IB=2 DotFA=          0.02436665
 IM=     5 IB=3 DotFA=          0.00000000
 IM=     5 IB=4 DotFA=          0.00000000
 IM=     6 IB=1 DotFA=          0.00000000
 IM=     6 IB=2 DotFA=          0.09827556
 IM=     6 IB=3 DotFA=          0.00000000
 IM=     6 IB=4 DotFA=          0.00000000
 FoFMem:  NOp1=  1 NOp2=  4 NOpUse=  1 NSOp=  4 NMatL=    12 DoSAO=T
 IM=     1 IB=1 DotPA=          8.38448970
 IM=     1 IB=2 DotPA=          0.00000000
 IM=     1 IB=3 DotPA=          0.00000000
 IM=     1 IB=4 DotPA=          0.00000000
 IM=     2 IB=1 DotPA=          2.50410002
 IM=     2 IB=2 DotPA=          0.00000000
 IM=     2 IB=3 DotPA=          0.00000000
 IM=     2 IB=4 DotPA=          0.00000000
 IM=     3 IB=1 DotPA=          0.96423764
 IM=     3 IB=2 DotPA=          0.00000000
 IM=     3 IB=3 DotPA=          0.00000000
 IM=     3 IB=4 DotPA=          0.00000000
 IM=     4 IB=1 DotPA=          1.86613428
 IM=     4 IB=2 DotPA=          0.00000000
 IM=     4 IB=3 DotPA=          0.00000000
 IM=     4 IB=4 DotPA=          0.00000000
 IM=     5 IB=1 DotPA=          1.67229606
 IM=     5 IB=2 DotPA=          0.00000000
 IM=     5 IB=3 DotPA=          0.00000000
 IM=     5 IB=4 DotPA=          0.00000000
 IM=     6 IB=1 DotPA=          7.09932019
 IM=     6 IB=2 DotPA=          0.00000000
 IM=     6 IB=3 DotPA=          0.00000000
 IM=     6 IB=4 DotPA=          0.00000000
 IM=     7 IB=1 DotPA=          2.93483227
 IM=     7 IB=2 DotPA=          0.00000000
 IM=     7 IB=3 DotPA=          0.00000000
 IM=     7 IB=4 DotPA=          0.00000000
 IM=     8 IB=1 DotPA=         16.46920551
 IM=     8 IB=2 DotPA=          0.00000000
 IM=     8 IB=3 DotPA=          0.00000000
 IM=     8 IB=4 DotPA=          0.00000000
 IM=     9 IB=1 DotPA=          7.25024918
 IM=     9 IB=2 DotPA=          0.00000000
 IM=     9 IB=3 DotPA=          0.00000000
 IM=     9 IB=4 DotPA=          0.00000000
 IM=    10 IB=1 DotPA=          7.63206950
 IM=    10 IB=2 DotPA=          0.00000000
 IM=    10 IB=3 DotPA=          0.00000000
 IM=    10 IB=4 DotPA=          0.00000000
 IM=    11 IB=1 DotPA=          7.25024918
 IM=    11 IB=2 DotPA=          0.00000000
 IM=    11 IB=3 DotPA=          0.00000000
 IM=    11 IB=4 DotPA=          0.00000000
 IM=    12 IB=1 DotPA=          7.63206950
 IM=    12 IB=2 DotPA=          0.00000000
 IM=    12 IB=3 DotPA=          0.00000000
 IM=    12 IB=4 DotPA=          0.00000000
 FoFMem:  NOp1=  1 NOp2=  4 NOpUse=  1 NSOp=  4 NMatL=    12 DoSAO=T
 IM=     1 IB=1 DotFA=          0.19397515
 IM=     1 IB=2 DotFA=          0.00000000
 IM=     1 IB=3 DotFA=          0.00000000
 IM=     1 IB=4 DotFA=          0.00000000
 IM=     2 IB=1 DotFA=          0.12294032
 IM=     2 IB=2 DotFA=          0.00000000
 IM=     2 IB=3 DotFA=          0.00000000
 IM=     2 IB=4 DotFA=          0.00000000
 IM=     3 IB=1 DotFA=          0.01198311
 IM=     3 IB=2 DotFA=          0.00000000
 IM=     3 IB=3 DotFA=          0.00000000
 IM=     3 IB=4 DotFA=          0.00000000
 IM=     4 IB=1 DotFA=          0.04256005
 IM=     4 IB=2 DotFA=          0.00000000
 IM=     4 IB=3 DotFA=          0.00000000
 IM=     4 IB=4 DotFA=          0.00000000
 IM=     5 IB=1 DotFA=          0.05939992
 IM=     5 IB=2 DotFA=          0.00000000
 IM=     5 IB=3 DotFA=          0.00000000
 IM=     5 IB=4 DotFA=          0.00000000
 IM=     6 IB=1 DotFA=          0.18557543
 IM=     6 IB=2 DotFA=          0.00000000
 IM=     6 IB=3 DotFA=          0.00000000
 IM=     6 IB=4 DotFA=          0.00000000
 IM=     7 IB=1 DotFA=          0.11017742
 IM=     7 IB=2 DotFA=          0.00000000
 IM=     7 IB=3 DotFA=          0.00000000
 IM=     7 IB=4 DotFA=          0.00000000
 IM=     8 IB=1 DotFA=          0.36579387
 IM=     8 IB=2 DotFA=          0.00000000
 IM=     8 IB=3 DotFA=          0.00000000
 IM=     8 IB=4 DotFA=          0.00000000
 IM=     9 IB=1 DotFA=          0.08136800
 IM=     9 IB=2 DotFA=          0.00000000
 IM=     9 IB=3 DotFA=          0.00000000
 IM=     9 IB=4 DotFA=          0.00000000
 IM=    10 IB=1 DotFA=          0.29499140
 IM=    10 IB=2 DotFA=          0.00000000
 IM=    10 IB=3 DotFA=          0.00000000
 IM=    10 IB=4 DotFA=          0.00000000
 IM=    11 IB=1 DotFA=          0.08136800
 IM=    11 IB=2 DotFA=          0.00000000
 IM=    11 IB=3 DotFA=          0.00000000
 IM=    11 IB=4 DotFA=          0.00000000
 IM=    12 IB=1 DotFA=          0.29499140
 IM=    12 IB=2 DotFA=          0.00000000
 IM=    12 IB=3 DotFA=          0.00000000
 IM=    12 IB=4 DotFA=          0.00000000
 Aft DD1 bucket IAS1 number    25 has length         1080 dot= 0.48691601D-02
 Aft DD1 bucket IAS2 number    26 has length          500 dot= 0.44156784D-02
 Aft DD1 bucket IAD1 number    22 has length        64312 dot= 0.35996539D-01
 Aft DD1 bucket IAD2 number    23 has length       137790 dot= 0.95209635D-01
 Aft DD1 bucket IAD3 number    24 has length        11650 dot= 0.18212162D-01
 Aft DD1 bucket IWS1 number 12996 has length         1080 dot= 0.24802756D-01
 Aft DD1 bucket IWS2 number 12995 has length          500 dot= 0.24043977D-01
 Aft DD1 bucket IWD1 number 12994 has length        64312 dot= 0.16770795D-01
 Aft DD1 bucket IWD2 number 12993 has length       137790 dot= 0.66636351D-01
 Aft DD1 bucket IWD3 number 12992 has length        11650 dot= 0.81626356D-02
 Aft DD1 bucket IWAI1 number 19999 has length        40500 dot= 0.98743416D-02
 Aft DD1 bucket IWAI2 number 19998 has length        17280 dot= 0.77551407D-02
 Aft DD1 bucket IWAI3 number 19997 has length        38880 dot= 0.35825448D-02
 Aft DD1 bucket IWAI4 number 19996 has length         3000 dot= 0.17597907D-02
 Bef DD1 bucket IAS1 number    25 has length         1080 dot= 0.48691601D-02
 Bef DD1 bucket IAS2 number    26 has length          500 dot= 0.44156784D-02
 Bef DD1 bucket IAD1 number 12999 has length        64312 dot= 0.52743527D-05
 Bef DD1 bucket IAD2 number 12998 has length       137790 dot= 0.21500645D-04
 Bef DD1 bucket IAD3 number 12997 has length        11650 dot= 0.44927354D-05
 Bef DD1 bucket IWS1 number    30 has length         1080 dot= 0.00000000D+00
 Bef DD1 bucket IWS2 number    31 has length          500 dot= 0.00000000D+00
 Bef DD1 bucket IWD1 number    27 has length        64312 dot= 0.00000000D+00
 Bef DD1 bucket IWD2 number    28 has length       137790 dot= 0.00000000D+00
 Bef DD1 bucket IWD3 number    29 has length        11650 dot= 0.00000000D+00
 Bef DD1 bucket IWAI1 number     0 is not present.
 Bef DD1 bucket IWAI2 number     0 is not present.
 Bef DD1 bucket IWAI3 number     0 is not present.
 Bef DD1 bucket IWAI4 number     0 is not present.
 DD1Dir will call FoFMem   1 times, MxPair=       114
 NAB=    36 NAA=    36 NBB=     6.
 DD1Dir:  Pass   1 NRAB=    36 NRAA=    36 NRBB=     6 NR=   114.
 FoFMem:  NOp1=  1 NOp2=  4 NOpUse=  1 NSOp=  4 NMatL=     2 DoSAO=T
 IM=     1 IB=1 DotPA=          0.00000000
 IM=     1 IB=2 DotPA=          0.00000000
 IM=     1 IB=3 DotPA=          0.00000000
 IM=     1 IB=4 DotPA=          0.00123904
 IM=     2 IB=1 DotPA=          0.00000000
 IM=     2 IB=2 DotPA=          0.00000000
 IM=     2 IB=3 DotPA=          0.00000000
 IM=     2 IB=4 DotPA=          0.00366914
 FoFMem:  NOp1=  1 NOp2=  4 NOpUse=  1 NSOp=  4 NMatL=     2 DoSAO=T
 IM=     1 IB=1 DotFA=          0.00000000
 IM=     1 IB=2 DotFA=          0.00000000
 IM=     1 IB=3 DotFA=          0.00000000
 IM=     1 IB=4 DotFA=          0.00026680
 IM=     2 IB=1 DotFA=          0.00000000
 IM=     2 IB=2 DotFA=          0.00000000
 IM=     2 IB=3 DotFA=          0.00000000
 IM=     2 IB=4 DotFA=          0.00224552
 FoFMem:  NOp1=  1 NOp2=  4 NOpUse=  1 NSOp=  4 NMatL=     2 DoSAO=T
 IM=     1 IB=1 DotPA=          0.00000000
 IM=     1 IB=2 DotPA=          0.00000000
 IM=     1 IB=3 DotPA=          0.00123904
 IM=     1 IB=4 DotPA=          0.00000000
 IM=     2 IB=1 DotPA=          0.00000000
 IM=     2 IB=2 DotPA=          0.00000000
 IM=     2 IB=3 DotPA=          0.00366914
 IM=     2 IB=4 DotPA=          0.00000000
 FoFMem:  NOp1=  1 NOp2=  4 NOpUse=  1 NSOp=  4 NMatL=     2 DoSAO=T
 IM=     1 IB=1 DotFA=          0.00000000
 IM=     1 IB=2 DotFA=          0.00000000
 IM=     1 IB=3 DotFA=          0.00026680
 IM=     1 IB=4 DotFA=          0.00000000
 IM=     2 IB=1 DotFA=          0.00000000
 IM=     2 IB=2 DotFA=          0.00000000
 IM=     2 IB=3 DotFA=          0.00224552
 IM=     2 IB=4 DotFA=          0.00000000
 FoFMem:  NOp1=  1 NOp2=  4 NOpUse=  1 NSOp=  4 NMatL=     1 DoSAO=T
 IM=     1 IB=1 DotPA=          0.00000000
 IM=     1 IB=2 DotPA=          0.00272873
 IM=     1 IB=3 DotPA=          0.00000000
 IM=     1 IB=4 DotPA=          0.00000000
 FoFMem:  NOp1=  1 NOp2=  4 NOpUse=  1 NSOp=  4 NMatL=     1 DoSAO=T
 IM=     1 IB=1 DotFA=          0.00000000
 IM=     1 IB=2 DotFA=          0.00080373
 IM=     1 IB=3 DotFA=          0.00000000
 IM=     1 IB=4 DotFA=          0.00000000
 FoFMem:  NOp1=  1 NOp2=  4 NOpUse=  1 NSOp=  4 NMatL=     1 DoSAO=T
 IM=     1 IB=1 DotPA=          0.00146004
 IM=     1 IB=2 DotPA=          0.00000000
 IM=     1 IB=3 DotPA=          0.00000000
 IM=     1 IB=4 DotPA=          0.00000000
 FoFMem:  NOp1=  1 NOp2=  4 NOpUse=  1 NSOp=  4 NMatL=     1 DoSAO=T
 IM=     1 IB=1 DotFA=          0.00037814
 IM=     1 IB=2 DotFA=          0.00000000
 IM=     1 IB=3 DotFA=          0.00000000
 IM=     1 IB=4 DotFA=          0.00000000
 FoFMem:  NOp1=  1 NOp2=  4 NOpUse=  1 NSOp=  4 NMatL=    10 DoSAO=T
 IM=     1 IB=1 DotPA=          0.00000000
 IM=     1 IB=2 DotPA=          0.00000000
 IM=     1 IB=3 DotPA=          0.00000000
 IM=     1 IB=4 DotPA=          0.00059690
 IM=     2 IB=1 DotPA=          0.00000000
 IM=     2 IB=2 DotPA=          0.00000000
 IM=     2 IB=3 DotPA=          0.00000000
 IM=     2 IB=4 DotPA=          0.00146472
 IM=     3 IB=1 DotPA=          0.00000000
 IM=     3 IB=2 DotPA=          0.00000000
 IM=     3 IB=3 DotPA=          0.00000000
 IM=     3 IB=4 DotPA=          0.00000000
 IM=     4 IB=1 DotPA=          0.00000000
 IM=     4 IB=2 DotPA=          0.00000000
 IM=     4 IB=3 DotPA=          0.00000000
 IM=     4 IB=4 DotPA=          0.00000000
 IM=     5 IB=1 DotPA=          0.00000000
 IM=     5 IB=2 DotPA=          0.00000000
 IM=     5 IB=3 DotPA=          0.00000000
 IM=     5 IB=4 DotPA=          0.00066526
 IM=     6 IB=1 DotPA=          0.00000000
 IM=     6 IB=2 DotPA=          0.00000000
 IM=     6 IB=3 DotPA=          0.00000000
 IM=     6 IB=4 DotPA=          0.00163248
 IM=     7 IB=1 DotPA=          0.00000000
 IM=     7 IB=2 DotPA=          0.00000000
[...]
 Aft SD4 bucket IAD1 number    22 has length        64312 dot= 0.37980001D-01
 Aft SD4 bucket IAD2 number    23 has length       137790 dot= 0.12232716D+00
 Aft SD4 bucket IAD3 number    24 has length        11650 dot= 0.10103036D-01
 Aft SD4 bucket IWS1 number    30 has length         1080 dot= 0.40255330D-01
 Aft SD4 bucket IWS2 number    31 has length          500 dot= 0.59982814D-01
 Aft SD4 bucket IWD1 number    27 has length        64312 dot= 0.15992834D-01
 Aft SD4 bucket IWD2 number    28 has length       137790 dot= 0.80066790D-01
 Aft SD4 bucket IWD3 number    29 has length        11650 dot= 0.51872035D-02
 Aft SD4 bucket IWAI1 number     0 is not present.
 Aft SD4 bucket IWAI2 number     0 is not present.
 Aft SD4 bucket IWAI3 number     0 is not present.
 Aft SD4 bucket IWAI4 number     0 is not present.
 TestDE:  II= 99 I=2 DE=    0.666361075039D-01
 TestDE:  II= 99 I=1 DE=    0.212236135001D-01
 TestDE:  II= 99 I=3 DE=    0.323338842073D-02
 Aft DS4 bucket IAS1 number    25 has length         1080 dot= 0.22284234D+00
 Aft DS4 bucket IAS2 number    26 has length          500 dot= 0.77645462D-01
 Aft DS4 bucket IAD1 number    22 has length        64312 dot= 0.37980001D-01
 Aft DS4 bucket IAD2 number    23 has length       137790 dot= 0.12232716D+00
 Aft DS4 bucket IAD3 number    24 has length        11650 dot= 0.10103036D-01
 Aft DS4 bucket IWS1 number    30 has length         1080 dot= 0.40255330D-01
 Aft DS4 bucket IWS2 number    31 has length          500 dot= 0.59982814D-01
 Aft DS4 bucket IWD1 number    27 has length        64312 dot= 0.41493756D-01
 Aft DS4 bucket IWD2 number    28 has length       137790 dot= 0.10193961D+00
 Aft DS4 bucket IWD3 number    29 has length        11650 dot= 0.53535071D-02
 Aft DS4 bucket IWAI1 number     0 is not present.
 Aft DS4 bucket IWAI2 number     0 is not present.
 Aft DS4 bucket IWAI3 number     0 is not present.
 Aft DS4 bucket IWAI4 number     0 is not present.
 Bef SD5a bucket IAS1 number    25 has length         1080 dot= 0.22284234D+00
 Bef SD5a bucket IAS2 number    26 has length          500 dot= 0.77645462D-01
 Bef SD5a bucket IAD1 number 12999 has length        64312 dot= 0.35046007D-01
 Bef SD5a bucket IAD2 number 12998 has length       137790 dot= 0.14163166D+00
 Bef SD5a bucket IAD3 number 12997 has length        11650 dot= 0.10919035D-01
 Bef SD5a bucket IWS1 number    30 has length         1080 dot= 0.40255330D-01
 Bef SD5a bucket IWS2 number    31 has length          500 dot= 0.59982814D-01
 Bef SD5a bucket IWD1 number    27 has length        64312 dot= 0.41493756D-01
 Bef SD5a bucket IWD2 number    28 has length       137790 dot= 0.10193961D+00
 Bef SD5a bucket IWD3 number    29 has length        11650 dot= 0.53535071D-02
 Bef SD5a bucket IWAI1 number     0 is not present.
 Bef SD5a bucket IWAI2 number     0 is not present.
 Bef SD5a bucket IWAI3 number     0 is not present.
 Bef SD5a bucket IWAI4 number     0 is not present.
 Bef SD5b bucket IAS1 number     0 is not present.
 Bef SD5b bucket IAS2 number     0 is not present.
 Bef SD5b bucket IAD1 number     0 is not present.
 Bef SD5b bucket IAD2 number     0 is not present.
 Bef SD5b bucket IAD3 number     0 is not present.
 Bef SD5b bucket IWS1 number    30 has length         1080 dot= 0.40255330D-01
 Bef SD5b bucket IWS2 number    31 has length          500 dot= 0.59982814D-01
 Bef SD5b bucket IWD1 number    27 has length        64312 dot= 0.41493756D-01
 Bef SD5b bucket IWD2 number    28 has length       137790 dot= 0.10193961D+00
 Bef SD5b bucket IWD3 number    29 has length        11650 dot= 0.53535071D-02
 Bef SD5b bucket IWAI1 number     0 is not present.
 Bef SD5b bucket IWAI2 number     0 is not present.
 Bef SD5b bucket IWAI3 number     0 is not present.
 Bef SD5b bucket IWAI4 number     0 is not present.
 TestDE:  II= 19 I=1 DE=    0.387314422202D-02
 TestDE:  II= 19 I=2 DE=    0.331645531613D-01
 TestDE:  II= 19 I=3 DE=    0.131202475620D-02
 Aft SD5 bucket IAS1 number    25 has length         1080 dot= 0.22284234D+00
 Aft SD5 bucket IAS2 number    26 has length          500 dot= 0.77645462D-01
 Aft SD5 bucket IAD1 number    22 has length        64312 dot= 0.37980001D-01
 Aft SD5 bucket IAD2 number    23 has length       137790 dot= 0.12232716D+00
 Aft SD5 bucket IAD3 number    24 has length        11650 dot= 0.10103036D-01
 Aft SD5 bucket IWS1 number    30 has length         1080 dot= 0.53172857D-01
 Aft SD5 bucket IWS2 number    31 has length          500 dot= 0.43627374D-01
 Aft SD5 bucket IWD1 number    27 has length        64312 dot= 0.43178554D-01
 Aft SD5 bucket IWD2 number    28 has length       137790 dot= 0.11257900D+00
 Aft SD5 bucket IWD3 number    29 has length        11650 dot= 0.95274539D-02
 Aft SD5 bucket IWAI1 number     0 is not present.
 Aft SD5 bucket IWAI2 number     0 is not present.
 Aft SD5 bucket IWAI3 number     0 is not present.
 Aft SD5 bucket IWAI4 number     0 is not present.
 Contribution from DD1=    0.38349722D-01
 Bef DD2 bucket IAS1 number    25 has length         1080 dot= 0.22284234D+00
 Bef DD2 bucket IAS2 number    26 has length          500 dot= 0.77645462D-01
 Bef DD2 bucket IAD1 number    22 has length        64312 dot= 0.37980001D-01
 Bef DD2 bucket IAD2 number    23 has length       137790 dot= 0.12232716D+00
 Bef DD2 bucket IAD3 number    24 has length        11650 dot= 0.10103036D-01
 Bef DD2 bucket IWS1 number    30 has length         1080 dot= 0.53172857D-01
 Bef DD2 bucket IWS2 number    31 has length          500 dot= 0.43627374D-01
 Bef DD2 bucket IWD1 number    27 has length        64312 dot= 0.43178554D-01
 Bef DD2 bucket IWD2 number    28 has length       137790 dot= 0.11257900D+00
 Bef DD2 bucket IWD3 number    29 has length        11650 dot= 0.95274539D-02
 Bef DD2 bucket IWAI1 number     0 is not present.
 Bef DD2 bucket IWAI2 number     0 is not present.
 Bef DD2 bucket IWAI3 number     0 is not present.
 Bef DD2 bucket IWAI4 number     0 is not present.
 ExpSMa:  Full in-core algorithm.
 ExpSMa:  Full in-core algorithm.
 ExpSMa:  Full in-core algorithm.
 ExpSMa:  Full in-core algorithm.
 ExpSMa:  Full in-core algorithm.
 ExpSMa:  Full in-core algorithm.
 ExpSMa:  Full in-core algorithm.
 ExpSMa:  Full in-core algorithm.
 TestDE:  II=419 I=1 DE=    0.233282102957D-01
 TestDE:  II=419 I=2 DE=    0.100354012385D+00
 TestDE:  II=419 I=3 DE=    0.637435056633D-02
 Aft DD2 bucket IAS1 number    25 has length         1080 dot= 0.22284234D+00
 Aft DD2 bucket IAS2 number    26 has length          500 dot= 0.77645462D-01
 Aft DD2 bucket IAD1 number    22 has length        64312 dot= 0.37980001D-01
 Aft DD2 bucket IAD2 number    23 has length       137790 dot= 0.12232716D+00
 Aft DD2 bucket IAD3 number    24 has length        11650 dot= 0.10103036D-01
 Aft DD2 bucket IWS1 number    30 has length         1080 dot= 0.53172857D-01
 Aft DD2 bucket IWS2 number    31 has length          500 dot= 0.43627374D-01
 Aft DD2 bucket IWD1 number    27 has length        64312 dot= 0.65932922D-01
 Aft DD2 bucket IWD2 number    28 has length       137790 dot= 0.20871714D+00
 Aft DD2 bucket IWD3 number    29 has length        11650 dot= 0.14862079D-01
 Aft DD2 bucket IWAI1 number     0 is not present.
 Aft DD2 bucket IWAI2 number     0 is not present.
 Aft DD2 bucket IWAI3 number     0 is not present.
 Aft DD2 bucket IWAI4 number     0 is not present.
 Contribution from DD2=    0.91706851D-01
 Contribution from DD3=    0.00000000D+00
 Singles added:  Sum=   -0.13121019D-01
 End CIDS3 bucket IAS1 number    25 has length         1080 dot= 0.22284234D+00
 End CIDS3 bucket IAS2 number    26 has length          500 dot= 0.77645462D-01
 End CIDS3 bucket IAD1 number    22 has length        64312 dot= 0.37980001D-01
 End CIDS3 bucket IAD2 number    23 has length       137790 dot= 0.12232716D+00
 End CIDS3 bucket IAD3 number    24 has length        11650 dot= 0.10103036D-01
 End CIDS3 bucket IWS1 number    30 has length         1080 dot= 0.53172857D-01
 End CIDS3 bucket IWS2 number    31 has length          500 dot= 0.43627374D-01
 End CIDS3 bucket IWD1 number    27 has length        64312 dot= 0.65932922D-01
 End CIDS3 bucket IWD2 number    28 has length       137790 dot= 0.20871714D+00
 End CIDS3 bucket IWD3 number    29 has length        11650 dot= 0.14862079D-01
 End CIDS3 bucket IWAI1 number     0 is not present.
 End CIDS3 bucket IWAI2 number     0 is not present.
 End CIDS3 bucket IWAI3 number     0 is not present.
 End CIDS3 bucket IWAI4 number     0 is not present.
 Entering DoROCS
 TestDE:  II= 99 I=2 DE=    0.100354012385D+00
 TestDE:  II= 99 I=1 DE=    0.233282102957D-01
 TestDE:  II= 99 I=3 DE=    0.637435056633D-02
 TestDE:  II= 99 I=1 DE=    0.254524612954D-01
 TestDE:  II= 11 I=2 DE=    0.100354012385D+00
 TestDE:  II= 99 I=2 DE=    0.104599891592D+00
 TestDE:  II= 98 I=2 DE=    0.104383081049D+00
 TestDE:  II= 98 I=3 DE=    0.625215319338D-02
 TestDE:  II= 89 I=1 DE=    0.306348487362D-01
 TestDE:  II= 89 I=2 DE=    0.115833966918D+00
 TestDE:  II= 88 I=3 DE=    0.934544255910D-02
 TestDE:  II= 88 I=2 DE=    0.134720893689D+00
 TestDE:  II=  5 I=1 DE=   -0.380888530832D-01
 TestDE:  II=  7 I=2 DE=    0.997682330407D-01
 TestDE:  II=  8 I=2 DE=   -0.147285091748D+00
 TestDE:  II=  9 I=3 DE=   -0.471507576810D-02
 TestDE:  II= 50 I=1 DE=   -0.745400434693D-02
 TestDE:  II= 70 I=2 DE=   -0.475168587077D-01
 TestDE:  II= 90 I=3 DE=    0.463036679100D-02
 UMP4Q scratch file information:
   i      file        len
 ---     ------    ------
   1      19999    320737
   2      19998    320737
   3      19997    320737
   4      19996    320737
   5      19995    320737
   6      19994     15625
 total scratch length=     1619310
 TestDE:  II= 71 I=2 DE=    0.285023948699D-02
 TestDE:  II= 70 I=2 DE=   -0.427465574186D-03
 TestDE:  II= 72 I=2 DE=    0.382096643540D-03
 TestDE:  II= 75 I=2 DE=   -0.476805351046D-01
 TestDE:  II= 75 I=1 DE=   -0.402623349635D-02
 TestDE:  II= 75 I=3 DE=    0.504149695282D-02
 GetDE: DE=      0.00000000D+00
 TestDE:  II= 65 I=1 DE=    0.379800177883D-01
 TestDE:  II= 65 I=2 DE=    0.122327204674D+00
 TestDE:  II= 65 I=3 DE=    0.101030342946D-01
 Singles A-vector converged to   2.5102119D-08
 Singles A-vector converged to   9.1397821D-08
 The Euclidean norm of the A-vectors is   9.3043776D-08
 The Euclidean norm of the A-vectors is   9.7054269D-08
 The Euclidean norm of the A-vectors is   1.0154945D-07
 A(0)= 0.10000E+01      ANORM= 0.12128E+01      W(0)=-0.43267658E+00
 DE(Corr)= -0.44962343     E(CORR)=     -1225.0913068     Delta=-4.45D-08
 NORM(A)=   0.12128062D+01
 Wavefunction amplitudes converged. E(Corr)=     -1225.0913068    
 Dominant configurations:
 ***********************
 Spin Case        I    J    A    B          Value
    AA           19        20            0.382065D+00
    AA           19        23            0.151988D+00
    AA           19        33           -0.107050D+00
    BB           12        15           -0.111946D+00
 Largest amplitude= 3.82D-01
    T4(aaa)= -0.37108541D-02
    T5(aaa)=  0.18874188D-02
    T4(aab)= -0.23794668D-01
    T5(aab)=  0.97602210D-02
    T4(abb)= -0.16277163D-01
    T5(abb)=  0.54235327D-02
    T4(bbb)= -0.75473848D-03
    T5(bbb)=  0.29041819D-03
 Time for triples=      182.83 seconds.
 T4(CCSD)= -0.44537423D-01
 T5(CCSD)=  0.17361591D-01
 CCSD(T)= -0.12251184827D+04
 Discarding MO integrals.

 **********************************************************************

            Population analysis using the SCF density.

 **********************************************************************

 Orbital symmetries:
       Occupied  (SG) (SG) (SG) (PI) (PI) (SG) (SG) (SG) (PI) (PI)
                 (SG) (SG) (PI) (PI) (DLTA) (DLTA) (SG) (PI) (PI)
       Virtual   (SG) (PI) (PI) (SG) (SG) (PI) (PI) (DLTA) (DLTA)
                 (SG) (PI) (PI) (SG) (SG) (PI) (PI) (SG) (SG) (PI)
                 (PI) (DLTA) (DLTA) (PI) (PI) (SG) (SG) (SG) (DLTA)
                 (DLTA) (PHI) (PHI) (PI) (PI) (PI) (PI) (SG) (SG)
                 (DLTA) (DLTA) (PI) (PI) (DLTA) (DLTA) (SG) (PI)
                 (PI) (SG) (PI) (PI) (SG) (DLTA) (DLTA) (PHI) (PHI)
                 (PI) (PI) (SG) (PHI) (PHI) (DLTA) (DLTA) (SG)
                 (PI) (PI) (DLTA) (DLTA) (SG) (?A) (?A) (PHI) (PHI)
                 (PI) (PI) (SG) (PI) (PI) (SG) (DLTA) (DLTA) (SG)
                 (SG) (PI) (PI) (DLTA) (DLTA) (PI) (PI) (PI) (PI)
                 (SG) (SG) (PHI) (PHI) (DLTA) (DLTA) (SG) (PI)
                 (PI) (DLTA) (DLTA) (PI) (PI) (SG) (PHI) (PHI)
                 (DLTA) (DLTA) (PI) (PI) (?A) (?A) (PHI) (PHI)
                 (DLTA) (DLTA) (SG) (PI) (PI) (SG) (SG)
 The electronic state is 6-SG.
 Alpha  occ. eigenvalues -- -240.53423 -29.17597 -24.88095 -24.88095 -24.87370
 Alpha  occ. eigenvalues --  -20.42630  -4.00631  -2.71470  -2.71470  -2.70843
 Alpha  occ. eigenvalues --   -1.11326  -0.64564  -0.64564  -0.63429  -0.63429
 Alpha  occ. eigenvalues --   -0.58810  -0.34051  -0.34051  -0.33560
 Alpha virt. eigenvalues --   -0.04069   0.01674   0.01674   0.02094   0.03885
 Alpha virt. eigenvalues --    0.06856   0.06856   0.08515   0.08570   0.08570
 Alpha virt. eigenvalues --    0.09738   0.09738   0.14192   0.14722   0.23454
 Alpha virt. eigenvalues --    0.23454   0.28643   0.29498   0.30020   0.30020
 Alpha virt. eigenvalues --    0.30073   0.30073   0.34847   0.34847   0.42576
 Alpha virt. eigenvalues --    0.56409   0.68154   0.72972   0.72972   0.78631
 Alpha virt. eigenvalues --    0.78631   0.79029   0.79029   0.87656   0.87656
 Alpha virt. eigenvalues --    0.89059   0.94888   0.95231   0.95231   0.96129
 Alpha virt. eigenvalues --    0.96129   1.12586   1.12586   1.16228   1.16809
 Alpha virt. eigenvalues --    1.16809   1.35476   1.56837   1.56837   1.73357
 Alpha virt. eigenvalues --    2.16119   2.16119   2.18093   2.18093   2.19363
 Alpha virt. eigenvalues --    2.19363   2.21330   2.36811   2.36811   2.43526
 Alpha virt. eigenvalues --    2.43526   2.44383   2.51342   2.51342   2.51554
 Alpha virt. eigenvalues --    2.51554   2.55090   2.85780   2.85780   2.94979
 Alpha virt. eigenvalues --    2.94979   2.95495   2.95495   2.96112   3.06606
 Alpha virt. eigenvalues --    3.06606   3.31463   3.36366   3.36366   3.52243
 Alpha virt. eigenvalues --    3.73749   3.78599   3.78599   4.30385   4.30385
 Alpha virt. eigenvalues --    4.63681   4.63681   4.67173   4.67173   5.40418
 Alpha virt. eigenvalues --    5.74387   6.66481   6.66481   6.76945   6.76945
 Alpha virt. eigenvalues --    6.95009   6.96377   6.96377   7.21970   7.21970
 Alpha virt. eigenvalues --    7.43168   7.43168   7.65124   7.90305   7.90305
 Alpha virt. eigenvalues --    7.93941   7.93941   8.22564   8.22564   8.37610
 Alpha virt. eigenvalues --    8.37610   8.40382   8.40382   8.54566   8.54566
 Alpha virt. eigenvalues --    8.65089   8.77318   8.77318   8.85478  11.99074
          Condensed to atoms (all electrons):
              1          2
     1  Mn  23.719235   0.333507
     2  O    0.333507   8.613751
          Atomic-Atomic Spin Densities.
              1          2
     1  Mn   4.923745  -0.041060
     2  O   -0.041060   0.158374
 Mulliken charges and spin densities:
              1          2
     1  Mn   0.947258   4.882685
     2  O   -0.947258   0.117315
 Sum of Mulliken charges =   0.00000 spin densities =   5.000000
 Mulliken charges and spin densities with hydrogens summed into heavy atoms:
              1          2
     1  Mn   0.947258   4.882685
     2  O   -0.947258   0.117315
 Sum of Mulliken charges with hydrogens summed into heavy atoms =   0.00000 spin densities =   5.000000
 Electronic spatial extent (au):  <R**2>=            104.8963
 Charge=              0.0000 electrons
 Dipole moment (field-independent basis, Debye):
    X=              0.0000    Y=              0.0000    Z=              8.8793  Tot=              8.8793
 Quadrupole moment (field-independent basis, Debye-Ang):
   XX=            -19.1111   YY=            -19.1111   ZZ=            -23.8059
   XY=              0.0000   XZ=              0.0000   YZ=              0.0000
 Traceless Quadrupole moment (field-independent basis, Debye-Ang):
   XX=              1.5649   YY=              1.5649   ZZ=             -3.1298
   XY=              0.0000   XZ=              0.0000   YZ=              0.0000
 Octapole moment (field-independent basis, Debye-Ang**2):
  XXX=              0.0000  YYY=              0.0000  ZZZ=             24.2459  XYY=              0.0000
  XXY=              0.0000  XXZ=              5.8121  XZZ=              0.0000  YZZ=              0.0000
  YYZ=              5.8121  XYZ=              0.0000
 Hexadecapole moment (field-independent basis, Debye-Ang**3):
 XXXX=            -22.4543 YYYY=            -22.4543 ZZZZ=           -102.2236 XXXY=              0.0000
 XXXZ=              0.0000 YYYX=              0.0000 YYYZ=              0.0000 ZZZX=              0.0000
 ZZZY=              0.0000 XXYY=             -7.4848 XXZZ=            -20.1147 YYZZ=            -20.1147
 XXYZ=              0.0000 YYXZ=              0.0000 ZZXY=              0.0000
 N-N= 6.422053502306D+01 E-N=-4.489115514021D+03  KE= 1.821805630846D+03
                          Isotropic Fermi Contact Couplings
        Atom                 a.u.       MegaHertz       Gauss      10(-4) cm-1
     1  Mn(55)             1.29768     286.87913     102.36560      95.69258
     2  O(17)              0.00749      -0.90766      -0.32388      -0.30276
 --------------------------------------------------------
       Center         ----  Spin Dipole Couplings  ----
                      3XX-RR        3YY-RR        3ZZ-RR
 --------------------------------------------------------
     1   Atom        0.366048      0.366048     -0.732096
     2   Atom       -0.076861     -0.076861      0.153723
 --------------------------------------------------------
                        XY            XZ            YZ
 --------------------------------------------------------
     1   Atom        0.000000      0.000000      0.000000
     2   Atom        0.000000      0.000000      0.000000
 --------------------------------------------------------


 ---------------------------------------------------------------------------------
              Anisotropic Spin Dipole Couplings in Principal Axis System
 ---------------------------------------------------------------------------------

       Atom             a.u.   MegaHertz   Gauss  10(-4) cm-1        Axes

              Baa    -0.7321   -96.594   -34.467   -32.220  0.0000  0.0000  1.0000
     1 Mn(55) Bbb     0.3660    48.297    17.234    16.110  1.0000  0.0000  0.0000
              Bcc     0.3660    48.297    17.234    16.110  0.0000  1.0000  0.0000
 
              Baa    -0.0769     5.562     1.985     1.855  1.0000  0.0000  0.0000
     2 O(17)  Bbb    -0.0769     5.562     1.985     1.855  0.0000  1.0000  0.0000
              Bcc     0.1537   -11.123    -3.969    -3.710  0.0000  0.0000  1.0000
 

 ---------------------------------------------------------------------------------


 Test job not archived.
 1\1\GINC-C32\SP\ROCCSD(T)-FC\Aug-CC-pVTZ\Mn1O1(6)\GPETERSSON\25-Nov-20
 13\0\\# ROCCSD(T) aug-cc-pVTZ GFinput Int=NoBasisTransform Int(Grid=Ul
 trafine) IOp(3/32=2,5/6=10,8/11=1,9/33=1) Maxdisk=128GB SCF=Symm Guess
 =Read\\MnO 6Sg+\\0,6\Mn\O,1,1.648\\Version=EM64L-GDVRevH.12\State=6-SG
 \HF=-1224.6416834\MP2=-1225.0895587\MP3=-1225.0574954\PUHF=-1224.64168
 34\PMP2-0=-1225.0895587\MP4SDQ=-1225.095601\CCSD=-1225.0913068\CCSD(T)
 =-1225.1184827\RMSD=2.732e-11\PG=C*V [C*(O1Mn1)]\\@


 THERE IS NO SUBJECT, HOWEVER COMPLEX,
 WHICH, IF STUDIED WITH PATIENCE AND INTELLIGIENCE
 WILL NOT BECOME
 MORE COMPLEX
                        QUOTED BY D. GORDON ROHMAN
 Job cpu time:  0 days  1 hours 23 minutes 36.5 seconds.
 File lengths (MBytes):  RWF=    469 Int=      0 D2E=      0 Chk=      3 Scr=      1
 Normal termination of Gaussian DV at Mon Nov 25 19:34:09 2013.
