 Entering Gaussian System, Link 0=gdv
 Initial command:
 /share/apps/gaussian/gdvh12/gdv/l1.exe /localscratch/68490/Gau-22104.inp -scrdir=/localscratch/68490/
 Entering Link 1 = /share/apps/gaussian/gdvh12/gdv/l1.exe PID=     22105.
  
 Copyright (c) 1988,1990,1992,1993,1995,1998,2003,2009,2011,
            Gaussian, Inc.  All Rights Reserved.
  
 This is the private, development version of
 the Gaussian(R) DV system of programs. It is based on
 the Gaussian(R) 09 system (copyright 2009, Gaussian, Inc.),
 the Gaussian(R) 03 system (copyright 2003, Gaussian, Inc.),
 the Gaussian(R) 98 system (copyright 1998, Gaussian, Inc.),
 the Gaussian(R) 94 system (copyright 1995, Gaussian, Inc.),
 the Gaussian 92(TM) system (copyright 1992, Gaussian, Inc.),
 the Gaussian 90(TM) system (copyright 1990, Gaussian, Inc.),
 the Gaussian 88(TM) system (copyright 1988, Gaussian, Inc.),
 the Gaussian 86(TM) system (copyright 1986, Carnegie Mellon
 University), and the Gaussian 82(TM) system (copyright 1983,
 Carnegie Mellon University). Gaussian is a federally registered
 trademark of Gaussian, Inc.
  
 This software contains proprietary and confidential information,
 including trade secrets, belonging to Gaussian, Inc.
  
 This software is provided under written license and may be
 used, copied, transmitted, or stored only in accord with that
 written license.
  
 The following legend is applicable only to US Government
 contracts under FAR:
  
                    RESTRICTED RIGHTS LEGEND
  
 Use, reproduction and disclosure by the US Government is
 subject to restrictions as set forth in subparagraphs (a)
 and (c) of the Commercial Computer Software - Restricted
 Rights clause in FAR 52.227-19.
  
 Gaussian, Inc.
 340 Quinnipiac St., Bldg. 40, Wallingford CT 06492
  
  
 ---------------------------------------------------------------
 Warning -- This program may not be used in any manner that
 competes with the business of Gaussian, Inc. or will provide
 assistance to any competitor of Gaussian, Inc.  The licensee
 of this program is prohibited from giving any competitor of
 Gaussian, Inc. access to this program.  By using this program,
 the user acknowledges that Gaussian, Inc. is engaged in the
 business of creating and licensing software in the field of
 computational chemistry and represents and warrants to the
 licensee that it is not a competitor of Gaussian, Inc. and that
 it will not use this program in any manner prohibited above.
 ---------------------------------------------------------------
  

 Cite this work as:
 Gaussian Development Version, Revision H.12,
 M. J. Frisch, G. W. Trucks, H. B. Schlegel, G. E. Scuseria, 
 M. A. Robb, J. R. Cheeseman, G. Scalmani, V. Barone, B. Mennucci, 
 G. A. Petersson, H. Nakatsuji, M. Caricato, X. Li, H. P. Hratchian, 
 A. F. Izmaylov, J. Bloino, G. Zheng, J. L. Sonnenberg, M. Hada, 
 M. Ehara, K. Toyota, R. Fukuda, J. Hasegawa, M. Ishida, T. Nakajima, 
 Y. Honda, O. Kitao, H. Nakai, T. Vreven, J. A. Montgomery, Jr., 
 J. E. Peralta, F. Ogliaro, M. Bearpark, J. J. Heyd, E. Brothers, 
 K. N. Kudin, V. N. Staroverov, T. Keith, R. Kobayashi, J. Normand, 
 K. Raghavachari, A. Rendell, J. C. Burant, S. S. Iyengar, J. Tomasi, 
 M. Cossi, N. Rega, J. M. Millam, M. Klene, J. E. Knox, J. B. Cross, 
 V. Bakken, C. Adamo, J. Jaramillo, R. Gomperts, R. E. Stratmann, 
 O. Yazyev, A. J. Austin, R. Cammi, C. Pomelli, J. W. Ochterski, 
 R. L. Martin, K. Morokuma, V. G. Zakrzewski, G. A. Voth, 
 P. Salvador, J. J. Dannenberg, S. Dapprich, P. V. Parandekar, 
 N. J. Mayhall, A. D. Daniels, O. Farkas, J. B. Foresman, 
 J. V. Ortiz, J. Cioslowski, and D. J. Fox, 
 Gaussian, Inc., Wallingford CT, 2010.
 
 ******************************************
 Gaussian DV:  EM64L-GDVRevH.12  9-Jun-2011
                25-Nov-2013 
 ******************************************
 % Mem=12GB
 % Nproc=8
 Will use up to    8 processors via shared memory.
 % Chk=MnO_6Sg+.chk
 ----------------------------------------------------------------------
 # ROCCSD(T) aug-cc-pV5Z GFinput Int=NoBasisTransform Int(Grid=Ultrafin
 e) IOp(3/32=2,5/6=10,8/11=1,9/33=1) Maxdisk=128GB SCF=Symm Guess=Read
 ----------------------------------------------------------------------
 1/38=1/1;
 2/12=2,17=6,18=5,40=1/2;
 3/5=16,6=3,7=10,11=2,16=1,24=10,25=1,30=1,32=2,60=-1,75=-5,116=101/1,2,3;
 4/5=1,9=4/1;
 5/5=2,6=10,15=2,38=6/2;
 8/5=-1,6=4,9=120000,10=1,11=1/1,4;
 9/5=7,14=2,33=1/13;
 6/7=2,8=2,9=2,10=2/1;
 99/5=1,9=1/99;
 --------
 MnO 6Sg+
 --------
 Charge =  0 Multiplicity = 6
 Symbolic Z-Matrix:
 Mn
 O                    1     1.648 
 
                          Input orientation:                          
 ---------------------------------------------------------------------
 Center     Atomic      Atomic             Coordinates (Angstroms)
 Number     Number       Type             X           Y           Z
 ---------------------------------------------------------------------
      1         25           0        0.000000    0.000000    0.000000
      2          8           0        0.000000    0.000000    1.648000
 ---------------------------------------------------------------------
 Stoichiometry    MnO(6)
 Framework group  C*V[C*(OMn)]
 Deg. of freedom     1
 Full point group                 C*V     NOp   4
 Largest Abelian subgroup         C2V     NOp   4
 Largest concise Abelian subgroup C1      NOp   1
                         Standard orientation:                         
 ---------------------------------------------------------------------
 Center     Atomic      Atomic             Coordinates (Angstroms)
 Number     Number       Type             X           Y           Z
 ---------------------------------------------------------------------
      1         25           0        0.000000    0.000000    0.399515
      2          8           0        0.000000    0.000000   -1.248485
 ---------------------------------------------------------------------
 Rotational constants (GHZ):      0.0000000     15.0208923     15.0208923
 Standard basis: Aug-CC-pV5Z (5D, 7F)
 AO basis set in the form of general basis input (Overlap normalization):
      1 0
 S  27 1.00       0.000000000000
      0.1377660000D+09  0.8842976099D-07
      0.2456400000D+08  0.5905615734D-06
      0.5479990000D+07  0.3421330425D-05
      0.1466640000D+07  0.1566036195D-04
      0.4544210000D+06  0.6063846754D-04
      0.1582160000D+06  0.2053663255D-03
      0.6040430000D+05  0.6278180780D-03
      0.2479360000D+05  0.1771534220D-02
      0.1077230000D+05  0.4687682583D-02
      0.4895540000D+04  0.1172341146D-01
      0.2306560000D+04  0.2769121344D-01
      0.1119560000D+04  0.6096465758D-01
      0.5573810000D+03  0.1213985151D+00
      0.2837780000D+03  0.2067236257D+00
      0.1474360000D+03  0.2716552338D+00
      0.7802270000D+02  0.2296262285D+00
      0.4196790000D+02  0.9993532242D-01
      0.2287780000D+02  0.4335678539D-01
      0.1258450000D+02  0.7097637882D-01
      0.6941700000D+01  0.6195771770D-01
      0.3806290000D+01  0.1878693234D-01
      0.2050310000D+01  0.1455711181D-02
      0.1068380000D+01 -0.5045613627D-04
      0.5366060000D+00 -0.8380838042D-04
      0.1832600000D+00 -0.9776339215D-06
      0.1052970000D+00  0.9779517216D-05
      0.5146400000D-01  0.1146026142D-04
 S  27 1.00       0.000000000000
      0.1377660000D+09 -0.4218710381D-07
      0.2456400000D+08 -0.2817390925D-06
      0.5479990000D+07 -0.1632224695D-05
      0.1466640000D+07 -0.7471318758D-05
      0.4544210000D+06 -0.2893184004D-04
      0.1582160000D+06 -0.9800417176D-04
      0.6040430000D+05 -0.2997551113D-03
      0.2479360000D+05 -0.8468129793D-03
      0.1077230000D+05 -0.2246525333D-02
      0.4895540000D+04 -0.5649013866D-02
      0.2306560000D+04 -0.1349330401D-01
      0.1119560000D+04 -0.3037654154D-01
      0.5573810000D+03 -0.6317174560D-01
      0.2837780000D+03 -0.1169587214D+00
      0.1474360000D+03 -0.1804918874D+00
      0.7802270000D+02 -0.1999571076D+00
      0.4196790000D+02 -0.9135658486D-01
      0.2287780000D+02  0.1705225771D+00
      0.1258450000D+02  0.4562988738D+00
      0.6941700000D+01  0.4058138214D+00
      0.3806290000D+01  0.1228206275D+00
      0.2050310000D+01  0.9020467366D-02
      0.1068380000D+01 -0.1825437895D-02
      0.5366060000D+00 -0.1093263135D-02
      0.1832600000D+00 -0.8298627617D-04
      0.1052970000D+00  0.1053173094D-03
      0.5146400000D-01  0.5625673841D-04
 S  27 1.00       0.000000000000
      0.1377660000D+09  0.1015472328D-07
      0.2456400000D+08  0.6783047385D-07
      0.5479990000D+07  0.3928673300D-06
      0.1466640000D+07  0.1798898153D-05
      0.4544210000D+06  0.6963682111D-05
      0.1582160000D+06  0.2360310627D-04
      0.6040430000D+05  0.7217356940D-04
      0.2479360000D+05  0.2041865820D-03
      0.1077230000D+05  0.5421264830D-03
      0.4895540000D+04  0.1369261668D-02
      0.2306560000D+04  0.3290054661D-02
      0.1119560000D+04  0.7518925492D-02
      0.5573810000D+03  0.1602140183D-01
      0.2837780000D+03  0.3113235992D-01
      0.1474360000D+03  0.5188009309D-01
      0.7802270000D+02  0.6455537441D-01
      0.4196790000D+02  0.3109499935D-01
      0.2287780000D+02 -0.8134519784D-01
      0.1258450000D+02 -0.2830889730D+00
      0.6941700000D+01 -0.3683337597D+00
      0.3806290000D+01 -0.5599107514D-01
      0.2050310000D+01  0.4285573687D+00
      0.1068380000D+01  0.5819710844D+00
      0.5366060000D+00  0.2496117677D+00
      0.1832600000D+00  0.1728048083D-01
      0.1052970000D+00 -0.4795103378D-02
      0.5146400000D-01  0.3440484931D-02
 S  27 1.00       0.000000000000
      0.1377660000D+09 -0.2607059491D-08
      0.2456400000D+08 -0.1741540689D-07
      0.5479990000D+07 -0.1008606434D-06
      0.1466640000D+07 -0.4618724789D-06
      0.4544210000D+06 -0.1787748001D-05
      0.1582160000D+06 -0.6060344411D-05
      0.6040430000D+05 -0.1852830928D-04
      0.2479360000D+05 -0.5242996375D-04
      0.1077230000D+05 -0.1391749981D-03
      0.4895540000D+04 -0.3516400912D-03
      0.2306560000D+04 -0.8447603823D-03
      0.1119560000D+04 -0.1931819333D-02
      0.5573810000D+03 -0.4116790772D-02
      0.2837780000D+03 -0.8012551405D-02
      0.1474360000D+03 -0.1337216557D-01
      0.7802270000D+02 -0.1672627170D-01
      0.4196790000D+02 -0.8078688006D-02
      0.2287780000D+02  0.2133955289D-01
      0.1258450000D+02  0.7726527692D-01
      0.6941700000D+01  0.1047495006D+00
      0.3806290000D+01  0.1292795153D-01
      0.2050310000D+01 -0.1430558367D+00
      0.1068380000D+01 -0.2430635265D+00
      0.5366060000D+00 -0.2233984679D+00
      0.1832600000D+00  0.8731463326D-01
      0.1052970000D+00  0.4753666989D+00
      0.5146400000D-01  0.5963330988D+00
 S  27 1.00       0.000000000000
      0.1377660000D+09 -0.4921511751D-08
      0.2456400000D+08 -0.3259919811D-07
      0.5479990000D+07 -0.1908482018D-06
      0.1466640000D+07 -0.8626804708D-06
      0.4544210000D+06 -0.3392559881D-05
      0.1582160000D+06 -0.1127765671D-04
      0.6040430000D+05 -0.3531524621D-04
      0.2479360000D+05 -0.9707271570D-04
      0.1077230000D+05 -0.2667024572D-03
      0.4895540000D+04 -0.6473584976D-03
      0.2306560000D+04 -0.1628611829D-02
      0.1119560000D+04 -0.3533228711D-02
      0.5573810000D+03 -0.8009899167D-02
      0.2837780000D+03 -0.1447107793D-01
      0.1474360000D+03 -0.2671985971D-01
      0.7802270000D+02 -0.2830592247D-01
      0.4196790000D+02 -0.2267227694D-01
      0.2287780000D+02  0.5560659466D-01
      0.1258450000D+02  0.1226830826D+00
      0.6941700000D+01  0.2677452084D+00
      0.3806290000D+01 -0.7064425538D-01
      0.2050310000D+01 -0.2522924769D+00
      0.1068380000D+01 -0.8558098404D+00
      0.5366060000D+00  0.2790854388D+00
      0.1832600000D+00  0.1599348154D+01
      0.1052970000D+00 -0.1782236085D-01
      0.5146400000D-01 -0.6704339383D+00
 S  27 1.00       0.000000000000
      0.1377660000D+09 -0.5941663928D-08
      0.2456400000D+08 -0.3923483180D-07
      0.5479990000D+07 -0.2306042229D-06
      0.1466640000D+07 -0.1037449600D-05
      0.4544210000D+06 -0.4103564308D-05
      0.1582160000D+06 -0.1354389325D-04
      0.6040430000D+05 -0.4278459363D-04
      0.2479360000D+05 -0.1163621848D-03
      0.1077230000D+05 -0.3237560140D-03
      0.4895540000D+04 -0.7744362935D-03
      0.2306560000D+04 -0.1981767691D-02
      0.1119560000D+04 -0.4218723530D-02
      0.5573810000D+03 -0.9788060087D-02
      0.2837780000D+03 -0.1723288685D-01
      0.1474360000D+03 -0.3306684767D-01
      0.7802270000D+02 -0.3311313912D-01
      0.4196790000D+02 -0.3094867939D-01
      0.2287780000D+02  0.7486474937D-01
      0.1258450000D+02  0.1524466546D+00
      0.6941700000D+01  0.3887248839D+00
      0.3806290000D+01 -0.1769102173D+00
      0.2050310000D+01 -0.6384149981D+00
      0.1068380000D+01 -0.1038724714D+01
      0.5366060000D+00  0.2005600014D+01
      0.1832600000D+00  0.6007992282D+00
      0.1052970000D+00 -0.2096242807D+01
      0.5146400000D-01  0.2745154302D+00
 S  27 1.00       0.000000000000
      0.1377660000D+09  0.5054776280D-08
      0.2456400000D+08  0.3451441733D-07
      0.5479990000D+07  0.1943546193D-06
      0.1466640000D+07  0.9204108202D-06
      0.4544210000D+06  0.3418576857D-05
      0.1582160000D+06  0.1218990536D-04
      0.6040430000D+05  0.3501613098D-04
      0.2479360000D+05  0.1068025720D-03
      0.1077230000D+05  0.2592729017D-03
      0.4895540000D+04  0.7266912220D-03
      0.2306560000D+04  0.1550093979D-02
      0.1119560000D+04  0.4065098838D-02
      0.5573810000D+03  0.7405562945D-02
      0.2837780000D+03  0.1753163521D-01
      0.1474360000D+03  0.2275417220D-01
      0.7802270000D+02  0.4299367617D-01
      0.4196790000D+02 -0.2219179180D-02
      0.2287780000D+02 -0.4638432689D-02
      0.1258450000D+02 -0.2870399291D+00
      0.6941700000D+01 -0.1888431005D+00
      0.3806290000D+01  0.5066072575D-01
      0.2050310000D+01  0.1574970115D+01
      0.1068380000D+01 -0.1264454734D+01
      0.5366060000D+00 -0.9158550244D+00
      0.1832600000D+00  0.2852442135D+01
      0.1052970000D+00 -0.1953151998D+01
      0.5146400000D-01 -0.7258253610D+00
 S  27 1.00       0.000000000000
      0.1377660000D+09 -0.4338826769D-08
      0.2456400000D+08 -0.2976700990D-07
      0.5479990000D+07 -0.1666421128D-06
      0.1466640000D+07 -0.7946138885D-06
      0.4544210000D+06 -0.2926476467D-05
      0.1582160000D+06 -0.1054351249D-04
      0.6040430000D+05 -0.2990145327D-04
      0.2479360000D+05 -0.9261407836D-04
      0.1077230000D+05 -0.2207400359D-03
      0.4895540000D+04 -0.6320677353D-03
      0.2306560000D+04 -0.1316367917D-02
      0.1119560000D+04 -0.3551475987D-02
      0.5573810000D+03 -0.6279485432D-02
      0.2837780000D+03 -0.1547744941D-01
      0.1474360000D+03 -0.1920198599D-01
      0.7802270000D+02 -0.3928202636D-01
      0.4196790000D+02  0.4483966853D-02
      0.2287780000D+02  0.9230517964D-03
      0.1258450000D+02  0.2944023721D+00
      0.6941700000D+01  0.2556902663D+00
      0.3806290000D+01 -0.5642825310D+00
      0.2050310000D+01 -0.1472163624D+01
      0.1068380000D+01  0.3559017803D+01
      0.5366060000D+00 -0.2825614850D+01
      0.1832600000D+00  0.7813624100D+00
      0.1052970000D+00  0.1125952117D+01
      0.5146400000D-01 -0.1954385778D+01
 S   1 1.00       0.000000000000
      0.2467800000D-01  0.1000000000D+01
 P  19 1.00       0.000000000000
      0.7929680000D+05  0.2999998735D-05
      0.1931710000D+05  0.2299999030D-04
      0.6114100000D+04  0.1399999409D-03
      0.2316260000D+04  0.6489997262D-03
      0.9896900000D+03  0.2489998950D-02
      0.4579420000D+03  0.8277996508D-02
      0.2236420000D+03  0.2425598977D-01
      0.1135940000D+03  0.6226297374D-01
      0.5956210000D+02  0.1344249433D+00
      0.3210720000D+02  0.2305459028D+00
      0.1771030000D+02  0.3028018723D+00
      0.9906210000D+01  0.2709288857D+00
      0.5522430000D+01  0.1311239447D+00
      0.3008320000D+01  0.2387598993D-01
      0.1598730000D+01 -0.1332999438D-02
      0.8308680000D+00 -0.2200999072D-02
      0.4135380000D+00 -0.8919996237D-03
      0.1711080000D+00 -0.5799997554D-04
      0.7216600000D-01 -0.5999997469D-05
 P  19 1.00       0.000000000000
      0.7929680000D+05 -0.1000009199D-05
      0.1931710000D+05 -0.8000073593D-05
      0.6114100000D+04 -0.4900045076D-04
      0.2316260000D+04 -0.2260020790D-03
      0.9896900000D+03 -0.8670079756D-03
      0.4579420000D+03 -0.2899026668D-02
      0.2236420000D+03 -0.8588079002D-02
      0.1135940000D+03 -0.2248120681D-01
      0.5956210000D+02 -0.5006346054D-01
      0.3210720000D+02 -0.8900581877D-01
      0.1771030000D+02 -0.1231571329D+00
      0.9906210000D+01 -0.1081339947D+00
      0.5522430000D+01  0.3309130441D-01
      0.3008320000D+01  0.2649184370D+00
      0.1598730000D+01  0.4034867117D+00
      0.8308680000D+00  0.3248569884D+00
      0.4135380000D+00  0.1174310803D+00
      0.1711080000D+00  0.1011609306D-01
      0.7216600000D-01  0.1390012787D-03
 P  18 1.00       0.000000000000
      0.1931710000D+05 -0.2378122388D-05
      0.6114100000D+04 -0.1307967313D-04
      0.2316260000D+04 -0.6183118209D-04
      0.9896900000D+03 -0.2390013000D-03
      0.4579420000D+03 -0.7895366328D-03
      0.2236420000D+03 -0.2365042715D-02
      0.1135940000D+03 -0.6139122945D-02
      0.5956210000D+02 -0.1385613009D-01
      0.3210720000D+02 -0.2437456542D-01
      0.1771030000D+02 -0.3466232287D-01
      0.9906210000D+01 -0.2926874129D-01
      0.5522430000D+01  0.1155172950D-01
      0.3008320000D+01  0.8970396554D-01
      0.1598730000D+01  0.1346064834D+00
      0.8308680000D+00  0.1329085040D+00
      0.4135380000D+00 -0.5240073776D-01
      0.1711080000D+00 -0.4355816528D+00
      0.7216600000D-01 -0.6203926780D+00
 P  18 1.00       0.000000000000
      0.1931710000D+05  0.2028171628D-05
      0.6114100000D+04  0.1521128721D-04
      0.2316260000D+04  0.6997192116D-04
      0.9896900000D+03  0.2717749981D-03
      0.4579420000D+03  0.8994941169D-03
      0.2236420000D+03  0.2688341493D-02
      0.1135940000D+03  0.6984009000D-02
      0.5956210000D+02  0.1573658366D-01
      0.3210720000D+02  0.2774437378D-01
      0.1771030000D+02  0.3940940290D-01
      0.9906210000D+01  0.3359057850D-01
      0.5522430000D+01 -0.1249556540D-01
      0.3008320000D+01 -0.1007818764D+00
      0.1598730000D+01 -0.1542495509D+00
      0.8308680000D+00 -0.1586344580D+00
      0.4135380000D+00  0.6592064833D-01
      0.1711080000D+00  0.6145562849D+00
      0.7216600000D-01  0.4427529086D+00
 P  19 1.00       0.000000000000
      0.7929680000D+05  0.1015353934D-05
      0.1931710000D+05  0.5076769668D-05
      0.6114100000D+04  0.3452203374D-04
      0.2316260000D+04  0.1451956125D-03
      0.9896900000D+03  0.6071816523D-03
      0.4579420000D+03  0.1864189822D-02
      0.2236420000D+03  0.6016987410D-02
      0.1135940000D+03  0.1446574749D-01
      0.5956210000D+02  0.3550286564D-01
      0.3210720000D+02  0.5639174212D-01
      0.1771030000D+02  0.9465941652D-01
      0.9906210000D+01  0.6472678256D-01
      0.5522430000D+01 -0.4894005960D-02
      0.3008320000D+01 -0.3364842322D+00
      0.1598730000D+01 -0.4148817401D+00
      0.8308680000D+00 -0.1224841757D+00
      0.4135380000D+00  0.1231678135D+01
      0.1711080000D+00  0.8470285585D-01
      0.7216600000D-01 -0.8107164557D+00
 P  19 1.00       0.000000000000
      0.7929680000D+05  0.1026628395D-05
      0.1931710000D+05  0.8213027158D-05
      0.6114100000D+04  0.3901187900D-04
      0.2316260000D+04  0.2238049900D-03
      0.9896900000D+03  0.7052937072D-03
      0.4579420000D+03  0.2879692647D-02
      0.2236420000D+03  0.7000579024D-02
      0.1135940000D+03  0.2250061453D-01
      0.5956210000D+02  0.4021611411D-01
      0.3210720000D+02  0.9411410483D-01
      0.1771030000D+02  0.9135863422D-01
      0.9906210000D+01  0.1990047279D+00
      0.5522430000D+01 -0.1715403651D+00
      0.3008320000D+01 -0.6190651350D+00
      0.1598730000D+01 -0.7668708783D+00
      0.8308680000D+00  0.2039361374D+01
      0.4135380000D+00 -0.2710678815D+00
      0.1711080000D+00 -0.1568503394D+01
      0.7216600000D-01  0.1139841894D+01
 P  19 1.00       0.000000000000
      0.7929680000D+05 -0.1032048671D-05
      0.1931710000D+05 -0.9288438038D-05
      0.6114100000D+04 -0.6295496892D-04
      0.2316260000D+04 -0.2662685571D-03
      0.9896900000D+03 -0.1124933051D-02
      0.4579420000D+03 -0.3442914366D-02
      0.2236420000D+03 -0.1122765749D-01
      0.1135940000D+03 -0.2705722000D-01
      0.5956210000D+02 -0.6722971452D-01
      0.3210720000D+02 -0.1069811332D+00
      0.1771030000D+02 -0.1855778318D+00
      0.9906210000D+01 -0.2448143293D+00
      0.5522430000D+01  0.4426797325D+00
      0.3008320000D+01  0.1770938757D+01
      0.1598730000D+01 -0.2259095714D+01
      0.8308680000D+00 -0.8138808062D+00
      0.4135380000D+00  0.2997636967D+01
      0.1711080000D+00 -0.2577580773D+01
      0.7216600000D-01  0.1028865833D+01
 P   1 1.00       0.000000000000
      0.3016500000D-01  0.1000000000D+01
 D  11 1.00       0.000000000000
      0.4351000000D+03  0.1642736962D-03
      0.1309820000D+03  0.1524540034D-02
      0.5088160000D+02  0.8286806636D-02
      0.2230080000D+02  0.3005908139D-01
      0.1035520000D+02  0.8271781602D-01
      0.5015210000D+01  0.1738666790D+00
      0.2467930000D+01  0.2630893327D+00
      0.1203690000D+01  0.2989771253D+00
      0.5741520000D+00  0.2661243894D+00
      0.2641140000D+00  0.1805838705D+00
      0.1151280000D+00  0.7674085782D-01
 D  11 1.00       0.000000000000
      0.4351000000D+03 -0.1759948516D-03
      0.1309820000D+03 -0.1635592873D-02
      0.5088160000D+02 -0.8920936641D-02
      0.2230080000D+02 -0.3254218577D-01
      0.1035520000D+02 -0.9165854028D-01
      0.5015210000D+01 -0.1938040552D+00
      0.2467930000D+01 -0.2659250592D+00
      0.1203690000D+01 -0.1797086592D+00
      0.5741520000D+00  0.1292381835D+00
      0.2641140000D+00  0.4443680309D+00
      0.1151280000D+00  0.4288667837D+00
 D  11 1.00       0.000000000000
      0.4351000000D+03 -0.2943166795D-03
      0.1309820000D+03 -0.2748070511D-02
      0.5088160000D+02 -0.1513835678D-01
      0.2230080000D+02 -0.5589118337D-01
      0.1035520000D+02 -0.1639444240D+00
      0.5015210000D+01 -0.3350839989D+00
      0.2467930000D+01 -0.3062833281D+00
      0.1203690000D+01  0.2224510124D+00
      0.5741520000D+00  0.7028193119D+00
      0.2641140000D+00  0.1044021530D+00
      0.1151280000D+00 -0.6444108291D+00
 D  11 1.00       0.000000000000
      0.4351000000D+03 -0.3770692042D-03
      0.1309820000D+03 -0.3508431969D-02
      0.5088160000D+02 -0.1952993362D-01
      0.2230080000D+02 -0.7251884982D-01
      0.1035520000D+02 -0.2287144212D+00
      0.5015210000D+01 -0.4640348697D+00
      0.2467930000D+01 -0.1176005685D-01
      0.1203690000D+01  0.1056138199D+01
      0.5741520000D+00 -0.1201196159D+00
      0.2641140000D+00 -0.1104794759D+01
      0.1151280000D+00  0.5219481971D+00
 D  11 1.00       0.000000000000
      0.4351000000D+03  0.4216911149D-03
      0.1309820000D+03  0.4005080332D-02
      0.5088160000D+02  0.2214863613D-01
      0.2230080000D+02  0.8689595694D-01
      0.1035520000D+02  0.2970784347D+00
      0.5015210000D+01  0.4481709523D+00
      0.2467930000D+01 -0.8436521910D+00
      0.1203690000D+01 -0.4782913240D+00
      0.5741520000D+00  0.1585976342D+01
      0.2641140000D+00 -0.9854615925D+00
      0.1151280000D+00 -0.3400682674D+00
 D   1 1.00       0.000000000000
      0.4608200000D-01  0.1000000000D+01
 F   1 1.00       0.000000000000
      0.6560100000D+01  0.1000000000D+01
 F   1 1.00       0.000000000000
      0.2249000000D+01  0.1000000000D+01
 F   1 1.00       0.000000000000
      0.7710000000D+00  0.1000000000D+01
 F   1 1.00       0.000000000000
      0.2643000000D+00  0.1000000000D+01
 G   1 1.00       0.000000000000
      0.4937200000D+01  0.1000000000D+01
 G   1 1.00       0.000000000000
      0.1633000000D+01  0.1000000000D+01
 G   1 1.00       0.000000000000
      0.5401000000D+00  0.1000000000D+01
 H   1 1.00       0.000000000000
      0.3588900000D+01  0.1000000000D+01
 H   1 1.00       0.000000000000
      0.1079300000D+01  0.1000000000D+01
 I   1 1.00       0.000000000000
      0.2605200000D+01  0.1000000000D+01
 S   1 1.00       0.000000000000
      0.1183000000D-01  0.1000000000D+01
 P   1 1.00       0.000000000000
      0.1261000000D-01  0.1000000000D+01
 D   1 1.00       0.000000000000
      0.1845000000D-01  0.1000000000D+01
 F   1 1.00       0.000000000000
      0.8753000000D-01  0.1000000000D+01
 G   1 1.00       0.000000000000
      0.1925300000D+00  0.1000000000D+01
 H   1 1.00       0.000000000000
      0.4178700000D+00  0.1000000000D+01
 I   1 1.00       0.000000000000
      0.1112210000D+01  0.1000000000D+01
 ****
      2 0
 S  10 1.00       0.000000000000
      0.1642000000D+06  0.2716833709D-04
      0.2459000000D+05  0.2142118886D-03
      0.5592000000D+04  0.1124351181D-02
      0.1582000000D+04  0.4725200782D-02
      0.5161000000D+03  0.1683182977D-01
      0.1872000000D+03  0.5129068563D-01
      0.7393000000D+02  0.1304675794D+00
      0.3122000000D+02  0.2629957727D+00
      0.1381000000D+02  0.3787057204D+00
      0.6256000000D+01  0.2915904475D+00
 S  10 1.00       0.000000000000
      0.1642000000D+06 -0.1752362231D-04
      0.2459000000D+05 -0.1343477710D-03
      0.5592000000D+04 -0.7126273073D-03
      0.1582000000D+04 -0.3011142434D-02
      0.5161000000D+03 -0.1077118651D-01
      0.1872000000D+03 -0.3362783121D-01
      0.7393000000D+02 -0.8888857417D-01
      0.3122000000D+02 -0.1990303816D+00
      0.1381000000D+02 -0.3515472284D+00
      0.6256000000D+01 -0.4330087073D+00
 S   1 1.00       0.000000000000
      0.2776000000D+01  0.1000000000D+01
 S   1 1.00       0.000000000000
      0.1138000000D+01  0.1000000000D+01
 S   1 1.00       0.000000000000
      0.4600000000D+00  0.1000000000D+01
 S   1 1.00       0.000000000000
      0.1829000000D+00  0.1000000000D+01
 P   4 1.00       0.000000000000
      0.1955000000D+03  0.6274451512D-02
      0.4616000000D+02  0.5049634833D-01
      0.1458000000D+02  0.2389349411D+00
      0.5296000000D+01  0.7889610158D+00
 P   1 1.00       0.000000000000
      0.2094000000D+01  0.1000000000D+01
 P   1 1.00       0.000000000000
      0.8471000000D+00  0.1000000000D+01
 P   1 1.00       0.000000000000
      0.3368000000D+00  0.1000000000D+01
 P   1 1.00       0.000000000000
      0.1285000000D+00  0.1000000000D+01
 D   1 1.00       0.000000000000
      0.5879000000D+01  0.1000000000D+01
 D   1 1.00       0.000000000000
      0.2307000000D+01  0.1000000000D+01
 D   1 1.00       0.000000000000
      0.9050000000D+00  0.1000000000D+01
 D   1 1.00       0.000000000000
      0.3550000000D+00  0.1000000000D+01
 F   1 1.00       0.000000000000
      0.4016000000D+01  0.1000000000D+01
 F   1 1.00       0.000000000000
      0.1554000000D+01  0.1000000000D+01
 F   1 1.00       0.000000000000
      0.6010000000D+00  0.1000000000D+01
 G   1 1.00       0.000000000000
      0.3350000000D+01  0.1000000000D+01
 G   1 1.00       0.000000000000
      0.1189000000D+01  0.1000000000D+01
 H   1 1.00       0.000000000000
      0.2319000000D+01  0.1000000000D+01
 S   1 1.00       0.000000000000
      0.6550000000D-01  0.1000000000D+01
 P   1 1.00       0.000000000000
      0.4460000000D-01  0.1000000000D+01
 D   1 1.00       0.000000000000
      0.1310000000D+00  0.1000000000D+01
 F   1 1.00       0.000000000000
      0.2370000000D+00  0.1000000000D+01
 G   1 1.00       0.000000000000
      0.5170000000D+00  0.1000000000D+01
 H   1 1.00       0.000000000000
      0.1024000000D+01  0.1000000000D+01
 ****

 There are   187 symmetry adapted cartesian basis functions of A1  symmetry.
 There are    69 symmetry adapted cartesian basis functions of A2  symmetry.
 There are   117 symmetry adapted cartesian basis functions of B1  symmetry.
 There are   117 symmetry adapted cartesian basis functions of B2  symmetry.
 There are   118 symmetry adapted basis functions of A1  symmetry.
 There are    51 symmetry adapted basis functions of A2  symmetry.
 There are    80 symmetry adapted basis functions of B1  symmetry.
 There are    80 symmetry adapted basis functions of B2  symmetry.
   329 basis functions,  1397 primitive gaussians,   490 cartesian basis functions
    19 alpha electrons       14 beta electrons
       nuclear repulsion energy        64.2205350231 Hartrees.
 NAtoms=    2 NActive=    2 NUniq=    2 SFac= 1.00D+00 NAtFMM=   60 NAOKFM=F Big=F
 Integral buffers will be    131072 words long.
 Raffenetti 2 integral format.
 Two-electron integral symmetry is turned on.
 One-electron integrals computed using PRISM.
 NBasis=   329 RedAO= F EigKep=  0.00D+00  NBF=   118    51    80    80
 NBsUse=   329 1.00D-04 EigRej=  0.00D+00 NBFU=   118    51    80    80
 Initial guess from the checkpoint file:  MnO_6Sg+.chk
 B after Tr=     0.000000    0.000000    0.000000
         Rot=    1.000000    0.000000    0.000000    0.000000 Ang=   0.00 deg.
 Initial guess orbital symmetries:
       Occupied  (SG) (SG) (SG) (PI) (PI) (SG) (SG) (SG) (PI) (PI)
                 (SG) (SG) (PI) (PI) (DLTA) (DLTA) (SG) (PI) (PI)
       Virtual   (SG) (SG) (PI) (PI) (SG) (SG) (SG) (PI) (PI) (DLTA)
                 (DLTA) (PI) (PI) (SG) (PI) (PI) (SG) (SG) (DLTA)
                 (DLTA) (PHI) (PHI) (PI) (PI) (SG) (PI) (PI) (SG)
                 (SG) (DLTA) (DLTA) (PI) (PI) (PI) (PI) (SG) (SG)
                 (SG) (DLTA) (DLTA) (PI) (PI) (SG) (PHI) (PHI)
                 (DLTA) (DLTA) (PI) (PI) (SG) (SG) (SG) (SG) (SG)
                 (SG) (SG) (SG) (SG) (SG) (PI) (PI) (PI) (PI) (SG)
                 (PI) (PI) (SG) (PI) (PI) (SG) (PI) (PI) (SG) (PI)
                 (PI) (SG) (PI) (PI) (SG) (PI) (PI) (SG) (SG) (PI)
                 (PI) (DLTA) (DLTA) (SG) (PI) (PI) (DLTA) (DLTA)
                 (SG) (PI) (PI) (DLTA) (DLTA) (SG) (PI) (PI) (DLTA)
                 (DLTA) (SG) (PI) (PI) (DLTA) (DLTA) (SG) (PI)
                 (PI) (DLTA) (DLTA) (SG) (PI) (PI) (DLTA) (DLTA)
                 (PHI) (PHI) (SG) (PI) (PI) (DLTA) (DLTA) (PHI)
                 (PHI) (SG) (PI) (PI) (DLTA) (DLTA) (SG) (PI) (PI)
                 (DLTA) (DLTA) (PHI) (PHI) (SG) (PI) (PI) (DLTA)
                 (DLTA) (PHI) (PHI) (?A) (?A) (SG) (PI) (PI) (DLTA)
                 (DLTA) (PHI) (PHI) (?A) (?A) (SG) (PI) (PI) (DLTA)
                 (DLTA) (PHI) (PHI) (?A) (?A) (SG) (PI) (PI) (DLTA)
                 (DLTA) (PHI) (PHI) (?A) (?A) (?B) (?B) (SG) (PI)
                 (PI) (DLTA) (DLTA) (PHI) (PHI) (?A) (?A) (?B)
                 (?B) (SG) (PI) (PI) (DLTA) (DLTA) (PHI) (PHI)
                 (?A) (?A) (?B) (?B) (SG) (SG) (PI) (PI) (SG) (SG)
                 (PI) (PI) (DLTA) (DLTA) (SG) (PI) (PI) (DLTA)
                 (DLTA) (PHI) (PHI) (SG) (PI) (PI) (DLTA) (DLTA)
                 (PHI) (PHI) (?A) (?A) (SG) (PI) (PI) (DLTA) (DLTA)
                 (PHI) (PHI) (?A) (?A) (?B) (?B) (SG) (PI) (PI)
                 (DLTA) (DLTA) (PHI) (PHI) (?A) (?A) (?B) (?B)
                 (SG) (SG) (SG) (SG) (PI) (PI) (SG) (PI) (PI) (SG)
                 (PI) (PI) (PI) (PI) (DLTA) (DLTA) (PI) (PI) (DLTA)
                 (DLTA) (DLTA) (DLTA) (DLTA) (DLTA) (PI) (PI) (DLTA)
                 (DLTA) (PHI) (PHI) (DLTA) (DLTA) (PHI) (PHI) (DLTA)
                 (DLTA) (PHI) (PHI) (DLTA) (DLTA) (PHI) (PHI) (?A)
                 (?A) (PHI) (PHI) (?A) (?A) (PHI) (PHI) (?A) (?A)
                 (?B) (?B) (PHI) (PHI) (PHI) (PHI) (?A) (?A) (?A)
                 (?A) (?B) (?B)
 Requested convergence on RMS density matrix=1.00D-10 within 128 cycles.
 Requested convergence on MAX density matrix=1.00D-08.
 Requested convergence on             energy=1.00D-08.
 No special actions if energy rises.
 Rare condition: small coef for last iteration:  0.000D+00
 EnCoef did   100 forward-backward iterations
 Rare condition: small coef for last iteration:  0.000D+00
 EnCoef did   100 forward-backward iterations
 Rare condition: small coef for last iteration:  0.843D-17
 EnCoef did   100 forward-backward iterations
 Rare condition: small coef for last iteration:  0.000D+00
 EnCoef did   100 forward-backward iterations
 Rare condition: small coef for last iteration:  0.000D+00
 EnCoef did   100 forward-backward iterations
 EnCoef did   100 forward-backward iterations
 Rare condition: small coef for last iteration: -0.348D-15
 EnCoef did   100 forward-backward iterations
 Rare condition: small coef for last iteration:  0.000D+00
 EnCoef did   100 forward-backward iterations
 EnCoef did   100 forward-backward iterations
 Rare condition: small coef for last iteration:  0.175D-15
 EnCoef did   100 forward-backward iterations
 EnCoef did   100 forward-backward iterations
 Rare condition: small coef for last iteration: -0.351D-15
 EnCoef did   100 forward-backward iterations
 Rare condition: small coef for last iteration:  0.000D+00
 Restarting incremental Fock formation.
 DSYEVD returned Info=         178 IAlg= 4 N=   118 NDim=   329 NE2=     4893261 trying DSYEV.
 SCF Done:  E(ROHF) =  -1224.64819862     A.U. after   36 cycles
            NFock= 36  Conv=0.51D-10     -V/T= 1.9998
 <Sx>= 0.0000 <Sy>= 0.0000 <Sz>= 2.5000 <S**2>= 8.7500 S= 2.5000
 <L.S>= 0.000000000000E+00
 Annihilation of the first spin contaminant:
 S**2 before annihilation     8.7500,   after     8.7500
 GenMOA:  NOpAll=  4 NOp2=4 NOpUse=  4 JSym2X=1
 <Sx>= 0.0000 <Sy>= 0.0000 <Sz>= 2.5000 <S**2>= 8.7500 S= 2.5000
 ExpMin= 1.18D-02 ExpMax= 1.38D+08 ExpMxC= 4.90D+03 IAcc=3 IRadAn=         5 AccDes= 0.00D+00
 HarFok:  IExCor=  205 AccDes= 0.00D+00 IRadAn=         5 IDoV=-2 UseB2=F ITyADJ=14
 ICtDFT= 12500011 ScaDFX=  1.000000  1.000000  1.000000  1.000000
 DSYEVD returned Info=       20908 IAlg= 4 N=   202 NDim=   202 NE2=     7970308 trying DSYEV.
 DSYEVD returned Info=        8287 IAlg= 4 N=   127 NDim=   127 NE2=     7970308 trying DSYEV.
 Range of M.O.s used for correlation:    11   329
 NBasis=   329 NAE=    19 NBE=    14 NFC=    10 NFV=     0
 NROrb=    319 NOA=     9 NOB=     4 NVA=   310 NVB=   315

 **** Warning!!: The largest alpha MO coefficient is  0.10712286D+03


 **** Warning!!: The largest beta MO coefficient is  0.10678184D+03

 Singles contribution to E2=   -0.5881236735D-02
 Semi-Direct transformation.
 ModeAB=           2 MOrb=             9 LenV=    1605641815
 LASXX=     35957056 LTotXX=    35957056 LenRXX=    35957056
 LTotAB=    36359936 MaxLAS=   345366945 LenRXY=   345366945
 NonZer=   354470886 LenScr=   533791744 LnRSAI=           0
 LnScr1=           0 LExtra=    10004410 Total=    925120155
 MaxDsk= 17179869184 SrtSym=           F ITran=            4
 JobTyp=1 Pass  1:  I=   1 to   9.
 ModeAB=           2 MOrb=             4 LenV=    1605641815
 LASXX=     16151731 LTotXX=    16151731 LenRXX=   153496420
 LTotAB=    15417231 MaxLAS=   153496420 LenRXY=    15417231
 NonZer=   157542616 LenScr=   237241344 LnRSAI=           0
 LnScr1=           0 LExtra=   391328411 Total=    797483406
 MaxDsk= 17179869184 SrtSym=           F ITran=            4
 JobTyp=2 Pass  1:  I=   1 to   4.
 Spin components of T(2) and E(2):
     alpha-alpha T2 =       0.3659048506D-01 E2=     -0.1407592522D+00
     alpha-beta  T2 =       0.9705821231D-01 E2=     -0.2900926494D+00
     beta-beta   T2 =       0.1831416982D-01 E2=     -0.4675044074D-01
 ANorm=    0.1077606036D+01
 E2 =    -0.4834835791D+00 EUMP2 =    -0.12251316822034D+04
 (S**2,0)=  0.87500D+01           (S**2,1)=  0.87500D+01
 E(PUHF)=      -0.12246481986D+04        E(PMP2)=      -0.12251316822D+04
 SABFC:  FilMap=F DoRead=T UsPure=F NBasis=   329 NBas6D=   490 NB=   490 NOp=4 jStart=        2507
 MulTab 
              1            2            3            4            5
     1            1            2            3            4            5
     2            2            1            4            3            6
     3            3            4            1            2            7
     4            4            3            2            1            8
     5            5            6            7            8            1
     6            6            5            8            7            2
     7            7            8            5            6            3
     8            8            7            6            5            4
              6            7            8
     1            6            7            8
     2            5            8            7
     3            8            5            6
     4            7            6            5
     5            2            3            4
     6            1            4            3
     7            4            1            2
     8            3            2            1
 Order+ChrTbl 
              1            2            3            4            5
     1            1            1            1            1            1
     2            2            1            1           -1           -1
     3            4            1           -1           -1            1
     4            3            1           -1            1           -1
     5            0            0            0            0            0
     6            0            0            0            0            0
     7            0            0            0            0            0
     8            0            0            0            0            0

 SABF information in SABFC1:
 NS=            0         187         256         373         490
 NS2=           0       33799       60391       90343      120295
 NS4=           0   571203100   924783628  1373359756  1821935884
 Would need an additional      7447088184 words for in-memory AO integral storage.
 Iterations=  50 Convergence= 0.100D-06
 A(0)= 0.10000E+01      ANORM= 0.10733E+01      W(0)=-0.47760234E+00
 Singles contributions to ROMP2 energy
Alpha= -0.3050081853786E-02
Beta=  -0.2831154880783E-02
 Iteration Nr.   1
 **********************
 Bef DD1 bucket IAS1 number    25 has length         2790 dot= 0.48620968D-02
 Bef DD1 bucket IAS2 number    26 has length         1260 dot= 0.44098040D-02
 Bef DD1 bucket IAD1 number    22 has length       431192 dot= 0.36590485D-01
 Bef DD1 bucket IAD2 number    23 has length       889116 dot= 0.97058212D-01
 Bef DD1 bucket IAD3 number    24 has length        74249 dot= 0.18314170D-01
 Bef DD1 bucket IWS1 number 12996 has length         2790 dot= 0.56646160D-03
 Bef DD1 bucket IWS2 number 12995 has length         1260 dot= 0.57296204D-03
 Bef DD1 bucket IWD1 number 12994 has length       431192 dot= 0.00000000D+00
 Bef DD1 bucket IWD2 number 12993 has length       889116 dot= 0.00000000D+00
 Bef DD1 bucket IWD3 number 12992 has length        74249 dot= 0.00000000D+00
 Bef DD1 bucket IWAI1 number     0 is not present.
 Bef DD1 bucket IWAI2 number     0 is not present.
 Bef DD1 bucket IWAI3 number     0 is not present.
 Bef DD1 bucket IWAI4 number     0 is not present.
 DD1Dir will call FoFJK   1 times, MxPair=       114
 NAB=    36 NAA=    36 NBB=     6 NumPrc=  8.
 DD1Dir:  Pass   1 NRAB=    36 NRAA=    36 NRBB=     6 NR=   114.
 FoFJK:  IHMeth= 1 ICntrl=     200 DoSepK=F KAlg= 0 I1Cent=   0 FoldK=F
 IRaf=       0 NMat= 114 IRICut=     195 DoRegI=T DoRafI=T ISym2E=-1.
 FoFCou: FMM=F IPFlag=           0 FMFlag=      100000 FMFlg1=           0
         NFxFlg=           0 DoJE=F BraDBF=F KetDBF=F FulRan=T
         wScrn=  0.000000 ICntrl=     200 IOpCl=  0 I1Cent=           0 NGrid=           0
         NMat0=  114 NMatS0=      0 NMatT0=   36 NMatD0=  114 NMtDS0=    0 NMtDT0=    0
 Petite list used in FoFCou.
 FoFCou:  KetSym=F NOpSet=  1 NOpAb=1 NOp=  1.
 FoFCou:  CnvScl= 1.00D+00 Thresh= 1.00D-10 IAcrcy=      10.
 PrismS was handed  1580624614 working-precision words and  2278 shell-pairs
 FoFCou: LinMIO=F DoNuc=F BraDBF=F KetDBF=F HaveP=T PDBF=F HaveZ=F HaveW=F
         NIJTC =      28 NIJTAt=       0 NIJTCD=       0 NIJTT =      28
         IJTBeg=       1 IJTEnd=      28 KLTBeg=       1 KLTEnd=      28
         IPTBeg=       1 IPTEnd=      28 IPTBCv=       1 IPTECv=      28
         IZTBeg=       1 IZTEnd=      28 IZTBCv=       1 IZTECv=      28
         IWTBeg=      29 IWTEnd=      28 IWTBCv=      29 IWTECv=      28
         INTBeg=       1 INTEnd=       0 IFTBCv=       1 IFTECv=      28
 NCel replicated for PrismC:     1
 CoulSu:  IncDef=  1024 NBBP=        2595781 NTPThr=   100 NPartT=    8 Incr=        1024 LDynOK=F.
 CoulSu:  NPrtUS=   8 ThrOK=T IAlg=1 NPAlg=2 LenDen=    13713630 LWGrdD=           0 DoCopy=T.
 Enter PrismC: JobTyp=20 DoJE=F Cont=F.
 PrismC:  IPart=     0 DynPar=T LinDyn=F Incr=        1024 UseFst=F UseS4=T.
 PrismC was handed   172823404 working-precision words and  2278 shell-pairs
 Enter PrismC: JobTyp=20 DoJE=F Cont=F.
 Enter PrismC: JobTyp=20 DoJE=F Cont=F.
 PrismC was handed   172823404 working-precision words and  2278 shell-pairs
 PrismC was handed   172823404 working-precision words and  2278 shell-pairs
 Enter PrismC: JobTyp=20 DoJE=F Cont=F.
 PrismC was handed   172823404 working-precision words and  2278 shell-pairs
 Enter PrismC: JobTyp=20 DoJE=F Cont=F.
 Enter PrismC: JobTyp=20 DoJE=F Cont=F.
 PrismC was handed   172823404 working-precision words and  2278 shell-pairs
 PrismC was handed   172823404 working-precision words and  2278 shell-pairs
 Enter PrismC: JobTyp=20 DoJE=F Cont=F.
 Enter PrismC: JobTyp=20 DoJE=F Cont=F.
 PrismC was handed   172823404 working-precision words and  2278 shell-pairs
 PrismC was handed   172823404 working-precision words and  2278 shell-pairs
 IPart=  3 NShTot=       84468 NShNF=       84468 NShFF=           0 NBatch=        4258 AvBLen=        19.8
 IPart=  5 NShTot=      114234 NShNF=      114234 NShFF=           0 NBatch=        5518 AvBLen=        20.7
 IPart=  6 NShTot=      148457 NShNF=      148457 NShFF=           0 NBatch=        6849 AvBLen=        21.7
 IPart=  4 NShTot=      128204 NShNF=      128204 NShFF=           0 NBatch=        5281 AvBLen=        24.3
 IPart=  1 NShTot=      101735 NShNF=      101735 NShFF=           0 NBatch=        5290 AvBLen=        19.2
 IPart=  0 NShTot=       99249 NShNF=       99249 NShFF=           0 NBatch=        4894 AvBLen=        20.3
 IPart=  2 NShTot=      109414 NShNF=      109414 NShFF=           0 NBatch=        4979 AvBLen=        22.0
 IPart=  7 NShTot=      131388 NShNF=      131388 NShFF=           0 NBatch=        6228 AvBLen=        21.1
 CoulSu:  NxtVal=         942081.
 FoFCou EC= -28.9790870027     ENF= -28.9790870027    
 PrRfSu:  IncDef=   512 NBBP=        2595781 NTPThr=   100 NPartT=    8 Incr=         512 LDynOK=F.
 PrRfSu:  NPrtUS=   8 ThrOK=T IAlg=1 NPAlg=2 LenDen=    13713630.
 PrmRaf:  IPart=     0 DynPar=T LinDyn=F Incr=         512.
 PrmRaf was handed   171888218 working-precision words and  2278 shell-pairs
 PrmRaf was handed   171888218 working-precision words and  2278 shell-pairs
 PrmRaf was handed   171888218 working-precision words and  2278 shell-pairs
 PrmRaf was handed   171888218 working-precision words and  2278 shell-pairs
 PrmRaf was handed   171888218 working-precision words and  2278 shell-pairs
 PrmRaf was handed   171888218 working-precision words and  2278 shell-pairs
 PrmRaf was handed   171888218 working-precision words and  2278 shell-pairs
 PrmRaf was handed   171888218 working-precision words and  2278 shell-pairs
 IPart=  1 NShTot=       76384 NBatch=        4095 AvBLen=        18.7
 IPart=  4 NShTot=       77068 NBatch=        3950 AvBLen=        19.5
 IPart=  6 NShTot=       81153 NBatch=        3780 AvBLen=        21.5
 IPart=  2 NShTot=       72287 NBatch=        3733 AvBLen=        19.4
 IPart=  0 NShTot=       70866 NBatch=        3299 AvBLen=        21.5
 IPart=  7 NShTot=       71791 NBatch=        4030 AvBLen=        17.8
 IPart=  3 NShTot=       71413 NBatch=        3599 AvBLen=        19.8
 IPart=  5 NShTot=       71245 NBatch=        3751 AvBLen=        19.0
 PrRfSu:  NxtVal=         796161.
 Aft DD1 bucket IAS1 number    25 has length         2790 dot= 0.48620968D-02
 Aft DD1 bucket IAS2 number    26 has length         1260 dot= 0.44098040D-02
 Aft DD1 bucket IAD1 number    22 has length       431192 dot= 0.36590485D-01
 Aft DD1 bucket IAD2 number    23 has length       889116 dot= 0.97058212D-01
 Aft DD1 bucket IAD3 number    24 has length        74249 dot= 0.18314170D-01
 Aft DD1 bucket IWS1 number 12996 has length         2790 dot= 0.27466487D-01
 Aft DD1 bucket IWS2 number 12995 has length         1260 dot= 0.25981184D-01
 Aft DD1 bucket IWD1 number 12994 has length       431192 dot= 0.23233895D-01
 Aft DD1 bucket IWD2 number 12993 has length       889116 dot= 0.10776117D+00
 Aft DD1 bucket IWD3 number 12992 has length        74249 dot= 0.97676901D-02
 Aft DD1 bucket IWAI1 number 19999 has length       102060 dot= 0.12483380D-01
 Aft DD1 bucket IWAI2 number 19998 has length        44640 dot= 0.99750584D-02
 Aft DD1 bucket IWAI3 number 19997 has length       100440 dot= 0.42700562D-02
 Aft DD1 bucket IWAI4 number 19996 has length         7560 dot= 0.18934122D-02
 Bef DD1 bucket IAS1 number    25 has length         2790 dot= 0.48620968D-02
 Bef DD1 bucket IAS2 number    26 has length         1260 dot= 0.44098040D-02
 Bef DD1 bucket IAD1 number 12999 has length       431192 dot= 0.52586681D-05
 Bef DD1 bucket IAD2 number 12998 has length       889116 dot= 0.21440894D-04
 Bef DD1 bucket IAD3 number 12997 has length        74249 dot= 0.44804275D-05
 Bef DD1 bucket IWS1 number    30 has length         2790 dot= 0.00000000D+00
 Bef DD1 bucket IWS2 number    31 has length         1260 dot= 0.00000000D+00
 Bef DD1 bucket IWD1 number    27 has length       431192 dot= 0.00000000D+00
 Bef DD1 bucket IWD2 number    28 has length       889116 dot= 0.00000000D+00
 Bef DD1 bucket IWD3 number    29 has length        74249 dot= 0.00000000D+00
 Bef DD1 bucket IWAI1 number     0 is not present.
 Bef DD1 bucket IWAI2 number     0 is not present.
 Bef DD1 bucket IWAI3 number     0 is not present.
 Bef DD1 bucket IWAI4 number     0 is not present.
 DD1Dir will call FoFJK   1 times, MxPair=       114
 NAB=    36 NAA=    36 NBB=     6 NumPrc=  8.
 DD1Dir:  Pass   1 NRAB=    36 NRAA=    36 NRBB=     6 NR=   114.
 FoFJK:  IHMeth= 1 ICntrl=     200 DoSepK=F KAlg= 0 I1Cent=   0 FoldK=F
 IRaf=       0 NMat= 114 IRICut=     195 DoRegI=T DoRafI=T ISym2E=-1.
 FoFCou: FMM=F IPFlag=           0 FMFlag=      100000 FMFlg1=           0
         NFxFlg=           0 DoJE=F BraDBF=F KetDBF=F FulRan=T
         wScrn=  0.000000 ICntrl=     200 IOpCl=  0 I1Cent=           0 NGrid=           0
         NMat0=  114 NMatS0=      0 NMatT0=   36 NMatD0=  114 NMtDS0=    0 NMtDT0=    0
 Petite list used in FoFCou.
 FoFCou:  KetSym=F NOpSet=  1 NOpAb=1 NOp=  1.
 FoFCou:  CnvScl= 1.00D+00 Thresh= 1.00D-10 IAcrcy=      10.
 PrismS was handed  1580960824 working-precision words and  2278 shell-pairs
 FoFCou: LinMIO=F DoNuc=F BraDBF=F KetDBF=F HaveP=T PDBF=F HaveZ=F HaveW=F
         NIJTC =      28 NIJTAt=       0 NIJTCD=       0 NIJTT =      28
         IJTBeg=       1 IJTEnd=      28 KLTBeg=       1 KLTEnd=      28
         IPTBeg=       1 IPTEnd=      28 IPTBCv=       1 IPTECv=      28
         IZTBeg=       1 IZTEnd=      28 IZTBCv=       1 IZTECv=      28
         IWTBeg=      29 IWTEnd=      28 IWTBCv=      29 IWTECv=      28
         INTBeg=       1 INTEnd=       0 IFTBCv=       1 IFTECv=      28
 NCel replicated for PrismC:     1
 CoulSu:  IncDef=  1024 NBBP=        2595781 NTPThr=   100 NPartT=    8 Incr=        1024 LDynOK=F.
 CoulSu:  NPrtUS=   8 ThrOK=T IAlg=1 NPAlg=2 LenDen=    13713630 LWGrdD=           0 DoCopy=T.
 Enter PrismC: JobTyp=20 DoJE=F Cont=F.
 PrismC:  IPart=     0 DynPar=T LinDyn=F Incr=        1024 UseFst=F UseS4=T.
 PrismC was handed   172871941 working-precision words and  2278 shell-pairs
 Enter PrismC: JobTyp=20 DoJE=F Cont=F.
 PrismC was handed   172871941 working-precision words and  2278 shell-pairs
 Enter PrismC: JobTyp=20 DoJE=F Cont=F.
 Enter PrismC: JobTyp=20 DoJE=F Cont=F.
 PrismC was handed   172871941 working-precision words and  2278 shell-pairs
 PrismC was handed   172871941 working-precision words and  2278 shell-pairs
 Enter PrismC: JobTyp=20 DoJE=F Cont=F.
 Enter PrismC: JobTyp=20 DoJE=F Cont=F.
 PrismC was handed   172871941 working-precision words and  2278 shell-pairs
 PrismC was handed   172871941 working-precision words and  2278 shell-pairs
 Enter PrismC: JobTyp=20 DoJE=F Cont=F.
 Enter PrismC: JobTyp=20 DoJE=F Cont=F.
 PrismC was handed   172871941 working-precision words and  2278 shell-pairs
 PrismC was handed   172871941 working-precision words and  2278 shell-pairs
 IPart=  4 NShTot=       77617 NShNF=       77617 NShFF=           0 NBatch=        3975 AvBLen=        19.5
 IPart=  6 NShTot=      121519 NShNF=      121519 NShFF=           0 NBatch=        5757 AvBLen=        21.1
 IPart=  7 NShTot=      113570 NShNF=      113570 NShFF=           0 NBatch=        5447 AvBLen=        20.9
 IPart=  1 NShTot=       91223 NShNF=       91223 NShFF=           0 NBatch=        4530 AvBLen=        20.1
 IPart=  2 NShTot=      108101 NShNF=      108101 NShFF=           0 NBatch=        5851 AvBLen=        18.5
 IPart=  0 NShTot=      123604 NShNF=      123604 NShFF=           0 NBatch=        6543 AvBLen=        18.9
 IPart=  3 NShTot=      136694 NShNF=      136694 NShFF=           0 NBatch=        6280 AvBLen=        21.8
 IPart=  5 NShTot=      140594 NShNF=      140594 NShFF=           0 NBatch=        6696 AvBLen=        21.0
 CoulSu:  NxtVal=        1014785.
 FoFCou EC= 0.295591562055E-05 ENF= 0.295591562055E-05
 PrRfSu:  IncDef=   512 NBBP=        2595781 NTPThr=   100 NPartT=    8 Incr=         512 LDynOK=F.
 PrRfSu:  NPrtUS=   8 ThrOK=T IAlg=1 NPAlg=2 LenDen=    13713630.
 PrmRaf:  IPart=     0 DynPar=T LinDyn=F Incr=         512.
 PrmRaf was handed   171928617 working-precision words and  2278 shell-pairs
 PrmRaf was handed   171928617 working-precision words and  2278 shell-pairs
 PrmRaf was handed   171928617 working-precision words and  2278 shell-pairs
 PrmRaf was handed   171928617 working-precision words and  2278 shell-pairs
 PrmRaf was handed   171928617 working-precision words and  2278 shell-pairs
 PrmRaf was handed   171928617 working-precision words and  2278 shell-pairs
 PrmRaf was handed   171928617 working-precision words and  2278 shell-pairs
 PrmRaf was handed   171928617 working-precision words and  2278 shell-pairs
 IPart=  7 NShTot=       71820 NBatch=        3822 AvBLen=        18.8
 IPart=  0 NShTot=       75346 NBatch=        3910 AvBLen=        19.3
 IPart=  3 NShTot=       69793 NBatch=        3817 AvBLen=        18.3
 IPart=  2 NShTot=       74287 NBatch=        3730 AvBLen=        19.9
 IPart=  5 NShTot=       80488 NBatch=        3757 AvBLen=        21.4
 IPart=  1 NShTot=       69704 NBatch=        3709 AvBLen=        18.8
 IPart=  6 NShTot=       76719 NBatch=        3795 AvBLen=        20.2
 IPart=  4 NShTot=       74050 NBatch=        3707 AvBLen=        20.0
 PrRfSu:  NxtVal=         796161.
 Aft DD1 bucket IAS1 number    25 has length         2790 dot= 0.48620968D-02
 Aft DD1 bucket IAS2 number    26 has length         1260 dot= 0.44098040D-02
 Aft DD1 bucket IAD1 number 12999 has length       431192 dot= 0.52586681D-05
 Aft DD1 bucket IAD2 number 12998 has length       889116 dot= 0.21440894D-04
 Aft DD1 bucket IAD3 number 12997 has length        74249 dot= 0.44804275D-05
 Aft DD1 bucket IWS1 number    30 has length         2790 dot= 0.26884826D-07
 Aft DD1 bucket IWS2 number    31 has length         1260 dot= 0.53400954D-07
 Aft DD1 bucket IWD1 number    27 has length       431192 dot= 0.59730798D-06
 Aft DD1 bucket IWD2 number    28 has length       889116 dot= 0.30889187D-05
 Aft DD1 bucket IWD3 number    29 has length        74249 dot= 0.35094115D-06
 Aft DD1 bucket IWAI1 number 19999 has length       102060 dot= 0.12483380D-01
 Aft DD1 bucket IWAI2 number 19998 has length        44640 dot= 0.99750584D-02
 Aft DD1 bucket IWAI3 number 19997 has length       100440 dot= 0.42700562D-02
 Aft DD1 bucket IWAI4 number 19996 has length         7560 dot= 0.18934122D-02
 Aft SD4 bucket IAS1 number    25 has length         2790 dot= 0.48620968D-02
 Aft SD4 bucket IAS2 number    26 has length         1260 dot= 0.44098040D-02
 Aft SD4 bucket IAD1 number    22 has length       431192 dot= 0.36590485D-01
 Aft SD4 bucket IAD2 number    23 has length       889116 dot= 0.97058212D-01
 Aft SD4 bucket IAD3 number    24 has length        74249 dot= 0.18314170D-01
 Aft SD4 bucket IWS1 number    30 has length         2790 dot= 0.26884826D-07
 Aft SD4 bucket IWS2 number    31 has length         1260 dot= 0.53400954D-07
 Aft SD4 bucket IWD1 number    27 has length       431192 dot= 0.59730798D-06
 Aft SD4 bucket IWD2 number    28 has length       889116 dot= 0.30889187D-05
 Aft SD4 bucket IWD3 number    29 has length        74249 dot= 0.35094115D-06
 Aft SD4 bucket IWAI1 number 19999 has length       102060 dot= 0.12483380D-01
 Aft SD4 bucket IWAI2 number 19998 has length        44640 dot= 0.99750584D-02
 Aft SD4 bucket IWAI3 number 19997 has length       100440 dot= 0.42700562D-02
 Aft SD4 bucket IWAI4 number 19996 has length         7560 dot= 0.18934122D-02
 TestDE:  II= 99 I=2 DE=    0.751284291489D-01
 TestDE:  II= 99 I=1 DE=    0.229114918566D-01
 TestDE:  II= 99 I=3 DE=    0.102674813945D-01
 Aft DS4 bucket IAS1 number    25 has length         2790 dot= 0.48620968D-02
 Aft DS4 bucket IAS2 number    26 has length         1260 dot= 0.44098040D-02
 Aft DS4 bucket IAD1 number    22 has length       431192 dot= 0.36590485D-01
 Aft DS4 bucket IAD2 number    23 has length       889116 dot= 0.97058212D-01
 Aft DS4 bucket IAD3 number    24 has length        74249 dot= 0.18314170D-01
 Aft DS4 bucket IWS1 number    30 has length         2790 dot= 0.26884826D-07
 Aft DS4 bucket IWS2 number    31 has length         1260 dot= 0.53400954D-07
 Aft DS4 bucket IWD1 number    27 has length       431192 dot= 0.59730798D-06
 Aft DS4 bucket IWD2 number    28 has length       889116 dot= 0.30889187D-05
 Aft DS4 bucket IWD3 number    29 has length        74249 dot= 0.35094115D-06
 Aft DS4 bucket IWAI1 number 19999 has length       102060 dot= 0.12483380D-01
 Aft DS4 bucket IWAI2 number 19998 has length        44640 dot= 0.99750584D-02
 Aft DS4 bucket IWAI3 number 19997 has length       100440 dot= 0.42700562D-02
 Aft DS4 bucket IWAI4 number 19996 has length         7560 dot= 0.18934122D-02
 Bef SD5a bucket IAS1 number    25 has length         2790 dot= 0.48620968D-02
 Bef SD5a bucket IAS2 number    26 has length         1260 dot= 0.44098040D-02
 Bef SD5a bucket IAD1 number    22 has length       431192 dot= 0.36590485D-01
 Bef SD5a bucket IAD2 number    23 has length       889116 dot= 0.97058212D-01
 Bef SD5a bucket IAD3 number    24 has length        74249 dot= 0.18314170D-01
 Bef SD5a bucket IWS1 number    30 has length         2790 dot= 0.26884826D-07
 Bef SD5a bucket IWS2 number    31 has length         1260 dot= 0.53400954D-07
 Bef SD5a bucket IWD1 number    27 has length       431192 dot= 0.59730798D-06
 Bef SD5a bucket IWD2 number    28 has length       889116 dot= 0.30889187D-05
 Bef SD5a bucket IWD3 number    29 has length        74249 dot= 0.35094115D-06
 Bef SD5a bucket IWAI1 number 19999 has length       102060 dot= 0.12483380D-01
 Bef SD5a bucket IWAI2 number 19998 has length        44640 dot= 0.99750584D-02
 Bef SD5a bucket IWAI3 number 19997 has length       100440 dot= 0.42700562D-02
 Bef SD5a bucket IWAI4 number 19996 has length         7560 dot= 0.18934122D-02
 Bef SD5b bucket IAS1 number     0 is not present.
 Bef SD5b bucket IAS2 number     0 is not present.
 Bef SD5b bucket IAD1 number     0 is not present.
 Bef SD5b bucket IAD2 number     0 is not present.
 Bef SD5b bucket IAD3 number     0 is not present.
 Bef SD5b bucket IWS1 number 12996 has length         2790 dot= 0.27466487D-01
 Bef SD5b bucket IWS2 number 12995 has length         1260 dot= 0.25981184D-01
 Bef SD5b bucket IWD1 number 12994 has length       431192 dot= 0.24499168D-01
 Bef SD5b bucket IWD2 number 12993 has length       889116 dot= 0.11322846D+00
 Bef SD5b bucket IWD3 number 12992 has length        74249 dot= 0.93300135D-02
 Bef SD5b bucket IWAI1 number     0 is not present.
 Bef SD5b bucket IWAI2 number     0 is not present.
 Bef SD5b bucket IWAI3 number     0 is not present.
 Bef SD5b bucket IWAI4 number     0 is not present.
 TestDE:  II= 19 I=1 DE=    0.614248087915D-04
 TestDE:  II= 19 I=2 DE=    0.197987415849D-03
 TestDE:  II= 19 I=3 DE=   -0.418247156242D-04
 Aft SD5 bucket IAS1 number    25 has length         2790 dot= 0.48620968D-02
 Aft SD5 bucket IAS2 number    26 has length         1260 dot= 0.44098040D-02
 Aft SD5 bucket IAD1 number    22 has length       431192 dot= 0.36590485D-01
 Aft SD5 bucket IAD2 number    23 has length       889116 dot= 0.97058212D-01
 Aft SD5 bucket IAD3 number    24 has length        74249 dot= 0.18314170D-01
 Aft SD5 bucket IWS1 number    30 has length         2790 dot= 0.15687832D-06
 Aft SD5 bucket IWS2 number    31 has length         1260 dot= 0.35351415D-06
 Aft SD5 bucket IWD1 number    27 has length       431192 dot= 0.21024246D-05
 Aft SD5 bucket IWD2 number    28 has length       889116 dot= 0.17408626D-04
 Aft SD5 bucket IWD3 number    29 has length        74249 dot= 0.17013975D-05
 Aft SD5 bucket IWAI1 number     0 is not present.
 Aft SD5 bucket IWAI2 number     0 is not present.
 Aft SD5 bucket IWAI3 number     0 is not present.
 Aft SD5 bucket IWAI4 number     0 is not present.
 Contribution from DD1=    0.21758751D-03
 Bef DD2 bucket IAS1 number    25 has length         2790 dot= 0.48620968D-02
 Bef DD2 bucket IAS2 number    26 has length         1260 dot= 0.44098040D-02
 Bef DD2 bucket IAD1 number    22 has length       431192 dot= 0.36590485D-01
 Bef DD2 bucket IAD2 number    23 has length       889116 dot= 0.97058212D-01
 Bef DD2 bucket IAD3 number    24 has length        74249 dot= 0.18314170D-01
 Bef DD2 bucket IWS1 number    30 has length         2790 dot= 0.15687832D-06
 Bef DD2 bucket IWS2 number    31 has length         1260 dot= 0.35351415D-06
 Bef DD2 bucket IWD1 number    27 has length       431192 dot= 0.21024246D-05
 Bef DD2 bucket IWD2 number    28 has length       889116 dot= 0.17408626D-04
 Bef DD2 bucket IWD3 number    29 has length        74249 dot= 0.17013975D-05
 Bef DD2 bucket IWAI1 number     0 is not present.
 Bef DD2 bucket IWAI2 number     0 is not present.
 Bef DD2 bucket IWAI3 number     0 is not present.
 Bef DD2 bucket IWAI4 number     0 is not present.
 ExpSMa:  Full in-core algorithm.
 ExpSMa:  Full in-core algorithm.
 ExpSMa:  Full in-core algorithm.
 ExpSMa:  Full in-core algorithm.
 ExpSMa:  Full in-core algorithm.
 ExpSMa:  Full in-core algorithm.
 ExpSMa:  Full in-core algorithm.
 ExpSMa:  Full in-core algorithm.
 TestDE:  II= 70 I=2 DE=    0.275883891853D-03
 TestDE:  II= 50 I=1 DE=   -0.585536656258D-04
 TestDE:  II= 90 I=3 DE=    0.276487121867D-04
 Aft DD2 bucket IAS1 number    25 has length         2790 dot= 0.48620968D-02
 Aft DD2 bucket IAS2 number    26 has length         1260 dot= 0.44098040D-02
 Aft DD2 bucket IAD1 number    22 has length       431192 dot= 0.36590485D-01
 Aft DD2 bucket IAD2 number    23 has length       889116 dot= 0.97058212D-01
 Aft DD2 bucket IAD3 number    24 has length        74249 dot= 0.18314170D-01
 Aft DD2 bucket IWS1 number    30 has length         2790 dot= 0.15687832D-06
 Aft DD2 bucket IWS2 number    31 has length         1260 dot= 0.35351415D-06
 Aft DD2 bucket IWD1 number    27 has length       431192 dot= 0.58922493D-05
 Aft DD2 bucket IWD2 number    28 has length       889116 dot= 0.32254585D-04
 Aft DD2 bucket IWD3 number    29 has length        74249 dot= 0.40141592D-05
 Aft DD2 bucket IWAI1 number     0 is not present.
 Aft DD2 bucket IWAI2 number     0 is not present.
 Aft DD2 bucket IWAI3 number     0 is not present.
 Aft DD2 bucket IWAI4 number     0 is not present.
 Contribution from DD2=    0.27391429D-04
 TestDE:  II=  5 I=1 DE=   -0.346430493970D-01
 TestDE:  II=  5 I=1 DE=    0.361409155953D-03
 TestDE:  II=  7 I=2 DE=    0.275883891853D-03
 TestDE:  II=  7 I=2 DE=    0.365803602917D-03
 TestDE:  II=  8 I=2 DE=   -0.109791611595D+00
 TestDE:  II=  8 I=2 DE=   -0.789787095666D-04
 TestDE:  II=  9 I=3 DE=   -0.876532939999D-02
 TestDE:  II=  9 I=3 DE=   -0.236823593323D-03
 Contribution from DD3=    0.13552656D-03
 Singles added:  Sum=    0.39645140D-03
 End CIDS3 bucket IAS1 number    25 has length         2790 dot= 0.48620968D-02
 End CIDS3 bucket IAS2 number    26 has length         1260 dot= 0.44098040D-02
 End CIDS3 bucket IAD1 number    22 has length       431192 dot= 0.36590485D-01
 End CIDS3 bucket IAD2 number    23 has length       889116 dot= 0.97058212D-01
 End CIDS3 bucket IAD3 number    24 has length        74249 dot= 0.18314170D-01
 End CIDS3 bucket IWS1 number    30 has length         2790 dot= 0.15687832D-06
 End CIDS3 bucket IWS2 number    31 has length         1260 dot= 0.35351415D-06
 End CIDS3 bucket IWD1 number    27 has length       431192 dot= 0.35353740D-04
 End CIDS3 bucket IWD2 number    28 has length       889116 dot= 0.10858389D-03
 End CIDS3 bucket IWD3 number    29 has length        74249 dot= 0.38753167D-04
 End CIDS3 bucket IWAI1 number     0 is not present.
 End CIDS3 bucket IWAI2 number     0 is not present.
 End CIDS3 bucket IWAI3 number     0 is not present.
 End CIDS3 bucket IWAI4 number     0 is not present.
 Entering DoROCS
 GetDE: DE=      0.00000000D+00
 MP3 Singles =       -0.31718528412D-02 Doubles=        0.40418366572D-01
 Linear MP4 energy terms:
 Singles =       -0.26584684117D-01
 Doubles =       -0.22069805727D-01
 Mixed  =        0.15763377412D-03
 Total MP4L =       -0.48496856069D-01
 TestDE:  II= 99 I=2 DE=   -0.183207683356D-02
 TestDE:  II= 99 I=1 DE=   -0.154328436970D-04
 TestDE:  II= 99 I=3 DE=   -0.406966926730D-03
 TestDE:  II= 99 I=1 DE=    0.237120922319D-02
 TestDE:  II= 11 I=2 DE=   -0.183207683356D-02
 TestDE:  II= 99 I=2 DE=    0.224361627406D-02
 TestDE:  II= 98 I=2 DE=    0.593288645535D-02
 TestDE:  II= 98 I=3 DE=    0.119699262233D-02
 TestDE:  II= 89 I=1 DE=    0.755499095839D-02
 TestDE:  II= 89 I=2 DE=    0.145448344543D-01
 TestDE:  II= 88 I=3 DE=    0.525252371512D-02
 TestDE:  II= 88 I=2 DE=    0.252736664683D-01
 TestDE:  II= 85 I=1 DE=    0.191865719314D-02
 TestDE:  II= 85 I=2 DE=    0.879777889874D-02
 TestDE:  II= 85 I=3 DE=    0.938429174840D-03
 UMP4Q scratch file information:
   i      file        len
 ---     ------    ------
   1      19999   2024983
   2      19998   2024983
   3      19997   2024983
   4      19996   2024983
   5      19995   2024983
   6      19994     99225
 total scratch length=    10224140
 UMP4(Q)= -0.255916485D-01
 MP4(R+Q)= -0.25591648D-01
 TestDE:  II= 71 I=2 DE=    0.111702661328D-03
 TestDE:  II= 70 I=2 DE=   -0.508484032913D-04
 TestDE:  II= 72 I=2 DE=    0.114298013110D-03
 TestDE:  II= 75 I=2 DE=    0.869873573402D-02
 TestDE:  II= 75 I=1 DE=    0.198057911288D-02
 TestDE:  II= 75 I=3 DE=    0.958323360739D-03
 MP4 NL singles =        0.12249555573D-02
 MP4 NL doubles =        0.11637638208D-01
 MP4 L =       -0.48496856069D-01
 MP4 NL =        0.12862593765D-01
 MP4 Mixed =       -0.67506898744D-04
 RO-SDQ-MP4 Energy =       -0.35701769203D-01
 GetDE: DE=      0.00000000D+00
 TestDE:  II= 65 I=1 DE=    0.354454854869D-01
 TestDE:  II= 65 I=2 DE=    0.916568561131D-01
 TestDE:  II= 65 I=3 DE=    0.177712253675D-01
 Singles A-vector converged to   3.8673058D-04
 Singles A-vector converged to   1.0021475D-03
 The Euclidean norm of the A-vectors is   1.0195483D-03
 The Euclidean norm of the A-vectors is   1.0465884D-03
 The Euclidean norm of the A-vectors is   1.0742655D-03
 A(0)= 0.10000E+01      ANORM= 0.10696E+01      W(0)=-0.46626629E+00
 E3=        0.37246514D-01        EROMP3=      -0.12250944357D+04
 E4(SDQ)=  -0.35701769D-01        ROMP4(SDQ)=  -0.12251301375D+04
 DE(Corr)= -0.47074473     E(Corr)=     -1225.1189434    
 NORM(A)=   0.10695724D+01
 Iteration Nr.   2
 **********************
 Bef DD1 bucket IAS1 number    25 has length         2790 dot= 0.27229644D-02
 Bef DD1 bucket IAS2 number    26 has length         1260 dot= 0.22888842D-02
 Bef DD1 bucket IAD1 number 12999 has length       431192 dot= 0.34438308D-01
 Bef DD1 bucket IAD2 number 12998 has length       889116 dot= 0.87410924D-01
 Bef DD1 bucket IAD3 number 12997 has length        74249 dot= 0.17305998D-01
 Bef DD1 bucket IWS1 number    30 has length         2790 dot= 0.32639212D-03
 Bef DD1 bucket IWS2 number    31 has length         1260 dot= 0.32500711D-03
 Bef DD1 bucket IWD1 number    27 has length       431192 dot= 0.00000000D+00
 Bef DD1 bucket IWD2 number    28 has length       889116 dot= 0.00000000D+00
 Bef DD1 bucket IWD3 number    29 has length        74249 dot= 0.00000000D+00
 Bef DD1 bucket IWAI1 number     0 is not present.
 Bef DD1 bucket IWAI2 number     0 is not present.
 Bef DD1 bucket IWAI3 number     0 is not present.
 Bef DD1 bucket IWAI4 number     0 is not present.
 DD1Dir will call FoFJK   1 times, MxPair=       114
 NAB=    36 NAA=    36 NBB=     6 NumPrc=  8.
 DD1Dir:  Pass   1 NRAB=    36 NRAA=    36 NRBB=     6 NR=   114.
 FoFJK:  IHMeth= 1 ICntrl=     200 DoSepK=F KAlg= 0 I1Cent=   0 FoldK=F
 IRaf=       0 NMat= 114 IRICut=     195 DoRegI=T DoRafI=T ISym2E=-1.
 FoFCou: FMM=F IPFlag=           0 FMFlag=      100000 FMFlg1=           0
         NFxFlg=           0 DoJE=F BraDBF=F KetDBF=F FulRan=T
         wScrn=  0.000000 ICntrl=     200 IOpCl=  0 I1Cent=           0 NGrid=           0
         NMat0=  114 NMatS0=      0 NMatT0=   36 NMatD0=  114 NMtDS0=    0 NMtDT0=    0
 Petite list used in FoFCou.
 FoFCou:  KetSym=F NOpSet=  1 NOpAb=1 NOp=  1.
 FoFCou:  CnvScl= 1.00D+00 Thresh= 1.00D-10 IAcrcy=      10.
 PrismS was handed  1580947860 working-precision words and  2278 shell-pairs
 FoFCou: LinMIO=F DoNuc=F BraDBF=F KetDBF=F HaveP=T PDBF=F HaveZ=F HaveW=F
         NIJTC =      28 NIJTAt=       0 NIJTCD=       0 NIJTT =      28
         IJTBeg=       1 IJTEnd=      28 KLTBeg=       1 KLTEnd=      28
         IPTBeg=       1 IPTEnd=      28 IPTBCv=       1 IPTECv=      28
         IZTBeg=       1 IZTEnd=      28 IZTBCv=       1 IZTECv=      28
         IWTBeg=      29 IWTEnd=      28 IWTBCv=      29 IWTECv=      28
         INTBeg=       1 INTEnd=       0 IFTBCv=       1 IFTECv=      28
 NCel replicated for PrismC:     1
 CoulSu:  IncDef=  1024 NBBP=        2595781 NTPThr=   100 NPartT=    8 Incr=        1024 LDynOK=F.
 CoulSu:  NPrtUS=   8 ThrOK=T IAlg=1 NPAlg=2 LenDen=    13713630 LWGrdD=           0 DoCopy=T.
 Enter PrismC: JobTyp=20 DoJE=F Cont=F.
 PrismC:  IPart=     0 DynPar=T LinDyn=F Incr=        1024 UseFst=F UseS4=T.
 PrismC was handed   172863838 working-precision words and  2278 shell-pairs
 Enter PrismC: JobTyp=20 DoJE=F Cont=F.
 PrismC was handed   172863838 working-precision words and  2278 shell-pairs
 Enter PrismC: JobTyp=20 DoJE=F Cont=F.
 Enter PrismC: JobTyp=20 DoJE=F Cont=F.
 PrismC was handed   172863838 working-precision words and  2278 shell-pairs
 PrismC was handed   172863838 working-precision words and  2278 shell-pairs
 Enter PrismC: JobTyp=20 DoJE=F Cont=F.
 Enter PrismC: JobTyp=20 DoJE=F Cont=F.
 Enter PrismC: JobTyp=20 DoJE=F Cont=F.
 PrismC was handed   172863838 working-precision words and  2278 shell-pairs
 Enter PrismC: JobTyp=20 DoJE=F Cont=F.
 PrismC was handed   172863838 working-precision words and  2278 shell-pairs
 PrismC was handed   172863838 working-precision words and  2278 shell-pairs
 PrismC was handed   172863838 working-precision words and  2278 shell-pairs
 IPart=  7 NShTot=      133443 NShNF=      133443 NShFF=           0 NBatch=        5802 AvBLen=        23.0
 IPart=  0 NShTot=      106123 NShNF=      106123 NShFF=           0 NBatch=        5264 AvBLen=        20.2
 IPart=  6 NShTot=      106823 NShNF=      106823 NShFF=           0 NBatch=        5244 AvBLen=        20.4
 IPart=  5 NShTot=      117680 NShNF=      117680 NShFF=           0 NBatch=        5607 AvBLen=        21.0
 IPart=  1 NShTot=      117570 NShNF=      117570 NShFF=           0 NBatch=        5127 AvBLen=        22.9
 IPart=  2 NShTot=       79376 NShNF=       79376 NShFF=           0 NBatch=        4493 AvBLen=        17.7
 IPart=  3 NShTot=      135271 NShNF=      135271 NShFF=           0 NBatch=        5924 AvBLen=        22.8
 IPart=  4 NShTot=      120858 NShNF=      120858 NShFF=           0 NBatch=        5962 AvBLen=        20.3
 CoulSu:  NxtVal=         942081.
 FoFCou EC= -28.0955009565     ENF= -28.0955009565    
 PrRfSu:  IncDef=   512 NBBP=        2595781 NTPThr=   100 NPartT=    8 Incr=         512 LDynOK=F.
 PrRfSu:  NPrtUS=   8 ThrOK=T IAlg=1 NPAlg=2 LenDen=    13713630.
 PrmRaf:  IPart=     0 DynPar=T LinDyn=F Incr=         512.
 PrmRaf was handed   171928617 working-precision words and  2278 shell-pairs
 PrmRaf was handed   171928617 working-precision words and  2278 shell-pairs
 PrmRaf was handed   171928617 working-precision words and  2278 shell-pairs
 PrmRaf was handed   171928617 working-precision words and  2278 shell-pairs
 PrmRaf was handed   171928617 working-precision words and  2278 shell-pairs
 PrmRaf was handed   171928617 working-precision words and  2278 shell-pairs
 PrmRaf was handed   171928617 working-precision words and  2278 shell-pairs
 PrmRaf was handed   171928617 working-precision words and  2278 shell-pairs
 IPart=  1 NShTot=       69756 NBatch=        3602 AvBLen=        19.4
 IPart=  4 NShTot=       75084 NBatch=        3982 AvBLen=        18.9
 IPart=  0 NShTot=       78009 NBatch=        3810 AvBLen=        20.5
 IPart=  6 NShTot=       72832 NBatch=        3763 AvBLen=        19.4
 IPart=  5 NShTot=       72486 NBatch=        3626 AvBLen=        20.0
 IPart=  2 NShTot=       78013 NBatch=        3721 AvBLen=        21.0
 IPart=  7 NShTot=       72758 NBatch=        3765 AvBLen=        19.3
 IPart=  3 NShTot=       73269 NBatch=        3976 AvBLen=        18.4
 PrRfSu:  NxtVal=         796161.
 Aft DD1 bucket IAS1 number    25 has length         2790 dot= 0.27229644D-02
 Aft DD1 bucket IAS2 number    26 has length         1260 dot= 0.22888842D-02
 Aft DD1 bucket IAD1 number 12999 has length       431192 dot= 0.34438308D-01
 Aft DD1 bucket IAD2 number 12998 has length       889116 dot= 0.87410924D-01
 Aft DD1 bucket IAD3 number 12997 has length        74249 dot= 0.17305998D-01
 Aft DD1 bucket IWS1 number    30 has length         2790 dot= 0.27492669D-01
 Aft DD1 bucket IWS2 number    31 has length         1260 dot= 0.24697324D-01
 Aft DD1 bucket IWD1 number    27 has length       431192 dot= 0.22724589D-01
 Aft DD1 bucket IWD2 number    28 has length       889116 dot= 0.10236148D+00
 Aft DD1 bucket IWD3 number    29 has length        74249 dot= 0.92832742D-02
 Aft DD1 bucket IWAI1 number     0 is not present.
 Aft DD1 bucket IWAI2 number     0 is not present.
 Aft DD1 bucket IWAI3 number     0 is not present.
 Aft DD1 bucket IWAI4 number     0 is not present.
 Aft SD4 bucket IAS1 number    25 has length         2790 dot= 0.27229644D-02
 Aft SD4 bucket IAS2 number    26 has length         1260 dot= 0.22888842D-02
 Aft SD4 bucket IAD1 number    22 has length       431192 dot= 0.34483711D-01
 Aft SD4 bucket IAD2 number    23 has length       889116 dot= 0.87181688D-01
 Aft SD4 bucket IAD3 number    24 has length        74249 dot= 0.17307933D-01
 Aft SD4 bucket IWS1 number    30 has length         2790 dot= 0.27492669D-01
 Aft SD4 bucket IWS2 number    31 has length         1260 dot= 0.24697324D-01
 Aft SD4 bucket IWD1 number    27 has length       431192 dot= 0.22724589D-01
 Aft SD4 bucket IWD2 number    28 has length       889116 dot= 0.10236148D+00
 Aft SD4 bucket IWD3 number    29 has length        74249 dot= 0.92832742D-02
 Aft SD4 bucket IWAI1 number     0 is not present.
 Aft SD4 bucket IWAI2 number     0 is not present.
 Aft SD4 bucket IWAI3 number     0 is not present.
 Aft SD4 bucket IWAI4 number     0 is not present.
 TestDE:  II= 99 I=2 DE=    0.697410013522D-01
 TestDE:  II= 99 I=1 DE=    0.219742908684D-01
 TestDE:  II= 99 I=3 DE=    0.988299142407D-02
 Aft DS4 bucket IAS1 number    25 has length         2790 dot= 0.27229644D-02
 Aft DS4 bucket IAS2 number    26 has length         1260 dot= 0.22888842D-02
 Aft DS4 bucket IAD1 number    22 has length       431192 dot= 0.34483711D-01
 Aft DS4 bucket IAD2 number    23 has length       889116 dot= 0.87181688D-01
 Aft DS4 bucket IAD3 number    24 has length        74249 dot= 0.17307933D-01
 Aft DS4 bucket IWS1 number    30 has length         2790 dot= 0.27492669D-01
 Aft DS4 bucket IWS2 number    31 has length         1260 dot= 0.24697324D-01
 Aft DS4 bucket IWD1 number    27 has length       431192 dot= 0.23278746D-01
 Aft DS4 bucket IWD2 number    28 has length       889116 dot= 0.10701009D+00
 Aft DS4 bucket IWD3 number    29 has length        74249 dot= 0.91865347D-02
 Aft DS4 bucket IWAI1 number     0 is not present.
 Aft DS4 bucket IWAI2 number     0 is not present.
 Aft DS4 bucket IWAI3 number     0 is not present.
 Aft DS4 bucket IWAI4 number     0 is not present.
 Bef SD5a bucket IAS1 number    25 has length         2790 dot= 0.27229644D-02
 Bef SD5a bucket IAS2 number    26 has length         1260 dot= 0.22888842D-02
 Bef SD5a bucket IAD1 number 12999 has length       431192 dot= 0.34438308D-01
 Bef SD5a bucket IAD2 number 12998 has length       889116 dot= 0.87410924D-01
 Bef SD5a bucket IAD3 number 12997 has length        74249 dot= 0.17305998D-01
 Bef SD5a bucket IWS1 number    30 has length         2790 dot= 0.27492669D-01
 Bef SD5a bucket IWS2 number    31 has length         1260 dot= 0.24697324D-01
 Bef SD5a bucket IWD1 number    27 has length       431192 dot= 0.23278746D-01
 Bef SD5a bucket IWD2 number    28 has length       889116 dot= 0.10701009D+00
 Bef SD5a bucket IWD3 number    29 has length        74249 dot= 0.91865347D-02
 Bef SD5a bucket IWAI1 number     0 is not present.
 Bef SD5a bucket IWAI2 number     0 is not present.
 Bef SD5a bucket IWAI3 number     0 is not present.
 Bef SD5a bucket IWAI4 number     0 is not present.
 Bef SD5b bucket IAS1 number     0 is not present.
 Bef SD5b bucket IAS2 number     0 is not present.
 Bef SD5b bucket IAD1 number     0 is not present.
 Bef SD5b bucket IAD2 number     0 is not present.
 Bef SD5b bucket IAD3 number     0 is not present.
 Bef SD5b bucket IWS1 number    30 has length         2790 dot= 0.27492669D-01
 Bef SD5b bucket IWS2 number    31 has length         1260 dot= 0.24697324D-01
 Bef SD5b bucket IWD1 number    27 has length       431192 dot= 0.23278746D-01
 Bef SD5b bucket IWD2 number    28 has length       889116 dot= 0.10701009D+00
 Bef SD5b bucket IWD3 number    29 has length        74249 dot= 0.91865347D-02
 Bef SD5b bucket IWAI1 number     0 is not present.
 Bef SD5b bucket IWAI2 number     0 is not present.
 Bef SD5b bucket IWAI3 number     0 is not present.
 Bef SD5b bucket IWAI4 number     0 is not present.
 TestDE:  II= 19 I=1 DE=    0.212740056815D-01
 TestDE:  II= 19 I=2 DE=    0.691074203691D-01
 TestDE:  II= 19 I=3 DE=    0.104107737549D-01
 Aft SD5 bucket IAS1 number    25 has length         2790 dot= 0.27229644D-02
 Aft SD5 bucket IAS2 number    26 has length         1260 dot= 0.22888842D-02
 Aft SD5 bucket IAD1 number    22 has length       431192 dot= 0.34483711D-01
 Aft SD5 bucket IAD2 number    23 has length       889116 dot= 0.87181688D-01
 Aft SD5 bucket IAD3 number    24 has length        74249 dot= 0.17307933D-01
 Aft SD5 bucket IWS1 number    30 has length         2790 dot= 0.11311405D-01
 Aft SD5 bucket IWS2 number    31 has length         1260 dot= 0.12978909D-01
 Aft SD5 bucket IWD1 number    27 has length       431192 dot= 0.23041527D-01
 Aft SD5 bucket IWD2 number    28 has length       889116 dot= 0.10696148D+00
 Aft SD5 bucket IWD3 number    29 has length        74249 dot= 0.96774078D-02
 Aft SD5 bucket IWAI1 number     0 is not present.
 Aft SD5 bucket IWAI2 number     0 is not present.
 Aft SD5 bucket IWAI3 number     0 is not present.
 Aft SD5 bucket IWAI4 number     0 is not present.
 Contribution from DD1=    0.10079220D+00
 Bef DD2 bucket IAS1 number    25 has length         2790 dot= 0.27229644D-02
 Bef DD2 bucket IAS2 number    26 has length         1260 dot= 0.22888842D-02
 Bef DD2 bucket IAD1 number    22 has length       431192 dot= 0.34483711D-01
 Bef DD2 bucket IAD2 number    23 has length       889116 dot= 0.87181688D-01
 Bef DD2 bucket IAD3 number    24 has length        74249 dot= 0.17307933D-01
 Bef DD2 bucket IWS1 number    30 has length         2790 dot= 0.11311405D-01
 Bef DD2 bucket IWS2 number    31 has length         1260 dot= 0.12978909D-01
 Bef DD2 bucket IWD1 number    27 has length       431192 dot= 0.23041527D-01
 Bef DD2 bucket IWD2 number    28 has length       889116 dot= 0.10696148D+00
 Bef DD2 bucket IWD3 number    29 has length        74249 dot= 0.96774078D-02
 Bef DD2 bucket IWAI1 number     0 is not present.
 Bef DD2 bucket IWAI2 number     0 is not present.
 Bef DD2 bucket IWAI3 number     0 is not present.
 Bef DD2 bucket IWAI4 number     0 is not present.
 ExpSMa:  Full in-core algorithm.
 ExpSMa:  Full in-core algorithm.
 ExpSMa:  Full in-core algorithm.
 ExpSMa:  Full in-core algorithm.
 ExpSMa:  Full in-core algorithm.
 ExpSMa:  Full in-core algorithm.
 ExpSMa:  Full in-core algorithm.
 ExpSMa:  Full in-core algorithm.
 TestDE:  II=419 I=1 DE=    0.419631816215D-01
 TestDE:  II=419 I=2 DE=    0.121058901763D+00
 TestDE:  II=419 I=3 DE=    0.194373302961D-01
 Aft DD2 bucket IAS1 number    25 has length         2790 dot= 0.27229644D-02
 Aft DD2 bucket IAS2 number    26 has length         1260 dot= 0.22888842D-02
 Aft DD2 bucket IAD1 number    22 has length       431192 dot= 0.34483711D-01
 Aft DD2 bucket IAD2 number    23 has length       889116 dot= 0.87181688D-01
 Aft DD2 bucket IAD3 number    24 has length        74249 dot= 0.17307933D-01
 Aft DD2 bucket IWS1 number    30 has length         2790 dot= 0.11311405D-01
 Aft DD2 bucket IWS2 number    31 has length         1260 dot= 0.12978909D-01
 Aft DD2 bucket IWD1 number    27 has length       431192 dot= 0.63249482D-01
 Aft DD2 bucket IWD2 number    28 has length       889116 dot= 0.22642742D+00
 Aft DD2 bucket IWD3 number    29 has length        74249 dot= 0.25243335D-01
 Aft DD2 bucket IWAI1 number     0 is not present.
 Aft DD2 bucket IWAI2 number     0 is not present.
 Aft DD2 bucket IWAI3 number     0 is not present.
 Aft DD2 bucket IWAI4 number     0 is not present.
 Contribution from DD2=    0.81667214D-01
 Contribution from DD3=    0.00000000D+00
 Singles added:  Sum=    0.18118050D+00
 End CIDS3 bucket IAS1 number    25 has length         2790 dot= 0.27229644D-02
 End CIDS3 bucket IAS2 number    26 has length         1260 dot= 0.22888842D-02
 End CIDS3 bucket IAD1 number    22 has length       431192 dot= 0.34483711D-01
 End CIDS3 bucket IAD2 number    23 has length       889116 dot= 0.87181688D-01
 End CIDS3 bucket IAD3 number    24 has length        74249 dot= 0.17307933D-01
 End CIDS3 bucket IWS1 number    30 has length         2790 dot= 0.11311405D-01
 End CIDS3 bucket IWS2 number    31 has length         1260 dot= 0.12978909D-01
 End CIDS3 bucket IWD1 number    27 has length       431192 dot= 0.63249482D-01
 End CIDS3 bucket IWD2 number    28 has length       889116 dot= 0.22642742D+00
 End CIDS3 bucket IWD3 number    29 has length        74249 dot= 0.25243335D-01
 End CIDS3 bucket IWAI1 number     0 is not present.
 End CIDS3 bucket IWAI2 number     0 is not present.
 End CIDS3 bucket IWAI3 number     0 is not present.
 End CIDS3 bucket IWAI4 number     0 is not present.
 Entering DoROCS
 TestDE:  II= 99 I=2 DE=    0.121058901763D+00
 TestDE:  II= 99 I=1 DE=    0.419631816215D-01
 TestDE:  II= 99 I=3 DE=    0.194373302961D-01
 TestDE:  II= 99 I=1 DE=    0.441152825885D-01
 TestDE:  II= 11 I=2 DE=    0.121058901763D+00
 TestDE:  II= 99 I=2 DE=    0.124550124154D+00
 TestDE:  II= 98 I=2 DE=    0.127822650026D+00
[...]
 Aft SD5 bucket IWS1 number    30 has length         2790 dot= 0.51273041D-01
 Aft SD5 bucket IWS2 number    31 has length         1260 dot= 0.45314449D-01
 Aft SD5 bucket IWD1 number    27 has length       431192 dot= 0.52387882D-01
 Aft SD5 bucket IWD2 number    28 has length       889116 dot= 0.15623345D+00
 Aft SD5 bucket IWD3 number    29 has length        74249 dot= 0.10676233D-01
 Aft SD5 bucket IWAI1 number     0 is not present.
 Aft SD5 bucket IWAI2 number     0 is not present.
 Aft SD5 bucket IWAI3 number     0 is not present.
 Aft SD5 bucket IWAI4 number     0 is not present.
 Contribution from DD1=    0.48644126D-01
 Bef DD2 bucket IAS1 number    25 has length         2790 dot= 0.20616235D+00
 Bef DD2 bucket IAS2 number    26 has length         1260 dot= 0.79995665D-01
 Bef DD2 bucket IAD1 number    22 has length       431192 dot= 0.37657448D-01
 Bef DD2 bucket IAD2 number    23 has length       889116 dot= 0.11988747D+00
 Bef DD2 bucket IAD3 number    24 has length        74249 dot= 0.10244840D-01
 Bef DD2 bucket IWS1 number    30 has length         2790 dot= 0.51273041D-01
 Bef DD2 bucket IWS2 number    31 has length         1260 dot= 0.45314449D-01
 Bef DD2 bucket IWD1 number    27 has length       431192 dot= 0.52387882D-01
 Bef DD2 bucket IWD2 number    28 has length       889116 dot= 0.15623345D+00
 Bef DD2 bucket IWD3 number    29 has length        74249 dot= 0.10676233D-01
 Bef DD2 bucket IWAI1 number     0 is not present.
 Bef DD2 bucket IWAI2 number     0 is not present.
 Bef DD2 bucket IWAI3 number     0 is not present.
 Bef DD2 bucket IWAI4 number     0 is not present.
 ExpSMa:  Full in-core algorithm.
 ExpSMa:  Full in-core algorithm.
 ExpSMa:  Full in-core algorithm.
 ExpSMa:  Full in-core algorithm.
 ExpSMa:  Full in-core algorithm.
 ExpSMa:  Full in-core algorithm.
 ExpSMa:  Full in-core algorithm.
 ExpSMa:  Full in-core algorithm.
 TestDE:  II=419 I=1 DE=    0.261596776624D-01
 TestDE:  II=419 I=2 DE=    0.106704445303D+00
 TestDE:  II=419 I=3 DE=    0.656794077609D-02
 Aft DD2 bucket IAS1 number    25 has length         2790 dot= 0.20616235D+00
 Aft DD2 bucket IAS2 number    26 has length         1260 dot= 0.79995665D-01
 Aft DD2 bucket IAD1 number    22 has length       431192 dot= 0.37657448D-01
 Aft DD2 bucket IAD2 number    23 has length       889116 dot= 0.11988747D+00
 Aft DD2 bucket IAD3 number    24 has length        74249 dot= 0.10244840D-01
 Aft DD2 bucket IWS1 number    30 has length         2790 dot= 0.51273041D-01
 Aft DD2 bucket IWS2 number    31 has length         1260 dot= 0.45314449D-01
 Aft DD2 bucket IWD1 number    27 has length       431192 dot= 0.78102075D-01
 Aft DD2 bucket IWD2 number    28 has length       889116 dot= 0.26165231D+00
 Aft DD2 bucket IWD3 number    29 has length        74249 dot= 0.16256455D-01
 Aft DD2 bucket IWAI1 number     0 is not present.
 Aft DD2 bucket IWAI2 number     0 is not present.
 Aft DD2 bucket IWAI3 number     0 is not present.
 Aft DD2 bucket IWAI4 number     0 is not present.
 Contribution from DD2=    0.90787937D-01
 Contribution from DD3=    0.00000000D+00
 Singles added:  Sum=    0.41798679D-03
 End CIDS3 bucket IAS1 number    25 has length         2790 dot= 0.20616235D+00
 End CIDS3 bucket IAS2 number    26 has length         1260 dot= 0.79995665D-01
 End CIDS3 bucket IAD1 number    22 has length       431192 dot= 0.37657448D-01
 End CIDS3 bucket IAD2 number    23 has length       889116 dot= 0.11988747D+00
 End CIDS3 bucket IAD3 number    24 has length        74249 dot= 0.10244840D-01
 End CIDS3 bucket IWS1 number    30 has length         2790 dot= 0.51273041D-01
 End CIDS3 bucket IWS2 number    31 has length         1260 dot= 0.45314449D-01
 End CIDS3 bucket IWD1 number    27 has length       431192 dot= 0.78102075D-01
 End CIDS3 bucket IWD2 number    28 has length       889116 dot= 0.26165231D+00
 End CIDS3 bucket IWD3 number    29 has length        74249 dot= 0.16256455D-01
 End CIDS3 bucket IWAI1 number     0 is not present.
 End CIDS3 bucket IWAI2 number     0 is not present.
 End CIDS3 bucket IWAI3 number     0 is not present.
 End CIDS3 bucket IWAI4 number     0 is not present.
 Entering DoROCS
 TestDE:  II= 99 I=2 DE=    0.106704445303D+00
 TestDE:  II= 99 I=1 DE=    0.261596776624D-01
 TestDE:  II= 99 I=3 DE=    0.656794077609D-02
 TestDE:  II= 99 I=1 DE=    0.283614988010D-01
 TestDE:  II= 11 I=2 DE=    0.106704445303D+00
 TestDE:  II= 99 I=2 DE=    0.110930180155D+00
 TestDE:  II= 98 I=2 DE=    0.111038145613D+00
 TestDE:  II= 98 I=3 DE=    0.652317673666D-02
 TestDE:  II= 89 I=1 DE=    0.335583637478D-01
 TestDE:  II= 89 I=2 DE=    0.122457371252D+00
 TestDE:  II= 88 I=3 DE=    0.967715951826D-02
 TestDE:  II= 88 I=2 DE=    0.141047659285D+00
 TestDE:  II=  5 I=1 DE=   -0.390183539721D-01
 TestDE:  II=  7 I=2 DE=    0.105467449834D+00
 TestDE:  II=  8 I=2 DE=   -0.146446805394D+00
 TestDE:  II=  9 I=3 DE=   -0.505195061900D-02
 TestDE:  II= 50 I=1 DE=   -0.545999022428D-02
 TestDE:  II= 70 I=2 DE=   -0.409793555604D-01
 TestDE:  II= 90 I=3 DE=    0.462520889926D-02
 UMP4Q scratch file information:
   i      file        len
 ---     ------    ------
   1      19999   2024983
   2      19998   2024983
   3      19997   2024983
   4      19996   2024983
   5      19995   2024983
   6      19994     99225
 total scratch length=    10224140
 TestDE:  II= 71 I=2 DE=    0.275340054672D-02
 TestDE:  II= 70 I=2 DE=   -0.433381332256D-03
 TestDE:  II= 72 I=2 DE=    0.382284269632D-03
 TestDE:  II= 75 I=2 DE=   -0.413070458866D-01
 TestDE:  II= 75 I=1 DE=   -0.249227041547D-02
 TestDE:  II= 75 I=3 DE=    0.506663679128D-02
 GetDE: DE=      0.00000000D+00
 TestDE:  II= 65 I=1 DE=    0.376574338600D-01
 TestDE:  II= 65 I=2 DE=    0.119887422631D+00
 TestDE:  II= 65 I=3 DE=    0.102448320558D-01
 Singles A-vector converged to   1.3531653D-08
 Singles A-vector converged to   4.0868257D-08
 The Euclidean norm of the A-vectors is   4.1189518D-08
 The Euclidean norm of the A-vectors is   4.2078171D-08
 The Euclidean norm of the A-vectors is   4.3227040D-08
 A(0)= 0.10000E+01      ANORM= 0.12058E+01      W(0)=-0.46162449E+00
 DE(Corr)= -0.47842743     E(CORR)=     -1225.1266261     Delta= 7.39D-08
 NORM(A)=   0.12057979D+01
 Wavefunction amplitudes converged. E(Corr)=     -1225.1266261    
 Dominant configurations:
 ***********************
 Spin Case        I    J    A    B          Value
    AA           19        20           -0.366303D+00
    AA           19        23            0.136418D+00
    AA           19        33           -0.107508D+00
    BB           12        15            0.113351D+00
 Largest amplitude= 3.66D-01
    T4(aaa)= -0.39134304D-02
    T5(aaa)=  0.17165637D-02
    T4(aab)= -0.24622168D-01
    T5(aab)=  0.91580410D-02
    T4(abb)= -0.16836844D-01
    T5(abb)=  0.52245376D-02
    T4(bbb)= -0.79855786D-03
    T5(bbb)=  0.29781092D-03
 Time for triples=     6110.00 seconds.
 T4(CCSD)= -0.46171001D-01
 T5(CCSD)=  0.16396953D-01
 CCSD(T)= -0.12251564001D+04
 Discarding MO integrals.

 **********************************************************************

            Population analysis using the SCF density.

 **********************************************************************

 Orbital symmetries:
       Occupied  (SG) (SG) (SG) (PI) (PI) (SG) (SG) (SG) (PI) (PI)
                 (SG) (SG) (PI) (PI) (DLTA) (DLTA) (SG) (PI) (PI)
       Virtual   (SG) (PI) (PI) (SG) (SG) (DLTA) (DLTA) (PI) (PI)
                 (SG) (PI) (PI) (SG) (SG) (SG) (DLTA) (DLTA) (PI)
                 (PI) (PI) (PI) (SG) (PI) (PI) (SG) (DLTA) (DLTA)
                 (PHI) (PHI) (SG) (SG) (PI) (PI) (SG) (DLTA) (DLTA)
                 (PI) (PI) (PI) (PI) (DLTA) (DLTA) (SG) (PI) (PI)
                 (SG) (SG) (PI) (PI) (SG) (?A) (?A) (PHI) (PHI)
                 (DLTA) (DLTA) (SG) (PI) (PI) (PHI) (PHI) (SG)
                 (DLTA) (DLTA) (PHI) (PHI) (PI) (PI) (DLTA) (DLTA)
                 (PI) (PI) (SG) (DLTA) (DLTA) (SG) (PI) (PI) (SG)
                 (PI) (PI) (DLTA) (DLTA) (SG) (PI) (PI) (SG) (SG)
                 (PI) (PI) (?A) (?A) (?B) (?B) (PHI) (PHI) (DLTA)
                 (DLTA) (SG) (PI) (PI) (PHI) (PHI) (DLTA) (DLTA)
                 (PI) (PI) (?A) (?A) (SG) (PHI) (PHI) (?A) (?A)
                 (SG) (DLTA) (DLTA) (PHI) (PHI) (PI) (PI) (SG)
                 (PI) (PI) (DLTA) (DLTA) (SG) (PHI) (PHI) (DLTA)
                 (DLTA) (SG) (SG) (DLTA) (DLTA) (PI) (PI) (DLTA)
                 (DLTA) (PI) (PI) (SG) (PI) (PI) (SG) (PI) (PI)
                 (PI) (PI) (SG) (SG) (PHI) (PHI) (?A) (?A) (?B)
                 (?B) (DLTA) (DLTA) (PI) (PI) (SG) (?B) (?B) (?A)
                 (?A) (PI) (PI) (PHI) (PHI) (DLTA) (DLTA) (?A)
                 (?A) (SG) (DLTA) (DLTA) (SG) (SG) (SG) (?B) (?B)
                 (PHI) (PHI) (PI) (PI) (PHI) (PHI) (PHI) (PHI)
                 (DLTA) (DLTA) (?A) (?A) (SG) (PI) (PI) (?A) (?A)
                 (PHI) (PHI) (DLTA) (DLTA) (DLTA) (DLTA) (SG) (PHI)
                 (PHI) (PI) (PI) (PI) (PI) (DLTA) (DLTA) (SG) (SG)
                 (DLTA) (DLTA) (PI) (PI) (SG) (PI) (PI) (SG) (SG)
                 (DLTA) (DLTA) (PI) (PI) (SG) (PI) (PI) (SG) (SG)
                 (PI) (PI) (?B) (?B) (?A) (?A) (PHI) (PHI) (DLTA)
                 (DLTA) (SG) (PI) (PI) (SG) (SG) (SG) (?B) (?B)
                 (?A) (?A) (?A) (?A) (PHI) (PHI) (PI) (PI) (DLTA)
                 (DLTA) (PHI) (PHI) (PHI) (PHI) (DLTA) (DLTA) (SG)
                 (PI) (PI) (SG) (DLTA) (DLTA) (PI) (PI) (SG) (?B)
                 (?B) (?A) (?A) (PHI) (PHI) (DLTA) (DLTA) (PI)
                 (PI) (SG) (PHI) (PHI) (DLTA) (DLTA) (DLTA) (DLTA)
                 (PI) (PI) (?A) (?A) (PHI) (PHI) (SG) (DLTA) (DLTA)
                 (PI) (PI) (SG) (PI) (PI) (SG) (SG)
 The electronic state is 6-SG.
 Alpha  occ. eigenvalues -- -240.53449 -29.17576 -24.88079 -24.88079 -24.87350
 Alpha  occ. eigenvalues --  -20.42263  -4.00599  -2.71437  -2.71437  -2.70809
 Alpha  occ. eigenvalues --   -1.11216  -0.64551  -0.64551  -0.63417  -0.63417
 Alpha  occ. eigenvalues --   -0.58784  -0.34053  -0.34053  -0.33556
 Alpha virt. eigenvalues --   -0.04065   0.01361   0.01361   0.01528   0.03114
 Alpha virt. eigenvalues --    0.05381   0.05381   0.05654   0.05654   0.06085
 Alpha virt. eigenvalues --    0.06602   0.06602   0.10651   0.10979   0.16602
 Alpha virt. eigenvalues --    0.16602   0.16642   0.16817   0.16817   0.19523
 Alpha virt. eigenvalues --    0.19523   0.20681   0.21078   0.21078   0.29113
 Alpha virt. eigenvalues --    0.33052   0.33052   0.33652   0.33652   0.35493
 Alpha virt. eigenvalues --    0.35974   0.37019   0.37019   0.44449   0.47515
 Alpha virt. eigenvalues --    0.47515   0.50007   0.50007   0.55991   0.55991
 Alpha virt. eigenvalues --    0.60157   0.60157   0.61028   0.63192   0.63192
 Alpha virt. eigenvalues --    0.70318   0.78533   0.84993   0.84993   0.91105
 Alpha virt. eigenvalues --    0.93313   0.93313   0.93533   0.93533   0.93843
 Alpha virt. eigenvalues --    0.93843   0.97383   0.98001   0.98001   1.04102
 Alpha virt. eigenvalues --    1.04102   1.06891   1.12134   1.12134   1.25887
 Alpha virt. eigenvalues --    1.25887   1.26381   1.26381   1.32424   1.32424
 Alpha virt. eigenvalues --    1.34316   1.34316   1.41434   1.41434   1.41752
 Alpha virt. eigenvalues --    1.50002   1.51323   1.51323   1.52972   1.68210
 Alpha virt. eigenvalues --    1.68210   1.73922   1.73922   1.76263   1.87694
 Alpha virt. eigenvalues --    1.87694   2.09592   2.17472   2.32579   2.32579
 Alpha virt. eigenvalues --    2.39180   2.39180   2.42212   2.42212   2.54182
 Alpha virt. eigenvalues --    2.54182   2.58328   2.58328   2.63831   2.63831
 Alpha virt. eigenvalues --    2.64390   2.69850   2.69850   2.70524   2.70524
 Alpha virt. eigenvalues --    2.76386   2.76386   2.78017   2.78017   2.84103
 Alpha virt. eigenvalues --    2.84103   2.84691   2.91380   2.91380   3.01099
 Alpha virt. eigenvalues --    3.01688   3.01688   3.12731   3.12731   3.12868
 Alpha virt. eigenvalues --    3.12868   3.24124   3.29128   3.29128   3.32970
 Alpha virt. eigenvalues --    3.32970   3.37156   3.46182   3.46182   3.59087
 Alpha virt. eigenvalues --    3.59087   3.81298   3.87611   3.87611   3.90554
 Alpha virt. eigenvalues --    4.09045   4.09045   4.39823   4.39823   4.49587
 Alpha virt. eigenvalues --    4.49587   4.59132   4.64634   4.64634   4.77795
 Alpha virt. eigenvalues --    4.86934   4.86934   5.51462   5.51462   5.76069
 Alpha virt. eigenvalues --    6.23253   6.27013   6.27013   6.31892   6.31892
 Alpha virt. eigenvalues --    6.34575   6.34575   6.36838   6.36838   6.64483
 Alpha virt. eigenvalues --    6.64483   6.72878   6.79038   6.79038   6.80473
 Alpha virt. eigenvalues --    6.80473   7.00920   7.00920   7.06127   7.06127
 Alpha virt. eigenvalues --    7.25466   7.25466   7.29928   7.29928   7.30448
 Alpha virt. eigenvalues --    7.33244   7.33244   7.39367   7.43347   7.43347
 Alpha virt. eigenvalues --    7.45424   7.45424   7.48660   7.48660   7.49608
 Alpha virt. eigenvalues --    7.49608   7.54430   7.54430   7.62310   7.62310
 Alpha virt. eigenvalues --    7.62629   7.62629   7.66419   7.66419   7.67711
 Alpha virt. eigenvalues --    7.69243   7.69243   7.86637   7.86637   7.88507
 Alpha virt. eigenvalues --    7.88507   8.19786   8.19786   8.30687   8.30687
 Alpha virt. eigenvalues --    8.45798   8.48784   8.48784   8.51760   8.51760
 Alpha virt. eigenvalues --    8.68999   8.68999   8.76849   8.76849   9.07056
 Alpha virt. eigenvalues --    9.10489   9.64325   9.64325   9.73377   9.73377
 Alpha virt. eigenvalues --    9.81795  10.36990  10.36990  10.66974  11.14161
 Alpha virt. eigenvalues --   11.15168  11.15168  12.01401  12.01401  12.41777
 Alpha virt. eigenvalues --   12.43555  12.43555  13.46852  15.13789  16.24558
 Alpha virt. eigenvalues --   16.24558  16.42361  16.42361  16.46980  16.46980
 Alpha virt. eigenvalues --   16.68388  16.68388  16.88050  16.88050  16.99730
 Alpha virt. eigenvalues --   17.00707  17.00707  17.56593  19.23945  19.23945
 Alpha virt. eigenvalues --   19.24568  19.24568  19.28787  19.28787  19.30182
 Alpha virt. eigenvalues --   19.30182  19.35351  19.35351  19.36901  19.36901
 Alpha virt. eigenvalues --   19.37998  19.37998  19.39161  19.39161  19.54186
 Alpha virt. eigenvalues --   19.54186  19.62305  19.62305  19.62788  19.67298
 Alpha virt. eigenvalues --   19.67298  19.76192  19.78409  19.78409  20.24857
 Alpha virt. eigenvalues --   20.24857  20.34720  20.59553  20.59553  20.60482
 Alpha virt. eigenvalues --   20.60482  20.66253  20.66253  20.85596  20.85596
 Alpha virt. eigenvalues --   21.10948  21.10948  21.18085  21.63832  21.63832
 Alpha virt. eigenvalues --   21.91829  21.91829  22.37557  22.37557  22.40758
 Alpha virt. eigenvalues --   22.40758  22.44479  22.44479  22.47923  22.47923
 Alpha virt. eigenvalues --   22.51347  22.66157  22.66157  22.96702  22.96702
 Alpha virt. eigenvalues --   23.19996  23.29993  23.29993  24.33112  62.85006
          Condensed to atoms (all electrons):
              1          2
     1  Mn  23.933087   0.241947
     2  O    0.241947   8.583019
          Atomic-Atomic Spin Densities.
              1          2
     1  Mn   4.962143  -0.056982
     2  O   -0.056982   0.151820
 Mulliken charges and spin densities:
              1          2
     1  Mn   0.824966   4.905161
     2  O   -0.824966   0.094839
 Sum of Mulliken charges =   0.00000 spin densities =   5.000000
 Mulliken charges and spin densities with hydrogens summed into heavy atoms:
              1          2
     1  Mn   0.824966   4.905161
     2  O   -0.824966   0.094839
 Sum of Mulliken charges with hydrogens summed into heavy atoms =   0.00000 spin densities =   5.000000
 Electronic spatial extent (au):  <R**2>=            104.8752
 Charge=              0.0000 electrons
 Dipole moment (field-independent basis, Debye):
    X=              0.0000    Y=              0.0000    Z=              8.8779  Tot=              8.8779
 Quadrupole moment (field-independent basis, Debye-Ang):
   XX=            -19.1033   YY=            -19.1033   ZZ=            -23.7931
   XY=              0.0000   XZ=              0.0000   YZ=              0.0000
 Traceless Quadrupole moment (field-independent basis, Debye-Ang):
   XX=              1.5633   YY=              1.5633   ZZ=             -3.1265
   XY=              0.0000   XZ=              0.0000   YZ=              0.0000
 Octapole moment (field-independent basis, Debye-Ang**2):
  XXX=              0.0000  YYY=              0.0000  ZZZ=             24.2159  XYY=              0.0000
  XXY=              0.0000  XXZ=              5.7956  XZZ=              0.0000  YZZ=              0.0000
  YYZ=              5.7956  XYZ=              0.0000
 Hexadecapole moment (field-independent basis, Debye-Ang**3):
 XXXX=            -22.4588 YYYY=            -22.4588 ZZZZ=           -102.0758 XXXY=              0.0000
 XXXZ=              0.0000 YYYX=              0.0000 YYYZ=              0.0000 ZZZX=              0.0000
 ZZZY=              0.0000 XXYY=             -7.4863 XXZZ=            -20.0556 YYZZ=            -20.0556
 XXYZ=              0.0000 YYXZ=              0.0000 ZZXY=              0.0000
 N-N= 6.422053502306D+01 E-N=-4.489182385780D+03  KE= 1.821835525463D+03
                          Isotropic Fermi Contact Couplings
        Atom                 a.u.       MegaHertz       Gauss      10(-4) cm-1
     1  Mn(55)             1.30528     288.55812     102.96471      96.25263
     2  O(17)              0.00750      -0.90891      -0.32432      -0.30318
 --------------------------------------------------------
       Center         ----  Spin Dipole Couplings  ----
                      3XX-RR        3YY-RR        3ZZ-RR
 --------------------------------------------------------
     1   Atom        0.347185      0.347185     -0.694369
     2   Atom       -0.075870     -0.075870      0.151741
 --------------------------------------------------------
                        XY            XZ            YZ
 --------------------------------------------------------
     1   Atom        0.000000      0.000000      0.000000
     2   Atom        0.000000      0.000000      0.000000
 --------------------------------------------------------


 ---------------------------------------------------------------------------------
              Anisotropic Spin Dipole Couplings in Principal Axis System
 ---------------------------------------------------------------------------------

       Atom             a.u.   MegaHertz   Gauss  10(-4) cm-1        Axes

              Baa    -0.6944   -91.616   -32.691   -30.560  0.0000  0.0000  1.0000
     1 Mn(55) Bbb     0.3472    45.808    16.345    15.280  1.0000  0.0000  0.0000
              Bcc     0.3472    45.808    16.345    15.280  0.0000  1.0000  0.0000
 
              Baa    -0.0759     5.490     1.959     1.831  1.0000  0.0000  0.0000
     2 O(17)  Bbb    -0.0759     5.490     1.959     1.831  0.0000  1.0000  0.0000
              Bcc     0.1517   -10.980    -3.918    -3.662  0.0000  0.0000  1.0000
 

 ---------------------------------------------------------------------------------


 Test job not archived.
 1\1\GINC-C32\SP\ROCCSD(T)-FC\Aug-CC-pV5Z\Mn1O1(6)\GPETERSSON\27-Nov-20
 13\0\\# ROCCSD(T) aug-cc-pV5Z GFinput Int=NoBasisTransform Int(Grid=Ul
 trafine) IOp(3/32=2,5/6=10,8/11=1,9/33=1) Maxdisk=128GB SCF=Symm Guess
 =Read\\MnO 6Sg+\\0,6\Mn\O,1,1.648\\Version=EM64L-GDVRevH.12\State=6-SG
 \HF=-1224.6481986\MP2=-1225.1316822\MP3=-1225.0944357\PUHF=-1224.64819
 86\PMP2-0=-1225.1316822\MP4SDQ=-1225.1301375\CCSD=-1225.1266261\CCSD(T
 )=-1225.1564001\RMSD=5.104e-11\PG=C*V [C*(O1Mn1)]\\@


 You never know when you're making a memory.
                        -- Rickie Lee Jones
 Job cpu time: 13 days 10 hours  4 minutes 23.9 seconds.
 File lengths (MBytes):  RWF=   8050 Int=      0 D2E=      0 Chk=     10 Scr=      1
 Normal termination of Gaussian DV at Wed Nov 27 16:08:33 2013.
