 Entering Gaussian System, Link 0=g09
 AtFile(1): 7ZaPa-NR.gbs
 Initial command:
 /share/apps/gaussian/g09root/g09/l1.exe /localscratch/72519/Gau-30247.inp -scrdir=/localscratch/72519/
 Entering Link 1 = /share/apps/gaussian/g09root/g09/l1.exe PID=     30248.
  
 Copyright (c) 1988,1990,1992,1993,1995,1998,2003,2009, Gaussian, Inc.
                  All Rights Reserved.
  
 This is part of the Gaussian(R) 09 program.  It is based on
 the Gaussian(R) 03 system (copyright 2003, Gaussian, Inc.),
 the Gaussian(R) 98 system (copyright 1998, Gaussian, Inc.),
 the Gaussian(R) 94 system (copyright 1995, Gaussian, Inc.),
 the Gaussian 92(TM) system (copyright 1992, Gaussian, Inc.),
 the Gaussian 90(TM) system (copyright 1990, Gaussian, Inc.),
 the Gaussian 88(TM) system (copyright 1988, Gaussian, Inc.),
 the Gaussian 86(TM) system (copyright 1986, Carnegie Mellon
 University), and the Gaussian 82(TM) system (copyright 1983,
 Carnegie Mellon University). Gaussian is a federally registered
 trademark of Gaussian, Inc.
  
 This software contains proprietary and confidential information,
 including trade secrets, belonging to Gaussian, Inc.
  
 This software is provided under written license and may be
 used, copied, transmitted, or stored only in accord with that
 written license.
  
 The following legend is applicable only to US Government
 contracts under FAR:
  
                    RESTRICTED RIGHTS LEGEND
  
 Use, reproduction and disclosure by the US Government is
 subject to restrictions as set forth in subparagraphs (a)
 and (c) of the Commercial Computer Software - Restricted
 Rights clause in FAR 52.227-19.
  
 Gaussian, Inc.
 340 Quinnipiac St., Bldg. 40, Wallingford CT 06492
  
  
 ---------------------------------------------------------------
 Warning -- This program may not be used in any manner that
 competes with the business of Gaussian, Inc. or will provide
 assistance to any competitor of Gaussian, Inc.  The licensee
 of this program is prohibited from giving any competitor of
 Gaussian, Inc. access to this program.  By using this program,
 the user acknowledges that Gaussian, Inc. is engaged in the
 business of creating and licensing software in the field of
 computational chemistry and represents and warrants to the
 licensee that it is not a competitor of Gaussian, Inc. and that
 it will not use this program in any manner prohibited above.
 ---------------------------------------------------------------
  

 Cite this work as:
 Gaussian 09, Revision A.02,
 M. J. Frisch, G. W. Trucks, H. B. Schlegel, G. E. Scuseria, 
 M. A. Robb, J. R. Cheeseman, G. Scalmani, V. Barone, B. Mennucci, 
 G. A. Petersson, H. Nakatsuji, M. Caricato, X. Li, H. P. Hratchian, 
 A. F. Izmaylov, J. Bloino, G. Zheng, J. L. Sonnenberg, M. Hada, 
 M. Ehara, K. Toyota, R. Fukuda, J. Hasegawa, M. Ishida, T. Nakajima, 
 Y. Honda, O. Kitao, H. Nakai, T. Vreven, J. A. Montgomery, Jr., 
 J. E. Peralta, F. Ogliaro, M. Bearpark, J. J. Heyd, E. Brothers, 
 K. N. Kudin, V. N. Staroverov, R. Kobayashi, J. Normand, 
 K. Raghavachari, A. Rendell, J. C. Burant, S. S. Iyengar, J. Tomasi, 
 M. Cossi, N. Rega, J. M. Millam, M. Klene, J. E. Knox, J. B. Cross, 
 V. Bakken, C. Adamo, J. Jaramillo, R. Gomperts, R. E. Stratmann, 
 O. Yazyev, A. J. Austin, R. Cammi, C. Pomelli, J. W. Ochterski, 
 R. L. Martin, K. Morokuma, V. G. Zakrzewski, G. A. Voth, 
 P. Salvador, J. J. Dannenberg, S. Dapprich, A. D. Daniels, 
 O. Farkas, J. B. Foresman, J. V. Ortiz, J. Cioslowski, 
 and D. J. Fox, Gaussian, Inc., Wallingford CT, 2009.
 
 ******************************************
 Gaussian 09:  EM64L-G09RevA.02 11-Jun-2009
                11-Dec-2013 
 ******************************************
 % Mem=64GB
 % Nproc=16
 Will use up to   16 processors via shared memory.
 % Chk=NiO.chk
 ----------------------------------------------------------------------
 # ROMP2 Gen GFinput Int=NoBasisTransform Guess=Read scf=(symm,tight) I
 OP(3/32=2,5/6=8,9/33=1) SCFcyc=500 CBSextrapolate(Nmin=25,MinPop)
 ----------------------------------------------------------------------
 1/38=1/1;
 2/12=2,17=6,18=5,40=1/2;
 3/5=7,11=2,16=1,24=10,25=1,30=1,32=2,60=-1,116=101/1,2,3;
 4/5=1,9=4/1;
 5/5=2,6=8,7=500,15=2,32=2,38=6/2;
 8/5=-1,10=1/1;
 9/16=-3,33=1,75=2,81=25,83=4/6,4;
 6/7=2,8=2,9=2,10=2/1;
 99/5=1,9=1/99;
 --------
 NiO+ 2Pi
 --------
 Symbolic Z-matrix:
 Charge =  1 Multiplicity = 2
 Ni
 O                    1    R
       Variables:
  R                     1.61518                  
 
                          Input orientation:                          
 ---------------------------------------------------------------------
 Center     Atomic      Atomic             Coordinates (Angstroms)
 Number     Number       Type             X           Y           Z
 ---------------------------------------------------------------------
      1         28           0        0.000000    0.000000    0.000000
      2          8           0        0.000000    0.000000    1.615180
 ---------------------------------------------------------------------
 Stoichiometry    NiO(1+,2)
 Framework group  C*V[C*(ONi)]
 Deg. of freedom     1
 Full point group                 C*V     NOp   4
 Largest Abelian subgroup         C2V     NOp   4
 Largest concise Abelian subgroup C1      NOp   1
                         Standard orientation:                         
 ---------------------------------------------------------------------
 Center     Atomic      Atomic             Coordinates (Angstroms)
 Number     Number       Type             X           Y           Z
 ---------------------------------------------------------------------
      1         28           0        0.000000    0.000000    0.358929
      2          8           0        0.000000    0.000000   -1.256251
 ---------------------------------------------------------------------
 Rotational constants (GHZ):      0.0000000     15.4551080     15.4551080
 General basis read from cards:  (5D, 7F)
 AO basis set in the form of general basis input (Overlap normalization):
      1 0
 S  17 1.00       0.000000000000
      0.4569637400D+08  0.4796971817D-06
      0.8819245570D+07  0.2877386739D-05
      0.2044706810D+07  0.1628699063D-04
      0.5543729120D+06  0.7422908449D-04
      0.1716083720D+06  0.2899339541D-03
      0.5937757900D+05  0.9903817897D-03
      0.2253923170D+05  0.3031423483D-02
      0.9234036050D+04  0.8452128800D-02
      0.4025468240D+04  0.2169180140D-01
      0.1844584860D+04  0.5120072388D-01
      0.8791984290D+03  0.1093187211D+00
      0.4320247100D+03  0.2023350989D+00
      0.2172125920D+03  0.2975193535D+00
      0.1110315750D+03  0.2914409963D+00
      0.5739151200D+02  0.1411150070D+00
      0.2985949300D+02  0.2090585308D-01
      0.1557396700D+02  0.1330260092D-02
 S  16 1.00       0.000000000000
      0.1716083720D+06 -0.3441501873D-07
      0.5937757900D+05 -0.3964255063D-06
      0.2253923170D+05 -0.3323385480D-05
      0.9234036050D+04 -0.2323316870D-04
      0.4025468240D+04 -0.1375399109D-03
      0.1844584860D+04 -0.7162288303D-03
      0.8791984290D+03 -0.3246014395D-02
      0.4320247100D+03 -0.1259807435D-01
      0.2172125920D+03 -0.3950864408D-01
      0.1110315750D+03 -0.8287721697D-01
      0.5739151200D+02 -0.5754107114D-01
      0.2985949300D+02  0.1814169320D+00
      0.1557396700D+02  0.5006822483D+00
      0.8113648000D+01  0.3789489257D+00
      0.4207616000D+01  0.7478108634D-01
      0.2164521000D+01  0.4788337946D-02
 P  17 1.00       0.000000000000
      0.1142515670D+06  0.1922685795D-05
      0.2985357470D+05  0.1569566821D-04
      0.9497902330D+04  0.1007293063D-03
      0.3525055170D+04  0.4916317931D-03
      0.1473072300D+04  0.1963657536D-02
      0.6733910360D+03  0.6633185026D-02
      0.3290499260D+03  0.1944654240D-01
      0.1687808510D+03  0.4993640420D-01
      0.8961187000D+02  0.1109244835D+00
      0.4872480500D+02  0.2028473312D+00
      0.2691125600D+02  0.2920584361D+00
      0.1500095300D+02  0.2937867160D+00
      0.8392663000D+01  0.1656265535D+00
      0.4687206000D+01  0.4202689049D-01
      0.2597106000D+01  0.4023563696D-02
      0.1416754000D+01  0.2140233074D-03
      0.7533280000D+00 -0.9551689964D-04
 S  11 1.00       0.000000000000
      0.2172125920D+03  0.2415054746D-03
      0.1110315750D+03  0.1710165399D-02
      0.5739151200D+02  0.2609594315D-02
      0.2985949300D+02 -0.1026344058D-01
      0.1557396700D+02 -0.1149871378D+00
      0.8113648000D+01 -0.1974246449D+00
      0.4207616000D+01  0.1229996002D+00
      0.2164521000D+01  0.5263486272D+00
      0.1100554000D+01  0.4557942505D+00
      0.5508500000D+00  0.1068987253D+00
      0.2701590000D+00  0.2842304748D-02
 P  13 1.00       0.000000000000
      0.3290499260D+03  0.1051178183D-03
      0.1687808510D+03  0.5119025550D-03
      0.8961187000D+02  0.2370416021D-02
      0.4872480500D+02  0.6979714559D-02
      0.2691125600D+02  0.1553084523D-01
      0.1500095300D+02  0.1793133218D-01
      0.8392663000D+01 -0.4776460351D-01
      0.4687206000D+01 -0.2074493137D+00
      0.2597106000D+01 -0.3425228022D+00
      0.1416754000D+01 -0.3319336688D+00
      0.7533280000D+00 -0.1738332604D+00
      0.3853470000D+00 -0.3287444660D-01
      0.1864140000D+00 -0.1993086252D-02
 D  16 1.00       0.000000000000
      0.3014495160D+04  0.4265795873D-05
      0.9598329080D+03  0.4228724373D-04
      0.3713566800D+03  0.2818622302D-03
      0.1652449790D+03  0.1345776481D-02
      0.8100919100D+02  0.5061843603D-02
      0.4234823400D+02  0.1517919061D-01
      0.2304907100D+02  0.3734524442D-01
      0.1284412800D+02  0.8024374685D-01
      0.7245969000D+01  0.1445411801D+00
      0.4107957000D+01  0.2062285851D+00
      0.2328502000D+01  0.2389542742D+00
      0.1313764000D+01  0.2350708662D+00
      0.7338360000D+00  0.1970470241D+00
      0.4025810000D+00  0.1320246301D+00
      0.2142830000D+00  0.5664921734D-01
      0.1086900000D+00  0.8682040716D-02
 D   1 1.00       0.000000000000
      0.7766352765D-01  0.1000000000D+01
 D   1 1.00       0.000000000000
      0.2321800000D-01  0.1000000000D+01
 S  10 1.00       0.000000000000
      0.2985949300D+02  0.1892379183D-04
      0.1557396700D+02  0.9079652065D-03
      0.8113648000D+01  0.3507527220D-02
      0.4207616000D+01 -0.6275382354D-02
      0.2164521000D+01 -0.3050973350D-01
      0.1100554000D+01 -0.1094073544D+00
      0.5508500000D+00 -0.1318130243D+00
      0.2701590000D+00  0.1767329429D+00
      0.1291300000D+00  0.6731002157D+00
      0.5977000000D-01  0.3262848410D+00
 S   1 1.00       0.000000000000
      0.6204612908D-01  0.1000000000D+01
 S   1 1.00       0.000000000000
      0.2890200000D-01  0.1000000000D+01
 S   1 1.00       0.000000000000
      0.8258000000D-02  0.1000000000D+01
 P  10 1.00       0.000000000000
      0.2691125600D+02  0.8665013419D-03
      0.1500095300D+02 -0.1585798099D-02
      0.8392663000D+01  0.2798089586D-02
      0.4687206000D+01 -0.1711408703D-01
      0.2597106000D+01  0.2093987915D-02
      0.1416754000D+01 -0.4845150246D-01
      0.7533280000D+00  0.2988616920D-01
      0.3853470000D+00 -0.3754856410D-03
      0.1864140000D+00  0.4866070655D+00
      0.6677498270D-01  0.5870852441D+00
 P   1 1.00       0.000000000000
      0.1209670562D+00  0.1000000000D+01
 P   1 1.00       0.000000000000
      0.4569600000D-01  0.1000000000D+01
 S   1 1.00       0.000000000000
      0.9854083000D+01  0.1000000000D+01
 S   1 1.00       0.000000000000
      0.4926822000D+01  0.1000000000D+01
 S   1 1.00       0.000000000000
      0.2463302000D+01  0.1000000000D+01
 S   1 1.00       0.000000000000
      0.1231596000D+01  0.1000000000D+01
 S   1 1.00       0.000000000000
      0.6157710000D+00  0.1000000000D+01
 S   1 1.00       0.000000000000
      0.3078720000D+00  0.1000000000D+01
 P   1 1.00       0.000000000000
      0.3656052000D+01  0.1000000000D+01
 P   1 1.00       0.000000000000
      0.2101939000D+01  0.1000000000D+01
 P   1 1.00       0.000000000000
      0.1208447000D+01  0.1000000000D+01
 P   1 1.00       0.000000000000
      0.6947610000D+00  0.1000000000D+01
 P   1 1.00       0.000000000000
      0.3994320000D+00  0.1000000000D+01
 P   1 1.00       0.000000000000
      0.2296420000D+00  0.1000000000D+01
 D   1 1.00       0.000000000000
      0.8092827000D+01  0.1000000000D+01
 D   1 1.00       0.000000000000
      0.3802275000D+01  0.1000000000D+01
 D   1 1.00       0.000000000000
      0.1786433000D+01  0.1000000000D+01
 D   1 1.00       0.000000000000
      0.8393250000D+00  0.1000000000D+01
 D   1 1.00       0.000000000000
      0.3943420000D+00  0.1000000000D+01
 D   1 1.00       0.000000000000
      0.1852750000D+00  0.1000000000D+01
 F   1 1.00       0.000000000000
      0.1847796800D+02  0.1000000000D+01
 F   1 1.00       0.000000000000
      0.8493545000D+01  0.1000000000D+01
 F   1 1.00       0.000000000000
      0.3904126000D+01  0.1000000000D+01
 F   1 1.00       0.000000000000
      0.1794562000D+01  0.1000000000D+01
 F   1 1.00       0.000000000000
      0.8248850000D+00  0.1000000000D+01
 F   1 1.00       0.000000000000
      0.3791650000D+00  0.1000000000D+01
 F   1 1.00       0.000000000000
      0.1742860000D+00  0.1000000000D+01
 G   1 1.00       0.000000000000
      0.1324884700D+02  0.1000000000D+01
 G   1 1.00       0.000000000000
      0.6124979000D+01  0.1000000000D+01
 G   1 1.00       0.000000000000
      0.2831595000D+01  0.1000000000D+01
 G   1 1.00       0.000000000000
      0.1309054000D+01  0.1000000000D+01
 G   1 1.00       0.000000000000
      0.6051790000D+00  0.1000000000D+01
 G   1 1.00       0.000000000000
      0.2797750000D+00  0.1000000000D+01
 H   1 1.00       0.000000000000
      0.1191890000D+02  0.1000000000D+01
 H   1 1.00       0.000000000000
      0.5255363000D+01  0.1000000000D+01
 H   1 1.00       0.000000000000
      0.2317230000D+01  0.1000000000D+01
 H   1 1.00       0.000000000000
      0.1021729000D+01  0.1000000000D+01
 H   1 1.00       0.000000000000
      0.4505070000D+00  0.1000000000D+01
 I   1 1.00       0.000000000000
      0.1001803800D+02  0.1000000000D+01
 I   1 1.00       0.000000000000
      0.4149190000D+01  0.1000000000D+01
 I   1 1.00       0.000000000000
      0.1718478000D+01  0.1000000000D+01
 I   1 1.00       0.000000000000
      0.7117450000D+00  0.1000000000D+01
 J   1 1.00       0.000000000000
      0.7858938000D+01  0.1000000000D+01
 J   1 1.00       0.000000000000
      0.2950907000D+01  0.1000000000D+01
 J   1 1.00       0.000000000000
      0.1108018000D+01  0.1000000000D+01
 K   1 1.00       0.000000000000
      0.5610099901D+01  0.1000000000D+01
 ****
      2 0
 S  16 1.00       0.000000000000
      0.1411246410D+07  0.1627429822D-05
      0.2499102240D+06  0.1092621996D-04
      0.5603410580D+05  0.6238741867D-04
      0.1521153640D+05  0.2783303491D-03
      0.4812287750D+04  0.1040541872D-02
      0.1717755460D+04  0.3380392793D-02
      0.6733958240D+03  0.9828484765D-02
      0.2835101840D+03  0.2605310129D-01
      0.1258620070D+03  0.6280818057D-01
      0.5804472200D+02  0.1348202075D+00
      0.2747198500D+02  0.2435563460D+00
      0.1321062900D+02  0.3323287378D+00
      0.6399806000D+01  0.2607930483D+00
      0.3099614000D+01  0.7430834326D-01
      0.1489856000D+01  0.4189538074D-02
      0.7052010000D+00  0.8706455725D-03
 S  11 1.00       0.000000000000
      0.2835101840D+03 -0.1122588094D-03
      0.1258620070D+03 -0.5559335617D-03
      0.5804472200D+02 -0.2851687904D-02
      0.2747198500D+02 -0.1133494995D-01
      0.1321062900D+02 -0.3657977704D-01
      0.6399806000D+01 -0.7288994197D-01
      0.3099614000D+01 -0.1062032356D-01
      0.1489856000D+01  0.2196705572D+00
      0.7052010000D+00  0.4294832072D+00
      0.3258480000D+00  0.3775832849D+00
      0.1454600000D+00  0.9640261255D-01
 S   1 1.00       0.000000000000
      0.5814297870D-01  0.1000000000D+01
 P  13 1.00       0.000000000000
      0.2085279200D+04  0.1447911740D-04
      0.5101470830D+03  0.1283233588D-03
      0.1616811510D+03  0.7792790007D-03
      0.6114945200D+02  0.3400506049D-02
      0.2597660200D+02  0.1157685214D-01
      0.1187542600D+02  0.3269740339D-01
      0.5677133000D+01  0.8011404242D-01
      0.2786475000D+01  0.1605265057D+00
      0.1387844000D+01  0.2460495026D+00
      0.6952810000D+00  0.2898982926D+00
      0.3470020000D+00  0.2606799382D+00
      0.1700990000D+00  0.1479363112D+00
      0.8008000000D-01  0.2980261453D-01
 P   1 1.00       0.000000000000
      0.4261436033D-01  0.1000000000D+01
 S   1 1.00       0.000000000000
      0.4249866000D+01  0.1000000000D+01
 S   1 1.00       0.000000000000
      0.2167470000D+01  0.1000000000D+01
 S   1 1.00       0.000000000000
      0.1105429000D+01  0.1000000000D+01
 S   1 1.00       0.000000000000
      0.5637790000D+00  0.1000000000D+01
 S   1 1.00       0.000000000000
      0.2875320000D+00  0.1000000000D+01
 S   1 1.00       0.000000000000
      0.1466440000D+00  0.1000000000D+01
 P   1 1.00       0.000000000000
      0.5659724000D+01  0.1000000000D+01
 P   1 1.00       0.000000000000
      0.2575878000D+01  0.1000000000D+01
 P   1 1.00       0.000000000000
      0.1172344000D+01  0.1000000000D+01
 P   1 1.00       0.000000000000
      0.5335620000D+00  0.1000000000D+01
 P   1 1.00       0.000000000000
      0.2428370000D+00  0.1000000000D+01
 P   1 1.00       0.000000000000
      0.1105210000D+00  0.1000000000D+01
 D   1 1.00       0.000000000000
      0.9464211000D+01  0.1000000000D+01
 D   1 1.00       0.000000000000
      0.4752286000D+01  0.1000000000D+01
 D   1 1.00       0.000000000000
      0.2386276000D+01  0.1000000000D+01
 D   1 1.00       0.000000000000
      0.1198226000D+01  0.1000000000D+01
 D   1 1.00       0.000000000000
      0.6016680000D+00  0.1000000000D+01
 D   1 1.00       0.000000000000
      0.3021170000D+00  0.1000000000D+01
 D   1 1.00       0.000000000000
      0.1517020000D+00  0.1000000000D+01
 F   1 1.00       0.000000000000
      0.7001836000D+01  0.1000000000D+01
 F   1 1.00       0.000000000000
      0.3552509000D+01  0.1000000000D+01
 F   1 1.00       0.000000000000
      0.1802430000D+01  0.1000000000D+01
 F   1 1.00       0.000000000000
      0.9144960000D+00  0.1000000000D+01
 F   1 1.00       0.000000000000
      0.4639860000D+00  0.1000000000D+01
 F   1 1.00       0.000000000000
      0.2354110000D+00  0.1000000000D+01
 G   1 1.00       0.000000000000
      0.6472481000D+01  0.1000000000D+01
 G   1 1.00       0.000000000000
      0.3119071000D+01  0.1000000000D+01
 G   1 1.00       0.000000000000
      0.1503072000D+01  0.1000000000D+01
 G   1 1.00       0.000000000000
      0.7243260000D+00  0.1000000000D+01
 G   1 1.00       0.000000000000
      0.3490500000D+00  0.1000000000D+01
 H   1 1.00       0.000000000000
      0.5355083000D+01  0.1000000000D+01
 H   1 1.00       0.000000000000
      0.2414696000D+01  0.1000000000D+01
 H   1 1.00       0.000000000000
      0.1088827000D+01  0.1000000000D+01
 H   1 1.00       0.000000000000
      0.4909703000D+00  0.1000000000D+01
 I   1 1.00       0.000000000000
      0.4322113000D+01  0.1000000000D+01
 I   1 1.00       0.000000000000
      0.1716263000D+01  0.1000000000D+01
 I   1 1.00       0.000000000000
      0.6815089000D+00  0.1000000000D+01
 J   1 1.00       0.000000000000
      0.3060973723D+01  0.1000000000D+01
 ****

 There are   208 symmetry adapted basis functions of A1  symmetry.
 There are   106 symmetry adapted basis functions of A2  symmetry.
 There are   151 symmetry adapted basis functions of B1  symmetry.
 There are   151 symmetry adapted basis functions of B2  symmetry.
 Integral buffers will be    131072 words long.
 Raffenetti 2 integral format.
 Two-electron integral symmetry is turned on.
   616 basis functions,  1356 primitive gaussians,  1044 cartesian basis functions
    18 alpha electrons       17 beta electrons
       nuclear repulsion energy        73.3885354723 Hartrees.
 NAtoms=    2 NActive=    2 NUniq=    2 SFac= 7.50D-01 NAtFMM=   80 NAOKFM=F Big=F
 One-electron integrals computed using PRISM.
 NBasis=   616 RedAO= F  NBF=   208   106   151   151
 NBsUse=   616 1.00D-04 NBFU=   208   106   151   151
 Initial guess read from the checkpoint file:  NiO.chk
 B after Tr=     0.000000    0.000000    0.000000
         Rot=    1.000000    0.000000    0.000000    0.000000 Ang=   0.00 deg.
 Initial guess orbital symmetries:
       Occupied  (SG) (SG) (PI) (SG) (PI) (SG) (SG) (SG) (PI) (PI)
                 (SG) (?A) (?B) (?A) (?A) (?B) (?A) (?B)
       Virtual   (SG) (?B) (?B) (?B) (SG) (SG) (DLTA) (DLTA) (PI)
                 (PI) (SG) (SG) (?B) (?B) (SG) (PI) (PI) (?A) (?A)
                 (?A) (?B) (?B) (?A) (SG) (SG) (DLTA) (DLTA) (?B)
                 (?B) (?B) (?B) (SG) (?C) (?B) (?B) (?B) (?B) (SG)
                 (?C) (?C) (?B) (?B) (?D) (?D) (?D) (?B) (?B) (?B)
                 (?B) (SG) (SG) (PI) (PI) (?E) (?E) (?E) (?E) (?E)
                 (?E) (PI) (PI) (?F) (?F) (SG) (PI) (PI) (PHI)
                 (PHI) (SG) (?G) (?G) (?H) (?H) (?G) (?G) (?G)
                 (?G) (?H) (DLTA) (DLTA) (?I) (?I) (PI) (PI) (?I)
                 (?F) (?F) (SG) (SG) (?J) (?J) (?J) (?J) (?J) (?J)
                 (?J) (?J) (?K) (?K) (?K) (?K) (PI) (PI) (?K) (?K)
                 (?K) (?L) (?L) (?F) (?F) (PI) (PI) (?L) (?L) (?L)
                 (?L) (?L) (?L) (?L) (?L) (?L) (?L) (?L) (?L) (?L)
                 (?L) (?L) (?L) (?L) (?L) (?L) (?L) (?L) (?L) (?L)
                 (SG) (?L) (?L) (?L) (?L) (SG) (PI) (PI) (?L) (?L)
                 (?L) (?L) (?L) (?L) (?L) (?L) (?L) (?L) (?L) (?L)
                 (?L) (?L) (?L) (?L) (?L) (?F) (?F) (PHI) (PHI)
                 (?L) (PHI) (PHI) (?L) (?L) (SG) (SG) (?L) (?L)
                 (PI) (SG) (PI) (SG) (PI) (PI) (?F) (?F) (DLTA)
                 (DLTA) (?L) (?L) (?L) (?L) (?L) (?L) (?L) (SG)
                 (DLTA) (DLTA) (PI) (PI) (SG) (PI) (PI) (?L) (?L)
                 (?L) (?L) (SG) (?L) (?L) (?L) (?L) (?L) (?L) (?L)
                 (PHI) (PHI) (?F) (?F) (?L) (?L) (PHI) (PHI) (?L)
                 (?L) (PI) (PI) (?F) (?F) (PHI) (PHI) (?L) (?L)
                 (?L) (PI) (PI) (?L) (?L) (PI) (PI) (SG) (?L) (PI)
                 (PI) (PI) (SG) (PHI) (PHI) (PI) (?L) (?L) (?L)
                 (?A) (?F) (?F) (PHI) (PHI) (?L) (?L) (?L) (?L)
                 (?L) (?L) (?L) (?A) (?A) (?A) (PI) (PI) (SG) (DLTA)
                 (DLTA) (PI) (PI) (?L) (?L) (?L) (?L) (?L) (?L)
                 (?L) (?L) (?L) (?L) (?L) (?L) (?L) (?L) (?L) (?L)
                 (?L) (?L) (?L) (?L) (?L) (?L) (?L) (?L) (?L) (?L)
                 (?L) (?L) (?L) (?L) (?L) (?L) (?L) (?L) (?L) (?L)
                 (?L) (?L) (?L) (PHI) (PHI) (?L) (?L) (?L) (?L)
                 (?L) (?L) (?L) (?L) (?L) (?L) (?L) (PI) (PI) (SG)
                 (?L) (?L) (?L) (?L) (?L) (?L) (?L) (?L) (PI) (PI)
                 (?L) (PHI) (PHI) (?L) (?L) (PI) (PI) (?L) (?F)
                 (?F) (?L) (?L) (?L) (?L) (?L) (?L) (?L) (?L) (?L)
                 (?L) (?L) (SG) (SG) (?L) (?L) (?L) (?L) (?L) (?L)
                 (?L) (?L) (?L) (?L) (?L) (?L) (?L) (?L) (?L) (?L)
                 (?L) (?L) (PI) (PI) (DLTA) (DLTA) (PI) (PI) (SG)
                 (SG) (?L) (?L) (?L) (?L) (?L) (SG) (SG) (?L) (?L)
                 (?L) (?L) (?L) (?L) (?L) (?L) (?L) (?L) (?L) (?L)
                 (?L) (?L) (?L) (?L) (?L) (?L) (?L) (?L) (?L) (?L)
                 (?L) (?L) (?L) (?L) (?L) (?L) (?L) (?L) (PI) (PI)
                 (?L) (SG) (SG) (SG) (PI) (PI) (SG) (SG) (PI) (PI)
                 (DLTA) (DLTA) (SG) (SG) (PI) (PI) (SG) (PI) (PI)
                 (SG) (SG) (SG) (SG) (PI) (PI) (PI) (PI) (PI) (PI)
                 (PI) (PI) (SG) (DLTA) (DLTA) (DLTA) (DLTA) (PI)
                 (PI) (DLTA) (DLTA) (PHI) (PHI) (SG) (DLTA) (DLTA)
                 (PI) (PI) (DLTA) (DLTA) (PHI) (PHI) (SG) (PI)
                 (PI) (DLTA) (DLTA) (PHI) (PHI) (?F) (?F) (PHI)
                 (PHI) (SG) (PI) (PI) (DLTA) (DLTA) (PHI) (PHI)
                 (?F) (?F) (?L) (?L) (PHI) (PHI) (?F) (?F) (SG)
                 (PI) (PI) (DLTA) (DLTA) (PHI) (PHI) (?F) (?F)
                 (?L) (?L) (SG) (SG) (SG) (PI) (PI) (DLTA) (DLTA)
                 (PHI) (PHI) (?F) (?F) (?L) (?L) (SG) (SG) (?L)
                 (?L) (SG) (PI) (PI) (DLTA) (DLTA) (PHI) (PHI)
                 (?F) (?F) (?L) (?L) (SG) (SG) (?L) (?L) (SG) (PI)
                 (PI) (DLTA) (DLTA) (PHI) (PHI) (?F) (?F) (?L)
                 (?L) (SG) (SG) (?L) (?L) (?L) (?L) (DLTA) (DLTA)
                 (DLTA) (DLTA) (PHI) (PHI) (PHI) (PHI) (?F) (?F)
                 (PI) (PI) (?F) (?F) (?L) (?L) (SG) (PHI) (PHI)
                 (?F) (?F) (?L) (?L) (SG) (SG) (?L) (?L) (SG) (SG)
                 (DLTA) (DLTA) (?F) (?F) (?L) (?L) (SG) (SG) (?L)
                 (?L)
 Requested convergence on RMS density matrix=1.00D-08 within 500 cycles.
 Requested convergence on MAX density matrix=1.00D-06.
 Requested convergence on             energy=1.00D-06.
 No special actions if energy rises.
 SCF Done:  E(ROHF) =  -1581.30683685     A.U. after   13 cycles
             Convg  =    0.7152D-09             -V/T =  1.9998
 <Sx>= 0.0000 <Sy>= 0.0000 <Sz>= 0.5000 <S**2>= 0.7500 S= 0.5000
 <L.S>= 0.000000000000E+00
 Annihilation of the first spin contaminant:
 S**2 before annihilation     0.7500,   after     0.7500
 DiagDN has N=   616 LTot=  1880 but NE2=     3 cannot use DSYEVD.
 GenMOA:  NOpAll=  4 NOp2=4 NOpUse=  4 JSym2X=1
 <Sx>= 0.0000 <Sy>= 0.0000 <Sz>= 0.5000 <S**2>= 0.7500 S= 0.5000
 ExpMin= 8.26D-03 ExpMax= 4.57D+07 ExpMxC= 4.03D+03 IAcc=3 IRadAn=         5 AccDes= 0.00D+00
 HarFok:  IExCor=  205 AccDes= 0.00D+00 IRadAn=         5 IDoV=-2
 ScaDFX=  1.000000  1.000000  1.000000  1.000000
 Range of M.O.s used for correlation:    11   616
 NBasis=   616 NAE=    18 NBE=    17 NFC=    10 NFV=     0
 NROrb=    606 NOA=     8 NOB=     7 NVA=   598 NVB=   599

 **** Warning!!: The largest alpha MO coefficient is  0.28918018D+03


 **** Warning!!: The largest beta MO coefficient is  0.28918018D+03

 Singles contribution to E2=   -0.3522758306D-02
 Disk-based method using OVN memory for  8 occupieds at a time.
 Permanent disk used for amplitudes and <ij||ab> integrals=    57637034 words.
 Estimated scratch disk usage=  8006491824 words.
 IUseRI=2 ITolRI= 6 IR12RI=0
 Actual    scratch disk usage=  7993120224 words.
 GetIJB would need an additional  4962624452 words of memory to use all  16 processors.
 JobTyp=2 Pass  1:  I=   1 to   8 NPSUse= 10 ParTrn=T ParDer=T DoDerP=F.
 T,EIJ(AA): I=   1 J=   2      0.9700687E-04     -0.5956772E-03
 T,EIJ(AA): I=   1 J=   3      0.1381001E-03     -0.9043003E-03
 T,EIJ(AA): I=   1 J=   4      0.5094628E-04     -0.3485685E-03
 T,EIJ(AA): I=   1 J=   5      0.8782879E-04     -0.5387506E-03
 T,EIJ(AA): I=   1 J=   6      0.4480678E-03     -0.2593692E-02
 T,EIJ(AA): I=   1 J=   7      0.7594860E-03     -0.3419197E-02
 T,EIJ(AA): I=   1 J=   8      0.4636222E-03     -0.2455323E-02
 T,EIJ(AA): I=   2 J=   3      0.7755910E-03     -0.5861792E-02
 T,EIJ(AA): I=   2 J=   4      0.9671646E-03     -0.7209848E-02
 T,EIJ(AA): I=   2 J=   5      0.8174388E-03     -0.5620325E-02
 T,EIJ(AA): I=   2 J=   6      0.4063833E-03     -0.2385259E-02
 T,EIJ(AA): I=   2 J=   7      0.1036891E-02     -0.3359332E-02
 T,EIJ(AA): I=   2 J=   8      0.2542758E-03     -0.1374584E-02
 T,EIJ(AA): I=   3 J=   4      0.8546346E-03     -0.6491576E-02
 T,EIJ(AA): I=   3 J=   5      0.1063448E-02     -0.8107963E-02
 T,EIJ(AA): I=   3 J=   6      0.6015815E-04     -0.2919402E-03
 T,EIJ(AA): I=   3 J=   7      0.6789346E-03     -0.2726211E-02
 T,EIJ(AA): I=   3 J=   8      0.5166684E-03     -0.2987122E-02
 T,EIJ(AA): I=   4 J=   5      0.1408747E-02     -0.1079112E-01
 T,EIJ(AA): I=   4 J=   6      0.2633610E-03     -0.1804568E-02
 T,EIJ(AA): I=   4 J=   7      0.5807899E-03     -0.1949789E-02
 T,EIJ(AA): I=   4 J=   8      0.2850322E-03     -0.1707384E-02
 T,EIJ(AA): I=   5 J=   6      0.4235536E-03     -0.2647803E-02
 T,EIJ(AA): I=   5 J=   7      0.8259104E-03     -0.2477535E-02
 T,EIJ(AA): I=   5 J=   8      0.2562975E-03     -0.1406533E-02
 T,EIJ(AA): I=   6 J=   7      0.2486656E-02     -0.8758641E-02
 T,EIJ(AA): I=   6 J=   8      0.1733244E-02     -0.7301227E-02
 T,EIJ(AA): I=   7 J=   8      0.2855257E-02     -0.9002763E-02
 T,EIJ(AB): I=   1 J=   1      0.1809565E-02     -0.1257783E-01
 T,EIJ(AB): I=   1 J=   2      0.2524380E-03     -0.1826501E-02
 T,EIJ(AB): I=   1 J=   3      0.5993774E-04     -0.4702112E-03
 T,EIJ(AB): I=   1 J=   4      0.1578247E-03     -0.9535832E-03
 T,EIJ(AB): I=   1 J=   5      0.1698795E-03     -0.1193443E-02
 T,EIJ(AB): I=   1 J=   6      0.2093365E-02     -0.1151430E-01
 T,EIJ(AB): I=   1 J=   7      0.1635331E-02     -0.9898661E-02
 T,EIJ(AB): I=   2 J=   1      0.3801046E-03     -0.2564366E-02
 T,EIJ(AB): I=   2 J=   2      0.2186489E-02     -0.1667599E-01
 T,EIJ(AB): I=   2 J=   3      0.1318708E-02     -0.1004898E-01
 T,EIJ(AB): I=   2 J=   4      0.1368445E-02     -0.9973334E-02
 T,EIJ(AB): I=   2 J=   5      0.1230303E-02     -0.9167476E-02
 T,EIJ(AB): I=   2 J=   6      0.1191883E-02     -0.4032867E-02
 T,EIJ(AB): I=   2 J=   7      0.7944665E-03     -0.4741032E-02
 T,EIJ(AB): I=   3 J=   1      0.5260007E-03     -0.3252466E-02
 T,EIJ(AB): I=   3 J=   2      0.9959031E-03     -0.7985357E-02
 T,EIJ(AB): I=   3 J=   3      0.1131834E-02     -0.8947652E-02
 T,EIJ(AB): I=   3 J=   4      0.2437772E-02     -0.1711135E-01
 T,EIJ(AB): I=   3 J=   5      0.1256356E-02     -0.9549236E-02
 T,EIJ(AB): I=   3 J=   6      0.8778218E-03     -0.3646185E-02
 T,EIJ(AB): I=   3 J=   7      0.7260963E-03     -0.3872414E-02
 T,EIJ(AB): I=   4 J=   1      0.1052653E-03     -0.7731124E-03
 T,EIJ(AB): I=   4 J=   2      0.1339711E-02     -0.1019524E-01
 T,EIJ(AB): I=   4 J=   3      0.2954998E-02     -0.2109667E-01
 T,EIJ(AB): I=   4 J=   4      0.1527533E-02     -0.1130122E-01
 T,EIJ(AB): I=   4 J=   5      0.1570107E-02     -0.1184786E-01
 T,EIJ(AB): I=   4 J=   6      0.6676364E-03     -0.2339779E-02
 T,EIJ(AB): I=   4 J=   7      0.4453990E-03     -0.2261094E-02
 T,EIJ(AB): I=   5 J=   1      0.2600273E-03     -0.1700604E-02
 T,EIJ(AB): I=   5 J=   2      0.1240373E-02     -0.9309394E-02
 T,EIJ(AB): I=   5 J=   3      0.1558892E-02     -0.1184399E-01
 T,EIJ(AB): I=   5 J=   4      0.1674070E-02     -0.1178595E-01
 T,EIJ(AB): I=   5 J=   5      0.3052579E-02     -0.1957232E-01
 T,EIJ(AB): I=   5 J=   6      0.1032375E-02     -0.3295314E-02
 T,EIJ(AB): I=   5 J=   7      0.7881438E-03     -0.3984346E-02
 T,EIJ(AB): I=   6 J=   1      0.2304616E-02     -0.1279357E-01
 T,EIJ(AB): I=   6 J=   2      0.5671850E-03     -0.3528326E-02
 T,EIJ(AB): I=   6 J=   3      0.3316967E-03     -0.2405665E-02
 T,EIJ(AB): I=   6 J=   4      0.8014996E-03     -0.4810591E-02
 T,EIJ(AB): I=   6 J=   5      0.5209581E-03     -0.3300919E-02
 T,EIJ(AB): I=   6 J=   6      0.3233271E-02     -0.1200778E-01
 T,EIJ(AB): I=   6 J=   7      0.2345231E-02     -0.1032288E-01
 T,EIJ(AB): I=   7 J=   1      0.2720754E-02     -0.1358635E-01
 T,EIJ(AB): I=   7 J=   2      0.1110594E-02     -0.3972007E-02
 T,EIJ(AB): I=   7 J=   3      0.6519259E-03     -0.2319947E-02
 T,EIJ(AB): I=   7 J=   4      0.1217549E-02     -0.3284012E-02
 T,EIJ(AB): I=   7 J=   5      0.9785424E-03     -0.3190209E-02
 T,EIJ(AB): I=   7 J=   6      0.1281269E-01     -0.3127266E-01
 T,EIJ(AB): I=   7 J=   7      0.4027588E-02     -0.1314797E-01
 T,EIJ(AB): I=   8 J=   1      0.2119759E-02     -0.1139720E-01
 T,EIJ(AB): I=   8 J=   2      0.7972560E-03     -0.4821453E-02
 T,EIJ(AB): I=   8 J=   3      0.4985860E-03     -0.2647268E-02
 T,EIJ(AB): I=   8 J=   4      0.5969836E-03     -0.3319910E-02
 T,EIJ(AB): I=   8 J=   5      0.8437034E-03     -0.4410252E-02
 T,EIJ(AB): I=   8 J=   6      0.3873894E-02     -0.1269236E-01
 T,EIJ(AB): I=   8 J=   7      0.5088161E-02     -0.1976708E-01
 Actual    scratch disk usage=  8006486704 words.
 GetIJB would need an additional  4962608792 words of memory to use all  16 processors.
 JobTyp=3 Pass  1:  I=   1 to   7 NPSUse= 10 ParTrn=T ParDer=T DoDerP=F.
 T,EIJ(BB): I=   1 J=   2      0.1170807E-03     -0.6770291E-03
 T,EIJ(BB): I=   1 J=   3      0.8825565E-04     -0.5583175E-03
 T,EIJ(BB): I=   1 J=   4      0.2247330E-03     -0.1164542E-02
 T,EIJ(BB): I=   1 J=   5      0.1277048E-03     -0.7425609E-03
 T,EIJ(BB): I=   1 J=   6      0.1051630E-02     -0.4354981E-02
 T,EIJ(BB): I=   1 J=   7      0.7009457E-03     -0.3305023E-02
 T,EIJ(BB): I=   2 J=   3      0.9980356E-03     -0.7490018E-02
 T,EIJ(BB): I=   2 J=   4      0.1053805E-02     -0.7212018E-02
 T,EIJ(BB): I=   2 J=   5      0.8278982E-03     -0.5696161E-02
 T,EIJ(BB): I=   2 J=   6      0.9544651E-03     -0.3137784E-02
 T,EIJ(BB): I=   2 J=   7      0.2677366E-03     -0.1377235E-02
 T,EIJ(BB): I=   3 J=   4      0.1170021E-02     -0.8270889E-02
 T,EIJ(BB): I=   3 J=   5      0.1399932E-02     -0.1061942E-01
 T,EIJ(BB): I=   3 J=   6      0.5932662E-03     -0.1966766E-02
 T,EIJ(BB): I=   3 J=   7      0.2542271E-03     -0.1471039E-02
 T,EIJ(BB): I=   4 J=   5      0.1500027E-02     -0.1055721E-01
 T,EIJ(BB): I=   4 J=   6      0.1127808E-02     -0.2841293E-02
 T,EIJ(BB): I=   4 J=   7      0.4649246E-03     -0.2422821E-02
 T,EIJ(BB): I=   5 J=   6      0.8198883E-03     -0.2419557E-02
 T,EIJ(BB): I=   5 J=   7      0.2487345E-03     -0.1297790E-02
 T,EIJ(BB): I=   6 J=   7      0.3078887E-02     -0.9407402E-02
 Spin components of T(2) and E(2):
     alpha-alpha T2 =       0.2059549475D-01 E2=     -0.1051188197D+00
     alpha-beta  T2 =       0.8826007919D-01 E2=     -0.4503085371D+00
     beta-beta   T2 =       0.1707000606D-01 E2=     -0.8698985823D-01
 ANorm=    0.1061799024D+01
 E2 =    -0.6459399734D+00 EUMP2 =    -0.15819527768192D+04

 Complete Basis Set (CBS) Extrapolation:
 M. R. Nyden and G. A. Petersson, JCP 75, 1843 (1981)
 G. A. Petersson and M. A. Al-Laham, JCP 94, 6081 (1991)
 G. A. Petersson, T. Tensfeldt, and J. A. Montgomery, JCP 94, 6091 (1991)
 J. A. Montgomery, J. W. Ochterski, and G. A. Petersson, JCP 101, 5900 (1994)
 
 Minimum Number of PNO for Extrapolation =  25
 Absolute Overlaps: IRadAn =     99590
 LocTrn: ILocal=3 LocCor=F DoCore=F.
 Entering OneElI...
 Overlap between basis sets.
 Requested accuracy = 0.1000D-12
 PrsmSu:  NPrtUS=   1 ThrOK=F IAlg=1
 PRISM was handed  8588073570 working-precision words and    47 shell-pairs
 IPart=  0 NShTot=          47 NBatch=          11 AvBLen=         4.3
 CnvPC2: ToCart=F DoDens=F IPureD=0 IPureF=0.
 Transformed matrix in CnvPC2: 
                 1             2             3             4             5 
      1   0.100000D+01  0.392442D+00  0.000000D+00  0.000000D+00  0.000000D+00
      2   0.392442D+00  0.100000D+01  0.000000D+00  0.000000D+00  0.000000D+00
      3   0.000000D+00  0.000000D+00  0.100000D+01  0.000000D+00  0.000000D+00
      4   0.000000D+00  0.000000D+00  0.000000D+00  0.100000D+01  0.000000D+00
      5   0.000000D+00  0.000000D+00  0.000000D+00  0.000000D+00  0.100000D+01
      6   0.263888D-01  0.323074D+00  0.000000D+00  0.000000D+00  0.000000D+00
      7   0.000000D+00  0.000000D+00  0.336017D+00  0.000000D+00  0.000000D+00
      8   0.000000D+00  0.000000D+00  0.000000D+00  0.336017D+00  0.000000D+00
      9   0.000000D+00  0.000000D+00  0.000000D+00  0.000000D+00  0.336017D+00
     10   0.000000D+00  0.000000D+00  0.000000D+00  0.000000D+00  0.000000D+00
     11   0.000000D+00  0.000000D+00  0.000000D+00  0.000000D+00  0.000000D+00
     12   0.000000D+00  0.000000D+00  0.000000D+00  0.000000D+00  0.000000D+00
     13   0.000000D+00  0.000000D+00  0.000000D+00  0.000000D+00  0.000000D+00
     14   0.000000D+00  0.000000D+00  0.000000D+00  0.000000D+00  0.000000D+00
     15  -0.349048D-03  0.311961D-02  0.000000D+00  0.000000D+00  0.000000D+00
     16   0.000000D+00  0.000000D+00  0.102476D-01  0.000000D+00  0.000000D+00
     17   0.000000D+00  0.000000D+00  0.000000D+00  0.102476D-01  0.000000D+00
     18   0.000000D+00  0.000000D+00  0.000000D+00  0.000000D+00  0.102476D-01
     19   0.000000D+00  0.000000D+00  0.000000D+00  0.000000D+00  0.000000D+00
     20   0.673568D-03  0.450790D-02  0.000000D+00  0.000000D+00 -0.204131D-02
     21   0.000000D+00  0.000000D+00  0.608824D-03  0.000000D+00  0.000000D+00
     22   0.000000D+00  0.000000D+00  0.000000D+00  0.608824D-03  0.000000D+00
     23   0.141976D-02  0.925538D-02  0.000000D+00  0.000000D+00 -0.364212D-02
                 6             7             8             9            10 
      1   0.263888D-01  0.000000D+00  0.000000D+00  0.000000D+00  0.000000D+00
      2   0.323074D+00  0.000000D+00  0.000000D+00  0.000000D+00  0.000000D+00
      3   0.000000D+00  0.336017D+00  0.000000D+00  0.000000D+00  0.000000D+00
      4   0.000000D+00  0.000000D+00  0.336017D+00  0.000000D+00  0.000000D+00
      5   0.000000D+00  0.000000D+00  0.000000D+00  0.336017D+00  0.000000D+00
      6   0.100000D+01  0.000000D+00  0.000000D+00  0.000000D+00  0.000000D+00
      7   0.000000D+00  0.100000D+01  0.000000D+00  0.000000D+00  0.000000D+00
      8   0.000000D+00  0.000000D+00  0.100000D+01  0.000000D+00  0.000000D+00
      9   0.000000D+00  0.000000D+00  0.000000D+00  0.100000D+01  0.000000D+00
     10   0.000000D+00  0.000000D+00  0.000000D+00  0.000000D+00  0.100000D+01
     11   0.000000D+00  0.000000D+00  0.000000D+00  0.000000D+00  0.000000D+00
     12   0.000000D+00  0.000000D+00  0.000000D+00  0.000000D+00  0.000000D+00
     13   0.000000D+00  0.000000D+00  0.000000D+00  0.000000D+00  0.000000D+00
     14   0.000000D+00  0.000000D+00  0.000000D+00  0.000000D+00  0.000000D+00
     15   0.165188D+00  0.000000D+00  0.000000D+00  0.000000D+00  0.000000D+00
     16   0.000000D+00  0.182209D+00  0.000000D+00  0.000000D+00  0.000000D+00
     17   0.000000D+00  0.000000D+00  0.182209D+00  0.000000D+00  0.000000D+00
     18   0.000000D+00  0.000000D+00  0.000000D+00  0.182209D+00  0.000000D+00
     19   0.215657D-04  0.000000D+00  0.000000D+00 -0.657846D-04  0.427525D-03
     20   0.373549D-01  0.000000D+00  0.000000D+00 -0.412232D-01  0.364287D-01
     21   0.000000D+00  0.127073D-01  0.000000D+00  0.000000D+00  0.000000D+00
     22   0.000000D+00  0.000000D+00  0.127073D-01  0.000000D+00  0.000000D+00
     23   0.654885D-01  0.000000D+00  0.000000D+00 -0.661272D-01  0.540500D-01
                11            12            13            14            15 
      1   0.000000D+00  0.000000D+00  0.000000D+00  0.000000D+00 -0.349048D-03
      2   0.000000D+00  0.000000D+00  0.000000D+00  0.000000D+00  0.311961D-02
      3   0.000000D+00  0.000000D+00  0.000000D+00  0.000000D+00  0.000000D+00
      4   0.000000D+00  0.000000D+00  0.000000D+00  0.000000D+00  0.000000D+00
      5   0.000000D+00  0.000000D+00  0.000000D+00  0.000000D+00  0.000000D+00
      6   0.000000D+00  0.000000D+00  0.000000D+00  0.000000D+00  0.165188D+00
      7   0.000000D+00  0.000000D+00  0.000000D+00  0.000000D+00  0.000000D+00
      8   0.000000D+00  0.000000D+00  0.000000D+00  0.000000D+00  0.000000D+00
      9   0.000000D+00  0.000000D+00  0.000000D+00  0.000000D+00  0.000000D+00
     10   0.000000D+00  0.000000D+00  0.000000D+00  0.000000D+00  0.000000D+00
     11   0.100000D+01  0.000000D+00  0.000000D+00  0.000000D+00  0.000000D+00
     12   0.000000D+00  0.100000D+01  0.000000D+00  0.000000D+00  0.000000D+00
     13   0.000000D+00  0.000000D+00  0.100000D+01  0.000000D+00  0.000000D+00
     14   0.000000D+00  0.000000D+00  0.000000D+00  0.100000D+01  0.000000D+00
     15   0.000000D+00  0.000000D+00  0.000000D+00  0.000000D+00  0.100000D+01
     16   0.000000D+00  0.000000D+00  0.000000D+00  0.000000D+00  0.000000D+00
     17   0.000000D+00  0.000000D+00  0.000000D+00  0.000000D+00  0.000000D+00
     18   0.000000D+00  0.000000D+00  0.000000D+00  0.000000D+00  0.000000D+00
     19   0.000000D+00  0.000000D+00  0.000000D+00  0.000000D+00  0.361942D-01
     20   0.000000D+00  0.000000D+00  0.000000D+00  0.000000D+00  0.323844D+00
     21  -0.203284D-01  0.000000D+00  0.000000D+00  0.000000D+00  0.000000D+00
     22   0.000000D+00 -0.203284D-01  0.000000D+00  0.000000D+00  0.000000D+00
     23   0.000000D+00  0.000000D+00  0.000000D+00  0.000000D+00  0.153092D+00
                16            17            18            19            20 
      1   0.000000D+00  0.000000D+00  0.000000D+00  0.000000D+00  0.673568D-03
      2   0.000000D+00  0.000000D+00  0.000000D+00  0.000000D+00  0.450790D-02
      3   0.102476D-01  0.000000D+00  0.000000D+00  0.000000D+00  0.000000D+00
      4   0.000000D+00  0.102476D-01  0.000000D+00  0.000000D+00  0.000000D+00
      5   0.000000D+00  0.000000D+00  0.102476D-01  0.000000D+00 -0.204131D-02
      6   0.000000D+00  0.000000D+00  0.000000D+00  0.215657D-04  0.373549D-01
      7   0.182209D+00  0.000000D+00  0.000000D+00  0.000000D+00  0.000000D+00
      8   0.000000D+00  0.182209D+00  0.000000D+00  0.000000D+00  0.000000D+00
      9   0.000000D+00  0.000000D+00  0.182209D+00 -0.657846D-04 -0.412232D-01
     10   0.000000D+00  0.000000D+00  0.000000D+00  0.427525D-03  0.364287D-01
     11   0.000000D+00  0.000000D+00  0.000000D+00  0.000000D+00  0.000000D+00
     12   0.000000D+00  0.000000D+00  0.000000D+00  0.000000D+00  0.000000D+00
     13   0.000000D+00  0.000000D+00  0.000000D+00  0.000000D+00  0.000000D+00
     14   0.000000D+00  0.000000D+00  0.000000D+00  0.000000D+00  0.000000D+00
     15   0.000000D+00  0.000000D+00  0.000000D+00  0.361942D-01  0.323844D+00
     16   0.100000D+01  0.000000D+00  0.000000D+00  0.000000D+00  0.000000D+00
     17   0.000000D+00  0.100000D+01  0.000000D+00  0.000000D+00  0.000000D+00
     18   0.000000D+00  0.000000D+00  0.100000D+01 -0.629328D-01 -0.483012D+00
     19   0.000000D+00  0.000000D+00 -0.629328D-01  0.100000D+01  0.236704D+00
     20   0.000000D+00  0.000000D+00 -0.483012D+00  0.236704D+00  0.100000D+01
     21   0.169487D+00  0.000000D+00  0.000000D+00  0.000000D+00  0.000000D+00
     22   0.000000D+00  0.169487D+00  0.000000D+00  0.000000D+00  0.000000D+00
     23   0.000000D+00  0.000000D+00 -0.195760D+00  0.000000D+00  0.000000D+00
                21            22            23 
      1   0.000000D+00  0.000000D+00  0.141976D-02
      2   0.000000D+00  0.000000D+00  0.925538D-02
      3   0.608824D-03  0.000000D+00  0.000000D+00
      4   0.000000D+00  0.608824D-03  0.000000D+00
      5   0.000000D+00  0.000000D+00 -0.364212D-02
      6   0.000000D+00  0.000000D+00  0.654885D-01
      7   0.127073D-01  0.000000D+00  0.000000D+00
      8   0.000000D+00  0.127073D-01  0.000000D+00
      9   0.000000D+00  0.000000D+00 -0.661272D-01
     10   0.000000D+00  0.000000D+00  0.540500D-01
     11  -0.203284D-01  0.000000D+00  0.000000D+00
     12   0.000000D+00 -0.203284D-01  0.000000D+00
     13   0.000000D+00  0.000000D+00  0.000000D+00
     14   0.000000D+00  0.000000D+00  0.000000D+00
     15   0.000000D+00  0.000000D+00  0.153092D+00
     16   0.169487D+00  0.000000D+00  0.000000D+00
     17   0.000000D+00  0.169487D+00  0.000000D+00
     18   0.000000D+00  0.000000D+00 -0.195760D+00
     19   0.000000D+00  0.000000D+00  0.000000D+00
     20   0.000000D+00  0.000000D+00  0.000000D+00
     21   0.100000D+01  0.000000D+00  0.000000D+00
     22   0.000000D+00  0.100000D+01  0.000000D+00
     23   0.000000D+00  0.000000D+00  0.100000D+01
 Entering OneElI...
 Overlap between basis sets.
 Requested accuracy = 0.1000D-12
 PrsmSu:  NPrtUS=   1 ThrOK=F IAlg=1
 PRISM was handed  8586744181 working-precision words and   711 shell-pairs
 IPart=  0 NShTot=         711 NBatch=          86 AvBLen=         8.3
 CnvPC2: ToCart=F DoDens=F IPureD=0 IPureF=0.
 Transformed matrix in CnvPC2: 
                 1             2             3             4             5 
      1   0.999786D+00  0.401919D+00  0.000000D+00  0.000000D+00  0.000000D+00
      2   0.283002D+00  0.989409D+00  0.000000D+00  0.000000D+00  0.000000D+00
      3   0.000000D+00  0.000000D+00  0.999158D+00  0.000000D+00  0.000000D+00
      4   0.000000D+00  0.000000D+00  0.000000D+00  0.999158D+00  0.000000D+00
      5   0.000000D+00  0.000000D+00  0.000000D+00  0.000000D+00  0.999158D+00
      6   0.117062D-01  0.313202D+00  0.000000D+00  0.000000D+00  0.000000D+00
      7   0.000000D+00  0.000000D+00 -0.328418D+00  0.000000D+00  0.000000D+00
      8   0.000000D+00  0.000000D+00  0.000000D+00 -0.328418D+00  0.000000D+00
      9   0.000000D+00  0.000000D+00  0.000000D+00  0.000000D+00 -0.328418D+00
     10   0.000000D+00  0.000000D+00  0.000000D+00  0.000000D+00  0.000000D+00
     11   0.000000D+00  0.000000D+00  0.000000D+00  0.000000D+00  0.000000D+00
     12   0.000000D+00  0.000000D+00  0.000000D+00  0.000000D+00  0.000000D+00
     13   0.000000D+00  0.000000D+00  0.000000D+00  0.000000D+00  0.000000D+00
     14   0.000000D+00  0.000000D+00  0.000000D+00  0.000000D+00  0.000000D+00
     15   0.000000D+00  0.000000D+00  0.000000D+00  0.000000D+00  0.000000D+00
     16   0.000000D+00  0.000000D+00  0.000000D+00  0.000000D+00  0.000000D+00
     17   0.000000D+00  0.000000D+00  0.000000D+00  0.000000D+00  0.000000D+00
     18   0.000000D+00  0.000000D+00  0.000000D+00  0.000000D+00  0.000000D+00
     19   0.000000D+00  0.000000D+00  0.000000D+00  0.000000D+00  0.000000D+00
     20   0.000000D+00  0.000000D+00  0.000000D+00  0.000000D+00  0.000000D+00
     21   0.000000D+00  0.000000D+00  0.000000D+00  0.000000D+00  0.000000D+00
     22   0.000000D+00  0.000000D+00  0.000000D+00  0.000000D+00  0.000000D+00
     23   0.000000D+00  0.000000D+00  0.000000D+00  0.000000D+00  0.000000D+00
     24   0.000000D+00  0.000000D+00  0.000000D+00  0.000000D+00  0.000000D+00
     25   0.107315D-03  0.890989D-02  0.000000D+00  0.000000D+00  0.000000D+00
     26   0.846810D-02  0.530375D-01  0.000000D+00  0.000000D+00  0.000000D+00
     27   0.477686D-02  0.300349D-01  0.000000D+00  0.000000D+00  0.000000D+00
     28   0.186735D-02  0.117697D-01  0.000000D+00  0.000000D+00  0.000000D+00
     29   0.000000D+00  0.000000D+00 -0.937459D-03  0.000000D+00  0.000000D+00
     30   0.000000D+00  0.000000D+00  0.000000D+00 -0.937459D-03  0.000000D+00
     31   0.000000D+00  0.000000D+00  0.000000D+00  0.000000D+00 -0.937459D-03
     32   0.000000D+00  0.000000D+00  0.120648D-01  0.000000D+00  0.000000D+00
     33   0.000000D+00  0.000000D+00  0.000000D+00  0.120648D-01  0.000000D+00
     34   0.000000D+00  0.000000D+00  0.000000D+00  0.000000D+00  0.120648D-01
     35   0.000000D+00  0.000000D+00  0.362681D-02  0.000000D+00  0.000000D+00
     36   0.000000D+00  0.000000D+00  0.000000D+00  0.362681D-02  0.000000D+00
     37   0.000000D+00  0.000000D+00  0.000000D+00  0.000000D+00  0.362681D-02
     38   0.334196D+00  0.980670D+00  0.000000D+00  0.000000D+00  0.000000D+00
     39   0.211221D+00  0.843735D+00  0.000000D+00  0.000000D+00  0.000000D+00
     40   0.129678D+00  0.634069D+00  0.000000D+00  0.000000D+00  0.000000D+00
     41   0.783815D-01  0.431819D+00  0.000000D+00  0.000000D+00  0.000000D+00
     42   0.469937D-01  0.276423D+00  0.000000D+00  0.000000D+00  0.000000D+00
     43   0.280589D-01  0.170826D+00  0.000000D+00  0.000000D+00  0.000000D+00
     44   0.000000D+00  0.000000D+00  0.478313D+00  0.000000D+00  0.000000D+00
     45   0.000000D+00  0.000000D+00  0.000000D+00  0.478313D+00  0.000000D+00
     46   0.000000D+00  0.000000D+00  0.000000D+00  0.000000D+00  0.478313D+00
     47   0.000000D+00  0.000000D+00  0.301366D+00  0.000000D+00  0.000000D+00
     48   0.000000D+00  0.000000D+00  0.000000D+00  0.301366D+00  0.000000D+00
     49   0.000000D+00  0.000000D+00  0.000000D+00  0.000000D+00  0.301366D+00
     50   0.000000D+00  0.000000D+00  0.175094D+00  0.000000D+00  0.000000D+00
     51   0.000000D+00  0.000000D+00  0.000000D+00  0.175094D+00  0.000000D+00
     52   0.000000D+00  0.000000D+00  0.000000D+00  0.000000D+00  0.175094D+00
     53   0.000000D+00  0.000000D+00  0.961293D-01  0.000000D+00  0.000000D+00
     54   0.000000D+00  0.000000D+00  0.000000D+00  0.961293D-01  0.000000D+00
     55   0.000000D+00  0.000000D+00  0.000000D+00  0.000000D+00  0.961293D-01
     56   0.000000D+00  0.000000D+00  0.508719D-01  0.000000D+00  0.000000D+00
     57   0.000000D+00  0.000000D+00  0.000000D+00  0.508719D-01  0.000000D+00
     58   0.000000D+00  0.000000D+00  0.000000D+00  0.000000D+00  0.508719D-01
     59   0.000000D+00  0.000000D+00  0.263167D-01  0.000000D+00  0.000000D+00
     60   0.000000D+00  0.000000D+00  0.000000D+00  0.263167D-01  0.000000D+00
     61   0.000000D+00  0.000000D+00  0.000000D+00  0.000000D+00  0.263167D-01
     62   0.000000D+00  0.000000D+00  0.000000D+00  0.000000D+00  0.000000D+00
     63   0.000000D+00  0.000000D+00  0.000000D+00  0.000000D+00  0.000000D+00
     64   0.000000D+00  0.000000D+00  0.000000D+00  0.000000D+00  0.000000D+00
     65   0.000000D+00  0.000000D+00  0.000000D+00  0.000000D+00  0.000000D+00
     66   0.000000D+00  0.000000D+00  0.000000D+00  0.000000D+00  0.000000D+00
     67   0.000000D+00  0.000000D+00  0.000000D+00  0.000000D+00  0.000000D+00
     68   0.000000D+00  0.000000D+00  0.000000D+00  0.000000D+00  0.000000D+00
     69   0.000000D+00  0.000000D+00  0.000000D+00  0.000000D+00  0.000000D+00
     70   0.000000D+00  0.000000D+00  0.000000D+00  0.000000D+00  0.000000D+00
     71   0.000000D+00  0.000000D+00  0.000000D+00  0.000000D+00  0.000000D+00
     72   0.000000D+00  0.000000D+00  0.000000D+00  0.000000D+00  0.000000D+00
     73   0.000000D+00  0.000000D+00  0.000000D+00  0.000000D+00  0.000000D+00
     74   0.000000D+00  0.000000D+00  0.000000D+00  0.000000D+00  0.000000D+00
     75   0.000000D+00  0.000000D+00  0.000000D+00  0.000000D+00  0.000000D+00
     76   0.000000D+00  0.000000D+00  0.000000D+00  0.000000D+00  0.000000D+00
     77   0.000000D+00  0.000000D+00  0.000000D+00  0.000000D+00  0.000000D+00
     78   0.000000D+00  0.000000D+00  0.000000D+00  0.000000D+00  0.000000D+00
     79   0.000000D+00  0.000000D+00  0.000000D+00  0.000000D+00  0.000000D+00
     80   0.000000D+00  0.000000D+00  0.000000D+00  0.000000D+00  0.000000D+00
     81   0.000000D+00  0.000000D+00  0.000000D+00  0.000000D+00  0.000000D+00
     82   0.000000D+00  0.000000D+00  0.000000D+00  0.000000D+00  0.000000D+00
     83   0.000000D+00  0.000000D+00  0.000000D+00  0.000000D+00  0.000000D+00
     84   0.000000D+00  0.000000D+00  0.000000D+00  0.000000D+00  0.000000D+00
     85   0.000000D+00  0.000000D+00  0.000000D+00  0.000000D+00  0.000000D+00
     86   0.000000D+00  0.000000D+00  0.000000D+00  0.000000D+00  0.000000D+00
     87   0.000000D+00  0.000000D+00  0.000000D+00  0.000000D+00  0.000000D+00
     88   0.000000D+00  0.000000D+00  0.000000D+00  0.000000D+00  0.000000D+00
     89   0.000000D+00  0.000000D+00  0.000000D+00  0.000000D+00  0.000000D+00
     90   0.000000D+00  0.000000D+00  0.000000D+00  0.000000D+00  0.000000D+00
     91   0.000000D+00  0.000000D+00  0.000000D+00  0.000000D+00  0.000000D+00
     92   0.000000D+00  0.000000D+00  0.000000D+00  0.000000D+00  0.000000D+00
     93   0.000000D+00  0.000000D+00  0.000000D+00  0.000000D+00  0.000000D+00
     94   0.000000D+00  0.000000D+00  0.000000D+00  0.000000D+00  0.000000D+00
     95   0.000000D+00  0.000000D+00  0.000000D+00  0.000000D+00  0.000000D+00
     96   0.000000D+00  0.000000D+00  0.000000D+00  0.000000D+00  0.000000D+00
     97   0.000000D+00  0.000000D+00  0.000000D+00  0.000000D+00  0.000000D+00
     98   0.000000D+00  0.000000D+00  0.000000D+00  0.000000D+00  0.000000D+00
     99   0.000000D+00  0.000000D+00  0.000000D+00  0.000000D+00  0.000000D+00
    100   0.000000D+00  0.000000D+00  0.000000D+00  0.000000D+00  0.000000D+00
    101   0.000000D+00  0.000000D+00  0.000000D+00  0.000000D+00  0.000000D+00
    102   0.000000D+00  0.000000D+00  0.000000D+00  0.000000D+00  0.000000D+00
    103   0.000000D+00  0.000000D+00  0.000000D+00  0.000000D+00  0.000000D+00
    104   0.000000D+00  0.000000D+00  0.000000D+00  0.000000D+00  0.000000D+00
    105   0.000000D+00  0.000000D+00  0.000000D+00  0.000000D+00  0.000000D+00
    106   0.000000D+00  0.000000D+00  0.000000D+00  0.000000D+00  0.000000D+00
    107   0.000000D+00  0.000000D+00  0.000000D+00  0.000000D+00  0.000000D+00
    108   0.000000D+00  0.000000D+00  0.000000D+00  0.000000D+00  0.000000D+00
    109   0.000000D+00  0.000000D+00  0.000000D+00  0.000000D+00  0.000000D+00
    110   0.000000D+00  0.000000D+00  0.000000D+00  0.000000D+00  0.000000D+00
    111   0.000000D+00  0.000000D+00  0.000000D+00  0.000000D+00  0.000000D+00
    112   0.000000D+00  0.000000D+00  0.000000D+00  0.000000D+00  0.000000D+00
    113   0.000000D+00  0.000000D+00  0.000000D+00  0.000000D+00  0.000000D+00
    114   0.000000D+00  0.000000D+00  0.000000D+00  0.000000D+00  0.000000D+00
    115   0.000000D+00  0.000000D+00  0.000000D+00  0.000000D+00  0.000000D+00
    116   0.000000D+00  0.000000D+00  0.000000D+00  0.000000D+00  0.000000D+00
    117   0.000000D+00  0.000000D+00  0.000000D+00  0.000000D+00  0.000000D+00
    118   0.000000D+00  0.000000D+00  0.000000D+00  0.000000D+00  0.000000D+00
    119   0.000000D+00  0.000000D+00  0.000000D+00  0.000000D+00  0.000000D+00
    120   0.000000D+00  0.000000D+00  0.000000D+00  0.000000D+00  0.000000D+00
    121   0.000000D+00  0.000000D+00  0.000000D+00  0.000000D+00  0.000000D+00
    122   0.000000D+00  0.000000D+00  0.000000D+00  0.000000D+00  0.000000D+00
    123   0.000000D+00  0.000000D+00  0.000000D+00  0.000000D+00  0.000000D+00
    124   0.000000D+00  0.000000D+00  0.000000D+00  0.000000D+00  0.000000D+00
    125   0.000000D+00  0.000000D+00  0.000000D+00  0.000000D+00  0.000000D+00
    126   0.000000D+00  0.000000D+00  0.000000D+00  0.000000D+00  0.000000D+00
    127   0.000000D+00  0.000000D+00  0.000000D+00  0.000000D+00  0.000000D+00
    128   0.000000D+00  0.000000D+00  0.000000D+00  0.000000D+00  0.000000D+00
    129   0.000000D+00  0.000000D+00  0.000000D+00  0.000000D+00  0.000000D+00
    130   0.000000D+00  0.000000D+00  0.000000D+00  0.000000D+00  0.000000D+00
    131   0.000000D+00  0.000000D+00  0.000000D+00  0.000000D+00  0.000000D+00
    132   0.000000D+00  0.000000D+00  0.000000D+00  0.000000D+00  0.000000D+00
    133   0.000000D+00  0.000000D+00  0.000000D+00  0.000000D+00  0.000000D+00
    134   0.000000D+00  0.000000D+00  0.000000D+00  0.000000D+00  0.000000D+00
    135   0.000000D+00  0.000000D+00  0.000000D+00  0.000000D+00  0.000000D+00
    136   0.000000D+00  0.000000D+00  0.000000D+00  0.000000D+00  0.000000D+00
    137   0.000000D+00  0.000000D+00  0.000000D+00  0.000000D+00  0.000000D+00
    138   0.000000D+00  0.000000D+00  0.000000D+00  0.000000D+00  0.000000D+00
    139   0.000000D+00  0.000000D+00  0.000000D+00  0.000000D+00  0.000000D+00
    140   0.000000D+00  0.000000D+00  0.000000D+00  0.000000D+00  0.000000D+00
    141   0.000000D+00  0.000000D+00  0.000000D+00  0.000000D+00  0.000000D+00
    142   0.000000D+00  0.000000D+00  0.000000D+00  0.000000D+00  0.000000D+00
    143   0.000000D+00  0.000000D+00  0.000000D+00  0.000000D+00  0.000000D+00
    144   0.000000D+00  0.000000D+00  0.000000D+00  0.000000D+00  0.000000D+00
    145   0.000000D+00  0.000000D+00  0.000000D+00  0.000000D+00  0.000000D+00
    146   0.000000D+00  0.000000D+00  0.000000D+00  0.000000D+00  0.000000D+00
    147   0.000000D+00  0.000000D+00  0.000000D+00  0.000000D+00  0.000000D+00
    148   0.000000D+00  0.000000D+00  0.000000D+00  0.000000D+00  0.000000D+00
    149   0.000000D+00  0.000000D+00  0.000000D+00  0.000000D+00  0.000000D+00
    150   0.000000D+00  0.000000D+00  0.000000D+00  0.000000D+00  0.000000D+00
    151   0.000000D+00  0.000000D+00  0.000000D+00  0.000000D+00  0.000000D+00
    152   0.000000D+00  0.000000D+00  0.000000D+00  0.000000D+00  0.000000D+00
    153   0.000000D+00  0.000000D+00  0.000000D+00  0.000000D+00  0.000000D+00
    154   0.000000D+00  0.000000D+00  0.000000D+00  0.000000D+00  0.000000D+00
    155   0.000000D+00  0.000000D+00  0.000000D+00  0.000000D+00  0.000000D+00
    156   0.000000D+00  0.000000D+00  0.000000D+00  0.000000D+00  0.000000D+00
    157   0.000000D+00  0.000000D+00  0.000000D+00  0.000000D+00  0.000000D+00
    158   0.000000D+00  0.000000D+00  0.000000D+00  0.000000D+00  0.000000D+00
    159   0.000000D+00  0.000000D+00  0.000000D+00  0.000000D+00  0.000000D+00
    160   0.000000D+00  0.000000D+00  0.000000D+00  0.000000D+00  0.000000D+00
    161   0.000000D+00  0.000000D+00  0.000000D+00  0.000000D+00  0.000000D+00
    162   0.000000D+00  0.000000D+00  0.000000D+00  0.000000D+00  0.000000D+00
    163   0.000000D+00  0.000000D+00  0.000000D+00  0.000000D+00  0.000000D+00
    164   0.000000D+00  0.000000D+00  0.000000D+00  0.000000D+00  0.000000D+00
    165   0.000000D+00  0.000000D+00  0.000000D+00  0.000000D+00  0.000000D+00
    166   0.000000D+00  0.000000D+00  0.000000D+00  0.000000D+00  0.000000D+00
    167   0.000000D+00  0.000000D+00  0.000000D+00  0.000000D+00  0.000000D+00
    168   0.000000D+00  0.000000D+00  0.000000D+00  0.000000D+00  0.000000D+00
    169   0.000000D+00  0.000000D+00  0.000000D+00  0.000000D+00  0.000000D+00
    170   0.000000D+00  0.000000D+00  0.000000D+00  0.000000D+00  0.000000D+00
    171   0.000000D+00  0.000000D+00  0.000000D+00  0.000000D+00  0.000000D+00
    172   0.000000D+00  0.000000D+00  0.000000D+00  0.000000D+00  0.000000D+00
    173   0.000000D+00  0.000000D+00  0.000000D+00  0.000000D+00  0.000000D+00
    174   0.000000D+00  0.000000D+00  0.000000D+00  0.000000D+00  0.000000D+00
    175   0.000000D+00  0.000000D+00  0.000000D+00  0.000000D+00  0.000000D+00
    176   0.000000D+00  0.000000D+00  0.000000D+00  0.000000D+00  0.000000D+00
    177   0.000000D+00  0.000000D+00  0.000000D+00  0.000000D+00  0.000000D+00
    178   0.000000D+00  0.000000D+00  0.000000D+00  0.000000D+00  0.000000D+00
    179   0.000000D+00  0.000000D+00  0.000000D+00  0.000000D+00  0.000000D+00
    180   0.000000D+00  0.000000D+00  0.000000D+00  0.000000D+00  0.000000D+00
    181   0.000000D+00  0.000000D+00  0.000000D+00  0.000000D+00  0.000000D+00
    182   0.000000D+00  0.000000D+00  0.000000D+00  0.000000D+00  0.000000D+00
    183   0.000000D+00  0.000000D+00  0.000000D+00  0.000000D+00  0.000000D+00
    184   0.000000D+00  0.000000D+00  0.000000D+00  0.000000D+00  0.000000D+00
    185   0.000000D+00  0.000000D+00  0.000000D+00  0.000000D+00  0.000000D+00
    186   0.000000D+00  0.000000D+00  0.000000D+00  0.000000D+00  0.000000D+00
    187   0.000000D+00  0.000000D+00  0.000000D+00  0.000000D+00  0.000000D+00
    188   0.000000D+00  0.000000D+00  0.000000D+00  0.000000D+00  0.000000D+00
    189   0.000000D+00  0.000000D+00  0.000000D+00  0.000000D+00  0.000000D+00
    190   0.000000D+00  0.000000D+00  0.000000D+00  0.000000D+00  0.000000D+00
    191   0.000000D+00  0.000000D+00  0.000000D+00  0.000000D+00  0.000000D+00
    192   0.000000D+00  0.000000D+00  0.000000D+00  0.000000D+00  0.000000D+00
    193   0.000000D+00  0.000000D+00  0.000000D+00  0.000000D+00  0.000000D+00
    194   0.000000D+00  0.000000D+00  0.000000D+00  0.000000D+00  0.000000D+00
    195   0.000000D+00  0.000000D+00  0.000000D+00  0.000000D+00  0.000000D+00
    196   0.000000D+00  0.000000D+00  0.000000D+00  0.000000D+00  0.000000D+00
    197   0.000000D+00  0.000000D+00  0.000000D+00  0.000000D+00  0.000000D+00
    198   0.000000D+00  0.000000D+00  0.000000D+00  0.000000D+00  0.000000D+00
    199   0.000000D+00  0.000000D+00  0.000000D+00  0.000000D+00  0.000000D+00
    200   0.000000D+00  0.000000D+00  0.000000D+00  0.000000D+00  0.000000D+00
    201   0.000000D+00  0.000000D+00  0.000000D+00  0.000000D+00  0.000000D+00
    202   0.000000D+00  0.000000D+00  0.000000D+00  0.000000D+00  0.000000D+00
    203   0.000000D+00  0.000000D+00  0.000000D+00  0.000000D+00  0.000000D+00
    204   0.000000D+00  0.000000D+00  0.000000D+00  0.000000D+00  0.000000D+00
    205   0.000000D+00  0.000000D+00  0.000000D+00  0.000000D+00  0.000000D+00
    206   0.000000D+00  0.000000D+00  0.000000D+00  0.000000D+00  0.000000D+00
    207   0.000000D+00  0.000000D+00  0.000000D+00  0.000000D+00  0.000000D+00
    208   0.000000D+00  0.000000D+00  0.000000D+00  0.000000D+00  0.000000D+00
    209   0.000000D+00  0.000000D+00  0.000000D+00  0.000000D+00  0.000000D+00
    210   0.000000D+00  0.000000D+00  0.000000D+00  0.000000D+00  0.000000D+00
    211   0.000000D+00  0.000000D+00  0.000000D+00  0.000000D+00  0.000000D+00
    212   0.000000D+00  0.000000D+00  0.000000D+00  0.000000D+00  0.000000D+00
    213   0.000000D+00  0.000000D+00  0.000000D+00  0.000000D+00  0.000000D+00
    214   0.000000D+00  0.000000D+00  0.000000D+00  0.000000D+00  0.000000D+00
    215   0.000000D+00  0.000000D+00  0.000000D+00  0.000000D+00  0.000000D+00
    216   0.000000D+00  0.000000D+00  0.000000D+00  0.000000D+00  0.000000D+00
    217   0.000000D+00  0.000000D+00  0.000000D+00  0.000000D+00  0.000000D+00
    218   0.000000D+00  0.000000D+00  0.000000D+00  0.000000D+00  0.000000D+00
    219   0.000000D+00  0.000000D+00  0.000000D+00  0.000000D+00  0.000000D+00
    220   0.000000D+00  0.000000D+00  0.000000D+00  0.000000D+00  0.000000D+00
    221   0.000000D+00  0.000000D+00  0.000000D+00  0.000000D+00  0.000000D+00
    222   0.000000D+00  0.000000D+00  0.000000D+00  0.000000D+00  0.000000D+00
    223   0.000000D+00  0.000000D+00  0.000000D+00  0.000000D+00  0.000000D+00
    224   0.000000D+00  0.000000D+00  0.000000D+00  0.000000D+00  0.000000D+00
    225   0.000000D+00  0.000000D+00  0.000000D+00  0.000000D+00  0.000000D+00
    226   0.000000D+00  0.000000D+00  0.000000D+00  0.000000D+00  0.000000D+00
    227   0.000000D+00  0.000000D+00  0.000000D+00  0.000000D+00  0.000000D+00
    228   0.000000D+00  0.000000D+00  0.000000D+00  0.000000D+00  0.000000D+00
    229   0.000000D+00  0.000000D+00  0.000000D+00  0.000000D+00  0.000000D+00
    230   0.000000D+00  0.000000D+00  0.000000D+00  0.000000D+00  0.000000D+00
    231   0.000000D+00  0.000000D+00  0.000000D+00  0.000000D+00  0.000000D+00
    232   0.000000D+00  0.000000D+00  0.000000D+00  0.000000D+00  0.000000D+00
    233   0.000000D+00  0.000000D+00  0.000000D+00  0.000000D+00  0.000000D+00
    234   0.000000D+00  0.000000D+00  0.000000D+00  0.000000D+00  0.000000D+00
    235   0.000000D+00  0.000000D+00  0.000000D+00  0.000000D+00  0.000000D+00
    236   0.000000D+00  0.000000D+00  0.000000D+00  0.000000D+00  0.000000D+00
    237   0.000000D+00  0.000000D+00  0.000000D+00  0.000000D+00  0.000000D+00
    238   0.000000D+00  0.000000D+00  0.000000D+00  0.000000D+00  0.000000D+00
    239   0.000000D+00  0.000000D+00  0.000000D+00  0.000000D+00  0.000000D+00
    240   0.000000D+00  0.000000D+00  0.000000D+00  0.000000D+00  0.000000D+00
    241   0.000000D+00  0.000000D+00  0.000000D+00  0.000000D+00  0.000000D+00
    242   0.000000D+00  0.000000D+00  0.000000D+00  0.000000D+00  0.000000D+00
    243   0.000000D+00  0.000000D+00  0.000000D+00  0.000000D+00  0.000000D+00
    244   0.000000D+00  0.000000D+00  0.000000D+00  0.000000D+00  0.000000D+00
    245   0.000000D+00  0.000000D+00  0.000000D+00  0.000000D+00  0.000000D+00
    246   0.000000D+00  0.000000D+00  0.000000D+00  0.000000D+00  0.000000D+00
    247   0.000000D+00  0.000000D+00  0.000000D+00  0.000000D+00  0.000000D+00
    248   0.000000D+00  0.000000D+00  0.000000D+00  0.000000D+00  0.000000D+00
    249   0.000000D+00  0.000000D+00  0.000000D+00  0.000000D+00  0.000000D+00
    250   0.000000D+00  0.000000D+00  0.000000D+00  0.000000D+00  0.000000D+00
    251   0.000000D+00  0.000000D+00  0.000000D+00  0.000000D+00  0.000000D+00
    252   0.000000D+00  0.000000D+00  0.000000D+00  0.000000D+00  0.000000D+00
    253   0.000000D+00  0.000000D+00  0.000000D+00  0.000000D+00  0.000000D+00
    254   0.000000D+00  0.000000D+00  0.000000D+00  0.000000D+00  0.000000D+00
    255   0.000000D+00  0.000000D+00  0.000000D+00  0.000000D+00  0.000000D+00
    256   0.000000D+00  0.000000D+00  0.000000D+00  0.000000D+00  0.000000D+00
    257   0.000000D+00  0.000000D+00  0.000000D+00  0.000000D+00  0.000000D+00
    258   0.000000D+00  0.000000D+00  0.000000D+00  0.000000D+00  0.000000D+00
    259   0.000000D+00  0.000000D+00  0.000000D+00  0.000000D+00  0.000000D+00
    260   0.000000D+00  0.000000D+00  0.000000D+00  0.000000D+00  0.000000D+00
    261   0.000000D+00  0.000000D+00  0.000000D+00  0.000000D+00  0.000000D+00
    262   0.000000D+00  0.000000D+00  0.000000D+00  0.000000D+00  0.000000D+00
    263   0.000000D+00  0.000000D+00  0.000000D+00  0.000000D+00  0.000000D+00
    264   0.000000D+00  0.000000D+00  0.000000D+00  0.000000D+00  0.000000D+00
    265   0.000000D+00  0.000000D+00  0.000000D+00  0.000000D+00  0.000000D+00
    266   0.000000D+00  0.000000D+00  0.000000D+00  0.000000D+00  0.000000D+00
    267   0.000000D+00  0.000000D+00  0.000000D+00  0.000000D+00  0.000000D+00
    268   0.000000D+00  0.000000D+00  0.000000D+00  0.000000D+00  0.000000D+00
    269   0.000000D+00  0.000000D+00  0.000000D+00  0.000000D+00  0.000000D+00
    270   0.000000D+00  0.000000D+00  0.000000D+00  0.000000D+00  0.000000D+00
    271   0.000000D+00  0.000000D+00  0.000000D+00  0.000000D+00  0.000000D+00
    272   0.000000D+00  0.000000D+00  0.000000D+00  0.000000D+00  0.000000D+00
    273   0.000000D+00  0.000000D+00  0.000000D+00  0.000000D+00  0.000000D+00
    274   0.000000D+00  0.000000D+00  0.000000D+00  0.000000D+00  0.000000D+00
    275   0.000000D+00  0.000000D+00  0.000000D+00  0.000000D+00  0.000000D+00
    276   0.000000D+00  0.000000D+00  0.000000D+00  0.000000D+00  0.000000D+00
    277   0.000000D+00  0.000000D+00  0.000000D+00  0.000000D+00  0.000000D+00
    278   0.000000D+00  0.000000D+00  0.000000D+00  0.000000D+00  0.000000D+00
    279   0.000000D+00  0.000000D+00  0.000000D+00  0.000000D+00  0.000000D+00
    280   0.000000D+00  0.000000D+00  0.000000D+00  0.000000D+00  0.000000D+00
    281   0.000000D+00  0.000000D+00  0.000000D+00  0.000000D+00  0.000000D+00
    282   0.000000D+00  0.000000D+00  0.000000D+00  0.000000D+00  0.000000D+00
    283   0.000000D+00  0.000000D+00  0.000000D+00  0.000000D+00  0.000000D+00
    284   0.000000D+00  0.000000D+00  0.000000D+00  0.000000D+00  0.000000D+00
    285   0.000000D+00  0.000000D+00  0.000000D+00  0.000000D+00  0.000000D+00
    286   0.000000D+00  0.000000D+00  0.000000D+00  0.000000D+00  0.000000D+00
    287   0.000000D+00  0.000000D+00  0.000000D+00  0.000000D+00  0.000000D+00
    288   0.000000D+00  0.000000D+00  0.000000D+00  0.000000D+00  0.000000D+00
    289   0.000000D+00  0.000000D+00  0.000000D+00  0.000000D+00  0.000000D+00
    290   0.000000D+00  0.000000D+00  0.000000D+00  0.000000D+00  0.000000D+00
    291   0.000000D+00  0.000000D+00  0.000000D+00  0.000000D+00  0.000000D+00
    292   0.000000D+00  0.000000D+00  0.000000D+00  0.000000D+00  0.000000D+00
    293   0.000000D+00  0.000000D+00  0.000000D+00  0.000000D+00  0.000000D+00
    294   0.000000D+00  0.000000D+00  0.000000D+00  0.000000D+00  0.000000D+00
    295   0.000000D+00  0.000000D+00  0.000000D+00  0.000000D+00  0.000000D+00
    296   0.000000D+00  0.000000D+00  0.000000D+00  0.000000D+00  0.000000D+00
    297   0.000000D+00  0.000000D+00  0.000000D+00  0.000000D+00  0.000000D+00
    298   0.000000D+00  0.000000D+00  0.000000D+00  0.000000D+00  0.000000D+00
    299   0.000000D+00  0.000000D+00  0.000000D+00  0.000000D+00  0.000000D+00
    300   0.000000D+00  0.000000D+00  0.000000D+00  0.000000D+00  0.000000D+00
    301   0.000000D+00  0.000000D+00  0.000000D+00  0.000000D+00  0.000000D+00
    302   0.000000D+00  0.000000D+00  0.000000D+00  0.000000D+00  0.000000D+00
    303   0.000000D+00  0.000000D+00  0.000000D+00  0.000000D+00  0.000000D+00
    304   0.000000D+00  0.000000D+00  0.000000D+00  0.000000D+00  0.000000D+00
    305   0.000000D+00  0.000000D+00  0.000000D+00  0.000000D+00  0.000000D+00
    306   0.000000D+00  0.000000D+00  0.000000D+00  0.000000D+00  0.000000D+00
    307   0.000000D+00  0.000000D+00  0.000000D+00  0.000000D+00  0.000000D+00
    308   0.000000D+00  0.000000D+00  0.000000D+00  0.000000D+00  0.000000D+00
    309   0.000000D+00  0.000000D+00  0.000000D+00  0.000000D+00  0.000000D+00
    310   0.000000D+00  0.000000D+00  0.000000D+00  0.000000D+00  0.000000D+00
    311   0.000000D+00  0.000000D+00  0.000000D+00  0.000000D+00  0.000000D+00
    312   0.000000D+00  0.000000D+00  0.000000D+00  0.000000D+00  0.000000D+00
    313   0.000000D+00  0.000000D+00  0.000000D+00  0.000000D+00  0.000000D+00
    314   0.000000D+00  0.000000D+00  0.000000D+00  0.000000D+00  0.000000D+00
    315   0.000000D+00  0.000000D+00  0.000000D+00  0.000000D+00  0.000000D+00
    316   0.000000D+00  0.000000D+00  0.000000D+00  0.000000D+00  0.000000D+00
    317   0.000000D+00  0.000000D+00  0.000000D+00  0.000000D+00  0.000000D+00
    318   0.000000D+00  0.000000D+00  0.000000D+00  0.000000D+00  0.000000D+00
    319   0.000000D+00  0.000000D+00  0.000000D+00  0.000000D+00  0.000000D+00
    320   0.000000D+00  0.000000D+00  0.000000D+00  0.000000D+00  0.000000D+00
    321   0.000000D+00  0.000000D+00  0.000000D+00  0.000000D+00  0.000000D+00
    322   0.000000D+00  0.000000D+00  0.000000D+00  0.000000D+00  0.000000D+00
    323   0.000000D+00  0.000000D+00  0.000000D+00  0.000000D+00  0.000000D+00
    324   0.000000D+00  0.000000D+00  0.000000D+00  0.000000D+00  0.000000D+00
    325   0.000000D+00  0.000000D+00  0.000000D+00  0.000000D+00  0.000000D+00
    326   0.000000D+00  0.000000D+00  0.000000D+00  0.000000D+00  0.000000D+00
    327   0.000000D+00  0.000000D+00  0.000000D+00  0.000000D+00  0.000000D+00
    328   0.000000D+00  0.000000D+00  0.000000D+00  0.000000D+00  0.000000D+00
    329   0.000000D+00  0.000000D+00  0.000000D+00  0.000000D+00  0.000000D+00
    330   0.000000D+00  0.000000D+00  0.000000D+00  0.000000D+00  0.000000D+00
    331   0.000000D+00  0.000000D+00  0.000000D+00  0.000000D+00  0.000000D+00
    332   0.000000D+00  0.000000D+00  0.000000D+00  0.000000D+00  0.000000D+00
    333   0.000000D+00  0.000000D+00  0.000000D+00  0.000000D+00  0.000000D+00
    334   0.000000D+00  0.000000D+00  0.000000D+00  0.000000D+00  0.000000D+00
    335   0.000000D+00  0.000000D+00  0.000000D+00  0.000000D+00  0.000000D+00
    336   0.000000D+00  0.000000D+00  0.000000D+00  0.000000D+00  0.000000D+00
    337   0.000000D+00  0.000000D+00  0.000000D+00  0.000000D+00  0.000000D+00
    338   0.000000D+00  0.000000D+00  0.000000D+00  0.000000D+00  0.000000D+00
    339   0.000000D+00  0.000000D+00  0.000000D+00  0.000000D+00  0.000000D+00
    340   0.000000D+00  0.000000D+00  0.000000D+00  0.000000D+00  0.000000D+00
    341   0.000000D+00  0.000000D+00  0.000000D+00  0.000000D+00  0.000000D+00
    342   0.000000D+00  0.000000D+00  0.000000D+00  0.000000D+00  0.000000D+00
    343   0.000000D+00  0.000000D+00  0.000000D+00  0.000000D+00  0.000000D+00
    344   0.000000D+00  0.000000D+00  0.000000D+00  0.000000D+00  0.000000D+00
    345   0.000000D+00  0.000000D+00  0.000000D+00  0.000000D+00  0.000000D+00
    346   0.000000D+00  0.000000D+00  0.000000D+00  0.000000D+00  0.000000D+00
    347   0.000000D+00  0.000000D+00  0.000000D+00  0.000000D+00  0.000000D+00
    348   0.000000D+00  0.000000D+00  0.000000D+00  0.000000D+00  0.000000D+00
    349   0.000000D+00  0.000000D+00  0.000000D+00  0.000000D+00  0.000000D+00
    350   0.000000D+00  0.000000D+00  0.000000D+00  0.000000D+00  0.000000D+00
    351   0.000000D+00  0.000000D+00  0.000000D+00  0.000000D+00  0.000000D+00
    352   0.000000D+00  0.000000D+00  0.000000D+00  0.000000D+00  0.000000D+00
    353   0.000000D+00  0.000000D+00  0.000000D+00  0.000000D+00  0.000000D+00
    354   0.000000D+00  0.000000D+00  0.000000D+00  0.000000D+00  0.000000D+00
    355   0.000000D+00  0.000000D+00  0.000000D+00  0.000000D+00  0.000000D+00
    356   0.000000D+00  0.000000D+00  0.000000D+00  0.000000D+00  0.000000D+00
    357   0.000000D+00  0.000000D+00  0.000000D+00  0.000000D+00  0.000000D+00
    358   0.000000D+00  0.000000D+00  0.000000D+00  0.000000D+00  0.000000D+00
    359   0.000000D+00  0.000000D+00  0.000000D+00  0.000000D+00  0.000000D+00
    360   0.000000D+00  0.000000D+00  0.000000D+00  0.000000D+00  0.000000D+00
    361   0.000000D+00  0.000000D+00  0.000000D+00  0.000000D+00  0.000000D+00
    362   0.000000D+00  0.000000D+00  0.000000D+00  0.000000D+00  0.000000D+00
    363   0.000000D+00  0.000000D+00  0.000000D+00  0.000000D+00  0.000000D+00
    364   0.000000D+00  0.000000D+00  0.000000D+00  0.000000D+00  0.000000D+00
    365   0.967605D-03  0.629110D-02  0.000000D+00  0.000000D+00 -0.202463D-02
    366   0.469381D-02  0.294841D-01  0.000000D+00  0.000000D+00 -0.209862D-02
    367   0.000000D+00  0.000000D+00  0.121416D-02  0.000000D+00  0.000000D+00
    368   0.000000D+00  0.000000D+00  0.000000D+00  0.121416D-02  0.000000D+00
    369   0.289072D-02  0.184188D-01  0.000000D+00  0.000000D+00 -0.450209D-02
    370   0.000000D+00  0.000000D+00  0.223902D-02  0.000000D+00  0.000000D+00
    371   0.000000D+00  0.000000D+00  0.000000D+00  0.223902D-02  0.000000D+00
    372   0.541304D-02  0.339119D-01  0.000000D+00  0.000000D+00  0.467266D-03
    373   0.000000D+00  0.000000D+00  0.000000D+00  0.000000D+00  0.000000D+00
    374   0.000000D+00  0.000000D+00  0.000000D+00  0.000000D+00  0.000000D+00
    375   0.270458D-05  0.342301D-04  0.000000D+00  0.000000D+00 -0.403316D-04
    376   0.236726D-03  0.174590D-02  0.000000D+00  0.000000D+00 -0.114099D-02
    377   0.184340D-02  0.119290D-01  0.000000D+00  0.000000D+00 -0.411190D-02
    378   0.412021D-02  0.259516D-01  0.000000D+00  0.000000D+00 -0.462503D-02
    379   0.000000D+00  0.000000D+00  0.000000D+00  0.000000D+00  0.000000D+00
    380   0.000000D+00  0.000000D+00  0.000000D+00  0.000000D+00  0.000000D+00
    381   0.000000D+00  0.000000D+00  0.000000D+00  0.000000D+00  0.000000D+00
    382   0.000000D+00  0.000000D+00  0.000000D+00  0.000000D+00  0.000000D+00
    383   0.000000D+00  0.000000D+00  0.000000D+00  0.000000D+00  0.000000D+00
    384   0.000000D+00  0.000000D+00  0.000000D+00  0.000000D+00  0.000000D+00
    385   0.000000D+00  0.000000D+00  0.795595D-05  0.000000D+00  0.000000D+00
    386   0.000000D+00  0.000000D+00  0.000000D+00  0.795595D-05  0.000000D+00
    387   0.100278D-04  0.126938D-03  0.000000D+00  0.000000D+00 -0.149857D-03
    388   0.000000D+00  0.000000D+00  0.605138D-03  0.000000D+00  0.000000D+00
    389   0.000000D+00  0.000000D+00  0.000000D+00  0.605138D-03  0.000000D+00
    390   0.133245D-02  0.925104D-02  0.000000D+00  0.000000D+00 -0.516205D-02
    391   0.000000D+00  0.000000D+00  0.305901D-02  0.000000D+00  0.000000D+00
    392   0.000000D+00  0.000000D+00  0.000000D+00  0.305901D-02  0.000000D+00
    393   0.738187D-02  0.463397D-01  0.000000D+00  0.000000D+00 -0.105183D-01
    394   0.000000D+00  0.000000D+00  0.389169D-02  0.000000D+00  0.000000D+00
    395   0.000000D+00  0.000000D+00  0.000000D+00  0.389169D-02  0.000000D+00
    396   0.945725D-02  0.589109D-01  0.000000D+00  0.000000D+00 -0.405216D-02
    397   0.000000D+00  0.000000D+00  0.000000D+00  0.000000D+00  0.000000D+00
    398   0.000000D+00  0.000000D+00  0.000000D+00  0.000000D+00  0.000000D+00
    399   0.000000D+00  0.000000D+00  0.000000D+00  0.000000D+00  0.000000D+00
    400   0.000000D+00  0.000000D+00  0.000000D+00  0.000000D+00  0.000000D+00
    401   0.000000D+00  0.000000D+00  0.000000D+00  0.000000D+00  0.000000D+00
    402   0.000000D+00  0.000000D+00  0.000000D+00  0.000000D+00  0.000000D+00
    403   0.000000D+00  0.000000D+00  0.000000D+00  0.000000D+00  0.000000D+00
    404   0.000000D+00  0.000000D+00  0.000000D+00  0.000000D+00  0.000000D+00
    405   0.000000D+00  0.000000D+00  0.000000D+00  0.000000D+00  0.000000D+00
    406   0.000000D+00  0.000000D+00  0.000000D+00  0.000000D+00  0.000000D+00
    407   0.000000D+00  0.000000D+00  0.000000D+00  0.000000D+00  0.000000D+00
    408   0.000000D+00  0.000000D+00  0.000000D+00  0.000000D+00  0.000000D+00
    409   0.000000D+00  0.000000D+00  0.000000D+00  0.000000D+00  0.000000D+00
    410   0.000000D+00  0.000000D+00  0.000000D+00  0.000000D+00  0.000000D+00
    411   0.000000D+00  0.000000D+00  0.000000D+00  0.000000D+00  0.000000D+00
    412   0.310386D-04  0.370644D-03  0.000000D+00  0.000000D+00 -0.425330D-03
    413   0.000000D+00  0.000000D+00  0.403786D-04  0.000000D+00  0.000000D+00
    414   0.000000D+00  0.000000D+00  0.000000D+00  0.403786D-04  0.000000D+00
    415   0.000000D+00  0.000000D+00  0.000000D+00  0.000000D+00  0.000000D+00
    416   0.000000D+00  0.000000D+00  0.000000D+00  0.000000D+00  0.000000D+00
    417   0.224315D-02  0.154711D-01  0.000000D+00  0.000000D+00 -0.880122D-02
    418   0.000000D+00  0.000000D+00  0.175396D-02  0.000000D+00  0.000000D+00
    419   0.000000D+00  0.000000D+00  0.000000D+00  0.175396D-02  0.000000D+00
    420   0.000000D+00  0.000000D+00  0.000000D+00  0.000000D+00  0.000000D+00
    421   0.000000D+00  0.000000D+00  0.000000D+00  0.000000D+00  0.000000D+00
    422   0.108014D-01  0.669966D-01  0.000000D+00  0.000000D+00 -0.154826D-01
    423   0.000000D+00  0.000000D+00  0.766901D-02  0.000000D+00  0.000000D+00
    424   0.000000D+00  0.000000D+00  0.000000D+00  0.766901D-02  0.000000D+00
    425   0.000000D+00  0.000000D+00  0.000000D+00  0.000000D+00  0.000000D+00
    426   0.000000D+00  0.000000D+00  0.000000D+00  0.000000D+00  0.000000D+00
    427   0.131237D-01  0.807718D-01  0.000000D+00  0.000000D+00 -0.423500D-02
    428   0.000000D+00  0.000000D+00  0.925259D-02  0.000000D+00  0.000000D+00
    429   0.000000D+00  0.000000D+00  0.000000D+00  0.925259D-02  0.000000D+00
    430   0.000000D+00  0.000000D+00  0.000000D+00  0.000000D+00  0.000000D+00
    431   0.000000D+00  0.000000D+00  0.000000D+00  0.000000D+00  0.000000D+00
    432   0.000000D+00  0.000000D+00  0.000000D+00  0.000000D+00  0.000000D+00
    433   0.000000D+00  0.000000D+00  0.000000D+00  0.000000D+00  0.000000D+00
    434   0.000000D+00  0.000000D+00  0.000000D+00  0.000000D+00  0.000000D+00
    435   0.000000D+00  0.000000D+00  0.000000D+00  0.000000D+00  0.000000D+00
    436   0.000000D+00  0.000000D+00  0.000000D+00  0.000000D+00  0.000000D+00
    437   0.000000D+00  0.000000D+00  0.000000D+00  0.000000D+00  0.000000D+00
    438   0.000000D+00  0.000000D+00  0.000000D+00  0.000000D+00  0.000000D+00
    439   0.000000D+00  0.000000D+00  0.000000D+00  0.000000D+00  0.000000D+00
    440   0.000000D+00  0.000000D+00  0.000000D+00  0.000000D+00  0.000000D+00
    441   0.000000D+00  0.000000D+00  0.000000D+00  0.000000D+00  0.000000D+00
    442   0.000000D+00  0.000000D+00  0.000000D+00  0.000000D+00  0.000000D+00
    443   0.000000D+00  0.000000D+00  0.000000D+00  0.000000D+00  0.000000D+00
    444   0.000000D+00  0.000000D+00  0.000000D+00  0.000000D+00  0.000000D+00
    445   0.000000D+00  0.000000D+00  0.000000D+00  0.000000D+00  0.000000D+00
    446   0.000000D+00  0.260477D-04  0.000000D+00  0.000000D+00 -0.407730D-04
    447   0.000000D+00  0.000000D+00  0.386543D-05  0.000000D+00  0.000000D+00
    448   0.000000D+00  0.000000D+00  0.000000D+00  0.386543D-05  0.000000D+00
    449   0.000000D+00  0.000000D+00  0.000000D+00  0.000000D+00  0.000000D+00
    450   0.000000D+00  0.000000D+00  0.000000D+00  0.000000D+00  0.000000D+00
    451   0.000000D+00  0.000000D+00  0.000000D+00  0.000000D+00  0.000000D+00
    452   0.000000D+00  0.000000D+00  0.000000D+00  0.000000D+00  0.000000D+00
    453   0.675356D-03  0.548351D-02  0.000000D+00  0.000000D+00 -0.454983D-02
    454   0.000000D+00  0.000000D+00  0.867479D-03  0.000000D+00  0.000000D+00
    455   0.000000D+00  0.000000D+00  0.000000D+00  0.867479D-03  0.000000D+00
    456   0.000000D+00  0.000000D+00  0.000000D+00  0.000000D+00  0.000000D+00
    457   0.000000D+00  0.000000D+00  0.000000D+00  0.000000D+00  0.000000D+00
    458   0.000000D+00  0.000000D+00  0.000000D+00  0.000000D+00  0.000000D+00
    459   0.000000D+00  0.000000D+00  0.000000D+00  0.000000D+00  0.000000D+00
[...]
                     Sum of ba pair energies =    -0.123714 A.U.
                     Sum of aa pair energies =    -0.105351 A.U.
                     Sum of bb pair energies =    -0.087140 A.U.

           Sum of intraorbital pair energies =    -0.166719 A.U.
           Sum of interorbital pair energies =    -0.479233 A.U.
                                                  ----------
                         Total pair energies =    -0.645952 A.U.

                         Single Excitations  =    -0.003523 A.U.

                          Total second order =    -0.649475 A.U.

                         E2(CBS) - E2(Dir) =      -0.005734 A.U.

 E2(CBS)=      -0.651674 CBS-Int=       0.002199 OIii=       3.497244

 **********************************************************************

            Population analysis using the SCF density.

 **********************************************************************

 Orbital symmetries:
       Occupied  (SG) (SG) (PI) (SG) (PI) (SG) (SG) (SG) (PI) (PI)
                 (SG) (?A) (?B) (?A) (?A) (?B) (?A) (?B)
       Virtual   (SG) (?B) (?B) (?B) (SG) (SG) (DLTA) (DLTA) (PI)
                 (PI) (SG) (SG) (?B) (?B) (SG) (PI) (PI) (?A) (?A)
                 (?A) (?B) (?A) (?B) (SG) (SG) (PI) (PI) (?C) (?C)
                 (PI) (SG) (PI) (?C) (PHI) (PHI) (?B) (?B) (SG)
                 (?C) (?C) (?B) (?B) (?D) (?D) (?D) (SG) (?B) (?B)
                 (?B) (?B) (SG) (PHI) (PHI) (SG) (?E) (?E) (?E)
                 (PI) (PI) (?E) (?E) (?F) (?F) (PI) (PI) (SG) (PHI)
                 (PHI) (SG) (DLTA) (DLTA) (?G) (?G) (SG) (?G) (?G)
                 (?G) (?G) (?H) (?H) (?G) (?G) (?H) (?H) (?H) (?H)
                 (?H) (SG) (PI) (PI) (SG) (PHI) (PHI) (?I) (?I)
                 (?J) (?J) (?I) (?I) (?J) (?J) (?I) (?I) (?J) (?J)
                 (?J) (?K) (?K) (?F) (?F) (PI) (PI) (DLTA) (DLTA)
                 (SG) (PI) (PI) (?L) (?L) (?L) (?L) (?L) (?L) (?L)
                 (?L) (?L) (?L) (?L) (?F) (?F) (SG) (?L) (?L) (?L)
                 (?L) (PI) (PI) (?A) (?L) (?L) (?L) (SG) (?L) (?A)
                 (?A) (?A) (?L) (?L) (?L) (?L) (?A) (?A) (?L) (?L)
                 (?A) (?A) (?L) (?L) (?F) (?F) (?L) (?L) (?L) (?L)
                 (?L) (?K) (?K) (SG) (SG) (?L) (?L) (?L) (?L) (?L)
                 (?L) (?L) (?L) (?L) (?L) (SG) (PI) (PI) (?L) (?L)
                 (?L) (?K) (?K) (?L) (?L) (?L) (?L) (?L) (?L) (?L)
                 (?L) (?L) (?L) (PI) (PI) (?F) (?F) (PHI) (PHI)
                 (SG) (?L) (?L) (?L) (PI) (PI) (?K) (?K) (?F) (?F)
                 (?L) (?L) (?L) (?L) (?L) (?L) (?L) (?L) (?L) (?F)
                 (?F) (SG) (?L) (?L) (?L) (?L) (?F) (?F) (?L) (?L)
                 (?L) (?L) (?L) (?L) (?L) (?L) (?L) (?L) (?L) (PI)
                 (PI) (?L) (?L) (SG) (DLTA) (DLTA) (?L) (?L) (SG)
                 (SG) (PI) (PI) (SG) (?K) (?K) (?A) (?F) (?F) (?A)
                 (?L) (?L) (?F) (?F) (SG) (?L) (?L) (?A) (?A) (?L)
                 (?L) (?L) (?L) (?L) (PHI) (PHI) (?L) (?L) (?L)
                 (?L) (PI) (PI) (?L) (?L) (?L) (?L) (PI) (PI) (DLTA)
                 (DLTA) (SG) (PI) (PI) (SG) (PI) (PI) (SG) (SG)
                 (?K) (?K) (?L) (?L) (?L) (?L) (?L) (?L) (?L) (?L)
                 (SG) (SG) (?L) (?K) (?K) (?F) (?F) (PHI) (PHI)
                 (SG) (DLTA) (DLTA) (PI) (PI) (?K) (?K) (?F) (?F)
                 (?L) (?L) (?L) (?F) (?F) (?L) (?L) (?L) (?L) (?L)
                 (?L) (?L) (?L) (?L) (?L) (?L) (PI) (PI) (PI) (?L)
                 (?L) (PI) (?K) (?K) (?L) (?F) (?F) (SG) (PHI)
                 (PHI) (SG) (PI) (PI) (DLTA) (DLTA) (PI) (PI) (SG)
                 (PI) (PI) (?F) (?F) (PHI) (PHI) (PHI) (PHI) (?L)
                 (?L) (?L) (PI) (PI) (?L) (?L) (?L) (PI) (PI) (?L)
                 (?L) (?L) (?L) (?L) (PI) (?L) (PI) (SG) (PI) (PI)
                 (?L) (?L) (?L) (?L) (?L) (?L) (?L) (?L) (?L) (?L)
                 (?L) (?L) (?L) (?L) (?L) (PI) (PI) (?L) (?L) (PI)
                 (PI) (?L) (?L) (SG) (PHI) (PHI) (?L) (?L) (?L)
                 (PI) (PI) (SG) (?L) (?L) (SG) (SG) (?L) (?L) (?L)
                 (?L) (?L) (?L) (?L) (?L) (?L) (?F) (?F) (?L) (?L)
                 (?L) (?L) (?L) (?L) (?K) (?K) (?L) (?L) (?L) (?L)
                 (?L) (?L) (?L) (?L) (?L) (?L) (?L) (?L) (?L) (?L)
                 (?L) (?L) (?L) (?L) (?L) (?L) (?L) (?L) (?L) (?L)
                 (?L) (DLTA) (DLTA) (PI) (PI) (SG) (?K) (?K) (?F)
                 (?F) (?L) (?L) (?L) (?L) (?L) (?L) (?L) (PI) (PI)
                 (PHI) (PHI) (SG) (DLTA) (DLTA) (PI) (PI) (SG)
                 (?F) (?F) (PHI) (PHI) (DLTA) (DLTA) (PI) (PI)
                 (SG) (DLTA) (DLTA) (PI) (PI) (SG) (?L) (?L) (?L)
                 (?L) (?L) (?L) (?L) (?L) (?L) (?L) (?L) (?L) (?L)
                 (?L) (?L) (?L) (?L) (PI) (PI) (SG) (DLTA) (DLTA)
                 (PI) (PI) (SG) (?L) (?L) (?L) (?L) (?L) (?L) (?L)
                 (?L) (?L) (?L) (?L) (?L) (?L) (?L) (?L) (SG) (?F)
                 (?F) (?L) (?L) (?L) (?L) (?L) (?L) (?L) (?L) (?L)
                 (?L) (?L) (SG) (SG) (?L) (?L) (?L) (?L) (?L) (?L)
                 (?L) (?L) (?L) (?L) (?L) (?L) (?L) (?L) (?L) (?L)
                 (?L) (?L) (PHI) (PHI) (?L) (?L) (PI) (PI) (?L)
                 (SG) (SG)
 Unable to determine electronic state:  an orbital has unidentified symmetry.
 Alpha  occ. eigenvalues -- -305.93574 -38.23289 -33.27113 -33.26796 -33.23673
 Alpha  occ. eigenvalues --  -20.84822  -5.20206  -3.60897  -3.60240  -3.58285
 Alpha  occ. eigenvalues --   -1.56617  -1.06165  -1.00716  -0.97696  -0.95315
 Alpha  occ. eigenvalues --   -0.83429  -0.76817  -0.76608
 Alpha virt. eigenvalues --   -0.25772  -0.19764  -0.13319  -0.11795  -0.08954
 Alpha virt. eigenvalues --   -0.08405  -0.05236  -0.05236  -0.04746  -0.04584
 Alpha virt. eigenvalues --   -0.03640  -0.02604  -0.00832  -0.00817   0.01569
 Alpha virt. eigenvalues --    0.05232   0.05678   0.06864   0.07120   0.07232
 Alpha virt. eigenvalues --    0.08484   0.08913   0.09108   0.15769   0.19951
 Alpha virt. eigenvalues --    0.21659   0.21987   0.28052   0.28096   0.30331
 Alpha virt. eigenvalues --    0.31391   0.31591   0.33845   0.38907   0.38908
 Alpha virt. eigenvalues --    0.41274   0.42922   0.44263   0.46106   0.46136
 Alpha virt. eigenvalues --    0.46890   0.47364   0.50289   0.50293   0.50382
 Alpha virt. eigenvalues --    0.65828   0.65842   0.67452   0.70530   0.70984
 Alpha virt. eigenvalues --    0.73799   0.75242   0.75242   0.80965   0.91861
 Alpha virt. eigenvalues --    0.93114   0.93301   0.94598   0.96229   0.97471
 Alpha virt. eigenvalues --    0.97490   1.04057   1.04057   1.07021   1.08965
 Alpha virt. eigenvalues --    1.10457   1.16528   1.16529   1.19347   1.24066
 Alpha virt. eigenvalues --    1.24072   1.30111   1.30477   1.34371   1.34746
 Alpha virt. eigenvalues --    1.35790   1.35830   1.36840   1.47194   1.47217
 Alpha virt. eigenvalues --    1.48331   1.49835   1.54093   1.54111   1.55599
 Alpha virt. eigenvalues --    1.55601   1.58615   1.60038   1.69327   1.70653
 Alpha virt. eigenvalues --    1.72320   1.82208   1.82208   2.00963   2.02312
 Alpha virt. eigenvalues --    2.04269   2.09835   2.10505   2.10852   2.11650
 Alpha virt. eigenvalues --    2.11668   2.11751   2.12355   2.21795   2.23467
 Alpha virt. eigenvalues --    2.23473   2.29688   2.29688   2.38225   2.38225
 Alpha virt. eigenvalues --    2.45134   2.46887   2.48528   2.48593   2.61619
 Alpha virt. eigenvalues --    2.69304   2.70428   2.70600   2.74581   2.74581
 Alpha virt. eigenvalues --    2.74751   2.74845   2.79212   2.79212   2.91114
 Alpha virt. eigenvalues --    2.91141   2.95414   2.97522   2.98920   2.98920
 Alpha virt. eigenvalues --    3.09372   3.12414   3.12414   3.16886   3.16901
 Alpha virt. eigenvalues --    3.20216   3.21186   3.28276   3.33218   3.33222
 Alpha virt. eigenvalues --    3.36787   3.36864   3.37302   3.55212   3.63747
 Alpha virt. eigenvalues --    3.63969   3.72039   3.72589   3.75205   3.75209
 Alpha virt. eigenvalues --    3.82659   3.82680   3.82762   3.84280   3.86196
 Alpha virt. eigenvalues --    4.00835   4.01294   4.01775   4.09748   4.09749
 Alpha virt. eigenvalues --    4.20710   4.20711   4.24282   4.24335   4.28977
 Alpha virt. eigenvalues --    4.41990   4.41990   4.53802   4.53802   4.55422
 Alpha virt. eigenvalues --    4.55443   4.71779   4.71780   4.72925   4.72946
 Alpha virt. eigenvalues --    4.73909   4.75231   4.75231   4.75924   4.78653
 Alpha virt. eigenvalues --    4.86223   4.87535   5.03400   5.04404   5.07612
 Alpha virt. eigenvalues --    5.10216   5.10216   5.20201   5.20683   5.21798
 Alpha virt. eigenvalues --    5.35524   5.35916   5.37468   5.37469   5.52441
 Alpha virt. eigenvalues --    5.61241   5.61379   5.67911   5.69822   5.73956
 Alpha virt. eigenvalues --    5.73956   5.87734   5.87734   5.99740   6.09697
 Alpha virt. eigenvalues --    6.14028   6.14412   6.20681   6.21236   6.29048
 Alpha virt. eigenvalues --    6.29048   6.35558   6.35558   6.51081   6.51485
 Alpha virt. eigenvalues --    6.56442   6.70687   6.70688   6.76791   6.76832
 Alpha virt. eigenvalues --    6.79882   6.81008   7.05544   7.05544   7.08760
 Alpha virt. eigenvalues --    7.26793   7.26794   7.27168   7.27170   7.34850
 Alpha virt. eigenvalues --    7.35019   7.35019   7.37866   7.51261   7.51265
 Alpha virt. eigenvalues --    7.59568   7.59576   7.66614   7.66680   7.68272
 Alpha virt. eigenvalues --    7.68272   7.76057   7.92446   7.97893   7.97951
 Alpha virt. eigenvalues --    7.98138   8.17381   8.43414   8.43440   8.51396
 Alpha virt. eigenvalues --    8.51396   8.51689   8.51689   8.54134   8.54576
 Alpha virt. eigenvalues --    8.56543   8.66841   8.66841   8.69351   9.06912
 Alpha virt. eigenvalues --    9.06913   9.15396   9.17006   9.17566   9.24212
 Alpha virt. eigenvalues --    9.24212   9.29472   9.39576   9.39576   9.62765
 Alpha virt. eigenvalues --    9.62974   9.70447   9.70502   9.72996   9.73357
 Alpha virt. eigenvalues --    9.91895   9.95678   9.95680   9.99400   9.99513
 Alpha virt. eigenvalues --   10.01093  10.01261  10.12328  10.14754  10.37008
 Alpha virt. eigenvalues --   10.55437  10.55649  10.62732  10.90925  10.92007
 Alpha virt. eigenvalues --   11.01524  11.01532  11.58891  11.60895  11.61553
 Alpha virt. eigenvalues --   11.79792  12.05263  12.06053  12.34638  12.34638
 Alpha virt. eigenvalues --   12.36107  12.36107  12.48800  12.48856  12.54842
 Alpha virt. eigenvalues --   12.54843  12.61443  12.63045  12.79016  12.79024
 Alpha virt. eigenvalues --   13.00853  13.00853  13.01432  13.06165  13.06165
 Alpha virt. eigenvalues --   13.22706  13.22706  13.65357  13.65358  13.84515
 Alpha virt. eigenvalues --   14.19671  14.19693  14.47693  14.49296  14.70098
 Alpha virt. eigenvalues --   14.70098  14.71771  14.71771  14.82268  14.97116
 Alpha virt. eigenvalues --   14.97129  15.16499  15.16499  15.36064  15.36160
 Alpha virt. eigenvalues --   15.37939  15.43283  15.44253  15.44274  15.60238
 Alpha virt. eigenvalues --   15.60244  15.65152  15.91995  15.92179  16.36350
 Alpha virt. eigenvalues --   16.39396  16.55986  16.58630  16.58757  16.63727
 Alpha virt. eigenvalues --   16.76520  16.76520  16.83946  16.86415  16.86415
 Alpha virt. eigenvalues --   17.06388  17.19993  17.19994  17.33638  17.40958
 Alpha virt. eigenvalues --   17.41285  17.84046  17.84071  17.86060  17.86088
 Alpha virt. eigenvalues --   18.40901  18.94222  18.96678  19.50161  19.50161
 Alpha virt. eigenvalues --   19.64969  19.64971  19.81900  19.81901  19.93249
 Alpha virt. eigenvalues --   19.94231  19.98734  20.33754  20.37623  20.48713
 Alpha virt. eigenvalues --   20.48802  20.60533  21.61412  21.64046  21.81316
 Alpha virt. eigenvalues --   21.86687  21.86739  22.63771  22.80729  22.80913
 Alpha virt. eigenvalues --   22.82251  22.84238  23.20488  23.64170  23.70471
 Alpha virt. eigenvalues --   23.93338  23.93338  23.94825  23.94826  23.96271
 Alpha virt. eigenvalues --   23.96271  24.03207  24.03208  24.21701  24.21786
 Alpha virt. eigenvalues --   24.40948  24.41902  24.42348  24.48133  24.60531
 Alpha virt. eigenvalues --   25.00056  25.00056  25.00549  25.00549  25.02280
 Alpha virt. eigenvalues --   25.02280  25.13761  25.13762  25.18834  25.40378
 Alpha virt. eigenvalues --   25.40379  25.51676  25.52195  25.63195  26.04663
 Alpha virt. eigenvalues --   26.06155  28.08050  29.93969  29.93969  29.95980
 Alpha virt. eigenvalues --   29.95980  30.01860  30.01867  30.14033  30.14097
 Alpha virt. eigenvalues --   30.22242  30.23302  30.46743  30.51556  30.55012
 Alpha virt. eigenvalues --   32.40005  32.40005  32.52585  32.52595  32.79100
 Alpha virt. eigenvalues --   32.79371  32.93232  32.93232  32.94799  32.94799
 Alpha virt. eigenvalues --   33.02721  33.08939  33.09279  33.09967  33.43649
 Alpha virt. eigenvalues --   33.54647  33.54700  33.55214  33.60468  33.60468
 Alpha virt. eigenvalues --   33.63331  33.63331  33.63654  33.70711  33.70712
 Alpha virt. eigenvalues --   33.82285  33.88902  33.88905  34.26720  34.26729
 Alpha virt. eigenvalues --   34.61513  34.61515  34.75084  34.75173  34.83899
 Alpha virt. eigenvalues --   35.10339  35.10430  36.27455  36.34235  36.47138
 Alpha virt. eigenvalues --   38.57483  38.57483  38.63916  38.63916  38.82331
 Alpha virt. eigenvalues --   38.82339  39.09798  39.10163  39.15646  39.19450
 Alpha virt. eigenvalues --   39.28226  40.40162  40.50394  41.26578  41.26579
 Alpha virt. eigenvalues --   41.32559  41.57662  41.57738  42.11556  42.15294
 Alpha virt. eigenvalues --   42.33961  42.43491  42.43491  42.56351  42.56352
 Alpha virt. eigenvalues --   42.96084  42.96152  43.66600  43.70281  43.76933
 Alpha virt. eigenvalues --   46.38541  46.38559  46.90918  46.94116  47.62391
 Alpha virt. eigenvalues --   49.25448  49.25618  49.27624  49.27705  49.30781
 Alpha virt. eigenvalues --   49.30824  49.32216  49.32463  49.33158  49.34562
 Alpha virt. eigenvalues --   49.34604  49.35461  49.35693  49.38665  49.38665
 Alpha virt. eigenvalues --   49.41704  49.42094  52.48735  52.52022  54.96548
 Alpha virt. eigenvalues --   59.74394  59.74467  60.44242  60.51538  61.13593
 Alpha virt. eigenvalues --   63.62654  63.62678  63.63975  63.64010  63.65685
 Alpha virt. eigenvalues --   63.65911  63.69009  63.69009  63.71171  63.73298
 Alpha virt. eigenvalues --   63.74056  63.79513  63.80513  63.89162  63.89658
 Alpha virt. eigenvalues --   64.15912  71.63129  71.63129  71.69280  71.69311
 Alpha virt. eigenvalues --   71.92202  71.92875  72.04551  72.13659  72.28285
 Alpha virt. eigenvalues --   72.37269  72.37271  72.39386  72.39419  72.41326
 Alpha virt. eigenvalues --   72.41326  72.47064  72.47251  72.52804  72.53130
 Alpha virt. eigenvalues --   72.74887  72.85899  72.99458  75.45835  75.45838
 Alpha virt. eigenvalues --   75.48822  75.48823  75.53640  75.53722  75.80474
 Alpha virt. eigenvalues --   75.83805  75.89810  75.97452  76.00110  79.19374
 Alpha virt. eigenvalues --   79.19375  79.42724  79.42895  80.16324  80.24220
 Alpha virt. eigenvalues --   80.56152 107.84351 808.23560
          Condensed to atoms (all electrons):
              1          2
     1  Ni  26.295376   0.165200
     2  O    0.165200   8.374223
 Mulliken atomic charges:
              1
     1  Ni   1.539424
     2  O   -0.539424
 Sum of Mulliken atomic charges =   1.00000
 Mulliken charges with hydrogens summed into heavy atoms:
              1
     1  Ni   1.539424
     2  O   -0.539424
 Sum of Mulliken charges with hydrogens summed into heavy atoms =   1.00000
          Atomic-Atomic Spin Densities.
              1          2
     1  Ni   0.028484   0.000116
     2  O    0.000116   0.971284
 Mulliken atomic spin densities:
              1
     1  Ni   0.028600
     2  O    0.971400
 Sum of Mulliken atomic spin densities =   1.00000
 Electronic spatial extent (au):  <R**2>=             89.7683
 Charge=              1.0000 electrons
 Dipole moment (field-independent basis, Debye):
    X=              0.0000    Y=              0.0000    Z=              5.4740  Tot=              5.4740
 Quadrupole moment (field-independent basis, Debye-Ang):
   XX=            -14.4044   YY=            -14.0199   ZZ=            -14.3489
   XY=              0.0000   XZ=              0.0000   YZ=              0.0000
 Traceless Quadrupole moment (field-independent basis, Debye-Ang):
   XX=             -0.1467   YY=              0.2378   ZZ=             -0.0912
   XY=              0.0000   XZ=              0.0000   YZ=              0.0000
 Octapole moment (field-independent basis, Debye-Ang**2):
  XXX=              0.0000  YYY=              0.0000  ZZZ=             16.5985  XYY=              0.0000
  XXY=              0.0000  XXZ=              5.0124  XZZ=              0.0000  YZZ=              0.0000
  YYZ=              3.3326  XYZ=              0.0000
 Hexadecapole moment (field-independent basis, Debye-Ang**3):
 XXXX=             -9.9886 YYYY=             -8.5788 ZZZZ=            -68.3302 XXXY=              0.0000
 XXXZ=              0.0000 YYYX=              0.0000 YYYZ=              0.0000 ZZZX=              0.0000
 ZZZY=              0.0000 XXYY=             -3.0927 XXZZ=            -12.5656 YYZZ=            -11.3893
 XXYZ=              0.0000 YYXZ=              0.0000 ZZXY=              0.0000
 N-N= 7.338853547231D+01 E-N=-5.862852262783D+03  KE= 2.371025223748D+03
                          Isotropic Fermi Contact Couplings
        Atom                 a.u.       MegaHertz       Gauss      10(-4) cm-1
     1  Ni(61)             0.00000       0.00000       0.00000       0.00000
     2  O(17)              0.00000       0.00000       0.00000       0.00000
 --------------------------------------------------------
       Center         ----  Spin Dipole Couplings  ----
                      3XX-RR        3YY-RR        3ZZ-RR
 --------------------------------------------------------
     1   Atom       -0.202896      0.172575      0.030320
     2   Atom       -1.917568      3.829683     -1.912115
 --------------------------------------------------------
                        XY            XZ            YZ
 --------------------------------------------------------
     1   Atom        0.000000      0.000000      0.000000
     2   Atom        0.000000      0.000000      0.000000
 --------------------------------------------------------


 ---------------------------------------------------------------------------------
              Anisotropic Spin Dipole Couplings in Principal Axis System
 ---------------------------------------------------------------------------------

       Atom             a.u.   MegaHertz   Gauss  10(-4) cm-1        Axes

              Baa    -0.2029     9.691     3.458     3.232  1.0000  0.0000  0.0000
     1 Ni(61) Bbb     0.0303    -1.448    -0.517    -0.483  0.0000  0.0000  1.0000
              Bcc     0.1726    -8.243    -2.941    -2.749  0.0000  1.0000  0.0000
 
              Baa    -1.9176   138.754    49.511    46.283  1.0000  0.0000  0.0000
     2 O(17)  Bbb    -1.9121   138.359    49.370    46.152  0.0000  0.0000  1.0000
              Bcc     3.8297  -277.113   -98.881   -92.435  0.0000  1.0000  0.0000
 

 ---------------------------------------------------------------------------------


 Test job not archived.
 1\1\GINC-N34\SP\ROMP2-FC\Gen\Ni1O1(1+,2)\GPETERSSON\11-Dec-2013\0\\# R
 OMP2 Gen GFinput Int=NoBasisTransform Guess=Read scf=(symm,tight) IOP(
 3/32=2,5/6=8,9/33=1) SCFcyc=500 CBSextrapolate(Nmin=25,MinPop)\\NiO+ 2
 Pi\\1,2\Ni\O,1,1.61518\\Version=EM64L-G09RevA.02\HF=-1581.3068368\MP2=
 -1581.9527768\E2(CBS)=-0.6516741\CBS-Int=-0.6494752\OIii=3.4972435\RMS
 D=7.152e-10\PG=C*V [C*(O1Ni1)]\\@


 QUHEN THE CAUSS IS TAKEN AWAY THE EFFECT WANISHETH.
 -- PROVERBS AND REASONS OF THE YEAR 1585
           AS REPRINTED IN PAISLEY MAGAZINE 1828.
 Job cpu time:  3 days 16 hours 42 minutes 59.3 seconds.
 File lengths (MBytes):  RWF=  61660 Int=      0 D2E=      0 Chk=     38 Scr=      1
 Normal termination of Gaussian 09 at Wed Dec 11 16:51:28 2013.
