 Entering Gaussian System, Link 0=g09
 AtFile(1): 7ZaPa-NR.gbs
 Initial command:
 /share/apps/gaussian/g09root/g09/l1.exe /localscratch/74037/Gau-17948.inp -scrdir=/localscratch/74037/
 Entering Link 1 = /share/apps/gaussian/g09root/g09/l1.exe PID=     17949.
  
 Copyright (c) 1988,1990,1992,1993,1995,1998,2003,2009, Gaussian, Inc.
                  All Rights Reserved.
  
 This is part of the Gaussian(R) 09 program.  It is based on
 the Gaussian(R) 03 system (copyright 2003, Gaussian, Inc.),
 the Gaussian(R) 98 system (copyright 1998, Gaussian, Inc.),
 the Gaussian(R) 94 system (copyright 1995, Gaussian, Inc.),
 the Gaussian 92(TM) system (copyright 1992, Gaussian, Inc.),
 the Gaussian 90(TM) system (copyright 1990, Gaussian, Inc.),
 the Gaussian 88(TM) system (copyright 1988, Gaussian, Inc.),
 the Gaussian 86(TM) system (copyright 1986, Carnegie Mellon
 University), and the Gaussian 82(TM) system (copyright 1983,
 Carnegie Mellon University). Gaussian is a federally registered
 trademark of Gaussian, Inc.
  
 This software contains proprietary and confidential information,
 including trade secrets, belonging to Gaussian, Inc.
  
 This software is provided under written license and may be
 used, copied, transmitted, or stored only in accord with that
 written license.
  
 The following legend is applicable only to US Government
 contracts under FAR:
  
                    RESTRICTED RIGHTS LEGEND
  
 Use, reproduction and disclosure by the US Government is
 subject to restrictions as set forth in subparagraphs (a)
 and (c) of the Commercial Computer Software - Restricted
 Rights clause in FAR 52.227-19.
  
 Gaussian, Inc.
 340 Quinnipiac St., Bldg. 40, Wallingford CT 06492
  
  
 ---------------------------------------------------------------
 Warning -- This program may not be used in any manner that
 competes with the business of Gaussian, Inc. or will provide
 assistance to any competitor of Gaussian, Inc.  The licensee
 of this program is prohibited from giving any competitor of
 Gaussian, Inc. access to this program.  By using this program,
 the user acknowledges that Gaussian, Inc. is engaged in the
 business of creating and licensing software in the field of
 computational chemistry and represents and warrants to the
 licensee that it is not a competitor of Gaussian, Inc. and that
 it will not use this program in any manner prohibited above.
 ---------------------------------------------------------------
  

 Cite this work as:
 Gaussian 09, Revision A.02,
 M. J. Frisch, G. W. Trucks, H. B. Schlegel, G. E. Scuseria, 
 M. A. Robb, J. R. Cheeseman, G. Scalmani, V. Barone, B. Mennucci, 
 G. A. Petersson, H. Nakatsuji, M. Caricato, X. Li, H. P. Hratchian, 
 A. F. Izmaylov, J. Bloino, G. Zheng, J. L. Sonnenberg, M. Hada, 
 M. Ehara, K. Toyota, R. Fukuda, J. Hasegawa, M. Ishida, T. Nakajima, 
 Y. Honda, O. Kitao, H. Nakai, T. Vreven, J. A. Montgomery, Jr., 
 J. E. Peralta, F. Ogliaro, M. Bearpark, J. J. Heyd, E. Brothers, 
 K. N. Kudin, V. N. Staroverov, R. Kobayashi, J. Normand, 
 K. Raghavachari, A. Rendell, J. C. Burant, S. S. Iyengar, J. Tomasi, 
 M. Cossi, N. Rega, J. M. Millam, M. Klene, J. E. Knox, J. B. Cross, 
 V. Bakken, C. Adamo, J. Jaramillo, R. Gomperts, R. E. Stratmann, 
 O. Yazyev, A. J. Austin, R. Cammi, C. Pomelli, J. W. Ochterski, 
 R. L. Martin, K. Morokuma, V. G. Zakrzewski, G. A. Voth, 
 P. Salvador, J. J. Dannenberg, S. Dapprich, A. D. Daniels, 
 O. Farkas, J. B. Foresman, J. V. Ortiz, J. Cioslowski, 
 and D. J. Fox, Gaussian, Inc., Wallingford CT, 2009.
 
 ******************************************
 Gaussian 09:  EM64L-G09RevA.02 11-Jun-2009
                16-Dec-2013 
 ******************************************
 % Mem=128GB
 % Nproc=16
 Will use up to   16 processors via shared memory.
 % Chk=NiO-.chk
 ----------------------------------------------------------------------
 #p ROMP2 GFinput Int=NoBasisTransform Guess=Read Gen scf=(symm,tight) 
 IOP(3/32=2,5/6=8,9/33=1) SCFcyc=500 CBSextrapolate(Nmin=25,MinPop) Int
 (Grid=Ultrafine)
 ----------------------------------------------------------------------
 1/38=1/1;
 2/12=2,17=6,18=5,40=1/2;
 3/5=7,11=2,16=1,24=10,25=1,30=1,32=2,60=-1,75=-5,116=101/1,2,3;
 4/5=1,9=4/1;
 5/5=2,6=8,7=500,15=2,32=2,38=6/2;
 8/5=-1,10=1/1;
 9/16=-3,33=1,75=2,81=25,83=4/6,4;
 6/7=2,8=2,9=2,10=2/1;
 99/5=1,9=1/99;
 Leave Link    1 at Mon Dec 16 13:57:36 2013, MaxMem=17179869184 cpu:       1.7
 (Enter /share/apps/gaussian/g09root/g09/l101.exe)
 --------
 NiO- 2Pi
 --------
 Symbolic Z-matrix:
 Charge = -1 Multiplicity = 2
 Ni
 O                    1    R
       Variables:
  R                     1.62626                  
 
 NAtoms=      2 NQM=      2 NQMF=      0 NMic=      0 NMicF=      0 NTot=      2.
                    Isotopes and Nuclear Properties:
 (Nuclear quadrupole moments (NQMom) in fm**2, nuclear magnetic moments (NMagM)
  in nuclear magnetons)

  Atom         1           2
 IAtWgt=          58          16
 AtmWgt=  57.9353471  15.9949146
 NucSpn=           0           0
 AtZEff=   0.0000000   0.0000000
 NQMom=    0.0000000   0.0000000
 NMagM=    0.0000000   0.0000000
 Leave Link  101 at Mon Dec 16 13:57:36 2013, MaxMem=17179869184 cpu:       0.9
 (Enter /share/apps/gaussian/g09root/g09/l202.exe)
                          Input orientation:                          
 ---------------------------------------------------------------------
 Center     Atomic      Atomic             Coordinates (Angstroms)
 Number     Number       Type             X           Y           Z
 ---------------------------------------------------------------------
      1         28           0        0.000000    0.000000    0.000000
      2          8           0        0.000000    0.000000    1.626260
 ---------------------------------------------------------------------
 Stoichiometry    NiO(1-,2)
 Framework group  C*V[C*(ONi)]
 Deg. of freedom     1
 Full point group                 C*V     NOp   4
 Largest Abelian subgroup         C2V     NOp   4
 Largest concise Abelian subgroup C1      NOp   1
                         Standard orientation:                         
 ---------------------------------------------------------------------
 Center     Atomic      Atomic             Coordinates (Angstroms)
 Number     Number       Type             X           Y           Z
 ---------------------------------------------------------------------
      1         28           0        0.000000    0.000000    0.361391
      2          8           0        0.000000    0.000000   -1.264869
 ---------------------------------------------------------------------
 Rotational constants (GHZ):      0.0000000     15.2452286     15.2452286
 Leave Link  202 at Mon Dec 16 13:57:36 2013, MaxMem=17179869184 cpu:       0.1
 (Enter /share/apps/gaussian/g09root/g09/l301.exe)
 General basis read from cards:  (5D, 7F)
 Centers:   2
 S 16 1.00 0.000000000000
     Exponent=  1.4112464100D+06 Coefficients=  1.6274298220D-06
     Exponent=  2.4991022400D+05 Coefficients=  1.0926219960D-05
     Exponent=  5.6034105800D+04 Coefficients=  6.2387418670D-05
     Exponent=  1.5211536400D+04 Coefficients=  2.7833034910D-04
     Exponent=  4.8122877500D+03 Coefficients=  1.0405418720D-03
     Exponent=  1.7177554600D+03 Coefficients=  3.3803927930D-03
     Exponent=  6.7339582400D+02 Coefficients=  9.8284847640D-03
     Exponent=  2.8351018400D+02 Coefficients=  2.6053101290D-02
     Exponent=  1.2586200700D+02 Coefficients=  6.2808180570D-02
     Exponent=  5.8044722000D+01 Coefficients=  1.3482020750D-01
     Exponent=  2.7471985000D+01 Coefficients=  2.4355634600D-01
     Exponent=  1.3210629000D+01 Coefficients=  3.3232873780D-01
     Exponent=  6.3998060000D+00 Coefficients=  2.6079304830D-01
     Exponent=  3.0996140000D+00 Coefficients=  7.4308343260D-02
     Exponent=  1.4898560000D+00 Coefficients=  4.1895380740D-03
     Exponent=  7.0520100000D-01 Coefficients=  8.7064557240D-04
 S 11 1.00 0.000000000000
     Exponent=  2.8351018400D+02 Coefficients= -1.1225880940D-04
     Exponent=  1.2586200700D+02 Coefficients= -5.5593356170D-04
     Exponent=  5.8044722000D+01 Coefficients= -2.8516879040D-03
     Exponent=  2.7471985000D+01 Coefficients= -1.1334949950D-02
     Exponent=  1.3210629000D+01 Coefficients= -3.6579777040D-02
     Exponent=  6.3998060000D+00 Coefficients= -7.2889941970D-02
     Exponent=  3.0996140000D+00 Coefficients= -1.0620323560D-02
     Exponent=  1.4898560000D+00 Coefficients=  2.1967055720D-01
     Exponent=  7.0520100000D-01 Coefficients=  4.2948320720D-01
     Exponent=  3.2584800000D-01 Coefficients=  3.7758328490D-01
     Exponent=  1.4546000000D-01 Coefficients=  9.6402612550D-02
 S 1 1.00 0.000000000000
     Exponent=  5.8142978700D-02 Coefficients=  1.0000000000D+00
 P 13 1.00 0.000000000000
     Exponent=  2.0852792000D+03 Coefficients=  1.4479117400D-05
     Exponent=  5.1014708300D+02 Coefficients=  1.2832335880D-04
     Exponent=  1.6168115100D+02 Coefficients=  7.7927900070D-04
     Exponent=  6.1149452000D+01 Coefficients=  3.4005060490D-03
     Exponent=  2.5976602000D+01 Coefficients=  1.1576852140D-02
     Exponent=  1.1875426000D+01 Coefficients=  3.2697403390D-02
     Exponent=  5.6771330000D+00 Coefficients=  8.0114042420D-02
     Exponent=  2.7864750000D+00 Coefficients=  1.6052650570D-01
     Exponent=  1.3878440000D+00 Coefficients=  2.4604950260D-01
     Exponent=  6.9528100000D-01 Coefficients=  2.8989829260D-01
     Exponent=  3.4700200000D-01 Coefficients=  2.6067993820D-01
     Exponent=  1.7009900000D-01 Coefficients=  1.4793631120D-01
     Exponent=  8.0080000000D-02 Coefficients=  2.9802614530D-02
 P 1 1.00 0.000000000000
     Exponent=  4.2614360330D-02 Coefficients=  1.0000000000D+00
 S 1 1.00 0.000000000000
     Exponent=  4.2498660000D+00 Coefficients=  1.0000000000D+00
 S 1 1.00 0.000000000000
     Exponent=  2.1674700000D+00 Coefficients=  1.0000000000D+00
 S 1 1.00 0.000000000000
     Exponent=  1.1054290000D+00 Coefficients=  1.0000000000D+00
 S 1 1.00 0.000000000000
     Exponent=  5.6377900000D-01 Coefficients=  1.0000000000D+00
 S 1 1.00 0.000000000000
     Exponent=  2.8753200000D-01 Coefficients=  1.0000000000D+00
 S 1 1.00 0.000000000000
     Exponent=  1.4664400000D-01 Coefficients=  1.0000000000D+00
 P 1 1.00 0.000000000000
     Exponent=  5.6597240000D+00 Coefficients=  1.0000000000D+00
 P 1 1.00 0.000000000000
     Exponent=  2.5758780000D+00 Coefficients=  1.0000000000D+00
 P 1 1.00 0.000000000000
     Exponent=  1.1723440000D+00 Coefficients=  1.0000000000D+00
 P 1 1.00 0.000000000000
     Exponent=  5.3356200000D-01 Coefficients=  1.0000000000D+00
 P 1 1.00 0.000000000000
     Exponent=  2.4283700000D-01 Coefficients=  1.0000000000D+00
 P 1 1.00 0.000000000000
     Exponent=  1.1052100000D-01 Coefficients=  1.0000000000D+00
 D 1 1.00 0.000000000000
     Exponent=  9.4642110000D+00 Coefficients=  1.0000000000D+00
 D 1 1.00 0.000000000000
     Exponent=  4.7522860000D+00 Coefficients=  1.0000000000D+00
 D 1 1.00 0.000000000000
     Exponent=  2.3862760000D+00 Coefficients=  1.0000000000D+00
 D 1 1.00 0.000000000000
     Exponent=  1.1982260000D+00 Coefficients=  1.0000000000D+00
 D 1 1.00 0.000000000000
     Exponent=  6.0166800000D-01 Coefficients=  1.0000000000D+00
 D 1 1.00 0.000000000000
     Exponent=  3.0211700000D-01 Coefficients=  1.0000000000D+00
 D 1 1.00 0.000000000000
     Exponent=  1.5170200000D-01 Coefficients=  1.0000000000D+00
 F 1 1.00 0.000000000000
     Exponent=  7.0018360000D+00 Coefficients=  1.0000000000D+00
 F 1 1.00 0.000000000000
     Exponent=  3.5525090000D+00 Coefficients=  1.0000000000D+00
 F 1 1.00 0.000000000000
     Exponent=  1.8024300000D+00 Coefficients=  1.0000000000D+00
 F 1 1.00 0.000000000000
     Exponent=  9.1449600000D-01 Coefficients=  1.0000000000D+00
 F 1 1.00 0.000000000000
     Exponent=  4.6398600000D-01 Coefficients=  1.0000000000D+00
 F 1 1.00 0.000000000000
     Exponent=  2.3541100000D-01 Coefficients=  1.0000000000D+00
 G 1 1.00 0.000000000000
     Exponent=  6.4724810000D+00 Coefficients=  1.0000000000D+00
 G 1 1.00 0.000000000000
     Exponent=  3.1190710000D+00 Coefficients=  1.0000000000D+00
 G 1 1.00 0.000000000000
     Exponent=  1.5030720000D+00 Coefficients=  1.0000000000D+00
 G 1 1.00 0.000000000000
     Exponent=  7.2432600000D-01 Coefficients=  1.0000000000D+00
 G 1 1.00 0.000000000000
     Exponent=  3.4905000000D-01 Coefficients=  1.0000000000D+00
 H 1 1.00 0.000000000000
     Exponent=  5.3550830000D+00 Coefficients=  1.0000000000D+00
 H 1 1.00 0.000000000000
     Exponent=  2.4146960000D+00 Coefficients=  1.0000000000D+00
 H 1 1.00 0.000000000000
     Exponent=  1.0888270000D+00 Coefficients=  1.0000000000D+00
 H 1 1.00 0.000000000000
     Exponent=  4.9097030000D-01 Coefficients=  1.0000000000D+00
 I 1 1.00 0.000000000000
     Exponent=  4.3221130000D+00 Coefficients=  1.0000000000D+00
 I 1 1.00 0.000000000000
     Exponent=  1.7162630000D+00 Coefficients=  1.0000000000D+00
 I 1 1.00 0.000000000000
     Exponent=  6.8150890000D-01 Coefficients=  1.0000000000D+00
 J 1 1.00 0.000000000000
     Exponent=  3.0609737230D+00 Coefficients=  1.0000000000D+00
 ****
 Centers:   1
 S 17 1.00 0.000000000000
     Exponent=  4.5696374000D+07 Coefficients=  4.7969718170D-07
     Exponent=  8.8192455700D+06 Coefficients=  2.8773867390D-06
     Exponent=  2.0447068100D+06 Coefficients=  1.6286990630D-05
     Exponent=  5.5437291200D+05 Coefficients=  7.4229084490D-05
     Exponent=  1.7160837200D+05 Coefficients=  2.8993395410D-04
     Exponent=  5.9377579000D+04 Coefficients=  9.9038178970D-04
     Exponent=  2.2539231700D+04 Coefficients=  3.0314234830D-03
     Exponent=  9.2340360500D+03 Coefficients=  8.4521288000D-03
     Exponent=  4.0254682400D+03 Coefficients=  2.1691801400D-02
     Exponent=  1.8445848600D+03 Coefficients=  5.1200723880D-02
     Exponent=  8.7919842900D+02 Coefficients=  1.0931872110D-01
     Exponent=  4.3202471000D+02 Coefficients=  2.0233509890D-01
     Exponent=  2.1721259200D+02 Coefficients=  2.9751935350D-01
     Exponent=  1.1103157500D+02 Coefficients=  2.9144099630D-01
     Exponent=  5.7391512000D+01 Coefficients=  1.4111500700D-01
     Exponent=  2.9859493000D+01 Coefficients=  2.0905853080D-02
     Exponent=  1.5573967000D+01 Coefficients=  1.3302600920D-03
 S 16 1.00 0.000000000000
     Exponent=  1.7160837200D+05 Coefficients= -3.4415018730D-08
     Exponent=  5.9377579000D+04 Coefficients= -3.9642550630D-07
     Exponent=  2.2539231700D+04 Coefficients= -3.3233854800D-06
     Exponent=  9.2340360500D+03 Coefficients= -2.3233168700D-05
     Exponent=  4.0254682400D+03 Coefficients= -1.3753991090D-04
     Exponent=  1.8445848600D+03 Coefficients= -7.1622883030D-04
     Exponent=  8.7919842900D+02 Coefficients= -3.2460143950D-03
     Exponent=  4.3202471000D+02 Coefficients= -1.2598074350D-02
     Exponent=  2.1721259200D+02 Coefficients= -3.9508644080D-02
     Exponent=  1.1103157500D+02 Coefficients= -8.2877216970D-02
     Exponent=  5.7391512000D+01 Coefficients= -5.7541071140D-02
     Exponent=  2.9859493000D+01 Coefficients=  1.8141693200D-01
     Exponent=  1.5573967000D+01 Coefficients=  5.0068224830D-01
     Exponent=  8.1136480000D+00 Coefficients=  3.7894892570D-01
     Exponent=  4.2076160000D+00 Coefficients=  7.4781086340D-02
     Exponent=  2.1645210000D+00 Coefficients=  4.7883379460D-03
 P 17 1.00 0.000000000000
     Exponent=  1.1425156700D+05 Coefficients=  1.9226857950D-06
     Exponent=  2.9853574700D+04 Coefficients=  1.5695668210D-05
     Exponent=  9.4979023300D+03 Coefficients=  1.0072930630D-04
     Exponent=  3.5250551700D+03 Coefficients=  4.9163179310D-04
     Exponent=  1.4730723000D+03 Coefficients=  1.9636575360D-03
     Exponent=  6.7339103600D+02 Coefficients=  6.6331850260D-03
     Exponent=  3.2904992600D+02 Coefficients=  1.9446542400D-02
     Exponent=  1.6878085100D+02 Coefficients=  4.9936404200D-02
     Exponent=  8.9611870000D+01 Coefficients=  1.1092448350D-01
     Exponent=  4.8724805000D+01 Coefficients=  2.0284733120D-01
     Exponent=  2.6911256000D+01 Coefficients=  2.9205843610D-01
     Exponent=  1.5000953000D+01 Coefficients=  2.9378671600D-01
     Exponent=  8.3926630000D+00 Coefficients=  1.6562655350D-01
     Exponent=  4.6872060000D+00 Coefficients=  4.2026890490D-02
     Exponent=  2.5971060000D+00 Coefficients=  4.0235636960D-03
     Exponent=  1.4167540000D+00 Coefficients=  2.1402330740D-04
     Exponent=  7.5332800000D-01 Coefficients= -9.5516899640D-05
 S 11 1.00 0.000000000000
     Exponent=  2.1721259200D+02 Coefficients=  2.4150547460D-04
     Exponent=  1.1103157500D+02 Coefficients=  1.7101653990D-03
     Exponent=  5.7391512000D+01 Coefficients=  2.6095943150D-03
     Exponent=  2.9859493000D+01 Coefficients= -1.0263440580D-02
     Exponent=  1.5573967000D+01 Coefficients= -1.1498713780D-01
     Exponent=  8.1136480000D+00 Coefficients= -1.9742464490D-01
     Exponent=  4.2076160000D+00 Coefficients=  1.2299960020D-01
     Exponent=  2.1645210000D+00 Coefficients=  5.2634862720D-01
     Exponent=  1.1005540000D+00 Coefficients=  4.5579425050D-01
     Exponent=  5.5085000000D-01 Coefficients=  1.0689872530D-01
     Exponent=  2.7015900000D-01 Coefficients=  2.8423047480D-03
 P 13 1.00 0.000000000000
     Exponent=  3.2904992600D+02 Coefficients=  1.0511781830D-04
     Exponent=  1.6878085100D+02 Coefficients=  5.1190255500D-04
     Exponent=  8.9611870000D+01 Coefficients=  2.3704160210D-03
     Exponent=  4.8724805000D+01 Coefficients=  6.9797145590D-03
     Exponent=  2.6911256000D+01 Coefficients=  1.5530845230D-02
     Exponent=  1.5000953000D+01 Coefficients=  1.7931332180D-02
     Exponent=  8.3926630000D+00 Coefficients= -4.7764603510D-02
     Exponent=  4.6872060000D+00 Coefficients= -2.0744931370D-01
     Exponent=  2.5971060000D+00 Coefficients= -3.4252280220D-01
     Exponent=  1.4167540000D+00 Coefficients= -3.3193366880D-01
     Exponent=  7.5332800000D-01 Coefficients= -1.7383326040D-01
     Exponent=  3.8534700000D-01 Coefficients= -3.2874446600D-02
     Exponent=  1.8641400000D-01 Coefficients= -1.9930862520D-03
 D 16 1.00 0.000000000000
     Exponent=  3.0144951600D+03 Coefficients=  4.2657958730D-06
     Exponent=  9.5983290800D+02 Coefficients=  4.2287243730D-05
     Exponent=  3.7135668000D+02 Coefficients=  2.8186223020D-04
     Exponent=  1.6524497900D+02 Coefficients=  1.3457764810D-03
     Exponent=  8.1009191000D+01 Coefficients=  5.0618436030D-03
     Exponent=  4.2348234000D+01 Coefficients=  1.5179190610D-02
     Exponent=  2.3049071000D+01 Coefficients=  3.7345244420D-02
     Exponent=  1.2844128000D+01 Coefficients=  8.0243746850D-02
     Exponent=  7.2459690000D+00 Coefficients=  1.4454118010D-01
     Exponent=  4.1079570000D+00 Coefficients=  2.0622858510D-01
     Exponent=  2.3285020000D+00 Coefficients=  2.3895427420D-01
     Exponent=  1.3137640000D+00 Coefficients=  2.3507086620D-01
     Exponent=  7.3383600000D-01 Coefficients=  1.9704702410D-01
     Exponent=  4.0258100000D-01 Coefficients=  1.3202463010D-01
     Exponent=  2.1428300000D-01 Coefficients=  5.6649217340D-02
     Exponent=  1.0869000000D-01 Coefficients=  8.6820407160D-03
 D 1 1.00 0.000000000000
     Exponent=  7.7663527650D-02 Coefficients=  1.0000000000D+00
 D 1 1.00 0.000000000000
     Exponent=  2.3218000000D-02 Coefficients=  1.0000000000D+00
 S 10 1.00 0.000000000000
     Exponent=  2.9859493000D+01 Coefficients=  1.8923791830D-05
     Exponent=  1.5573967000D+01 Coefficients=  9.0796520650D-04
     Exponent=  8.1136480000D+00 Coefficients=  3.5075272200D-03
     Exponent=  4.2076160000D+00 Coefficients= -6.2753823540D-03
     Exponent=  2.1645210000D+00 Coefficients= -3.0509733500D-02
     Exponent=  1.1005540000D+00 Coefficients= -1.0940735440D-01
     Exponent=  5.5085000000D-01 Coefficients= -1.3181302430D-01
     Exponent=  2.7015900000D-01 Coefficients=  1.7673294290D-01
     Exponent=  1.2913000000D-01 Coefficients=  6.7310021570D-01
     Exponent=  5.9770000000D-02 Coefficients=  3.2628484100D-01
 S 1 1.00 0.000000000000
     Exponent=  6.2046129080D-02 Coefficients=  1.0000000000D+00
 S 1 1.00 0.000000000000
     Exponent=  2.8902000000D-02 Coefficients=  1.0000000000D+00
 S 1 1.00 0.000000000000
     Exponent=  8.2580000000D-03 Coefficients=  1.0000000000D+00
 P 10 1.00 0.000000000000
     Exponent=  2.6911256000D+01 Coefficients=  8.6650134190D-04
     Exponent=  1.5000953000D+01 Coefficients= -1.5857980990D-03
     Exponent=  8.3926630000D+00 Coefficients=  2.7980895860D-03
     Exponent=  4.6872060000D+00 Coefficients= -1.7114087030D-02
     Exponent=  2.5971060000D+00 Coefficients=  2.0939879150D-03
     Exponent=  1.4167540000D+00 Coefficients= -4.8451502460D-02
     Exponent=  7.5332800000D-01 Coefficients=  2.9886169200D-02
     Exponent=  3.8534700000D-01 Coefficients= -3.7548564100D-04
     Exponent=  1.8641400000D-01 Coefficients=  4.8660706550D-01
     Exponent=  6.6774982700D-02 Coefficients=  5.8708524410D-01
 P 1 1.00 0.000000000000
     Exponent=  1.2096705620D-01 Coefficients=  1.0000000000D+00
 P 1 1.00 0.000000000000
     Exponent=  4.5696000000D-02 Coefficients=  1.0000000000D+00
 S 1 1.00 0.000000000000
     Exponent=  9.8540830000D+00 Coefficients=  1.0000000000D+00
 S 1 1.00 0.000000000000
     Exponent=  4.9268220000D+00 Coefficients=  1.0000000000D+00
 S 1 1.00 0.000000000000
     Exponent=  2.4633020000D+00 Coefficients=  1.0000000000D+00
 S 1 1.00 0.000000000000
     Exponent=  1.2315960000D+00 Coefficients=  1.0000000000D+00
 S 1 1.00 0.000000000000
     Exponent=  6.1577100000D-01 Coefficients=  1.0000000000D+00
 S 1 1.00 0.000000000000
     Exponent=  3.0787200000D-01 Coefficients=  1.0000000000D+00
 P 1 1.00 0.000000000000
     Exponent=  3.6560520000D+00 Coefficients=  1.0000000000D+00
 P 1 1.00 0.000000000000
     Exponent=  2.1019390000D+00 Coefficients=  1.0000000000D+00
 P 1 1.00 0.000000000000
     Exponent=  1.2084470000D+00 Coefficients=  1.0000000000D+00
 P 1 1.00 0.000000000000
     Exponent=  6.9476100000D-01 Coefficients=  1.0000000000D+00
 P 1 1.00 0.000000000000
     Exponent=  3.9943200000D-01 Coefficients=  1.0000000000D+00
 P 1 1.00 0.000000000000
     Exponent=  2.2964200000D-01 Coefficients=  1.0000000000D+00
 D 1 1.00 0.000000000000
     Exponent=  8.0928270000D+00 Coefficients=  1.0000000000D+00
 D 1 1.00 0.000000000000
     Exponent=  3.8022750000D+00 Coefficients=  1.0000000000D+00
 D 1 1.00 0.000000000000
     Exponent=  1.7864330000D+00 Coefficients=  1.0000000000D+00
 D 1 1.00 0.000000000000
     Exponent=  8.3932500000D-01 Coefficients=  1.0000000000D+00
 D 1 1.00 0.000000000000
     Exponent=  3.9434200000D-01 Coefficients=  1.0000000000D+00
 D 1 1.00 0.000000000000
     Exponent=  1.8527500000D-01 Coefficients=  1.0000000000D+00
 F 1 1.00 0.000000000000
     Exponent=  1.8477968000D+01 Coefficients=  1.0000000000D+00
 F 1 1.00 0.000000000000
     Exponent=  8.4935450000D+00 Coefficients=  1.0000000000D+00
 F 1 1.00 0.000000000000
     Exponent=  3.9041260000D+00 Coefficients=  1.0000000000D+00
 F 1 1.00 0.000000000000
     Exponent=  1.7945620000D+00 Coefficients=  1.0000000000D+00
 F 1 1.00 0.000000000000
     Exponent=  8.2488500000D-01 Coefficients=  1.0000000000D+00
 F 1 1.00 0.000000000000
     Exponent=  3.7916500000D-01 Coefficients=  1.0000000000D+00
 F 1 1.00 0.000000000000
     Exponent=  1.7428600000D-01 Coefficients=  1.0000000000D+00
 G 1 1.00 0.000000000000
     Exponent=  1.3248847000D+01 Coefficients=  1.0000000000D+00
 G 1 1.00 0.000000000000
     Exponent=  6.1249790000D+00 Coefficients=  1.0000000000D+00
 G 1 1.00 0.000000000000
     Exponent=  2.8315950000D+00 Coefficients=  1.0000000000D+00
 G 1 1.00 0.000000000000
     Exponent=  1.3090540000D+00 Coefficients=  1.0000000000D+00
 G 1 1.00 0.000000000000
     Exponent=  6.0517900000D-01 Coefficients=  1.0000000000D+00
 G 1 1.00 0.000000000000
     Exponent=  2.7977500000D-01 Coefficients=  1.0000000000D+00
 H 1 1.00 0.000000000000
     Exponent=  1.1918900000D+01 Coefficients=  1.0000000000D+00
 H 1 1.00 0.000000000000
     Exponent=  5.2553630000D+00 Coefficients=  1.0000000000D+00
 H 1 1.00 0.000000000000
     Exponent=  2.3172300000D+00 Coefficients=  1.0000000000D+00
 H 1 1.00 0.000000000000
     Exponent=  1.0217290000D+00 Coefficients=  1.0000000000D+00
 H 1 1.00 0.000000000000
     Exponent=  4.5050700000D-01 Coefficients=  1.0000000000D+00
 I 1 1.00 0.000000000000
     Exponent=  1.0018038000D+01 Coefficients=  1.0000000000D+00
 I 1 1.00 0.000000000000
     Exponent=  4.1491900000D+00 Coefficients=  1.0000000000D+00
 I 1 1.00 0.000000000000
     Exponent=  1.7184780000D+00 Coefficients=  1.0000000000D+00
 I 1 1.00 0.000000000000
     Exponent=  7.1174500000D-01 Coefficients=  1.0000000000D+00
 J 1 1.00 0.000000000000
     Exponent=  7.8589380000D+00 Coefficients=  1.0000000000D+00
 J 1 1.00 0.000000000000
     Exponent=  2.9509070000D+00 Coefficients=  1.0000000000D+00
 J 1 1.00 0.000000000000
     Exponent=  1.1080180000D+00 Coefficients=  1.0000000000D+00
 K 1 1.00 0.000000000000
     Exponent=  5.6100999010D+00 Coefficients=  1.0000000000D+00
 ****
 AO basis set in the form of general basis input (Overlap normalization):
      1 0
 S  17 1.00       0.000000000000
      0.4569637400D+08  0.4796971817D-06
      0.8819245570D+07  0.2877386739D-05
      0.2044706810D+07  0.1628699063D-04
      0.5543729120D+06  0.7422908449D-04
      0.1716083720D+06  0.2899339541D-03
      0.5937757900D+05  0.9903817897D-03
      0.2253923170D+05  0.3031423483D-02
      0.9234036050D+04  0.8452128800D-02
      0.4025468240D+04  0.2169180140D-01
      0.1844584860D+04  0.5120072388D-01
      0.8791984290D+03  0.1093187211D+00
      0.4320247100D+03  0.2023350989D+00
      0.2172125920D+03  0.2975193535D+00
      0.1110315750D+03  0.2914409963D+00
      0.5739151200D+02  0.1411150070D+00
      0.2985949300D+02  0.2090585308D-01
      0.1557396700D+02  0.1330260092D-02
 S  16 1.00       0.000000000000
      0.1716083720D+06 -0.3441501873D-07
      0.5937757900D+05 -0.3964255063D-06
      0.2253923170D+05 -0.3323385480D-05
      0.9234036050D+04 -0.2323316870D-04
      0.4025468240D+04 -0.1375399109D-03
      0.1844584860D+04 -0.7162288303D-03
      0.8791984290D+03 -0.3246014395D-02
      0.4320247100D+03 -0.1259807435D-01
      0.2172125920D+03 -0.3950864408D-01
      0.1110315750D+03 -0.8287721697D-01
      0.5739151200D+02 -0.5754107114D-01
      0.2985949300D+02  0.1814169320D+00
      0.1557396700D+02  0.5006822483D+00
      0.8113648000D+01  0.3789489257D+00
      0.4207616000D+01  0.7478108634D-01
      0.2164521000D+01  0.4788337946D-02
 P  17 1.00       0.000000000000
      0.1142515670D+06  0.1922685795D-05
      0.2985357470D+05  0.1569566821D-04
      0.9497902330D+04  0.1007293063D-03
      0.3525055170D+04  0.4916317931D-03
      0.1473072300D+04  0.1963657536D-02
      0.6733910360D+03  0.6633185026D-02
      0.3290499260D+03  0.1944654240D-01
      0.1687808510D+03  0.4993640420D-01
      0.8961187000D+02  0.1109244835D+00
      0.4872480500D+02  0.2028473312D+00
      0.2691125600D+02  0.2920584361D+00
      0.1500095300D+02  0.2937867160D+00
      0.8392663000D+01  0.1656265535D+00
      0.4687206000D+01  0.4202689049D-01
      0.2597106000D+01  0.4023563696D-02
      0.1416754000D+01  0.2140233074D-03
      0.7533280000D+00 -0.9551689964D-04
 S  11 1.00       0.000000000000
      0.2172125920D+03  0.2415054746D-03
      0.1110315750D+03  0.1710165399D-02
      0.5739151200D+02  0.2609594315D-02
      0.2985949300D+02 -0.1026344058D-01
      0.1557396700D+02 -0.1149871378D+00
      0.8113648000D+01 -0.1974246449D+00
      0.4207616000D+01  0.1229996002D+00
      0.2164521000D+01  0.5263486272D+00
      0.1100554000D+01  0.4557942505D+00
      0.5508500000D+00  0.1068987253D+00
      0.2701590000D+00  0.2842304748D-02
 P  13 1.00       0.000000000000
      0.3290499260D+03  0.1051178183D-03
      0.1687808510D+03  0.5119025550D-03
      0.8961187000D+02  0.2370416021D-02
      0.4872480500D+02  0.6979714559D-02
      0.2691125600D+02  0.1553084523D-01
      0.1500095300D+02  0.1793133218D-01
      0.8392663000D+01 -0.4776460351D-01
      0.4687206000D+01 -0.2074493137D+00
      0.2597106000D+01 -0.3425228022D+00
      0.1416754000D+01 -0.3319336688D+00
      0.7533280000D+00 -0.1738332604D+00
      0.3853470000D+00 -0.3287444660D-01
      0.1864140000D+00 -0.1993086252D-02
 D  16 1.00       0.000000000000
      0.3014495160D+04  0.4265795873D-05
      0.9598329080D+03  0.4228724373D-04
      0.3713566800D+03  0.2818622302D-03
      0.1652449790D+03  0.1345776481D-02
      0.8100919100D+02  0.5061843603D-02
      0.4234823400D+02  0.1517919061D-01
      0.2304907100D+02  0.3734524442D-01
      0.1284412800D+02  0.8024374685D-01
      0.7245969000D+01  0.1445411801D+00
      0.4107957000D+01  0.2062285851D+00
      0.2328502000D+01  0.2389542742D+00
      0.1313764000D+01  0.2350708662D+00
      0.7338360000D+00  0.1970470241D+00
      0.4025810000D+00  0.1320246301D+00
      0.2142830000D+00  0.5664921734D-01
      0.1086900000D+00  0.8682040716D-02
 D   1 1.00       0.000000000000
      0.7766352765D-01  0.1000000000D+01
 D   1 1.00       0.000000000000
      0.2321800000D-01  0.1000000000D+01
 S  10 1.00       0.000000000000
      0.2985949300D+02  0.1892379183D-04
      0.1557396700D+02  0.9079652065D-03
      0.8113648000D+01  0.3507527220D-02
      0.4207616000D+01 -0.6275382354D-02
      0.2164521000D+01 -0.3050973350D-01
      0.1100554000D+01 -0.1094073544D+00
      0.5508500000D+00 -0.1318130243D+00
      0.2701590000D+00  0.1767329429D+00
      0.1291300000D+00  0.6731002157D+00
      0.5977000000D-01  0.3262848410D+00
 S   1 1.00       0.000000000000
      0.6204612908D-01  0.1000000000D+01
 S   1 1.00       0.000000000000
      0.2890200000D-01  0.1000000000D+01
 S   1 1.00       0.000000000000
      0.8258000000D-02  0.1000000000D+01
 P  10 1.00       0.000000000000
      0.2691125600D+02  0.8665013419D-03
      0.1500095300D+02 -0.1585798099D-02
      0.8392663000D+01  0.2798089586D-02
      0.4687206000D+01 -0.1711408703D-01
      0.2597106000D+01  0.2093987915D-02
      0.1416754000D+01 -0.4845150246D-01
      0.7533280000D+00  0.2988616920D-01
      0.3853470000D+00 -0.3754856410D-03
      0.1864140000D+00  0.4866070655D+00
      0.6677498270D-01  0.5870852441D+00
 P   1 1.00       0.000000000000
      0.1209670562D+00  0.1000000000D+01
 P   1 1.00       0.000000000000
      0.4569600000D-01  0.1000000000D+01
 S   1 1.00       0.000000000000
      0.9854083000D+01  0.1000000000D+01
 S   1 1.00       0.000000000000
      0.4926822000D+01  0.1000000000D+01
 S   1 1.00       0.000000000000
      0.2463302000D+01  0.1000000000D+01
 S   1 1.00       0.000000000000
      0.1231596000D+01  0.1000000000D+01
 S   1 1.00       0.000000000000
      0.6157710000D+00  0.1000000000D+01
 S   1 1.00       0.000000000000
      0.3078720000D+00  0.1000000000D+01
 P   1 1.00       0.000000000000
      0.3656052000D+01  0.1000000000D+01
 P   1 1.00       0.000000000000
      0.2101939000D+01  0.1000000000D+01
 P   1 1.00       0.000000000000
      0.1208447000D+01  0.1000000000D+01
 P   1 1.00       0.000000000000
      0.6947610000D+00  0.1000000000D+01
 P   1 1.00       0.000000000000
      0.3994320000D+00  0.1000000000D+01
 P   1 1.00       0.000000000000
      0.2296420000D+00  0.1000000000D+01
 D   1 1.00       0.000000000000
      0.8092827000D+01  0.1000000000D+01
 D   1 1.00       0.000000000000
      0.3802275000D+01  0.1000000000D+01
 D   1 1.00       0.000000000000
      0.1786433000D+01  0.1000000000D+01
 D   1 1.00       0.000000000000
      0.8393250000D+00  0.1000000000D+01
 D   1 1.00       0.000000000000
      0.3943420000D+00  0.1000000000D+01
 D   1 1.00       0.000000000000
      0.1852750000D+00  0.1000000000D+01
 F   1 1.00       0.000000000000
      0.1847796800D+02  0.1000000000D+01
 F   1 1.00       0.000000000000
      0.8493545000D+01  0.1000000000D+01
 F   1 1.00       0.000000000000
      0.3904126000D+01  0.1000000000D+01
 F   1 1.00       0.000000000000
      0.1794562000D+01  0.1000000000D+01
 F   1 1.00       0.000000000000
      0.8248850000D+00  0.1000000000D+01
 F   1 1.00       0.000000000000
      0.3791650000D+00  0.1000000000D+01
 F   1 1.00       0.000000000000
      0.1742860000D+00  0.1000000000D+01
 G   1 1.00       0.000000000000
      0.1324884700D+02  0.1000000000D+01
 G   1 1.00       0.000000000000
      0.6124979000D+01  0.1000000000D+01
 G   1 1.00       0.000000000000
      0.2831595000D+01  0.1000000000D+01
 G   1 1.00       0.000000000000
      0.1309054000D+01  0.1000000000D+01
 G   1 1.00       0.000000000000
      0.6051790000D+00  0.1000000000D+01
 G   1 1.00       0.000000000000
      0.2797750000D+00  0.1000000000D+01
 H   1 1.00       0.000000000000
      0.1191890000D+02  0.1000000000D+01
 H   1 1.00       0.000000000000
      0.5255363000D+01  0.1000000000D+01
 H   1 1.00       0.000000000000
      0.2317230000D+01  0.1000000000D+01
 H   1 1.00       0.000000000000
      0.1021729000D+01  0.1000000000D+01
 H   1 1.00       0.000000000000
      0.4505070000D+00  0.1000000000D+01
 I   1 1.00       0.000000000000
      0.1001803800D+02  0.1000000000D+01
 I   1 1.00       0.000000000000
      0.4149190000D+01  0.1000000000D+01
 I   1 1.00       0.000000000000
      0.1718478000D+01  0.1000000000D+01
 I   1 1.00       0.000000000000
      0.7117450000D+00  0.1000000000D+01
 J   1 1.00       0.000000000000
      0.7858938000D+01  0.1000000000D+01
 J   1 1.00       0.000000000000
      0.2950907000D+01  0.1000000000D+01
 J   1 1.00       0.000000000000
      0.1108018000D+01  0.1000000000D+01
 K   1 1.00       0.000000000000
      0.5610099901D+01  0.1000000000D+01
 ****
      2 0
 S  16 1.00       0.000000000000
      0.1411246410D+07  0.1627429822D-05
      0.2499102240D+06  0.1092621996D-04
      0.5603410580D+05  0.6238741867D-04
      0.1521153640D+05  0.2783303491D-03
      0.4812287750D+04  0.1040541872D-02
      0.1717755460D+04  0.3380392793D-02
      0.6733958240D+03  0.9828484765D-02
      0.2835101840D+03  0.2605310129D-01
      0.1258620070D+03  0.6280818057D-01
      0.5804472200D+02  0.1348202075D+00
      0.2747198500D+02  0.2435563460D+00
      0.1321062900D+02  0.3323287378D+00
      0.6399806000D+01  0.2607930483D+00
      0.3099614000D+01  0.7430834326D-01
      0.1489856000D+01  0.4189538074D-02
      0.7052010000D+00  0.8706455725D-03
 S  11 1.00       0.000000000000
      0.2835101840D+03 -0.1122588094D-03
      0.1258620070D+03 -0.5559335617D-03
      0.5804472200D+02 -0.2851687904D-02
      0.2747198500D+02 -0.1133494995D-01
      0.1321062900D+02 -0.3657977704D-01
      0.6399806000D+01 -0.7288994197D-01
      0.3099614000D+01 -0.1062032356D-01
      0.1489856000D+01  0.2196705572D+00
      0.7052010000D+00  0.4294832072D+00
      0.3258480000D+00  0.3775832849D+00
      0.1454600000D+00  0.9640261255D-01
 S   1 1.00       0.000000000000
      0.5814297870D-01  0.1000000000D+01
 P  13 1.00       0.000000000000
      0.2085279200D+04  0.1447911740D-04
      0.5101470830D+03  0.1283233588D-03
      0.1616811510D+03  0.7792790007D-03
      0.6114945200D+02  0.3400506049D-02
      0.2597660200D+02  0.1157685214D-01
      0.1187542600D+02  0.3269740339D-01
      0.5677133000D+01  0.8011404242D-01
      0.2786475000D+01  0.1605265057D+00
      0.1387844000D+01  0.2460495026D+00
      0.6952810000D+00  0.2898982926D+00
      0.3470020000D+00  0.2606799382D+00
      0.1700990000D+00  0.1479363112D+00
      0.8008000000D-01  0.2980261453D-01
 P   1 1.00       0.000000000000
      0.4261436033D-01  0.1000000000D+01
 S   1 1.00       0.000000000000
      0.4249866000D+01  0.1000000000D+01
 S   1 1.00       0.000000000000
      0.2167470000D+01  0.1000000000D+01
 S   1 1.00       0.000000000000
      0.1105429000D+01  0.1000000000D+01
 S   1 1.00       0.000000000000
      0.5637790000D+00  0.1000000000D+01
 S   1 1.00       0.000000000000
      0.2875320000D+00  0.1000000000D+01
 S   1 1.00       0.000000000000
      0.1466440000D+00  0.1000000000D+01
 P   1 1.00       0.000000000000
      0.5659724000D+01  0.1000000000D+01
 P   1 1.00       0.000000000000
      0.2575878000D+01  0.1000000000D+01
 P   1 1.00       0.000000000000
      0.1172344000D+01  0.1000000000D+01
 P   1 1.00       0.000000000000
      0.5335620000D+00  0.1000000000D+01
 P   1 1.00       0.000000000000
      0.2428370000D+00  0.1000000000D+01
 P   1 1.00       0.000000000000
      0.1105210000D+00  0.1000000000D+01
 D   1 1.00       0.000000000000
      0.9464211000D+01  0.1000000000D+01
 D   1 1.00       0.000000000000
      0.4752286000D+01  0.1000000000D+01
 D   1 1.00       0.000000000000
      0.2386276000D+01  0.1000000000D+01
 D   1 1.00       0.000000000000
      0.1198226000D+01  0.1000000000D+01
 D   1 1.00       0.000000000000
      0.6016680000D+00  0.1000000000D+01
 D   1 1.00       0.000000000000
      0.3021170000D+00  0.1000000000D+01
 D   1 1.00       0.000000000000
      0.1517020000D+00  0.1000000000D+01
 F   1 1.00       0.000000000000
      0.7001836000D+01  0.1000000000D+01
 F   1 1.00       0.000000000000
      0.3552509000D+01  0.1000000000D+01
 F   1 1.00       0.000000000000
      0.1802430000D+01  0.1000000000D+01
 F   1 1.00       0.000000000000
      0.9144960000D+00  0.1000000000D+01
 F   1 1.00       0.000000000000
      0.4639860000D+00  0.1000000000D+01
 F   1 1.00       0.000000000000
      0.2354110000D+00  0.1000000000D+01
 G   1 1.00       0.000000000000
      0.6472481000D+01  0.1000000000D+01
 G   1 1.00       0.000000000000
      0.3119071000D+01  0.1000000000D+01
 G   1 1.00       0.000000000000
      0.1503072000D+01  0.1000000000D+01
 G   1 1.00       0.000000000000
      0.7243260000D+00  0.1000000000D+01
 G   1 1.00       0.000000000000
      0.3490500000D+00  0.1000000000D+01
 H   1 1.00       0.000000000000
      0.5355083000D+01  0.1000000000D+01
 H   1 1.00       0.000000000000
      0.2414696000D+01  0.1000000000D+01
 H   1 1.00       0.000000000000
      0.1088827000D+01  0.1000000000D+01
 H   1 1.00       0.000000000000
      0.4909703000D+00  0.1000000000D+01
 I   1 1.00       0.000000000000
      0.4322113000D+01  0.1000000000D+01
 I   1 1.00       0.000000000000
      0.1716263000D+01  0.1000000000D+01
 I   1 1.00       0.000000000000
      0.6815089000D+00  0.1000000000D+01
 J   1 1.00       0.000000000000
      0.3060973723D+01  0.1000000000D+01
 ****

 There are   208 symmetry adapted basis functions of A1  symmetry.
 There are   106 symmetry adapted basis functions of A2  symmetry.
 There are   151 symmetry adapted basis functions of B1  symmetry.
 There are   151 symmetry adapted basis functions of B2  symmetry.
 Integral buffers will be    131072 words long.
 Raffenetti 2 integral format.
 Two-electron integral symmetry is turned on.
   616 basis functions,  1356 primitive gaussians,  1044 cartesian basis functions
    19 alpha electrons       18 beta electrons
       nuclear repulsion energy        72.8885262653 Hartrees.
 IExCor=    0 DFT=F Ex=HF Corr=None ExCW=0 ScaHFX=  1.000000
 ScaDFX=  1.000000  1.000000  1.000000  1.000000 ScalE2=  1.000000  1.000000
 IRadAn=      5 IRanWt=     -1 IRanGd=            0 ICorTp=0
 NAtoms=    2 NActive=    2 NUniq=    2 SFac= 7.50D-01 NAtFMM=   80 NAOKFM=F Big=F
 Leave Link  301 at Mon Dec 16 13:57:37 2013, MaxMem=17179869184 cpu:      16.1
 (Enter /share/apps/gaussian/g09root/g09/l302.exe)
 NPDir=0 NMtPBC=     1 NCelOv=     1 NCel=       1 NClECP=     1 NCelD=      1
         NCelK=      1 NCelE2=     1 NClLst=     1 CellRange=     0.0.
 One-electron integrals computed using PRISM.
 NBasis=   616 RedAO= F  NBF=   208   106   151   151
 NBsUse=   616 1.00D-04 NBFU=   208   106   151   151
 Leave Link  302 at Mon Dec 16 13:57:38 2013, MaxMem=17179869184 cpu:      15.8
 (Enter /share/apps/gaussian/g09root/g09/l303.exe)
 DipDrv:  MaxL=1.
 Leave Link  303 at Mon Dec 16 13:57:38 2013, MaxMem=17179869184 cpu:       6.0
 (Enter /share/apps/gaussian/g09root/g09/l401.exe)
 Initial guess read from the checkpoint file:  NiO-.chk
 B after Tr=     0.000000    0.000000    0.000000
         Rot=    1.000000    0.000000    0.000000    0.000000 Ang=   0.00 deg.
 Guess basis will be translated and rotated to current coordinates.
 Initial guess orbital symmetries:
       Occupied  (SG) (SG) (SG) (PI) (PI) (SG) (SG) (SG) (PI) (PI)
                 (SG) (?A) (?B) (?B) (?B) (?A) (?A) (?B) (?A)
       Virtual   (SG) (PI) (PI) (SG) (SG) (PI) (PI) (?B) (?B) (?B)
                 (PI) (PI) (SG) (?B) (PI) (SG) (PI) (?B) (PI) (PI)
                 (?B) (?B) (PI) (PI) (SG) (?C) (?C) (?C) (?C) (PI)
                 (PI) (SG) (?D) (?D) (?D) (?D) (?E) (?E) (?E) (PI)
                 (PI) (PI) (PI) (?F) (?F) (?F) (SG) (PI) (PI) (PHI)
                 (PHI) (SG) (DLTA) (DLTA) (PI) (PI) (?C) (?C) (?C)
                 (?C) (SG) (PI) (PI) (?G) (?G) (?D) (?D) (?D) (?D)
                 (?H) (?H) (?H) (PHI) (PHI) (SG) (PI) (PI) (PI)
                 (PI) (DLTA) (DLTA) (DLTA) (DLTA) (PI) (PI) (SG)
                 (SG) (?G) (?G) (PI) (PI) (SG) (PHI) (PHI) (PHI)
                 (PHI) (?I) (?I) (?I) (PI) (PI) (?J) (?J) (?J)
                 (SG) (PI) (PI) (DLTA) (DLTA) (PI) (PI) (SG) (SG)
                 (?K) (?K) (?G) (?G) (?D) (?D) (DLTA) (DLTA) (?D)
                 (?D) (PHI) (PHI) (?L) (?L) (?L) (?D) (?D) (?D)
                 (?D) (?L) (?L) (?L) (?L) (PI) (PI) (?L) (?L) (PI)
                 (PI) (SG) (?K) (?K) (DLTA) (DLTA) (?G) (?G) (PI)
                 (PI) (SG) (PHI) (PHI) (SG) (?G) (?G) (PI) (PI)
                 (DLTA) (DLTA) (PHI) (PHI) (PI) (?L) (?L) (PI)
                 (?L) (PHI) (PHI) (SG) (PI) (PI) (DLTA) (DLTA)
                 (DLTA) (DLTA) (PI) (PI) (SG) (SG) (PI) (PI) (SG)
                 (?L) (?K) (?K) (?L) (?L) (?L) (?L) (?L) (?L) (?L)
                 (?L) (?L) (?L) (?L) (?L) (?L) (PI) (PI) (?G) (?G)
                 (PHI) (PHI) (?L) (?L) (?L) (PI) (PI) (?G) (?G)
                 (?K) (?K) (SG) (SG) (PHI) (PHI) (SG) (?L) (?L)
                 (?L) (PI) (PI) (SG) (PI) (PI) (?K) (?K) (?G) (?G)
                 (PHI) (PHI) (?L) (?L) (?L) (PI) (PI) (DLTA) (DLTA)
                 (SG) (PI) (PI) (SG) (PI) (?G) (?G) (PI) (PHI)
                 (PHI) (PHI) (PHI) (DLTA) (DLTA) (DLTA) (DLTA)
                 (SG) (PI) (PI) (SG) (PI) (PI) (DLTA) (DLTA) (SG)
                 (PI) (PI) (SG) (PHI) (PHI) (?L) (?L) (?L) (?L)
                 (?K) (?K) (?L) (?L) (?L) (?L) (?L) (?L) (?L) (?L)
                 (?L) (?L) (?L) (?L) (?L) (?L) (?L) (?L) (?L) (?L)
                 (?L) (?L) (?L) (?L) (?L) (PHI) (PHI) (?G) (?G)
                 (?L) (?L) (PI) (?L) (PI) (SG) (SG) (SG) (PI) (PI)
                 (SG) (SG) (PI) (PI) (DLTA) (DLTA) (SG) (SG) (SG)
                 (PI) (PI) (SG) (PI) (PI) (SG) (SG) (SG) (SG) (SG)
                 (PI) (PI) (SG) (PI) (PI) (PI) (PI) (SG) (PI) (PI)
                 (SG) (PI) (PI) (SG) (DLTA) (DLTA) (SG) (PI) (PI)
                 (DLTA) (DLTA) (PI) (PI) (DLTA) (DLTA) (DLTA) (DLTA)
                 (SG) (PI) (PI) (DLTA) (DLTA) (PHI) (PHI) (PI)
                 (PI) (DLTA) (DLTA) (PHI) (PHI) (DLTA) (DLTA) (PHI)
                 (PHI) (PHI) (PHI) (SG) (PI) (PI) (DLTA) (DLTA)
                 (PHI) (PHI) (?G) (?G) (SG) (DLTA) (DLTA) (PHI)
                 (PHI) (?G) (?G) (PI) (PI) (SG) (PI) (PI) (DLTA)
                 (DLTA) (PHI) (PHI) (?G) (?G) (SG) (PI) (PI) (DLTA)
                 (DLTA) (PHI) (PHI) (?G) (?G) (?K) (?K) (SG) (PI)
                 (PI) (DLTA) (DLTA) (PHI) (PHI) (?G) (?G) (?K)
                 (?K) (PI) (PI) (PHI) (PHI) (?G) (?G) (SG) (PI)
                 (PI) (DLTA) (DLTA) (PHI) (PHI) (?G) (?G) (?K)
                 (?K) (SG) (SG) (?G) (?G) (?K) (?K) (SG) (SG) (SG)
                 (PI) (PI) (DLTA) (DLTA) (PHI) (PHI) (SG) (PI)
                 (PI) (DLTA) (DLTA) (PHI) (PHI) (?G) (?G) (?K)
                 (?K) (SG) (SG) (?L) (?L) (SG) (PI) (PI) (DLTA)
                 (DLTA) (PHI) (PHI) (?G) (?G) (?K) (?K) (SG) (SG)
                 (?L) (?L) (SG) (PI) (PI) (DLTA) (DLTA) (PHI) (PHI)
                 (?G) (?G) (?K) (?K) (SG) (SG) (?L) (?L) (SG) (PI)
                 (PI) (DLTA) (DLTA) (PHI) (PHI) (?G) (?G) (?K)
                 (?K) (SG) (SG) (?L) (?L) (?L) (?L) (SG) (PI) (PI)
                 (SG) (SG) (PI) (PI) (DLTA) (DLTA) (DLTA) (DLTA)
                 (SG) (PI) (PI) (DLTA) (DLTA) (PHI) (PHI) (PHI)
                 (PHI) (DLTA) (DLTA) (PI) (PI) (DLTA) (DLTA) (PHI)
                 (PHI) (?G) (?G) (?G) (?G) (SG) (PI) (PI) (DLTA)
                 (DLTA) (PHI) (PHI) (?G) (?G) (?K) (?K) (?K) (?K)
                 (?G) (?G) (DLTA) (DLTA) (PHI) (PHI) (?G) (?G)
                 (?K) (?K) (SG) (SG) (PHI) (PHI) (?G) (?G) (?K)
                 (?K) (SG) (SG) (?K) (?K) (SG) (SG) (?K) (?K) (SG)
                 (SG) (?L) (?L)
 Leave Link  401 at Mon Dec 16 13:57:57 2013, MaxMem=17179869184 cpu:     294.9
 (Enter /share/apps/gaussian/g09root/g09/l502.exe)
 Restricted open shell SCF:
 Requested convergence on RMS density matrix=1.00D-08 within 500 cycles.
 Requested convergence on MAX density matrix=1.00D-06.
 Requested convergence on             energy=1.00D-06.
 No special actions if energy rises.
 Using DIIS extrapolation, IDIIS=  1040.
 Integral symmetry usage will be decided dynamically.
 IEnd=     3547426 IEndB=     3547426 NGot= 17179869184 MDV= 17177663739
 LenX= 17177663739 LenY= 17176572759
 Fock matrices will be formed incrementally for  20 cycles.

 Cycle   1  Pass 1  IDiag  1:
 FoFCou: FMM=F IPFlag=           0 FMFlag=      100000 FMFlg1=           0
         NFxFlg=           0 DoJE=F BraDBF=F KetDBF=F FulRan=T
         Omega=  0.000000  0.000000  1.000000  0.000000  0.000000 ICntrl=       0 IOpCl=  1
         NMat0=    1 NMatS0=    1 NMatT0=    0 NMatD0=    1 NMtDS0=    0 NMtDT0=    0
         I1Cent=           0 NGrid=           0.
 Petite list used in FoFCou.
 E= -1581.61265458828    
 DIIS: error= 4.38D-03 at cycle   1 NSaved=   1.
 NSaved= 1 IEnMin= 1 EnMin= -1581.61265458828     IErMin= 1 ErrMin= 4.38D-03
 ErrMax= 4.38D-03 EMaxC= 1.00D-01 BMatC= 3.29D-03 BMatP= 3.29D-03
 IDIUse=3 WtCom= 9.56D-01 WtEn= 4.38D-02
 Coeff-Com:  0.100D+01
 Coeff-En:   0.100D+01
 Coeff:      0.100D+01
 Gap=     0.118 Goal=   None    Shift=    0.000
 GapD=    0.118 DampG=1.000 DampE=1.000 DampFc=1.0000 IDamp=-1.
 RMSDP=1.61D-03 MaxDP=1.30D-01              OVMax= 5.20D-03

 Cycle   2  Pass 1  IDiag  1:
 RMSU=  1.10D-03    CP:  9.44D-01
 E= -1581.61280579517     Delta-E=       -0.000151206890 Rises=F Damp=F
 DIIS: error= 6.82D-05 at cycle   2 NSaved=   2.
 NSaved= 2 IEnMin= 2 EnMin= -1581.61280579517     IErMin= 2 ErrMin= 6.82D-05
 ErrMax= 6.82D-05 EMaxC= 1.00D-01 BMatC= 1.01D-06 BMatP= 3.29D-03
 IDIUse=1 WtCom= 1.00D+00 WtEn= 0.00D+00
 Coeff-Com: -0.820D-02 0.101D+01
 Coeff:     -0.820D-02 0.101D+01
 Gap=     0.027 Goal=   None    Shift=    0.000
 RMSDP=1.33D-04 MaxDP=1.35D-02 DE=-1.51D-04 OVMax= 1.22D-03

 Cycle   3  Pass 1  IDiag  1:
 RMSU=  5.68D-05    CP:  9.39D-01  1.07D+00
 E= -1581.61280732635     Delta-E=       -0.000001531179 Rises=F Damp=F
 DIIS: error= 7.12D-05 at cycle   3 NSaved=   3.
 NSaved= 3 IEnMin= 3 EnMin= -1581.61280732635     IErMin= 2 ErrMin= 6.82D-05
 ErrMax= 7.12D-05 EMaxC= 1.00D-01 BMatC= 1.57D-07 BMatP= 1.01D-06
 IDIUse=1 WtCom= 1.00D+00 WtEn= 0.00D+00
 Coeff-Com: -0.135D-02 0.142D+00 0.859D+00
 Coeff:     -0.135D-02 0.142D+00 0.859D+00
 Gap=     0.027 Goal=   None    Shift=    0.000
 RMSDP=3.93D-05 MaxDP=1.04D-02 DE=-1.53D-06 OVMax= 2.91D-03

 Cycle   4  Pass 1  IDiag  1:
 RMSU=  3.42D-05    CP:  9.38D-01  1.08D+00  1.04D+00
 E= -1581.61280554410     Delta-E=        0.000001782252 Rises=F Damp=F
 DIIS: error= 2.34D-04 at cycle   4 NSaved=   4.
 NSaved= 4 IEnMin= 3 EnMin= -1581.61280732635     IErMin= 2 ErrMin= 6.82D-05
 ErrMax= 2.34D-04 EMaxC= 1.00D-01 BMatC= 1.04D-06 BMatP= 1.57D-07
 IDIUse=3 WtCom= 3.95D-01 WtEn= 6.05D-01
 Coeff-Com:  0.285D-03-0.554D-01 0.771D+00 0.284D+00
 Coeff-En:   0.000D+00 0.000D+00 0.649D+00 0.351D+00
 Coeff:      0.113D-03-0.219D-01 0.698D+00 0.324D+00
 Gap=     0.027 Goal=   None    Shift=    0.000
 RMSDP=2.52D-05 MaxDP=7.03D-03 DE= 1.78D-06 OVMax= 3.01D-03

 Cycle   5  Pass 1  IDiag  1:
 RMSU=  7.15D-06    CP:  9.38D-01  1.08D+00  1.19D+00  4.15D-01
 E= -1581.61280743286     Delta-E=       -0.000001888765 Rises=F Damp=F
 DIIS: error= 9.61D-05 at cycle   5 NSaved=   5.
 NSaved= 5 IEnMin= 5 EnMin= -1581.61280743286     IErMin= 2 ErrMin= 6.82D-05
 ErrMax= 9.61D-05 EMaxC= 1.00D-01 BMatC= 1.48D-07 BMatP= 1.57D-07
 IDIUse=1 WtCom= 1.00D+00 WtEn= 0.00D+00
 Coeff-Com:  0.315D-03-0.488D-01 0.363D+00 0.273D+00 0.412D+00
 Coeff:      0.315D-03-0.488D-01 0.363D+00 0.273D+00 0.412D+00
 Gap=     0.027 Goal=   None    Shift=    0.000
 RMSDP=9.53D-06 MaxDP=3.31D-03 DE=-1.89D-06 OVMax= 8.89D-04

 Cycle   6  Pass 1  IDiag  1:
 RMSU=  5.87D-06    CP:  9.38D-01  1.08D+00  1.21D+00  4.82D-01  2.17D-01
 E= -1581.61280775295     Delta-E=       -0.000000320085 Rises=F Damp=F
 DIIS: error= 1.10D-05 at cycle   6 NSaved=   6.
 NSaved= 6 IEnMin= 6 EnMin= -1581.61280775295     IErMin= 6 ErrMin= 1.10D-05
 ErrMax= 1.10D-05 EMaxC= 1.00D-01 BMatC= 6.78D-09 BMatP= 1.48D-07
 IDIUse=1 WtCom= 1.00D+00 WtEn= 0.00D+00
 Coeff-Com:  0.105D-03-0.116D-01-0.416D-01 0.771D-01 0.268D+00 0.708D+00
 Coeff:      0.105D-03-0.116D-01-0.416D-01 0.771D-01 0.268D+00 0.708D+00
 Gap=     0.027 Goal=   None    Shift=    0.000
 RMSDP=7.06D-06 MaxDP=3.17D-03 DE=-3.20D-07 OVMax= 2.01D-04

 Cycle   7  Pass 1  IDiag  1:
 RMSU=  1.48D-06    CP:  9.38D-01  1.08D+00  1.23D+00  5.57D-01  7.69D-01
                    CP:  3.99D-01
 E= -1581.61280777006     Delta-E=       -0.000000017114 Rises=F Damp=F
 DIIS: error= 7.62D-06 at cycle   7 NSaved=   7.
 NSaved= 7 IEnMin= 7 EnMin= -1581.61280777006     IErMin= 7 ErrMin= 7.62D-06
 ErrMax= 7.62D-06 EMaxC= 1.00D-01 BMatC= 2.58D-09 BMatP= 6.78D-09
 IDIUse=1 WtCom= 1.00D+00 WtEn= 0.00D+00
 Coeff-Com: -0.343D-04 0.842D-02-0.138D+00-0.394D-01 0.317D-01 0.472D+00
 Coeff-Com:  0.665D+00
 Coeff:     -0.343D-04 0.842D-02-0.138D+00-0.394D-01 0.317D-01 0.472D+00
 Coeff:      0.665D+00
 Gap=     0.027 Goal=   None    Shift=    0.000
 RMSDP=3.57D-06 MaxDP=1.59D-03 DE=-1.71D-08 OVMax= 1.00D-04

 Cycle   8  Pass 1  IDiag  1:
 RMSU=  2.64D-07    CP:  9.38D-01  1.08D+00  1.25D+00  5.35D-01  5.75D-01
                    CP:  8.20D-01  1.02D+00
 E= -1581.61280777831     Delta-E=       -0.000000008251 Rises=F Damp=F
 DIIS: error= 2.43D-06 at cycle   8 NSaved=   8.
 NSaved= 8 IEnMin= 8 EnMin= -1581.61280777831     IErMin= 8 ErrMin= 2.43D-06
 ErrMax= 2.43D-06 EMaxC= 1.00D-01 BMatC= 8.99D-10 BMatP= 2.58D-09
 IDIUse=1 WtCom= 1.00D+00 WtEn= 0.00D+00
 Coeff-Com: -0.472D-04 0.649D-02-0.310D-01-0.331D-01-0.747D-01-0.114D+00
 Coeff-Com:  0.316D+00 0.931D+00
 Coeff:     -0.472D-04 0.649D-02-0.310D-01-0.331D-01-0.747D-01-0.114D+00
 Coeff:      0.316D+00 0.931D+00
 Gap=     0.027 Goal=   None    Shift=    0.000
 RMSDP=7.62D-07 MaxDP=1.37D-04 DE=-8.25D-09 OVMax= 4.58D-05

 Cycle   9  Pass 1  IDiag  1:
 RMSU=  1.40D-07    CP:  9.38D-01  1.08D+00  1.25D+00  5.49D-01  6.17D-01
                    CP:  8.48D-01  1.09D+00  1.82D+00
 E= -1581.61280778143     Delta-E=       -0.000000003120 Rises=F Damp=F
 DIIS: error= 1.66D-06 at cycle   9 NSaved=   9.
 NSaved= 9 IEnMin= 9 EnMin= -1581.61280778143     IErMin= 9 ErrMin= 1.66D-06
 ErrMax= 1.66D-06 EMaxC= 1.00D-01 BMatC= 3.75D-10 BMatP= 8.99D-10
 IDIUse=1 WtCom= 1.00D+00 WtEn= 0.00D+00
 Coeff-Com: -0.209D-04 0.148D-02 0.318D-01-0.732D-02-0.685D-01-0.248D+00
 Coeff-Com:  0.357D-01 0.501D+00 0.754D+00
 Coeff:     -0.209D-04 0.148D-02 0.318D-01-0.732D-02-0.685D-01-0.248D+00
 Coeff:      0.357D-01 0.501D+00 0.754D+00
 Gap=     0.027 Goal=   None    Shift=    0.000
 RMSDP=8.94D-07 MaxDP=4.43D-04 DE=-3.12D-09 OVMax= 3.12D-05

 Cycle  10  Pass 1  IDiag  1:
 RMSU=  6.14D-08    CP:  9.38D-01  1.08D+00  1.25D+00  5.62D-01  6.76D-01
                    CP:  7.65D-01  1.21D+00  2.11D+00  1.34D+00
 E= -1581.61280778293     Delta-E=       -0.000000001493 Rises=F Damp=F
 DIIS: error= 9.38D-07 at cycle  10 NSaved=  10.
 NSaved=10 IEnMin=10 EnMin= -1581.61280778293     IErMin=10 ErrMin= 9.38D-07
 ErrMax= 9.38D-07 EMaxC= 1.00D-01 BMatC= 2.15D-10 BMatP= 3.75D-10
 IDIUse=1 WtCom= 1.00D+00 WtEn= 0.00D+00
 Coeff-Com:  0.218D-04-0.391D-02 0.504D-01 0.134D-01-0.129D-01-0.104D+00
 Coeff-Com: -0.168D+00-0.317D+00 0.531D+00 0.101D+01
 Coeff:      0.218D-04-0.391D-02 0.504D-01 0.134D-01-0.129D-01-0.104D+00
 Coeff:     -0.168D+00-0.317D+00 0.531D+00 0.101D+01
 Gap=     0.027 Goal=   None    Shift=    0.000
 RMSDP=6.70D-07 MaxDP=2.74D-04 DE=-1.49D-09 OVMax= 3.10D-05

 Cycle  11  Pass 1  IDiag  1:
 RMSU=  3.84D-08    CP:  9.38D-01  1.08D+00  1.25D+00  5.48D-01  6.38D-01
                    CP:  8.10D-01  1.25D+00  2.29D+00  1.62D+00  2.27D+00
 E= -1581.61280778390     Delta-E=       -0.000000000975 Rises=F Damp=F
 DIIS: error= 4.46D-07 at cycle  11 NSaved=  11.
 NSaved=11 IEnMin=11 EnMin= -1581.61280778390     IErMin=11 ErrMin= 4.46D-07
 ErrMax= 4.46D-07 EMaxC= 1.00D-01 BMatC= 4.96D-11 BMatP= 2.15D-10
 IDIUse=1 WtCom= 1.00D+00 WtEn= 0.00D+00
 Coeff-Com:  0.116D-04-0.107D-02 0.663D-04-0.774D-03 0.540D-02 0.809D-01
 Coeff-Com:  0.709D-02-0.305D+00-0.112D+00 0.333D+00 0.992D+00
 Coeff:      0.116D-04-0.107D-02 0.663D-04-0.774D-03 0.540D-02 0.809D-01
 Coeff:      0.709D-02-0.305D+00-0.112D+00 0.333D+00 0.992D+00
 Gap=     0.027 Goal=   None    Shift=    0.000
 RMSDP=2.71D-07 MaxDP=1.14D-04 DE=-9.75D-10 OVMax= 1.34D-05

 Cycle  12  Pass 1  IDiag  1:
 RMSU=  4.77D-08    CP:  9.38D-01  1.08D+00  1.25D+00  5.52D-01  6.51D-01
                    CP:  7.84D-01  1.22D+00  2.23D+00  1.73D+00  2.37D+00
                    CP:  1.80D+00
 E= -1581.61280778414     Delta-E=       -0.000000000244 Rises=F Damp=F
 DIIS: error= 2.48D-07 at cycle  12 NSaved=  12.
 NSaved=12 IEnMin=12 EnMin= -1581.61280778414     IErMin=12 ErrMin= 2.48D-07
 ErrMax= 2.48D-07 EMaxC= 1.00D-01 BMatC= 1.14D-11 BMatP= 4.96D-11
 IDIUse=1 WtCom= 1.00D+00 WtEn= 0.00D+00
 Coeff-Com: -0.327D-05 0.961D-03-0.130D-01-0.671D-02-0.383D-02 0.467D-01
 Coeff-Com:  0.663D-01 0.300D-01-0.186D+00-0.185D+00 0.814D-01 0.117D+01
 Coeff:     -0.327D-05 0.961D-03-0.130D-01-0.671D-02-0.383D-02 0.467D-01
 Coeff:      0.663D-01 0.300D-01-0.186D+00-0.185D+00 0.814D-01 0.117D+01
 Gap=     0.027 Goal=   None    Shift=    0.000
 RMSDP=1.05D-07 MaxDP=4.03D-05 DE=-2.44D-10 OVMax= 9.00D-06

 Cycle  13  Pass 1  IDiag  1:
 RMSU=  1.69D-08    CP:  9.38D-01  1.08D+00  1.25D+00  5.52D-01  6.44D-01
                    CP:  7.92D-01  1.19D+00  2.13D+00  1.70D+00  2.67D+00
                    CP:  2.18D+00  1.14D+00
 E= -1581.61280778421     Delta-E=       -0.000000000068 Rises=F Damp=F
 DIIS: error= 1.46D-07 at cycle  13 NSaved=  13.
 NSaved=13 IEnMin=13 EnMin= -1581.61280778421     IErMin=13 ErrMin= 1.46D-07
 ErrMax= 1.46D-07 EMaxC= 1.00D-01 BMatC= 7.38D-12 BMatP= 1.14D-11
 IDIUse=1 WtCom= 1.00D+00 WtEn= 0.00D+00
 Coeff-Com:  0.863D-06-0.179D-03 0.680D-02-0.880D-03-0.881D-02-0.262D-01
 Coeff-Com: -0.187D-01 0.602D-01 0.249D-01 0.102D+00-0.377D+00-0.297D+00
 Coeff-Com:  0.153D+01
 Coeff:      0.863D-06-0.179D-03 0.680D-02-0.880D-03-0.881D-02-0.262D-01
 Coeff:     -0.187D-01 0.602D-01 0.249D-01 0.102D+00-0.377D+00-0.297D+00
 Coeff:      0.153D+01
 Gap=     0.027 Goal=   None    Shift=    0.000
 RMSDP=5.60D-08 MaxDP=2.29D-05 DE=-6.80D-11 OVMax= 5.99D-06

 Cycle  14  Pass 1  IDiag  1:
 RMSU=  8.92D-09    CP:  9.38D-01  1.08D+00  1.25D+00  5.52D-01  6.48D-01
                    CP:  7.87D-01  1.20D+00  2.11D+00  1.70D+00  2.72D+00
                    CP:  2.33D+00  1.32D+00  1.32D+00
 E= -1581.61280778424     Delta-E=       -0.000000000022 Rises=F Damp=F
 DIIS: error= 6.52D-08 at cycle  14 NSaved=  14.
 NSaved=14 IEnMin=14 EnMin= -1581.61280778424     IErMin=14 ErrMin= 6.52D-08
 ErrMax= 6.52D-08 EMaxC= 1.00D-01 BMatC= 2.10D-12 BMatP= 7.38D-12
 IDIUse=1 WtCom= 1.00D+00 WtEn= 0.00D+00
 Coeff-Com:  0.267D-05-0.463D-03 0.643D-02 0.150D-02-0.202D-02-0.151D-01
 Coeff-Com: -0.222D-01-0.261D-01 0.623D-01 0.139D+00-0.700D-01-0.530D+00
 Coeff-Com:  0.889D-01 0.137D+01
 Coeff:      0.267D-05-0.463D-03 0.643D-02 0.150D-02-0.202D-02-0.151D-01
 Coeff:     -0.222D-01-0.261D-01 0.623D-01 0.139D+00-0.700D-01-0.530D+00
 Coeff:      0.889D-01 0.137D+01
 Gap=     0.027 Goal=   None    Shift=    0.000
 RMSDP=4.09D-08 MaxDP=1.80D-05 DE=-2.21D-11 OVMax= 4.38D-06

 Cycle  15  Pass 1  IDiag  1:
 RMSU=  6.54D-09    CP:  9.38D-01  1.08D+00  1.25D+00  5.52D-01  6.46D-01
                    CP:  7.92D-01  1.20D+00  2.14D+00  1.71D+00  2.75D+00
                    CP:  2.40D+00  1.32D+00  1.56D+00  1.32D+00
 E= -1581.61280778425     Delta-E=       -0.000000000011 Rises=F Damp=F
 DIIS: error= 7.89D-08 at cycle  15 NSaved=  15.
 NSaved=15 IEnMin=15 EnMin= -1581.61280778425     IErMin=14 ErrMin= 6.52D-08
 ErrMax= 7.89D-08 EMaxC= 1.00D-01 BMatC= 1.17D-12 BMatP= 2.10D-12
 IDIUse=1 WtCom= 1.00D+00 WtEn= 0.00D+00
 Coeff-Com:  0.115D-05-0.117D-03-0.193D-03 0.333D-03 0.160D-02 0.835D-02
 Coeff-Com: -0.824D-03-0.331D-01-0.733D-02 0.429D-01 0.114D+00-0.775D-01
 Coeff-Com: -0.626D+00 0.462D+00 0.112D+01
 Coeff:      0.115D-05-0.117D-03-0.193D-03 0.333D-03 0.160D-02 0.835D-02
 Coeff:     -0.824D-03-0.331D-01-0.733D-02 0.429D-01 0.114D+00-0.775D-01
 Coeff:     -0.626D+00 0.462D+00 0.112D+01
 Gap=     0.027 Goal=   None    Shift=    0.000
 RMSDP=2.59D-08 MaxDP=1.03D-05 DE=-1.14D-11 OVMax= 3.25D-06

 Cycle  16  Pass 1  IDiag  1:
 RMSU=  3.53D-09    CP:  9.38D-01  1.08D+00  1.25D+00  5.52D-01  6.48D-01
                    CP:  7.90D-01  1.21D+00  2.15D+00  1.75D+00  2.77D+00
                    CP:  2.42D+00  1.35D+00  1.60D+00  1.76D+00  1.46D+00
 E= -1581.61280778426     Delta-E=       -0.000000000011 Rises=F Damp=F
 DIIS: error= 5.95D-08 at cycle  16 NSaved=  16.
 NSaved=16 IEnMin=16 EnMin= -1581.61280778426     IErMin=16 ErrMin= 5.95D-08
 ErrMax= 5.95D-08 EMaxC= 1.00D-01 BMatC= 4.22D-13 BMatP= 1.17D-12
 IDIUse=1 WtCom= 1.00D+00 WtEn= 0.00D+00
 Coeff-Com: -0.312D-06 0.109D-03-0.237D-02-0.642D-03 0.107D-02 0.108D-01
 Coeff-Com:  0.720D-02-0.683D-02-0.344D-01-0.126D-01 0.738D-01 0.134D+00
 Coeff-Com: -0.351D+00-0.267D+00 0.579D+00 0.869D+00
 Coeff:     -0.312D-06 0.109D-03-0.237D-02-0.642D-03 0.107D-02 0.108D-01
 Coeff:      0.720D-02-0.683D-02-0.344D-01-0.126D-01 0.738D-01 0.134D+00
 Coeff:     -0.351D+00-0.267D+00 0.579D+00 0.869D+00
 Gap=     0.027 Goal=   None    Shift=    0.000
 RMSDP=1.03D-08 MaxDP=2.68D-06 DE=-1.09D-11 OVMax= 1.97D-06

 Cycle  17  Pass 1  IDiag  1:
 RMSU=  2.94D-09    CP:  9.38D-01  1.08D+00  1.25D+00  5.52D-01  6.48D-01
                    CP:  7.90D-01  1.21D+00  2.15D+00  1.75D+00  2.81D+00
                    CP:  2.46D+00  1.36D+00  1.63D+00  1.95D+00  1.77D+00
                    CP:  1.30D+00
 E= -1581.61280778426     Delta-E=       -0.000000000005 Rises=F Damp=F
 DIIS: error= 2.05D-08 at cycle  17 NSaved=  17.
 NSaved=17 IEnMin=17 EnMin= -1581.61280778426     IErMin=17 ErrMin= 2.05D-08
 ErrMax= 2.05D-08 EMaxC= 1.00D-01 BMatC= 9.90D-14 BMatP= 4.22D-13
 IDIUse=1 WtCom= 1.00D+00 WtEn= 0.00D+00
 Coeff-Com: -0.494D-06 0.783D-04-0.815D-03-0.477D-03-0.368D-03 0.244D-02
 Coeff-Com:  0.358D-02 0.464D-02-0.117D-01-0.867D-02-0.679D-02 0.611D-01
 Coeff-Com:  0.409D-01-0.197D+00-0.800D-01 0.246D+00 0.947D+00
 Coeff:     -0.494D-06 0.783D-04-0.815D-03-0.477D-03-0.368D-03 0.244D-02
 Coeff:      0.358D-02 0.464D-02-0.117D-01-0.867D-02-0.679D-02 0.611D-01
 Coeff:      0.409D-01-0.197D+00-0.800D-01 0.246D+00 0.947D+00
 Gap=     0.027 Goal=   None    Shift=    0.000
 RMSDP=5.57D-09 MaxDP=1.81D-06 DE=-5.46D-12 OVMax= 7.62D-07

 Cycle  18  Pass 1  IDiag  1:
 RMSU=  1.31D-09    CP:  9.38D-01  1.08D+00  1.25D+00  5.52D-01  6.47D-01
                    CP:  7.90D-01  1.20D+00  2.15D+00  1.75D+00  2.81D+00
                    CP:  2.48D+00  1.37D+00  1.65D+00  1.97D+00  1.91D+00
                    CP:  1.60D+00  1.03D+00
 E= -1581.61280778428     Delta-E=       -0.000000000014 Rises=F Damp=F
 DIIS: error= 1.72D-08 at cycle  18 NSaved=  18.
 NSaved=18 IEnMin=18 EnMin= -1581.61280778428     IErMin=18 ErrMin= 1.72D-08
 ErrMax= 1.72D-08 EMaxC= 1.00D-01 BMatC= 8.06D-14 BMatP= 9.90D-14
 IDIUse=1 WtCom= 1.00D+00 WtEn= 0.00D+00
 Coeff-Com:  0.230D-06-0.658D-04 0.136D-02 0.826D-04-0.108D-02-0.392D-02
 Coeff-Com: -0.393D-02-0.165D-03 0.122D-01 0.248D-01-0.365D-01-0.888D-01
 Coeff-Com:  0.129D+00 0.188D+00-0.178D+00-0.494D+00-0.286D+00 0.174D+01
 Coeff:      0.230D-06-0.658D-04 0.136D-02 0.826D-04-0.108D-02-0.392D-02
 Coeff:     -0.393D-02-0.165D-03 0.122D-01 0.248D-01-0.365D-01-0.888D-01
 Coeff:      0.129D+00 0.188D+00-0.178D+00-0.494D+00-0.286D+00 0.174D+01
 Gap=     0.027 Goal=   None    Shift=    0.000
 RMSDP=3.39D-09 MaxDP=9.36D-07 DE=-1.41D-11 OVMax= 7.37D-07

 SCF Done:  E(ROHF) =  -1581.61280778     A.U. after   18 cycles
             Convg  =    0.3393D-08             -V/T =  1.9999
 <Sx>= 0.0000 <Sy>= 0.0000 <Sz>= 0.5000 <S**2>= 0.7500 S= 0.5000
 <L.S>= 0.000000000000E+00
 KE= 1.581703021650D+03 PE=-3.936953012352D+03 EE= 7.007486566529D+02
 Annihilation of the first spin contaminant:
 S**2 before annihilation     0.7500,   after     0.7500
 DiagDN has N=   616 LTot=  1880 but NE2=     3 cannot use DSYEVD.
 Leave Link  502 at Mon Dec 16 20:52:08 2013, MaxMem=17179869184 cpu:  397068.8
 (Enter /share/apps/gaussian/g09root/g09/l801.exe)
 GenMOA:  NOpAll=  4 NOp2=4 NOpUse=  4 JSym2X=1
 FoFCou: FMM=F IPFlag=           0 FMFlag=           0 FMFlg1=           0
         NFxFlg=           0 DoJE=F BraDBF=F KetDBF=F FulRan=T
         Omega=  0.000000  0.000000  1.000000  0.000000  0.000000 ICntrl=       0 IOpCl=  1
         NMat0=    1 NMatS0=    1 NMatT0=    0 NMatD0=    1 NMtDS0=    0 NMtDT0=    0
         I1Cent=           0 NGrid=           0.
 Petite list used in FoFCou.
 <Sx>= 0.0000 <Sy>= 0.0000 <Sz>= 0.5000 <S**2>= 0.7500 S= 0.5000
 ExpMin= 8.26D-03 ExpMax= 4.57D+07 ExpMxC= 4.03D+03 IAcc=3 IRadAn=         5 AccDes= 0.00D+00
 HarFok:  IExCor=  205 AccDes= 0.00D+00 IRadAn=         5 IDoV=-2
 ScaDFX=  1.000000  1.000000  1.000000  1.000000
 Largest valence mixing into a core orbital is  5.17D-04
 Largest core mixing into a valence orbital is  1.49D-04
 Largest valence mixing into a core orbital is  6.48D-04
 Largest core mixing into a valence orbital is  2.13D-04
 Range of M.O.s used for correlation:    11   616
 NBasis=   616 NAE=    19 NBE=    18 NFC=    10 NFV=     0
 NROrb=    606 NOA=     9 NOB=     8 NVA=   597 NVB=   598

 **** Warning!!: The largest alpha MO coefficient is  0.28919231D+03


 **** Warning!!: The largest beta MO coefficient is  0.28919210D+03

 Singles contribution to E2=   -0.1107480333D-02
 Leave Link  801 at Mon Dec 16 21:18:19 2013, MaxMem=17179869184 cpu:   25097.8
 (Enter /share/apps/gaussian/g09root/g09/l906.exe)
 FulOut=F Deriv=F AODrv=F NAtomX=     2
   MMem=           0  MDisk=           9 MDiskD=           9
  W3Min=    11237616 MinDsk=    12533414 NBas6D=        1044
 NBas2D=      555573    NTT=      545490    LW2=   251210375
    MDV= 17175383714 MDiskM=        4061 NBas2p=      555482
 Disk-based method using OVN memory for  9 occupieds at a time.
 Permanent disk used for amplitudes and <ij||ab> integrals=    74214264 words.
 Estimated scratch disk usage=  8992266012 words.
 IUseRI=2 ITolRI= 6 IR12RI=0
 IMap=   1   2   3   4   5   6   7   8   9
 Actual    scratch disk usage=  8977223282 words.
 JobTyp=2 Pass  1:  I=   1 to   9 NPSUse= 16 ParTrn=T ParDer=T DoDerP=F.
 (rs|ai) integrals will be sorted in core.
 T,EIJ(AA): I=   1 J=   2      0.1254073E-03     -0.7147022E-03
 T,EIJ(AA): I=   1 J=   3      0.1563077E-03     -0.8322660E-03
 T,EIJ(AA): I=   1 J=   4      0.1296742E-03     -0.6129953E-03
 T,EIJ(AA): I=   1 J=   5      0.5884548E-04     -0.3411768E-03
 T,EIJ(AA): I=   1 J=   6      0.5903403E-03     -0.2274576E-02
 T,EIJ(AA): I=   1 J=   7      0.7742293E-03     -0.3375180E-02
 T,EIJ(AA): I=   1 J=   8      0.7549889E-03     -0.3276148E-02
 T,EIJ(AA): I=   1 J=   9      0.4632732E-03     -0.1618503E-02
 T,EIJ(AA): I=   2 J=   3      0.1018682E-02     -0.6922323E-02
 T,EIJ(AA): I=   2 J=   4      0.1496127E-02     -0.1002087E-01
 T,EIJ(AA): I=   2 J=   5      0.1132864E-02     -0.7716918E-02
 T,EIJ(AA): I=   2 J=   6      0.1625972E-02     -0.6740238E-02
 T,EIJ(AA): I=   2 J=   7      0.1042087E-03     -0.4043768E-03
 T,EIJ(AA): I=   2 J=   8      0.3197073E-03     -0.1511370E-02
 T,EIJ(AA): I=   2 J=   9      0.9987392E-03     -0.3597646E-02
 T,EIJ(AA): I=   3 J=   4      0.1090231E-02     -0.6212447E-02
 T,EIJ(AA): I=   3 J=   5      0.1189572E-02     -0.7570575E-02
 T,EIJ(AA): I=   3 J=   6      0.2466413E-02     -0.1015827E-01
 T,EIJ(AA): I=   3 J=   7      0.3987031E-03     -0.1606672E-02
 T,EIJ(AA): I=   3 J=   8      0.1273502E-03     -0.4473532E-03
 T,EIJ(AA): I=   3 J=   9      0.1265047E-02     -0.4184660E-02
 T,EIJ(AA): I=   4 J=   5      0.1764540E-02     -0.1135018E-01
 T,EIJ(AA): I=   4 J=   6      0.1923632E-02     -0.6751872E-02
 T,EIJ(AA): I=   4 J=   7      0.4892539E-03     -0.1773672E-02
 T,EIJ(AA): I=   4 J=   8      0.4884854E-03     -0.1737321E-02
 T,EIJ(AA): I=   4 J=   9      0.1108599E-02     -0.3371732E-02
 T,EIJ(AA): I=   5 J=   6      0.2077216E-02     -0.8218967E-02
 T,EIJ(AA): I=   5 J=   7      0.1889625E-03     -0.9255126E-03
 T,EIJ(AA): I=   5 J=   8      0.2423802E-03     -0.1225315E-02
 T,EIJ(AA): I=   5 J=   9      0.1139922E-02     -0.3554429E-02
 T,EIJ(AA): I=   6 J=   7      0.2567668E-02     -0.6344260E-02
 T,EIJ(AA): I=   6 J=   8      0.2598150E-02     -0.6685908E-02
 T,EIJ(AA): I=   6 J=   9      0.1300216E-02     -0.2797712E-02
 T,EIJ(AA): I=   7 J=   8      0.3478007E-02     -0.9361777E-02
 T,EIJ(AA): I=   7 J=   9      0.3152031E-02     -0.5430903E-02
 T,EIJ(AA): I=   8 J=   9      0.3424210E-02     -0.5669898E-02
 T,EIJ(AB): I=   1 J=   1      0.2191558E-02     -0.1338425E-01
 T,EIJ(AB): I=   1 J=   2      0.3849318E-03     -0.2163086E-02
 T,EIJ(AB): I=   1 J=   3      0.3785448E-03     -0.1970535E-02
 T,EIJ(AB): I=   1 J=   4      0.7310925E-04     -0.4576620E-03
 T,EIJ(AB): I=   1 J=   5      0.1360813E-02     -0.6385314E-02
 T,EIJ(AB): I=   1 J=   6      0.2324727E-02     -0.1206230E-01
 T,EIJ(AB): I=   1 J=   7      0.2033331E-02     -0.1063736E-01
 T,EIJ(AB): I=   1 J=   8      0.8416795E-03     -0.3802504E-02
 T,EIJ(AB): I=   2 J=   1      0.2121779E-03     -0.1278137E-02
 T,EIJ(AB): I=   2 J=   2      0.1337599E-02     -0.9305548E-02
 T,EIJ(AB): I=   2 J=   3      0.1803510E-02     -0.1145066E-01
 T,EIJ(AB): I=   2 J=   4      0.1530831E-02     -0.1070628E-01
 T,EIJ(AB): I=   2 J=   5      0.1939607E-02     -0.8918181E-02
 T,EIJ(AB): I=   2 J=   6      0.6560566E-03     -0.2501426E-02
 T,EIJ(AB): I=   2 J=   7      0.4512144E-03     -0.2349815E-02
 T,EIJ(AB): I=   2 J=   8      0.1556342E-02     -0.5314061E-02
 T,EIJ(AB): I=   3 J=   1      0.3051993E-03     -0.1750120E-02
 T,EIJ(AB): I=   3 J=   2      0.2456041E-02     -0.1655130E-01
 T,EIJ(AB): I=   3 J=   3      0.1598679E-02     -0.9485203E-02
 T,EIJ(AB): I=   3 J=   4      0.1596846E-02     -0.1044912E-01
 T,EIJ(AB): I=   3 J=   5      0.2582728E-02     -0.1060303E-01
 T,EIJ(AB): I=   3 J=   6      0.6010802E-03     -0.2007650E-02
 T,EIJ(AB): I=   3 J=   7      0.1003421E-02     -0.4903470E-02
 T,EIJ(AB): I=   3 J=   8      0.1905061E-02     -0.5912572E-02
 T,EIJ(AB): I=   4 J=   1      0.2445889E-03     -0.1334284E-02
 T,EIJ(AB): I=   4 J=   2      0.1493176E-02     -0.9329306E-02
 T,EIJ(AB): I=   4 J=   3      0.3865120E-02     -0.2029068E-01
 T,EIJ(AB): I=   4 J=   4      0.2024120E-02     -0.1267373E-01
 T,EIJ(AB): I=   4 J=   5      0.3424510E-02     -0.1163091E-01
 T,EIJ(AB): I=   4 J=   6      0.8001510E-03     -0.2145773E-02
 T,EIJ(AB): I=   4 J=   7      0.6574338E-03     -0.2725369E-02
 T,EIJ(AB): I=   4 J=   8      0.2002264E-02     -0.6059601E-02
 T,EIJ(AB): I=   5 J=   1      0.7048786E-04     -0.4508496E-03
 T,EIJ(AB): I=   5 J=   2      0.1550210E-02     -0.1005149E-01
 T,EIJ(AB): I=   5 J=   3      0.2031536E-02     -0.1223553E-01
 T,EIJ(AB): I=   5 J=   4      0.3156952E-02     -0.2115917E-01
 T,EIJ(AB): I=   5 J=   5      0.2408852E-02     -0.1039401E-01
 T,EIJ(AB): I=   5 J=   6      0.2929818E-03     -0.9582159E-03
 T,EIJ(AB): I=   5 J=   7      0.3783058E-03     -0.2039890E-02
 T,EIJ(AB): I=   5 J=   8      0.1949521E-02     -0.5891801E-02
 T,EIJ(AB): I=   6 J=   1      0.1383238E-02     -0.6547734E-02
 T,EIJ(AB): I=   6 J=   2      0.2822601E-02     -0.1081609E-01
 T,EIJ(AB): I=   6 J=   3      0.4997914E-02     -0.1317400E-01
 T,EIJ(AB): I=   6 J=   4      0.2626619E-02     -0.1059870E-01
 T,EIJ(AB): I=   6 J=   5      0.1734286E-01     -0.3156399E-01
 T,EIJ(AB): I=   6 J=   6      0.4275371E-02     -0.9466907E-02
 T,EIJ(AB): I=   6 J=   7      0.3105915E-02     -0.8580059E-02
 T,EIJ(AB): I=   6 J=   8      0.3782228E-02     -0.9749044E-02
 T,EIJ(AB): I=   7 J=   1      0.2201283E-02     -0.1155786E-01
 T,EIJ(AB): I=   7 J=   2      0.6335002E-03     -0.2513912E-02
 T,EIJ(AB): I=   7 J=   3      0.8595791E-03     -0.2903257E-02
 T,EIJ(AB): I=   7 J=   4      0.2337850E-03     -0.1187366E-02
 T,EIJ(AB): I=   7 J=   5      0.3106326E-02     -0.8024642E-02
 T,EIJ(AB): I=   7 J=   6      0.8049942E-02     -0.2520675E-01
 T,EIJ(AB): I=   7 J=   7      0.4378609E-02     -0.1241912E-01
 T,EIJ(AB): I=   7 J=   8      0.3860126E-02     -0.6797535E-02
 T,EIJ(AB): I=   8 J=   1      0.2120906E-02     -0.1109226E-01
 T,EIJ(AB): I=   8 J=   2      0.1145949E-02     -0.5024956E-02
 T,EIJ(AB): I=   8 J=   3      0.8665193E-03     -0.3010411E-02
 T,EIJ(AB): I=   8 J=   4      0.3159918E-03     -0.1615186E-02
 T,EIJ(AB): I=   8 J=   5      0.3111333E-02     -0.8260220E-02
 T,EIJ(AB): I=   8 J=   6      0.4638376E-02     -0.1327588E-01
 T,EIJ(AB): I=   8 J=   7      0.7448471E-02     -0.2227688E-01
 T,EIJ(AB): I=   8 J=   8      0.4281367E-02     -0.7172026E-02
 T,EIJ(AB): I=   9 J=   1      0.9514119E-03     -0.4287909E-02
 T,EIJ(AB): I=   9 J=   2      0.1800654E-02     -0.5464019E-02
 T,EIJ(AB): I=   9 J=   3      0.2072600E-02     -0.6082272E-02
 T,EIJ(AB): I=   9 J=   4      0.1855108E-02     -0.5449670E-02
 T,EIJ(AB): I=   9 J=   5      0.3667424E-02     -0.9345228E-02
 T,EIJ(AB): I=   9 J=   6      0.3824557E-02     -0.7351645E-02
 T,EIJ(AB): I=   9 J=   7      0.4631258E-02     -0.7738500E-02
 T,EIJ(AB): I=   9 J=   8      0.2298139E-01     -0.2135983E-01
 IMap=   1   2   3   4   5   6   7   8
 Actual    scratch disk usage=  8992260380 words.
 JobTyp=3 Pass  1:  I=   1 to   8 NPSUse= 16 ParTrn=T ParDer=T DoDerP=F.
 (rs|ai) integrals will be sorted in core.
 T,EIJ(BB): I=   1 J=   2      0.1826844E-03     -0.9409448E-03
 T,EIJ(BB): I=   1 J=   3      0.1842912E-03     -0.8213089E-03
 T,EIJ(BB): I=   1 J=   4      0.6003174E-04     -0.3488696E-03
 T,EIJ(BB): I=   1 J=   5      0.5852267E-03     -0.2246156E-02
 T,EIJ(BB): I=   1 J=   6      0.8446515E-03     -0.3610756E-02
 T,EIJ(BB): I=   1 J=   7      0.7328503E-03     -0.3183764E-02
 T,EIJ(BB): I=   1 J=   8      0.4217212E-03     -0.1479713E-02
 T,EIJ(BB): I=   2 J=   3      0.1167704E-02     -0.6087068E-02
 T,EIJ(BB): I=   2 J=   4      0.1252003E-02     -0.7524692E-02
 T,EIJ(BB): I=   2 J=   5      0.2355447E-02     -0.9612561E-02
 T,EIJ(BB): I=   2 J=   6      0.5937330E-03     -0.1875114E-02
 T,EIJ(BB): I=   2 J=   7      0.1315450E-03     -0.4536639E-03
 T,EIJ(BB): I=   2 J=   8      0.1417499E-02     -0.4616230E-02
 T,EIJ(BB): I=   3 J=   4      0.1783320E-02     -0.1073691E-01
 T,EIJ(BB): I=   3 J=   5      0.1876726E-02     -0.6510552E-02
 T,EIJ(BB): I=   3 J=   6      0.1038163E-02     -0.2499302E-02
 T,EIJ(BB): I=   3 J=   7      0.7457817E-03     -0.2498166E-02
 T,EIJ(BB): I=   3 J=   8      0.1239068E-02     -0.3649771E-02
 T,EIJ(BB): I=   4 J=   5      0.2068155E-02     -0.8669265E-02
 T,EIJ(BB): I=   4 J=   6      0.2762658E-03     -0.8413661E-03
 T,EIJ(BB): I=   4 J=   7      0.3246613E-03     -0.1599700E-02
 T,EIJ(BB): I=   4 J=   8      0.1301847E-02     -0.3991740E-02
 T,EIJ(BB): I=   5 J=   6      0.3569383E-02     -0.7300740E-02
 T,EIJ(BB): I=   5 J=   7      0.2608689E-02     -0.6801349E-02
 T,EIJ(BB): I=   5 J=   8      0.1326762E-02     -0.2914964E-02
 T,EIJ(BB): I=   6 J=   7      0.3504776E-02     -0.9461489E-02
 T,EIJ(BB): I=   6 J=   8      0.2784009E-02     -0.4989906E-02
 T,EIJ(BB): I=   7 J=   8      0.3204114E-02     -0.5315546E-02
 Spin components of T(2) and E(2):
     alpha-alpha T2 =       0.4222995331D-01 E2=     -0.1553387239D+00
     alpha-beta  T2 =       0.1868485148D+00 E2=     -0.6036340722D+00
     beta-beta   T2 =       0.3758110755D-01 E2=     -0.1205816072D+00
 The integrals were generated   2 times.
 ANorm=    0.1125933229D+01
 E2 =    -0.8806618836D+00 EUMP2 =    -0.15824934696679D+04
 Leave Link  906 at Mon Dec 16 22:32:03 2013, MaxMem=17179869184 cpu:   69510.5
 (Enter /share/apps/gaussian/g09root/g09/l904.exe)

 Complete Basis Set (CBS) Extrapolation:
 M. R. Nyden and G. A. Petersson, JCP 75, 1843 (1981)
 G. A. Petersson and M. A. Al-Laham, JCP 94, 6081 (1991)
 G. A. Petersson, T. Tensfeldt, and J. A. Montgomery, JCP 94, 6091 (1991)
 J. A. Montgomery, J. W. Ochterski, and G. A. Petersson, JCP 101, 5900 (1994)
 
 Available Memory in CBS = **********
 Minimum Number of PNO for Extrapolation =  25
 Absolute Overlaps: IRadAn =         5
 LocTrn: ILocal=3 LocCor=F DoCore=F.
 Entering OneElI...
 Overlap between basis sets.
 Requested accuracy = 0.1000D-12
 PrsmSu:  NPrtUS=   1 ThrOK=F IAlg=1
 PRISM was handed 17178007911 working-precision words and    47 shell-pairs
 IPart=  0 NShTot=          47 NBatch=          11 AvBLen=         4.3
 CnvPC2: ToCart=F DoDens=F IPureD=0 IPureF=0.
 Transformed matrix in CnvPC2: 
                 1             2             3             4             5 
      1   0.100000D+01  0.392442D+00  0.000000D+00  0.000000D+00  0.000000D+00
      2   0.392442D+00  0.100000D+01  0.000000D+00  0.000000D+00  0.000000D+00
      3   0.000000D+00  0.000000D+00  0.100000D+01  0.000000D+00  0.000000D+00
      4   0.000000D+00  0.000000D+00  0.000000D+00  0.100000D+01  0.000000D+00
      5   0.000000D+00  0.000000D+00  0.000000D+00  0.000000D+00  0.100000D+01
      6   0.263888D-01  0.323074D+00  0.000000D+00  0.000000D+00  0.000000D+00
      7   0.000000D+00  0.000000D+00  0.336017D+00  0.000000D+00  0.000000D+00
      8   0.000000D+00  0.000000D+00  0.000000D+00  0.336017D+00  0.000000D+00
      9   0.000000D+00  0.000000D+00  0.000000D+00  0.000000D+00  0.336017D+00
     10   0.000000D+00  0.000000D+00  0.000000D+00  0.000000D+00  0.000000D+00
     11   0.000000D+00  0.000000D+00  0.000000D+00  0.000000D+00  0.000000D+00
     12   0.000000D+00  0.000000D+00  0.000000D+00  0.000000D+00  0.000000D+00
     13   0.000000D+00  0.000000D+00  0.000000D+00  0.000000D+00  0.000000D+00
     14   0.000000D+00  0.000000D+00  0.000000D+00  0.000000D+00  0.000000D+00
     15  -0.349048D-03  0.311961D-02  0.000000D+00  0.000000D+00  0.000000D+00
     16   0.000000D+00  0.000000D+00  0.102476D-01  0.000000D+00  0.000000D+00
     17   0.000000D+00  0.000000D+00  0.000000D+00  0.102476D-01  0.000000D+00
     18   0.000000D+00  0.000000D+00  0.000000D+00  0.000000D+00  0.102476D-01
     19   0.000000D+00  0.000000D+00  0.000000D+00  0.000000D+00  0.000000D+00
     20   0.641547D-03  0.429933D-02  0.000000D+00  0.000000D+00 -0.195940D-02
     21   0.000000D+00  0.000000D+00  0.580272D-03  0.000000D+00  0.000000D+00
     22   0.000000D+00  0.000000D+00  0.000000D+00  0.580272D-03  0.000000D+00
     23   0.136109D-02  0.888275D-02  0.000000D+00  0.000000D+00 -0.352187D-02
                 6             7             8             9            10 
      1   0.263888D-01  0.000000D+00  0.000000D+00  0.000000D+00  0.000000D+00
      2   0.323074D+00  0.000000D+00  0.000000D+00  0.000000D+00  0.000000D+00
      3   0.000000D+00  0.336017D+00  0.000000D+00  0.000000D+00  0.000000D+00
      4   0.000000D+00  0.000000D+00  0.336017D+00  0.000000D+00  0.000000D+00
      5   0.000000D+00  0.000000D+00  0.000000D+00  0.336017D+00  0.000000D+00
      6   0.100000D+01  0.000000D+00  0.000000D+00  0.000000D+00  0.000000D+00
      7   0.000000D+00  0.100000D+01  0.000000D+00  0.000000D+00  0.000000D+00
      8   0.000000D+00  0.000000D+00  0.100000D+01  0.000000D+00  0.000000D+00
      9   0.000000D+00  0.000000D+00  0.000000D+00  0.100000D+01  0.000000D+00
     10   0.000000D+00  0.000000D+00  0.000000D+00  0.000000D+00  0.100000D+01
     11   0.000000D+00  0.000000D+00  0.000000D+00  0.000000D+00  0.000000D+00
     12   0.000000D+00  0.000000D+00  0.000000D+00  0.000000D+00  0.000000D+00
     13   0.000000D+00  0.000000D+00  0.000000D+00  0.000000D+00  0.000000D+00
     14   0.000000D+00  0.000000D+00  0.000000D+00  0.000000D+00  0.000000D+00
     15   0.165188D+00  0.000000D+00  0.000000D+00  0.000000D+00  0.000000D+00
     16   0.000000D+00  0.182209D+00  0.000000D+00  0.000000D+00  0.000000D+00
     17   0.000000D+00  0.000000D+00  0.182209D+00  0.000000D+00  0.000000D+00
     18   0.000000D+00  0.000000D+00  0.000000D+00  0.182209D+00  0.000000D+00
     19   0.188679D-04  0.000000D+00  0.000000D+00 -0.579336D-04  0.386199D-03
     20   0.359306D-01  0.000000D+00  0.000000D+00 -0.398272D-01  0.353826D-01
     21   0.000000D+00  0.121771D-01  0.000000D+00  0.000000D+00  0.000000D+00
     22   0.000000D+00  0.000000D+00  0.121771D-01  0.000000D+00  0.000000D+00
     23   0.632342D-01  0.000000D+00  0.000000D+00 -0.641294D-01  0.526135D-01
                11            12            13            14            15 
      1   0.000000D+00  0.000000D+00  0.000000D+00  0.000000D+00 -0.349048D-03
      2   0.000000D+00  0.000000D+00  0.000000D+00  0.000000D+00  0.311961D-02
      3   0.000000D+00  0.000000D+00  0.000000D+00  0.000000D+00  0.000000D+00
      4   0.000000D+00  0.000000D+00  0.000000D+00  0.000000D+00  0.000000D+00
      5   0.000000D+00  0.000000D+00  0.000000D+00  0.000000D+00  0.000000D+00
      6   0.000000D+00  0.000000D+00  0.000000D+00  0.000000D+00  0.165188D+00
      7   0.000000D+00  0.000000D+00  0.000000D+00  0.000000D+00  0.000000D+00
      8   0.000000D+00  0.000000D+00  0.000000D+00  0.000000D+00  0.000000D+00
      9   0.000000D+00  0.000000D+00  0.000000D+00  0.000000D+00  0.000000D+00
     10   0.000000D+00  0.000000D+00  0.000000D+00  0.000000D+00  0.000000D+00
     11   0.100000D+01  0.000000D+00  0.000000D+00  0.000000D+00  0.000000D+00
     12   0.000000D+00  0.100000D+01  0.000000D+00  0.000000D+00  0.000000D+00
     13   0.000000D+00  0.000000D+00  0.100000D+01  0.000000D+00  0.000000D+00
     14   0.000000D+00  0.000000D+00  0.000000D+00  0.100000D+01  0.000000D+00
     15   0.000000D+00  0.000000D+00  0.000000D+00  0.000000D+00  0.100000D+01
     16   0.000000D+00  0.000000D+00  0.000000D+00  0.000000D+00  0.000000D+00
     17   0.000000D+00  0.000000D+00  0.000000D+00  0.000000D+00  0.000000D+00
     18   0.000000D+00  0.000000D+00  0.000000D+00  0.000000D+00  0.000000D+00
     19   0.000000D+00  0.000000D+00  0.000000D+00  0.000000D+00  0.357428D-01
     20   0.000000D+00  0.000000D+00  0.000000D+00  0.000000D+00  0.320890D+00
     21  -0.195606D-01  0.000000D+00  0.000000D+00  0.000000D+00  0.000000D+00
     22   0.000000D+00 -0.195606D-01  0.000000D+00  0.000000D+00  0.000000D+00
     23   0.000000D+00  0.000000D+00  0.000000D+00  0.000000D+00  0.153360D+00
                16            17            18            19            20 
      1   0.000000D+00  0.000000D+00  0.000000D+00  0.000000D+00  0.641547D-03
      2   0.000000D+00  0.000000D+00  0.000000D+00  0.000000D+00  0.429933D-02
      3   0.102476D-01  0.000000D+00  0.000000D+00  0.000000D+00  0.000000D+00
      4   0.000000D+00  0.102476D-01  0.000000D+00  0.000000D+00  0.000000D+00
      5   0.000000D+00  0.000000D+00  0.102476D-01  0.000000D+00 -0.195940D-02
      6   0.000000D+00  0.000000D+00  0.000000D+00  0.188679D-04  0.359306D-01
[...]

 E2(CBS)=      -0.887269 CBS-Int=       0.002808 OIii=       3.379313
 Leave Link  904 at Mon Dec 16 22:36:01 2013, MaxMem=17179869184 cpu:    3797.0
 (Enter /share/apps/gaussian/g09root/g09/l601.exe)
 Copying SCF densities to generalized density rwf, IOpCl= 0 IROHF=1.

 **********************************************************************

            Population analysis using the SCF density.

 **********************************************************************

 Orbital symmetries:
       Occupied  (SG) (SG) (SG) (PI) (PI) (SG) (SG) (SG) (PI) (PI)
                 (SG) (?A) (?B) (?B) (?B) (?A) (?A) (?B) (?A)
       Virtual   (SG) (?B) (PI) (PI) (?B) (?B) (?B) (PI) (PI) (SG)
                 (?B) (?B) (PI) (PI) (PI) (PI) (SG) (?B) (PI) (?B)
                 (?B) (PI) (SG) (SG) (PI) (PI) (SG) (PI) (PI) (DLTA)
                 (DLTA) (?C) (PI) (PI) (SG) (PHI) (PHI) (PI) (PI)
                 (?C) (?C) (?C) (?C) (?C) (SG) (PI) (PI) (SG) (PI)
                 (PI) (PHI) (PHI) (SG) (DLTA) (DLTA) (PI) (PI)
                 (SG) (DLTA) (DLTA) (SG) (?D) (?D) (PI) (PI) (PHI)
                 (PHI) (SG) (?E) (?E) (PI) (PI) (?E) (PI) (PI)
                 (PHI) (PHI) (PI) (PI) (?F) (?F) (?D) (?D) (?F)
                 (?F) (?F) (?F) (PI) (PI) (SG) (PHI) (PHI) (PI)
                 (PI) (SG) (?G) (?G) (?G) (?H) (?H) (?H) (?H) (?I)
                 (?I) (?I) (?J) (?J) (?D) (?D) (PI) (PI) (DLTA)
                 (DLTA) (SG) (?H) (?H) (?K) (?H) (?H) (?K) (?K)
                 (?J) (?J) (?H) (?H) (?H) (?H) (?D) (?D) (SG) (?D)
                 (?D) (DLTA) (DLTA) (PI) (PI) (SG) (PI) (PI) (SG)
                 (PHI) (PHI) (?L) (?L) (?L) (?H) (?H) (?H) (?H)
                 (DLTA) (DLTA) (PI) (PI) (SG) (SG) (PI) (PI) (?D)
                 (?D) (PHI) (PHI) (?L) (?L) (?L) (?J) (?J) (SG)
                 (SG) (DLTA) (DLTA) (?D) (?D) (SG) (SG) (?H) (?H)
                 (?H) (?H) (SG) (PI) (PI) (?L) (?L) (?L) (?J) (?J)
                 (?L) (?L) (?L) (?H) (?H) (?H) (?H) (?L) (?L) (?L)
                 (PI) (PI) (?D) (?D) (PHI) (PHI) (?L) (SG) (?L)
                 (?L) (PI) (PI) (?J) (?J) (?D) (?D) (PI) (PI) (SG)
                 (?H) (?H) (DLTA) (DLTA) (?H) (?H) (SG) (?D) (?D)
                 (?J) (?J) (PHI) (PHI) (?D) (?D) (PI) (PI) (PHI)
                 (PHI) (PI) (PI) (?L) (?L) (PHI) (PHI) (?L) (PI)
                 (PI) (?L) (?L) (SG) (?L) (?L) (PI) (PI) (?L) (?L)
                 (?L) (SG) (SG) (?J) (?J) (SG) (?D) (?D) (SG) (PI)
                 (PI) (?D) (?D) (SG) (PHI) (PHI) (DLTA) (DLTA)
                 (PHI) (PHI) (PI) (PI) (?L) (PHI) (PHI) (DLTA)
                 (DLTA) (?L) (?L) (PI) (PI) (SG) (?L) (?L) (?L)
                 (PI) (PI) (DLTA) (DLTA) (PI) (PI) (SG) (SG) (PI)
                 (PI) (SG) (SG) (?J) (?J) (?L) (?L) (?L) (?L) (?H)
                 (?H) (?H) (?H) (SG) (SG) (SG) (?J) (?J) (?D) (?D)
                 (PHI) (PHI) (SG) (DLTA) (DLTA) (PI) (PI) (?J)
                 (?J) (?D) (?D) (SG) (PHI) (PHI) (?D) (?D) (?L)
                 (?L) (PI) (PI) (PHI) (PHI) (PHI) (PHI) (?L) (DLTA)
                 (DLTA) (PI) (PI) (DLTA) (DLTA) (PI) (PI) (?J)
                 (?J) (?D) (?D) (SG) (SG) (PHI) (PHI) (SG) (PI)
                 (PI) (PI) (DLTA) (DLTA) (PI) (SG) (PI) (PI) (?D)
                 (?D) (PHI) (PHI) (PHI) (PHI) (?L) (?L) (?L) (PI)
                 (PI) (DLTA) (DLTA) (SG) (PI) (PI) (SG) (DLTA)
                 (DLTA) (?L) (PI) (PI) (?L) (?L) (SG) (PI) (PI)
                 (SG) (SG) (PI) (PI) (PI) (PI) (?D) (?D) (?H) (?H)
                 (?L) (?L) (?H) (?H) (?L) (?J) (?J) (SG) (SG) (?L)
                 (?L) (?D) (?D) (SG) (PHI) (PHI) (DLTA) (DLTA)
                 (SG) (PI) (PI) (SG) (?J) (?J) (?L) (?L) (?L) (?L)
                 (?H) (?H) (?L) (?L) (?H) (?L) (?H) (?D) (?D) (PHI)
                 (PHI) (?L) (?L) (?J) (?J) (?D) (?D) (?H) (?H)
                 (?H) (?H) (?L) (?L) (?L) (PI) (SG) (SG) (?J) (?J)
                 (PI) (?D) (?D) (?L) (PHI) (PHI) (DLTA) (DLTA)
                 (?H) (?H) (?H) (?H) (SG) (DLTA) (DLTA) (PI) (PI)
                 (SG) (?J) (?J) (?D) (?D) (PHI) (PHI) (DLTA) (DLTA)
                 (PI) (PI) (SG) (PI) (PI) (PHI) (PHI) (SG) (DLTA)
                 (DLTA) (PI) (PI) (SG) (?D) (?D) (PHI) (PHI) (DLTA)
                 (DLTA) (PI) (PI) (SG) (DLTA) (DLTA) (PI) (PI)
                 (SG) (?L) (?L) (?L) (?L) (?L) (?L) (?L) (?L) (?L)
                 (?L) (?L) (?L) (?L) (?L) (?L) (?L) (?L) (PI) (PI)
                 (SG) (DLTA) (DLTA) (PI) (PI) (SG) (?L) (?L) (?L)
                 (?L) (?L) (?L) (?L) (?L) (?L) (?L) (?L) (?L) (?L)
                 (?L) (?L) (SG) (?D) (?D) (PHI) (PHI) (?L) (?L)
                 (PI) (PI) (?L) (?J) (?J) (?L) (?L) (?L) (?L) (?H)
                 (?H) (?L) (?L) (?H) (?H) (?L) (?D) (?D) (?L) (?L)
                 (?L) (?L) (?L) (?L) (?L) (?L) (?L) (PHI) (PHI)
                 (DLTA) (DLTA) (PI) (PI) (SG) (SG) (SG)
 Unable to determine electronic state:  an orbital has unidentified symmetry.
 Alpha  occ. eigenvalues -- -305.27106 -37.58160 -32.62313 -32.61439 -32.58242
 Alpha  occ. eigenvalues --  -20.24493  -4.57851  -3.01940  -3.00466  -2.93028
 Alpha  occ. eigenvalues --   -0.91100  -0.43119  -0.36596  -0.33452  -0.31837
 Alpha  occ. eigenvalues --   -0.24732  -0.15186  -0.14264  -0.07816
 Alpha virt. eigenvalues --    0.09689   0.15543   0.16233   0.16304   0.18400
 Alpha virt. eigenvalues --    0.18697   0.18722   0.20711   0.20871   0.21157
 Alpha virt. eigenvalues --    0.27053   0.30088   0.30738   0.30887   0.36262
 Alpha virt. eigenvalues --    0.36637   0.38593   0.41876   0.43645   0.43735
 Alpha virt. eigenvalues --    0.43810   0.43927   0.52218   0.57038   0.60388
 Alpha virt. eigenvalues --    0.60999   0.63616   0.69556   0.69882   0.70098
 Alpha virt. eigenvalues --    0.70098   0.77437   0.80010   0.80312   0.84287
 Alpha virt. eigenvalues --    0.84916   0.84916   0.89984   0.90703   0.90812
 Alpha virt. eigenvalues --    0.90819   0.93415   0.96135   0.96210   1.10118
 Alpha virt. eigenvalues --    1.10230   1.10890   1.11634   1.15971   1.17137
 Alpha virt. eigenvalues --    1.20195   1.20195   1.25866   1.37842   1.37844
 Alpha virt. eigenvalues --    1.39296   1.39543   1.42312   1.46327   1.46327
 Alpha virt. eigenvalues --    1.53532   1.54549   1.54549   1.55077   1.55519
 Alpha virt. eigenvalues --    1.65834   1.65834   1.67455   1.73154   1.73172
 Alpha virt. eigenvalues --    1.78028   1.78800   1.81862   1.85451   1.86382
 Alpha virt. eigenvalues --    1.91231   1.91231   1.98440   2.00098   2.02368
 Alpha virt. eigenvalues --    2.02389   2.03976   2.03976   2.04800   2.06225
 Alpha virt. eigenvalues --    2.06236   2.11386   2.21324   2.23030   2.26337
 Alpha virt. eigenvalues --    2.30579   2.30579   2.47590   2.47937   2.53139
 Alpha virt. eigenvalues --    2.57860   2.58629   2.58644   2.62857   2.63868
 Alpha virt. eigenvalues --    2.63885   2.64037   2.75125   2.79336   2.79353
 Alpha virt. eigenvalues --    2.84929   2.84929   2.92336   2.92336   2.99556
 Alpha virt. eigenvalues --    3.00132   3.02474   3.02478   3.13811   3.22541
 Alpha virt. eigenvalues --    3.23624   3.23738   3.28393   3.28394   3.28735
 Alpha virt. eigenvalues --    3.28847   3.30696   3.30696   3.47921   3.47926
 Alpha virt. eigenvalues --    3.51308   3.52196   3.55258   3.55258   3.62219
 Alpha virt. eigenvalues --    3.66780   3.66780   3.73239   3.73265   3.74895
 Alpha virt. eigenvalues --    3.76502   3.81215   3.88932   3.90380   3.91739
 Alpha virt. eigenvalues --    3.94017   3.94018   4.13686   4.22317   4.22463
 Alpha virt. eigenvalues --    4.27802   4.27890   4.28309   4.29992   4.35346
 Alpha virt. eigenvalues --    4.35364   4.38254   4.40300   4.42419   4.53116
 Alpha virt. eigenvalues --    4.53840   4.55331   4.66186   4.66186   4.76424
 Alpha virt. eigenvalues --    4.76424   4.81070   4.81114   4.84746   4.98808
 Alpha virt. eigenvalues --    4.98808   5.12028   5.12028   5.12885   5.12887
 Alpha virt. eigenvalues --    5.27493   5.27493   5.30495   5.30495   5.31365
 Alpha virt. eigenvalues --    5.31365   5.31761   5.32550   5.33902   5.40883
 Alpha virt. eigenvalues --    5.42849   5.62066   5.64289   5.64291   5.65689
 Alpha virt. eigenvalues --    5.65689   5.75303   5.75313   5.78049   5.91518
 Alpha virt. eigenvalues --    5.92839   5.92871   5.93106   6.09394   6.19561
 Alpha virt. eigenvalues --    6.19639   6.24154   6.25083   6.29624   6.29624
 Alpha virt. eigenvalues --    6.47168   6.47169   6.55286   6.63516   6.70030
 Alpha virt. eigenvalues --    6.70069   6.79161   6.80615   6.91724   6.91724
 Alpha virt. eigenvalues --    6.97267   6.97267   7.03757   7.05066   7.14418
 Alpha virt. eigenvalues --    7.29768   7.29774   7.36049   7.36088   7.38048
 Alpha virt. eigenvalues --    7.40112   7.65587   7.69310   7.69310   7.86265
 Alpha virt. eigenvalues --    7.86265   7.90929   7.90932   7.92939   7.92939
 Alpha virt. eigenvalues --    7.93598   7.94379   8.11186   8.11187   8.18745
 Alpha virt. eigenvalues --    8.21454   8.23713   8.23801   8.25754   8.25755
 Alpha virt. eigenvalues --    8.35888   8.55247   8.58373   8.58491   8.58645
 Alpha virt. eigenvalues --    8.77765   9.01095   9.01139   9.10503   9.13016
 Alpha virt. eigenvalues --    9.13538   9.13828   9.13828   9.14076   9.14076
 Alpha virt. eigenvalues --    9.28265   9.28265   9.31067   9.67641   9.67641
 Alpha virt. eigenvalues --    9.72648   9.73414   9.74732   9.84909   9.84909
 Alpha virt. eigenvalues --    9.87765   9.98443   9.98443  10.24347  10.24413
 Alpha virt. eigenvalues --   10.31903  10.31906  10.33238  10.35888  10.49125
 Alpha virt. eigenvalues --   10.54758  10.54758  10.60146  10.60150  10.61411
 Alpha virt. eigenvalues --   10.61463  10.71920  10.72804  10.94349  11.16528
 Alpha virt. eigenvalues --   11.16572  11.17534  11.47449  11.50374  11.56994
 Alpha virt. eigenvalues --   11.56994  12.16534  12.18023  12.18094  12.37152
 Alpha virt. eigenvalues --   12.63932  12.65209  12.99438  12.99438  13.01033
 Alpha virt. eigenvalues --   13.01033  13.14523  13.14574  13.18956  13.18957
 Alpha virt. eigenvalues --   13.19059  13.21074  13.44038  13.44040  13.63039
 Alpha virt. eigenvalues --   13.63039  13.64262  13.66650  13.66650  13.81521
 Alpha virt. eigenvalues --   13.81521  14.21544  14.21544  14.36157  14.75772
 Alpha virt. eigenvalues --   14.75789  15.05089  15.07469  15.35640  15.35640
 Alpha virt. eigenvalues --   15.37597  15.37597  15.40920  15.60669  15.60673
 Alpha virt. eigenvalues --   15.82165  15.82165  15.97533  15.97652  16.01905
 Alpha virt. eigenvalues --   16.06372  16.08260  16.08260  16.26016  16.26017
 Alpha virt. eigenvalues --   16.26213  16.55770  16.55805  16.94060  16.97293
 Alpha virt. eigenvalues --   17.17003  17.17059  17.22161  17.26382  17.40565
 Alpha virt. eigenvalues --   17.40565  17.47544  17.47544  17.48006  17.59464
 Alpha virt. eigenvalues --   17.78334  17.78334  17.94412  18.01152  18.03363
 Alpha virt. eigenvalues --   18.40333  18.41122  18.41128  18.42212  19.00034
 Alpha virt. eigenvalues --   19.55242  19.56739  20.14735  20.14735  20.26404
 Alpha virt. eigenvalues --   20.26404  20.45274  20.45274  20.53542  20.53549
 Alpha virt. eigenvalues --   20.54829  20.92038  20.92378  21.05382  21.05385
 Alpha virt. eigenvalues --   21.16600  22.19758  22.20502  22.32528  22.49432
 Alpha virt. eigenvalues --   22.49433  23.29153  23.36068  23.36454  23.46412
 Alpha virt. eigenvalues --   23.46664  23.79792  24.24786  24.30125  24.60185
 Alpha virt. eigenvalues --   24.60185  24.61519  24.61519  24.62201  24.62201
 Alpha virt. eigenvalues --   24.69070  24.69070  24.85845  24.85858  25.06916
 Alpha virt. eigenvalues --   25.07458  25.08866  25.12349  25.17361  25.63197
 Alpha virt. eigenvalues --   25.63197  25.63490  25.63490  25.65161  25.65161
 Alpha virt. eigenvalues --   25.73006  25.73006  25.76724  25.99028  25.99028
 Alpha virt. eigenvalues --   26.08961  26.08965  26.15537  26.57381  26.58524
 Alpha virt. eigenvalues --   28.62978  30.61301  30.61301  30.61889  30.61889
 Alpha virt. eigenvalues --   30.69187  30.69187  30.80809  30.80825  30.86601
 Alpha virt. eigenvalues --   30.86992  31.10302  31.12935  31.15024  33.06090
 Alpha virt. eigenvalues --   33.06090  33.18413  33.18415  33.43604  33.43765
 Alpha virt. eigenvalues --   33.60383  33.60383  33.60801  33.60801  33.63642
 Alpha virt. eigenvalues --   33.68539  33.75172  33.75184  34.04473  34.18706
 Alpha virt. eigenvalues --   34.18905  34.23390  34.26151  34.26151  34.26305
 Alpha virt. eigenvalues --   34.26305  34.28381  34.31296  34.31296  34.41001
 Alpha virt. eigenvalues --   34.47016  34.47017  34.84465  34.84474  35.26144
 Alpha virt. eigenvalues --   35.27706  35.27754  35.28012  35.42821  35.71964
 Alpha virt. eigenvalues --   35.72021  36.90119  36.95184  37.08112  39.22950
 Alpha virt. eigenvalues --   39.22950  39.26089  39.26089  39.41698  39.41698
 Alpha virt. eigenvalues --   39.67719  39.67721  39.74050  39.74307  39.83485
 Alpha virt. eigenvalues --   41.08688  41.13201  41.90424  41.90424  41.95180
 Alpha virt. eigenvalues --   42.17224  42.17225  42.70727  42.70955  42.89906
 Alpha virt. eigenvalues --   43.08268  43.08268  43.17290  43.17290  43.53220
 Alpha virt. eigenvalues --   43.53220  44.22974  44.23259  44.30810  47.00820
 Alpha virt. eigenvalues --   47.00820  47.48771  47.48972  48.13197  49.95391
 Alpha virt. eigenvalues --   49.95538  49.96680  49.96795  49.98601  49.98900
 Alpha virt. eigenvalues --   49.99428  49.99805  50.00172  50.00481  50.00498
 Alpha virt. eigenvalues --   50.02273  50.02275  50.03201  50.03487  50.04507
 Alpha virt. eigenvalues --   50.04507  53.07435  53.07637  55.46840  60.40589
 Alpha virt. eigenvalues --   60.40629  61.08504  61.13100  61.76756  64.31238
 Alpha virt. eigenvalues --   64.31239  64.32133  64.32133  64.33983  64.34003
 Alpha virt. eigenvalues --   64.34706  64.34706  64.39979  64.40503  64.42446
 Alpha virt. eigenvalues --   64.44812  64.45614  64.50466  64.50641  64.76137
 Alpha virt. eigenvalues --   72.29309  72.29309  72.36049  72.36054  72.58637
 Alpha virt. eigenvalues --   72.58895  72.70177  72.75326  72.91877  73.05171
 Alpha virt. eigenvalues --   73.05171  73.06666  73.06666  73.08037  73.08037
 Alpha virt. eigenvalues --   73.14336  73.14370  73.17726  73.17903  73.39309
 Alpha virt. eigenvalues --   73.44850  73.59958  76.13375  76.13375  76.14723
 Alpha virt. eigenvalues --   76.14723  76.20540  76.20553  76.47609  76.48695
 Alpha virt. eigenvalues --   76.57367  76.59527  76.62688  79.85724  79.85724
 Alpha virt. eigenvalues --   80.07978  80.08053  80.81533  80.86005  81.19488
 Alpha virt. eigenvalues --  108.35628 808.88795
          Condensed to atoms (all electrons):
              1          2
     1  Ni  27.307363   0.294643
     2  O    0.294643   9.103351
 Mulliken atomic charges:
              1
     1  Ni   0.397994
     2  O   -1.397994
 Sum of Mulliken atomic charges =  -1.00000
 Mulliken charges with hydrogens summed into heavy atoms:
              1
     1  Ni   0.397994
     2  O   -1.397994
 Sum of Mulliken charges with hydrogens summed into heavy atoms =  -1.00000
          Atomic-Atomic Spin Densities.
              1          2
     1  Ni   0.993272  -0.019455
     2  O   -0.019455   0.045638
 Mulliken atomic spin densities:
              1
     1  Ni   0.973817
     2  O    0.026183
 Sum of Mulliken atomic spin densities =   1.00000
 Electronic spatial extent (au):  <R**2>=            120.2952
 Charge=             -1.0000 electrons
 Dipole moment (field-independent basis, Debye):
    X=              0.0000    Y=              0.0000    Z=              5.2121  Tot=              5.2121
 Quadrupole moment (field-independent basis, Debye-Ang):
   XX=            -25.1386   YY=            -26.2952   ZZ=            -31.3256
   XY=              0.0000   XZ=              0.0000   YZ=              0.0000
 Traceless Quadrupole moment (field-independent basis, Debye-Ang):
   XX=              2.4478   YY=              1.2913   ZZ=             -3.7391
   XY=              0.0000   XZ=              0.0000   YZ=              0.0000
 Octapole moment (field-independent basis, Debye-Ang**2):
  XXX=              0.0000  YYY=              0.0000  ZZZ=             14.6854  XYY=              0.0000
  XXY=              0.0000  XXZ=              1.5540  XZZ=              0.0000  YZZ=              0.0000
  YYZ=              0.8763  XYZ=              0.0000
 Hexadecapole moment (field-independent basis, Debye-Ang**3):
 XXXX=            -55.8895 YYYY=            -60.3111 ZZZZ=           -154.3507 XXXY=              0.0000
 XXXZ=              0.0000 YYYX=              0.0000 YYYZ=              0.0000 ZZZX=              0.0000
 ZZZY=              0.0000 XXYY=            -19.3626 XXZZ=            -34.2793 YYZZ=            -35.8268
 XXYZ=              0.0000 YYXZ=              0.0000 ZZXY=              0.0000
 N-N= 7.288852626527D+01 E-N=-5.885047944527D+03  KE= 2.368026761076D+03
                          Isotropic Fermi Contact Couplings
        Atom                 a.u.       MegaHertz       Gauss      10(-4) cm-1
     1  Ni(61)             0.00000       0.00000       0.00000       0.00000
     2  O(17)              0.00000       0.00000       0.00000       0.00000
 --------------------------------------------------------
       Center         ----  Spin Dipole Couplings  ----
                      3XX-RR        3YY-RR        3ZZ-RR
 --------------------------------------------------------
     1   Atom        2.042262     -3.962246      1.919984
     2   Atom        0.075001     -0.086847      0.011846
 --------------------------------------------------------
                        XY            XZ            YZ
 --------------------------------------------------------
     1   Atom        0.000000      0.000000      0.000000
     2   Atom        0.000000      0.000000      0.000000
 --------------------------------------------------------


 ---------------------------------------------------------------------------------
              Anisotropic Spin Dipole Couplings in Principal Axis System
 ---------------------------------------------------------------------------------

       Atom             a.u.   MegaHertz   Gauss  10(-4) cm-1        Axes

              Baa    -3.9622   189.244    67.527    63.125  0.0000  1.0000  0.0000
     1 Ni(61) Bbb     1.9200   -91.702   -32.722   -30.589  0.0000  0.0000  1.0000
              Bcc     2.0423   -97.542   -34.806   -32.537  1.0000  0.0000  0.0000
 
              Baa    -0.0868     6.284     2.242     2.096  0.0000  1.0000  0.0000
     2 O(17)  Bbb     0.0118    -0.857    -0.306    -0.286  0.0000  0.0000  1.0000
              Bcc     0.0750    -5.427    -1.936    -1.810  1.0000  0.0000  0.0000
 

 ---------------------------------------------------------------------------------

 No NMR shielding tensors so no spin-rotation constants.
 Leave Link  601 at Mon Dec 16 22:36:12 2013, MaxMem=17179869184 cpu:     171.5
 (Enter /share/apps/gaussian/g09root/g09/l9999.exe)

 Test job not archived.
 1\1\GINC-N33\SP\ROMP2-FC\Gen\Ni1O1(1-,2)\GPETERSSON\16-Dec-2013\0\\#p 
 ROMP2 GFinput Int=NoBasisTransform Guess=Read Gen scf=(symm,tight) IOP
 (3/32=2,5/6=8,9/33=1) SCFcyc=500 CBSextrapolate(Nmin=25,MinPop) Int(Gr
 id=Ultrafine)\\NiO- 2Pi\\-1,2\Ni\O,1,1.62626\\Version=EM64L-G09RevA.02
 \HF=-1581.6128078\MP2=-1582.4934697\E2(CBS)=-0.8872687\CBS-Int=-0.8844
 604\OIii=3.3793128\RMSD=3.393e-09\PG=C*V [C*(O1Ni1)]\\@


 IF YOU WANT TO LEARN FROM THE THEORETICAL PHYSICISTS ABOUT THE
 METHODS WHICH THEY USE, I ADVISE YOU TO FOLLOW THIS PRINCIPLE VERY STRICTLY:
 DON'T LISTEN TO THEIR WORDS; PAY ATTENTION, INSTEAD, TO THEIR ACTIONS.
 -- A.EINSTEIN, 1934
 Job cpu time:  5 days 17 hours 46 minutes 23.2 seconds.
 File lengths (MBytes):  RWF=  69266 Int=      0 D2E=      0 Chk=     37 Scr=      1
 Normal termination of Gaussian 09 at Mon Dec 16 22:36:18 2013.
