 Entering Gaussian System, Link 0=g09
 AtFile(1): 7ZaPa-NR.gbs
 Initial command:
 /share/apps/gaussian/g09root/g09/l1.exe /localscratch/74194/Gau-7883.inp -scrdir=/localscratch/74194/
 Entering Link 1 = /share/apps/gaussian/g09root/g09/l1.exe PID=      7889.
  
 Copyright (c) 1988,1990,1992,1993,1995,1998,2003,2009, Gaussian, Inc.
                  All Rights Reserved.
  
 This is part of the Gaussian(R) 09 program.  It is based on
 the Gaussian(R) 03 system (copyright 2003, Gaussian, Inc.),
 the Gaussian(R) 98 system (copyright 1998, Gaussian, Inc.),
 the Gaussian(R) 94 system (copyright 1995, Gaussian, Inc.),
 the Gaussian 92(TM) system (copyright 1992, Gaussian, Inc.),
 the Gaussian 90(TM) system (copyright 1990, Gaussian, Inc.),
 the Gaussian 88(TM) system (copyright 1988, Gaussian, Inc.),
 the Gaussian 86(TM) system (copyright 1986, Carnegie Mellon
 University), and the Gaussian 82(TM) system (copyright 1983,
 Carnegie Mellon University). Gaussian is a federally registered
 trademark of Gaussian, Inc.
  
 This software contains proprietary and confidential information,
 including trade secrets, belonging to Gaussian, Inc.
  
 This software is provided under written license and may be
 used, copied, transmitted, or stored only in accord with that
 written license.
  
 The following legend is applicable only to US Government
 contracts under FAR:
  
                    RESTRICTED RIGHTS LEGEND
  
 Use, reproduction and disclosure by the US Government is
 subject to restrictions as set forth in subparagraphs (a)
 and (c) of the Commercial Computer Software - Restricted
 Rights clause in FAR 52.227-19.
  
 Gaussian, Inc.
 340 Quinnipiac St., Bldg. 40, Wallingford CT 06492
  
  
 ---------------------------------------------------------------
 Warning -- This program may not be used in any manner that
 competes with the business of Gaussian, Inc. or will provide
 assistance to any competitor of Gaussian, Inc.  The licensee
 of this program is prohibited from giving any competitor of
 Gaussian, Inc. access to this program.  By using this program,
 the user acknowledges that Gaussian, Inc. is engaged in the
 business of creating and licensing software in the field of
 computational chemistry and represents and warrants to the
 licensee that it is not a competitor of Gaussian, Inc. and that
 it will not use this program in any manner prohibited above.
 ---------------------------------------------------------------
  

 Cite this work as:
 Gaussian 09, Revision A.02,
 M. J. Frisch, G. W. Trucks, H. B. Schlegel, G. E. Scuseria, 
 M. A. Robb, J. R. Cheeseman, G. Scalmani, V. Barone, B. Mennucci, 
 G. A. Petersson, H. Nakatsuji, M. Caricato, X. Li, H. P. Hratchian, 
 A. F. Izmaylov, J. Bloino, G. Zheng, J. L. Sonnenberg, M. Hada, 
 M. Ehara, K. Toyota, R. Fukuda, J. Hasegawa, M. Ishida, T. Nakajima, 
 Y. Honda, O. Kitao, H. Nakai, T. Vreven, J. A. Montgomery, Jr., 
 J. E. Peralta, F. Ogliaro, M. Bearpark, J. J. Heyd, E. Brothers, 
 K. N. Kudin, V. N. Staroverov, R. Kobayashi, J. Normand, 
 K. Raghavachari, A. Rendell, J. C. Burant, S. S. Iyengar, J. Tomasi, 
 M. Cossi, N. Rega, J. M. Millam, M. Klene, J. E. Knox, J. B. Cross, 
 V. Bakken, C. Adamo, J. Jaramillo, R. Gomperts, R. E. Stratmann, 
 O. Yazyev, A. J. Austin, R. Cammi, C. Pomelli, J. W. Ochterski, 
 R. L. Martin, K. Morokuma, V. G. Zakrzewski, G. A. Voth, 
 P. Salvador, J. J. Dannenberg, S. Dapprich, A. D. Daniels, 
 O. Farkas, J. B. Foresman, J. V. Ortiz, J. Cioslowski, 
 and D. J. Fox, Gaussian, Inc., Wallingford CT, 2009.
 
 ******************************************
 Gaussian 09:  EM64L-G09RevA.02 11-Jun-2009
                17-Dec-2013 
 ******************************************
 % Mem=128GB
 % Nproc=16
 Will use up to   16 processors via shared memory.
 % Chk=NiO.chk
 ----------------------------------------------------------------------
 #p ROMP2 GFinput Int=NoBasisTransform Guess=Read Gen scf=(symm,tight) 
 IOP(3/32=2,5/6=8,9/33=1) SCFcyc=500 Int(Grid=Ultrafine) CBSextrapolate
 (Nmin=25,MinPop)
 ----------------------------------------------------------------------
 1/38=1/1;
 2/12=2,17=6,18=5,40=1/2;
 3/5=7,11=2,16=1,24=10,25=1,30=1,32=2,60=-1,75=-5,116=101/1,2,3;
 4/5=1,9=4/1;
 5/5=2,6=8,7=500,15=2,32=2,38=6/2;
 8/5=-1,10=1/1;
 9/16=-3,33=1,75=2,81=25,83=4/6,4;
 6/7=2,8=2,9=2,10=2/1;
 99/5=1,9=1/99;
 Leave Link    1 at Tue Dec 17 17:46:08 2013, MaxMem=17179869184 cpu:       1.9
 (Enter /share/apps/gaussian/g09root/g09/l101.exe)
 -------
 NiO 3Sg
 -------
 Symbolic Z-matrix:
 Charge =  0 Multiplicity = 3
 Ni
 O                    1    R
       Variables:
  R                     1.62712                  
 
 NAtoms=      2 NQM=      2 NQMF=      0 NMic=      0 NMicF=      0 NTot=      2.
                    Isotopes and Nuclear Properties:
 (Nuclear quadrupole moments (NQMom) in fm**2, nuclear magnetic moments (NMagM)
  in nuclear magnetons)

  Atom         1           2
 IAtWgt=          58          16
 AtmWgt=  57.9353471  15.9949146
 NucSpn=           0           0
 AtZEff=   0.0000000   0.0000000
 NQMom=    0.0000000   0.0000000
 NMagM=    0.0000000   0.0000000
 Leave Link  101 at Tue Dec 17 17:46:08 2013, MaxMem=17179869184 cpu:       0.9
 (Enter /share/apps/gaussian/g09root/g09/l202.exe)
                          Input orientation:                          
 ---------------------------------------------------------------------
 Center     Atomic      Atomic             Coordinates (Angstroms)
 Number     Number       Type             X           Y           Z
 ---------------------------------------------------------------------
      1         28           0        0.000000    0.000000    0.000000
      2          8           0        0.000000    0.000000    1.627120
 ---------------------------------------------------------------------
 Stoichiometry    NiO(3)
 Framework group  C*V[C*(ONi)]
 Deg. of freedom     1
 Full point group                 C*V     NOp   4
 Largest Abelian subgroup         C2V     NOp   4
 Largest concise Abelian subgroup C1      NOp   1
                         Standard orientation:                         
 ---------------------------------------------------------------------
 Center     Atomic      Atomic             Coordinates (Angstroms)
 Number     Number       Type             X           Y           Z
 ---------------------------------------------------------------------
      1         28           0        0.000000    0.000000    0.361582
      2          8           0        0.000000    0.000000   -1.265538
 ---------------------------------------------------------------------
 Rotational constants (GHZ):      0.0000000     15.2291173     15.2291173
 Leave Link  202 at Tue Dec 17 17:46:08 2013, MaxMem=17179869184 cpu:       0.1
 (Enter /share/apps/gaussian/g09root/g09/l301.exe)
 General basis read from cards:  (5D, 7F)
 Centers:   2
 S 16 1.00 0.000000000000
     Exponent=  1.4112464100D+06 Coefficients=  1.6274298220D-06
     Exponent=  2.4991022400D+05 Coefficients=  1.0926219960D-05
     Exponent=  5.6034105800D+04 Coefficients=  6.2387418670D-05
     Exponent=  1.5211536400D+04 Coefficients=  2.7833034910D-04
     Exponent=  4.8122877500D+03 Coefficients=  1.0405418720D-03
     Exponent=  1.7177554600D+03 Coefficients=  3.3803927930D-03
     Exponent=  6.7339582400D+02 Coefficients=  9.8284847640D-03
     Exponent=  2.8351018400D+02 Coefficients=  2.6053101290D-02
     Exponent=  1.2586200700D+02 Coefficients=  6.2808180570D-02
     Exponent=  5.8044722000D+01 Coefficients=  1.3482020750D-01
     Exponent=  2.7471985000D+01 Coefficients=  2.4355634600D-01
     Exponent=  1.3210629000D+01 Coefficients=  3.3232873780D-01
     Exponent=  6.3998060000D+00 Coefficients=  2.6079304830D-01
     Exponent=  3.0996140000D+00 Coefficients=  7.4308343260D-02
     Exponent=  1.4898560000D+00 Coefficients=  4.1895380740D-03
     Exponent=  7.0520100000D-01 Coefficients=  8.7064557240D-04
 S 11 1.00 0.000000000000
     Exponent=  2.8351018400D+02 Coefficients= -1.1225880940D-04
     Exponent=  1.2586200700D+02 Coefficients= -5.5593356170D-04
     Exponent=  5.8044722000D+01 Coefficients= -2.8516879040D-03
     Exponent=  2.7471985000D+01 Coefficients= -1.1334949950D-02
     Exponent=  1.3210629000D+01 Coefficients= -3.6579777040D-02
     Exponent=  6.3998060000D+00 Coefficients= -7.2889941970D-02
     Exponent=  3.0996140000D+00 Coefficients= -1.0620323560D-02
     Exponent=  1.4898560000D+00 Coefficients=  2.1967055720D-01
     Exponent=  7.0520100000D-01 Coefficients=  4.2948320720D-01
     Exponent=  3.2584800000D-01 Coefficients=  3.7758328490D-01
     Exponent=  1.4546000000D-01 Coefficients=  9.6402612550D-02
 S 1 1.00 0.000000000000
     Exponent=  5.8142978700D-02 Coefficients=  1.0000000000D+00
 P 13 1.00 0.000000000000
     Exponent=  2.0852792000D+03 Coefficients=  1.4479117400D-05
     Exponent=  5.1014708300D+02 Coefficients=  1.2832335880D-04
     Exponent=  1.6168115100D+02 Coefficients=  7.7927900070D-04
     Exponent=  6.1149452000D+01 Coefficients=  3.4005060490D-03
     Exponent=  2.5976602000D+01 Coefficients=  1.1576852140D-02
     Exponent=  1.1875426000D+01 Coefficients=  3.2697403390D-02
     Exponent=  5.6771330000D+00 Coefficients=  8.0114042420D-02
     Exponent=  2.7864750000D+00 Coefficients=  1.6052650570D-01
     Exponent=  1.3878440000D+00 Coefficients=  2.4604950260D-01
     Exponent=  6.9528100000D-01 Coefficients=  2.8989829260D-01
     Exponent=  3.4700200000D-01 Coefficients=  2.6067993820D-01
     Exponent=  1.7009900000D-01 Coefficients=  1.4793631120D-01
     Exponent=  8.0080000000D-02 Coefficients=  2.9802614530D-02
 P 1 1.00 0.000000000000
     Exponent=  4.2614360330D-02 Coefficients=  1.0000000000D+00
 S 1 1.00 0.000000000000
     Exponent=  4.2498660000D+00 Coefficients=  1.0000000000D+00
 S 1 1.00 0.000000000000
     Exponent=  2.1674700000D+00 Coefficients=  1.0000000000D+00
 S 1 1.00 0.000000000000
     Exponent=  1.1054290000D+00 Coefficients=  1.0000000000D+00
 S 1 1.00 0.000000000000
     Exponent=  5.6377900000D-01 Coefficients=  1.0000000000D+00
 S 1 1.00 0.000000000000
     Exponent=  2.8753200000D-01 Coefficients=  1.0000000000D+00
 S 1 1.00 0.000000000000
     Exponent=  1.4664400000D-01 Coefficients=  1.0000000000D+00
 P 1 1.00 0.000000000000
     Exponent=  5.6597240000D+00 Coefficients=  1.0000000000D+00
 P 1 1.00 0.000000000000
     Exponent=  2.5758780000D+00 Coefficients=  1.0000000000D+00
 P 1 1.00 0.000000000000
     Exponent=  1.1723440000D+00 Coefficients=  1.0000000000D+00
 P 1 1.00 0.000000000000
     Exponent=  5.3356200000D-01 Coefficients=  1.0000000000D+00
 P 1 1.00 0.000000000000
     Exponent=  2.4283700000D-01 Coefficients=  1.0000000000D+00
 P 1 1.00 0.000000000000
     Exponent=  1.1052100000D-01 Coefficients=  1.0000000000D+00
 D 1 1.00 0.000000000000
     Exponent=  9.4642110000D+00 Coefficients=  1.0000000000D+00
 D 1 1.00 0.000000000000
     Exponent=  4.7522860000D+00 Coefficients=  1.0000000000D+00
 D 1 1.00 0.000000000000
     Exponent=  2.3862760000D+00 Coefficients=  1.0000000000D+00
 D 1 1.00 0.000000000000
     Exponent=  1.1982260000D+00 Coefficients=  1.0000000000D+00
 D 1 1.00 0.000000000000
     Exponent=  6.0166800000D-01 Coefficients=  1.0000000000D+00
 D 1 1.00 0.000000000000
     Exponent=  3.0211700000D-01 Coefficients=  1.0000000000D+00
 D 1 1.00 0.000000000000
     Exponent=  1.5170200000D-01 Coefficients=  1.0000000000D+00
 F 1 1.00 0.000000000000
     Exponent=  7.0018360000D+00 Coefficients=  1.0000000000D+00
 F 1 1.00 0.000000000000
     Exponent=  3.5525090000D+00 Coefficients=  1.0000000000D+00
 F 1 1.00 0.000000000000
     Exponent=  1.8024300000D+00 Coefficients=  1.0000000000D+00
 F 1 1.00 0.000000000000
     Exponent=  9.1449600000D-01 Coefficients=  1.0000000000D+00
 F 1 1.00 0.000000000000
     Exponent=  4.6398600000D-01 Coefficients=  1.0000000000D+00
 F 1 1.00 0.000000000000
     Exponent=  2.3541100000D-01 Coefficients=  1.0000000000D+00
 G 1 1.00 0.000000000000
     Exponent=  6.4724810000D+00 Coefficients=  1.0000000000D+00
 G 1 1.00 0.000000000000
     Exponent=  3.1190710000D+00 Coefficients=  1.0000000000D+00
 G 1 1.00 0.000000000000
     Exponent=  1.5030720000D+00 Coefficients=  1.0000000000D+00
 G 1 1.00 0.000000000000
     Exponent=  7.2432600000D-01 Coefficients=  1.0000000000D+00
 G 1 1.00 0.000000000000
     Exponent=  3.4905000000D-01 Coefficients=  1.0000000000D+00
 H 1 1.00 0.000000000000
     Exponent=  5.3550830000D+00 Coefficients=  1.0000000000D+00
 H 1 1.00 0.000000000000
     Exponent=  2.4146960000D+00 Coefficients=  1.0000000000D+00
 H 1 1.00 0.000000000000
     Exponent=  1.0888270000D+00 Coefficients=  1.0000000000D+00
 H 1 1.00 0.000000000000
     Exponent=  4.9097030000D-01 Coefficients=  1.0000000000D+00
 I 1 1.00 0.000000000000
     Exponent=  4.3221130000D+00 Coefficients=  1.0000000000D+00
 I 1 1.00 0.000000000000
     Exponent=  1.7162630000D+00 Coefficients=  1.0000000000D+00
 I 1 1.00 0.000000000000
     Exponent=  6.8150890000D-01 Coefficients=  1.0000000000D+00
 J 1 1.00 0.000000000000
     Exponent=  3.0609737230D+00 Coefficients=  1.0000000000D+00
 ****
 Centers:   1
 S 17 1.00 0.000000000000
     Exponent=  4.5696374000D+07 Coefficients=  4.7969718170D-07
     Exponent=  8.8192455700D+06 Coefficients=  2.8773867390D-06
     Exponent=  2.0447068100D+06 Coefficients=  1.6286990630D-05
     Exponent=  5.5437291200D+05 Coefficients=  7.4229084490D-05
     Exponent=  1.7160837200D+05 Coefficients=  2.8993395410D-04
     Exponent=  5.9377579000D+04 Coefficients=  9.9038178970D-04
     Exponent=  2.2539231700D+04 Coefficients=  3.0314234830D-03
     Exponent=  9.2340360500D+03 Coefficients=  8.4521288000D-03
     Exponent=  4.0254682400D+03 Coefficients=  2.1691801400D-02
     Exponent=  1.8445848600D+03 Coefficients=  5.1200723880D-02
     Exponent=  8.7919842900D+02 Coefficients=  1.0931872110D-01
     Exponent=  4.3202471000D+02 Coefficients=  2.0233509890D-01
     Exponent=  2.1721259200D+02 Coefficients=  2.9751935350D-01
     Exponent=  1.1103157500D+02 Coefficients=  2.9144099630D-01
     Exponent=  5.7391512000D+01 Coefficients=  1.4111500700D-01
     Exponent=  2.9859493000D+01 Coefficients=  2.0905853080D-02
     Exponent=  1.5573967000D+01 Coefficients=  1.3302600920D-03
 S 16 1.00 0.000000000000
     Exponent=  1.7160837200D+05 Coefficients= -3.4415018730D-08
     Exponent=  5.9377579000D+04 Coefficients= -3.9642550630D-07
     Exponent=  2.2539231700D+04 Coefficients= -3.3233854800D-06
     Exponent=  9.2340360500D+03 Coefficients= -2.3233168700D-05
     Exponent=  4.0254682400D+03 Coefficients= -1.3753991090D-04
     Exponent=  1.8445848600D+03 Coefficients= -7.1622883030D-04
     Exponent=  8.7919842900D+02 Coefficients= -3.2460143950D-03
     Exponent=  4.3202471000D+02 Coefficients= -1.2598074350D-02
     Exponent=  2.1721259200D+02 Coefficients= -3.9508644080D-02
     Exponent=  1.1103157500D+02 Coefficients= -8.2877216970D-02
     Exponent=  5.7391512000D+01 Coefficients= -5.7541071140D-02
     Exponent=  2.9859493000D+01 Coefficients=  1.8141693200D-01
     Exponent=  1.5573967000D+01 Coefficients=  5.0068224830D-01
     Exponent=  8.1136480000D+00 Coefficients=  3.7894892570D-01
     Exponent=  4.2076160000D+00 Coefficients=  7.4781086340D-02
     Exponent=  2.1645210000D+00 Coefficients=  4.7883379460D-03
 P 17 1.00 0.000000000000
     Exponent=  1.1425156700D+05 Coefficients=  1.9226857950D-06
     Exponent=  2.9853574700D+04 Coefficients=  1.5695668210D-05
     Exponent=  9.4979023300D+03 Coefficients=  1.0072930630D-04
     Exponent=  3.5250551700D+03 Coefficients=  4.9163179310D-04
     Exponent=  1.4730723000D+03 Coefficients=  1.9636575360D-03
     Exponent=  6.7339103600D+02 Coefficients=  6.6331850260D-03
     Exponent=  3.2904992600D+02 Coefficients=  1.9446542400D-02
     Exponent=  1.6878085100D+02 Coefficients=  4.9936404200D-02
     Exponent=  8.9611870000D+01 Coefficients=  1.1092448350D-01
     Exponent=  4.8724805000D+01 Coefficients=  2.0284733120D-01
     Exponent=  2.6911256000D+01 Coefficients=  2.9205843610D-01
     Exponent=  1.5000953000D+01 Coefficients=  2.9378671600D-01
     Exponent=  8.3926630000D+00 Coefficients=  1.6562655350D-01
     Exponent=  4.6872060000D+00 Coefficients=  4.2026890490D-02
     Exponent=  2.5971060000D+00 Coefficients=  4.0235636960D-03
     Exponent=  1.4167540000D+00 Coefficients=  2.1402330740D-04
     Exponent=  7.5332800000D-01 Coefficients= -9.5516899640D-05
 S 11 1.00 0.000000000000
     Exponent=  2.1721259200D+02 Coefficients=  2.4150547460D-04
     Exponent=  1.1103157500D+02 Coefficients=  1.7101653990D-03
     Exponent=  5.7391512000D+01 Coefficients=  2.6095943150D-03
     Exponent=  2.9859493000D+01 Coefficients= -1.0263440580D-02
     Exponent=  1.5573967000D+01 Coefficients= -1.1498713780D-01
     Exponent=  8.1136480000D+00 Coefficients= -1.9742464490D-01
     Exponent=  4.2076160000D+00 Coefficients=  1.2299960020D-01
     Exponent=  2.1645210000D+00 Coefficients=  5.2634862720D-01
     Exponent=  1.1005540000D+00 Coefficients=  4.5579425050D-01
     Exponent=  5.5085000000D-01 Coefficients=  1.0689872530D-01
     Exponent=  2.7015900000D-01 Coefficients=  2.8423047480D-03
 P 13 1.00 0.000000000000
     Exponent=  3.2904992600D+02 Coefficients=  1.0511781830D-04
     Exponent=  1.6878085100D+02 Coefficients=  5.1190255500D-04
     Exponent=  8.9611870000D+01 Coefficients=  2.3704160210D-03
     Exponent=  4.8724805000D+01 Coefficients=  6.9797145590D-03
     Exponent=  2.6911256000D+01 Coefficients=  1.5530845230D-02
     Exponent=  1.5000953000D+01 Coefficients=  1.7931332180D-02
     Exponent=  8.3926630000D+00 Coefficients= -4.7764603510D-02
     Exponent=  4.6872060000D+00 Coefficients= -2.0744931370D-01
     Exponent=  2.5971060000D+00 Coefficients= -3.4252280220D-01
     Exponent=  1.4167540000D+00 Coefficients= -3.3193366880D-01
     Exponent=  7.5332800000D-01 Coefficients= -1.7383326040D-01
     Exponent=  3.8534700000D-01 Coefficients= -3.2874446600D-02
     Exponent=  1.8641400000D-01 Coefficients= -1.9930862520D-03
 D 16 1.00 0.000000000000
     Exponent=  3.0144951600D+03 Coefficients=  4.2657958730D-06
     Exponent=  9.5983290800D+02 Coefficients=  4.2287243730D-05
     Exponent=  3.7135668000D+02 Coefficients=  2.8186223020D-04
     Exponent=  1.6524497900D+02 Coefficients=  1.3457764810D-03
     Exponent=  8.1009191000D+01 Coefficients=  5.0618436030D-03
     Exponent=  4.2348234000D+01 Coefficients=  1.5179190610D-02
     Exponent=  2.3049071000D+01 Coefficients=  3.7345244420D-02
     Exponent=  1.2844128000D+01 Coefficients=  8.0243746850D-02
     Exponent=  7.2459690000D+00 Coefficients=  1.4454118010D-01
     Exponent=  4.1079570000D+00 Coefficients=  2.0622858510D-01
     Exponent=  2.3285020000D+00 Coefficients=  2.3895427420D-01
     Exponent=  1.3137640000D+00 Coefficients=  2.3507086620D-01
     Exponent=  7.3383600000D-01 Coefficients=  1.9704702410D-01
     Exponent=  4.0258100000D-01 Coefficients=  1.3202463010D-01
     Exponent=  2.1428300000D-01 Coefficients=  5.6649217340D-02
     Exponent=  1.0869000000D-01 Coefficients=  8.6820407160D-03
 D 1 1.00 0.000000000000
     Exponent=  7.7663527650D-02 Coefficients=  1.0000000000D+00
 D 1 1.00 0.000000000000
     Exponent=  2.3218000000D-02 Coefficients=  1.0000000000D+00
 S 10 1.00 0.000000000000
     Exponent=  2.9859493000D+01 Coefficients=  1.8923791830D-05
     Exponent=  1.5573967000D+01 Coefficients=  9.0796520650D-04
     Exponent=  8.1136480000D+00 Coefficients=  3.5075272200D-03
     Exponent=  4.2076160000D+00 Coefficients= -6.2753823540D-03
     Exponent=  2.1645210000D+00 Coefficients= -3.0509733500D-02
     Exponent=  1.1005540000D+00 Coefficients= -1.0940735440D-01
     Exponent=  5.5085000000D-01 Coefficients= -1.3181302430D-01
     Exponent=  2.7015900000D-01 Coefficients=  1.7673294290D-01
     Exponent=  1.2913000000D-01 Coefficients=  6.7310021570D-01
     Exponent=  5.9770000000D-02 Coefficients=  3.2628484100D-01
 S 1 1.00 0.000000000000
     Exponent=  6.2046129080D-02 Coefficients=  1.0000000000D+00
 S 1 1.00 0.000000000000
     Exponent=  2.8902000000D-02 Coefficients=  1.0000000000D+00
 S 1 1.00 0.000000000000
     Exponent=  8.2580000000D-03 Coefficients=  1.0000000000D+00
 P 10 1.00 0.000000000000
     Exponent=  2.6911256000D+01 Coefficients=  8.6650134190D-04
     Exponent=  1.5000953000D+01 Coefficients= -1.5857980990D-03
     Exponent=  8.3926630000D+00 Coefficients=  2.7980895860D-03
     Exponent=  4.6872060000D+00 Coefficients= -1.7114087030D-02
     Exponent=  2.5971060000D+00 Coefficients=  2.0939879150D-03
     Exponent=  1.4167540000D+00 Coefficients= -4.8451502460D-02
     Exponent=  7.5332800000D-01 Coefficients=  2.9886169200D-02
     Exponent=  3.8534700000D-01 Coefficients= -3.7548564100D-04
     Exponent=  1.8641400000D-01 Coefficients=  4.8660706550D-01
     Exponent=  6.6774982700D-02 Coefficients=  5.8708524410D-01
 P 1 1.00 0.000000000000
     Exponent=  1.2096705620D-01 Coefficients=  1.0000000000D+00
 P 1 1.00 0.000000000000
     Exponent=  4.5696000000D-02 Coefficients=  1.0000000000D+00
 S 1 1.00 0.000000000000
     Exponent=  9.8540830000D+00 Coefficients=  1.0000000000D+00
 S 1 1.00 0.000000000000
     Exponent=  4.9268220000D+00 Coefficients=  1.0000000000D+00
 S 1 1.00 0.000000000000
     Exponent=  2.4633020000D+00 Coefficients=  1.0000000000D+00
 S 1 1.00 0.000000000000
     Exponent=  1.2315960000D+00 Coefficients=  1.0000000000D+00
 S 1 1.00 0.000000000000
     Exponent=  6.1577100000D-01 Coefficients=  1.0000000000D+00
 S 1 1.00 0.000000000000
     Exponent=  3.0787200000D-01 Coefficients=  1.0000000000D+00
 P 1 1.00 0.000000000000
     Exponent=  3.6560520000D+00 Coefficients=  1.0000000000D+00
 P 1 1.00 0.000000000000
     Exponent=  2.1019390000D+00 Coefficients=  1.0000000000D+00
 P 1 1.00 0.000000000000
     Exponent=  1.2084470000D+00 Coefficients=  1.0000000000D+00
 P 1 1.00 0.000000000000
     Exponent=  6.9476100000D-01 Coefficients=  1.0000000000D+00
 P 1 1.00 0.000000000000
     Exponent=  3.9943200000D-01 Coefficients=  1.0000000000D+00
 P 1 1.00 0.000000000000
     Exponent=  2.2964200000D-01 Coefficients=  1.0000000000D+00
 D 1 1.00 0.000000000000
     Exponent=  8.0928270000D+00 Coefficients=  1.0000000000D+00
 D 1 1.00 0.000000000000
     Exponent=  3.8022750000D+00 Coefficients=  1.0000000000D+00
 D 1 1.00 0.000000000000
     Exponent=  1.7864330000D+00 Coefficients=  1.0000000000D+00
 D 1 1.00 0.000000000000
     Exponent=  8.3932500000D-01 Coefficients=  1.0000000000D+00
 D 1 1.00 0.000000000000
     Exponent=  3.9434200000D-01 Coefficients=  1.0000000000D+00
 D 1 1.00 0.000000000000
     Exponent=  1.8527500000D-01 Coefficients=  1.0000000000D+00
 F 1 1.00 0.000000000000
     Exponent=  1.8477968000D+01 Coefficients=  1.0000000000D+00
 F 1 1.00 0.000000000000
     Exponent=  8.4935450000D+00 Coefficients=  1.0000000000D+00
 F 1 1.00 0.000000000000
     Exponent=  3.9041260000D+00 Coefficients=  1.0000000000D+00
 F 1 1.00 0.000000000000
     Exponent=  1.7945620000D+00 Coefficients=  1.0000000000D+00
 F 1 1.00 0.000000000000
     Exponent=  8.2488500000D-01 Coefficients=  1.0000000000D+00
 F 1 1.00 0.000000000000
     Exponent=  3.7916500000D-01 Coefficients=  1.0000000000D+00
 F 1 1.00 0.000000000000
     Exponent=  1.7428600000D-01 Coefficients=  1.0000000000D+00
 G 1 1.00 0.000000000000
     Exponent=  1.3248847000D+01 Coefficients=  1.0000000000D+00
 G 1 1.00 0.000000000000
     Exponent=  6.1249790000D+00 Coefficients=  1.0000000000D+00
 G 1 1.00 0.000000000000
     Exponent=  2.8315950000D+00 Coefficients=  1.0000000000D+00
 G 1 1.00 0.000000000000
     Exponent=  1.3090540000D+00 Coefficients=  1.0000000000D+00
 G 1 1.00 0.000000000000
     Exponent=  6.0517900000D-01 Coefficients=  1.0000000000D+00
 G 1 1.00 0.000000000000
     Exponent=  2.7977500000D-01 Coefficients=  1.0000000000D+00
 H 1 1.00 0.000000000000
     Exponent=  1.1918900000D+01 Coefficients=  1.0000000000D+00
 H 1 1.00 0.000000000000
     Exponent=  5.2553630000D+00 Coefficients=  1.0000000000D+00
 H 1 1.00 0.000000000000
     Exponent=  2.3172300000D+00 Coefficients=  1.0000000000D+00
 H 1 1.00 0.000000000000
     Exponent=  1.0217290000D+00 Coefficients=  1.0000000000D+00
 H 1 1.00 0.000000000000
     Exponent=  4.5050700000D-01 Coefficients=  1.0000000000D+00
 I 1 1.00 0.000000000000
     Exponent=  1.0018038000D+01 Coefficients=  1.0000000000D+00
 I 1 1.00 0.000000000000
     Exponent=  4.1491900000D+00 Coefficients=  1.0000000000D+00
 I 1 1.00 0.000000000000
     Exponent=  1.7184780000D+00 Coefficients=  1.0000000000D+00
 I 1 1.00 0.000000000000
     Exponent=  7.1174500000D-01 Coefficients=  1.0000000000D+00
 J 1 1.00 0.000000000000
     Exponent=  7.8589380000D+00 Coefficients=  1.0000000000D+00
 J 1 1.00 0.000000000000
     Exponent=  2.9509070000D+00 Coefficients=  1.0000000000D+00
 J 1 1.00 0.000000000000
     Exponent=  1.1080180000D+00 Coefficients=  1.0000000000D+00
 K 1 1.00 0.000000000000
     Exponent=  5.6100999010D+00 Coefficients=  1.0000000000D+00
 ****
 AO basis set in the form of general basis input (Overlap normalization):
      1 0
 S  17 1.00       0.000000000000
      0.4569637400D+08  0.4796971817D-06
      0.8819245570D+07  0.2877386739D-05
      0.2044706810D+07  0.1628699063D-04
      0.5543729120D+06  0.7422908449D-04
      0.1716083720D+06  0.2899339541D-03
      0.5937757900D+05  0.9903817897D-03
      0.2253923170D+05  0.3031423483D-02
      0.9234036050D+04  0.8452128800D-02
      0.4025468240D+04  0.2169180140D-01
      0.1844584860D+04  0.5120072388D-01
      0.8791984290D+03  0.1093187211D+00
      0.4320247100D+03  0.2023350989D+00
      0.2172125920D+03  0.2975193535D+00
      0.1110315750D+03  0.2914409963D+00
      0.5739151200D+02  0.1411150070D+00
      0.2985949300D+02  0.2090585308D-01
      0.1557396700D+02  0.1330260092D-02
 S  16 1.00       0.000000000000
      0.1716083720D+06 -0.3441501873D-07
      0.5937757900D+05 -0.3964255063D-06
      0.2253923170D+05 -0.3323385480D-05
      0.9234036050D+04 -0.2323316870D-04
      0.4025468240D+04 -0.1375399109D-03
      0.1844584860D+04 -0.7162288303D-03
      0.8791984290D+03 -0.3246014395D-02
      0.4320247100D+03 -0.1259807435D-01
      0.2172125920D+03 -0.3950864408D-01
      0.1110315750D+03 -0.8287721697D-01
      0.5739151200D+02 -0.5754107114D-01
      0.2985949300D+02  0.1814169320D+00
      0.1557396700D+02  0.5006822483D+00
      0.8113648000D+01  0.3789489257D+00
      0.4207616000D+01  0.7478108634D-01
      0.2164521000D+01  0.4788337946D-02
 P  17 1.00       0.000000000000
      0.1142515670D+06  0.1922685795D-05
      0.2985357470D+05  0.1569566821D-04
      0.9497902330D+04  0.1007293063D-03
      0.3525055170D+04  0.4916317931D-03
      0.1473072300D+04  0.1963657536D-02
      0.6733910360D+03  0.6633185026D-02
      0.3290499260D+03  0.1944654240D-01
      0.1687808510D+03  0.4993640420D-01
      0.8961187000D+02  0.1109244835D+00
      0.4872480500D+02  0.2028473312D+00
      0.2691125600D+02  0.2920584361D+00
      0.1500095300D+02  0.2937867160D+00
      0.8392663000D+01  0.1656265535D+00
      0.4687206000D+01  0.4202689049D-01
      0.2597106000D+01  0.4023563696D-02
      0.1416754000D+01  0.2140233074D-03
      0.7533280000D+00 -0.9551689964D-04
 S  11 1.00       0.000000000000
      0.2172125920D+03  0.2415054746D-03
      0.1110315750D+03  0.1710165399D-02
      0.5739151200D+02  0.2609594315D-02
      0.2985949300D+02 -0.1026344058D-01
      0.1557396700D+02 -0.1149871378D+00
      0.8113648000D+01 -0.1974246449D+00
      0.4207616000D+01  0.1229996002D+00
      0.2164521000D+01  0.5263486272D+00
      0.1100554000D+01  0.4557942505D+00
      0.5508500000D+00  0.1068987253D+00
      0.2701590000D+00  0.2842304748D-02
 P  13 1.00       0.000000000000
      0.3290499260D+03  0.1051178183D-03
      0.1687808510D+03  0.5119025550D-03
      0.8961187000D+02  0.2370416021D-02
      0.4872480500D+02  0.6979714559D-02
      0.2691125600D+02  0.1553084523D-01
      0.1500095300D+02  0.1793133218D-01
      0.8392663000D+01 -0.4776460351D-01
      0.4687206000D+01 -0.2074493137D+00
      0.2597106000D+01 -0.3425228022D+00
      0.1416754000D+01 -0.3319336688D+00
      0.7533280000D+00 -0.1738332604D+00
      0.3853470000D+00 -0.3287444660D-01
      0.1864140000D+00 -0.1993086252D-02
 D  16 1.00       0.000000000000
      0.3014495160D+04  0.4265795873D-05
      0.9598329080D+03  0.4228724373D-04
      0.3713566800D+03  0.2818622302D-03
      0.1652449790D+03  0.1345776481D-02
      0.8100919100D+02  0.5061843603D-02
      0.4234823400D+02  0.1517919061D-01
      0.2304907100D+02  0.3734524442D-01
      0.1284412800D+02  0.8024374685D-01
      0.7245969000D+01  0.1445411801D+00
      0.4107957000D+01  0.2062285851D+00
      0.2328502000D+01  0.2389542742D+00
      0.1313764000D+01  0.2350708662D+00
      0.7338360000D+00  0.1970470241D+00
      0.4025810000D+00  0.1320246301D+00
      0.2142830000D+00  0.5664921734D-01
      0.1086900000D+00  0.8682040716D-02
 D   1 1.00       0.000000000000
      0.7766352765D-01  0.1000000000D+01
 D   1 1.00       0.000000000000
      0.2321800000D-01  0.1000000000D+01
 S  10 1.00       0.000000000000
      0.2985949300D+02  0.1892379183D-04
      0.1557396700D+02  0.9079652065D-03
      0.8113648000D+01  0.3507527220D-02
      0.4207616000D+01 -0.6275382354D-02
      0.2164521000D+01 -0.3050973350D-01
      0.1100554000D+01 -0.1094073544D+00
      0.5508500000D+00 -0.1318130243D+00
      0.2701590000D+00  0.1767329429D+00
      0.1291300000D+00  0.6731002157D+00
      0.5977000000D-01  0.3262848410D+00
 S   1 1.00       0.000000000000
      0.6204612908D-01  0.1000000000D+01
 S   1 1.00       0.000000000000
      0.2890200000D-01  0.1000000000D+01
 S   1 1.00       0.000000000000
      0.8258000000D-02  0.1000000000D+01
 P  10 1.00       0.000000000000
      0.2691125600D+02  0.8665013419D-03
      0.1500095300D+02 -0.1585798099D-02
      0.8392663000D+01  0.2798089586D-02
      0.4687206000D+01 -0.1711408703D-01
      0.2597106000D+01  0.2093987915D-02
      0.1416754000D+01 -0.4845150246D-01
      0.7533280000D+00  0.2988616920D-01
      0.3853470000D+00 -0.3754856410D-03
      0.1864140000D+00  0.4866070655D+00
      0.6677498270D-01  0.5870852441D+00
 P   1 1.00       0.000000000000
      0.1209670562D+00  0.1000000000D+01
 P   1 1.00       0.000000000000
      0.4569600000D-01  0.1000000000D+01
 S   1 1.00       0.000000000000
      0.9854083000D+01  0.1000000000D+01
 S   1 1.00       0.000000000000
      0.4926822000D+01  0.1000000000D+01
 S   1 1.00       0.000000000000
      0.2463302000D+01  0.1000000000D+01
 S   1 1.00       0.000000000000
      0.1231596000D+01  0.1000000000D+01
 S   1 1.00       0.000000000000
      0.6157710000D+00  0.1000000000D+01
 S   1 1.00       0.000000000000
      0.3078720000D+00  0.1000000000D+01
 P   1 1.00       0.000000000000
      0.3656052000D+01  0.1000000000D+01
 P   1 1.00       0.000000000000
      0.2101939000D+01  0.1000000000D+01
 P   1 1.00       0.000000000000
      0.1208447000D+01  0.1000000000D+01
 P   1 1.00       0.000000000000
      0.6947610000D+00  0.1000000000D+01
 P   1 1.00       0.000000000000
      0.3994320000D+00  0.1000000000D+01
 P   1 1.00       0.000000000000
      0.2296420000D+00  0.1000000000D+01
 D   1 1.00       0.000000000000
      0.8092827000D+01  0.1000000000D+01
 D   1 1.00       0.000000000000
      0.3802275000D+01  0.1000000000D+01
 D   1 1.00       0.000000000000
      0.1786433000D+01  0.1000000000D+01
 D   1 1.00       0.000000000000
      0.8393250000D+00  0.1000000000D+01
 D   1 1.00       0.000000000000
      0.3943420000D+00  0.1000000000D+01
 D   1 1.00       0.000000000000
      0.1852750000D+00  0.1000000000D+01
 F   1 1.00       0.000000000000
      0.1847796800D+02  0.1000000000D+01
 F   1 1.00       0.000000000000
      0.8493545000D+01  0.1000000000D+01
 F   1 1.00       0.000000000000
      0.3904126000D+01  0.1000000000D+01
 F   1 1.00       0.000000000000
      0.1794562000D+01  0.1000000000D+01
 F   1 1.00       0.000000000000
      0.8248850000D+00  0.1000000000D+01
 F   1 1.00       0.000000000000
      0.3791650000D+00  0.1000000000D+01
 F   1 1.00       0.000000000000
      0.1742860000D+00  0.1000000000D+01
 G   1 1.00       0.000000000000
      0.1324884700D+02  0.1000000000D+01
 G   1 1.00       0.000000000000
      0.6124979000D+01  0.1000000000D+01
 G   1 1.00       0.000000000000
      0.2831595000D+01  0.1000000000D+01
 G   1 1.00       0.000000000000
      0.1309054000D+01  0.1000000000D+01
 G   1 1.00       0.000000000000
      0.6051790000D+00  0.1000000000D+01
 G   1 1.00       0.000000000000
      0.2797750000D+00  0.1000000000D+01
 H   1 1.00       0.000000000000
      0.1191890000D+02  0.1000000000D+01
 H   1 1.00       0.000000000000
      0.5255363000D+01  0.1000000000D+01
 H   1 1.00       0.000000000000
      0.2317230000D+01  0.1000000000D+01
 H   1 1.00       0.000000000000
      0.1021729000D+01  0.1000000000D+01
 H   1 1.00       0.000000000000
      0.4505070000D+00  0.1000000000D+01
 I   1 1.00       0.000000000000
      0.1001803800D+02  0.1000000000D+01
 I   1 1.00       0.000000000000
      0.4149190000D+01  0.1000000000D+01
 I   1 1.00       0.000000000000
      0.1718478000D+01  0.1000000000D+01
 I   1 1.00       0.000000000000
      0.7117450000D+00  0.1000000000D+01
 J   1 1.00       0.000000000000
      0.7858938000D+01  0.1000000000D+01
 J   1 1.00       0.000000000000
      0.2950907000D+01  0.1000000000D+01
 J   1 1.00       0.000000000000
      0.1108018000D+01  0.1000000000D+01
 K   1 1.00       0.000000000000
      0.5610099901D+01  0.1000000000D+01
 ****
      2 0
 S  16 1.00       0.000000000000
      0.1411246410D+07  0.1627429822D-05
      0.2499102240D+06  0.1092621996D-04
      0.5603410580D+05  0.6238741867D-04
      0.1521153640D+05  0.2783303491D-03
      0.4812287750D+04  0.1040541872D-02
      0.1717755460D+04  0.3380392793D-02
      0.6733958240D+03  0.9828484765D-02
      0.2835101840D+03  0.2605310129D-01
      0.1258620070D+03  0.6280818057D-01
      0.5804472200D+02  0.1348202075D+00
      0.2747198500D+02  0.2435563460D+00
      0.1321062900D+02  0.3323287378D+00
      0.6399806000D+01  0.2607930483D+00
      0.3099614000D+01  0.7430834326D-01
      0.1489856000D+01  0.4189538074D-02
      0.7052010000D+00  0.8706455725D-03
 S  11 1.00       0.000000000000
      0.2835101840D+03 -0.1122588094D-03
      0.1258620070D+03 -0.5559335617D-03
      0.5804472200D+02 -0.2851687904D-02
      0.2747198500D+02 -0.1133494995D-01
      0.1321062900D+02 -0.3657977704D-01
      0.6399806000D+01 -0.7288994197D-01
      0.3099614000D+01 -0.1062032356D-01
      0.1489856000D+01  0.2196705572D+00
      0.7052010000D+00  0.4294832072D+00
      0.3258480000D+00  0.3775832849D+00
      0.1454600000D+00  0.9640261255D-01
 S   1 1.00       0.000000000000
      0.5814297870D-01  0.1000000000D+01
 P  13 1.00       0.000000000000
      0.2085279200D+04  0.1447911740D-04
      0.5101470830D+03  0.1283233588D-03
      0.1616811510D+03  0.7792790007D-03
      0.6114945200D+02  0.3400506049D-02
      0.2597660200D+02  0.1157685214D-01
      0.1187542600D+02  0.3269740339D-01
      0.5677133000D+01  0.8011404242D-01
      0.2786475000D+01  0.1605265057D+00
      0.1387844000D+01  0.2460495026D+00
      0.6952810000D+00  0.2898982926D+00
      0.3470020000D+00  0.2606799382D+00
      0.1700990000D+00  0.1479363112D+00
      0.8008000000D-01  0.2980261453D-01
 P   1 1.00       0.000000000000
      0.4261436033D-01  0.1000000000D+01
 S   1 1.00       0.000000000000
      0.4249866000D+01  0.1000000000D+01
 S   1 1.00       0.000000000000
      0.2167470000D+01  0.1000000000D+01
 S   1 1.00       0.000000000000
      0.1105429000D+01  0.1000000000D+01
 S   1 1.00       0.000000000000
      0.5637790000D+00  0.1000000000D+01
 S   1 1.00       0.000000000000
      0.2875320000D+00  0.1000000000D+01
 S   1 1.00       0.000000000000
      0.1466440000D+00  0.1000000000D+01
 P   1 1.00       0.000000000000
      0.5659724000D+01  0.1000000000D+01
 P   1 1.00       0.000000000000
      0.2575878000D+01  0.1000000000D+01
 P   1 1.00       0.000000000000
      0.1172344000D+01  0.1000000000D+01
 P   1 1.00       0.000000000000
      0.5335620000D+00  0.1000000000D+01
 P   1 1.00       0.000000000000
      0.2428370000D+00  0.1000000000D+01
 P   1 1.00       0.000000000000
      0.1105210000D+00  0.1000000000D+01
 D   1 1.00       0.000000000000
      0.9464211000D+01  0.1000000000D+01
 D   1 1.00       0.000000000000
      0.4752286000D+01  0.1000000000D+01
 D   1 1.00       0.000000000000
      0.2386276000D+01  0.1000000000D+01
 D   1 1.00       0.000000000000
      0.1198226000D+01  0.1000000000D+01
 D   1 1.00       0.000000000000
      0.6016680000D+00  0.1000000000D+01
 D   1 1.00       0.000000000000
      0.3021170000D+00  0.1000000000D+01
 D   1 1.00       0.000000000000
      0.1517020000D+00  0.1000000000D+01
 F   1 1.00       0.000000000000
      0.7001836000D+01  0.1000000000D+01
 F   1 1.00       0.000000000000
      0.3552509000D+01  0.1000000000D+01
 F   1 1.00       0.000000000000
      0.1802430000D+01  0.1000000000D+01
 F   1 1.00       0.000000000000
      0.9144960000D+00  0.1000000000D+01
 F   1 1.00       0.000000000000
      0.4639860000D+00  0.1000000000D+01
 F   1 1.00       0.000000000000
      0.2354110000D+00  0.1000000000D+01
 G   1 1.00       0.000000000000
      0.6472481000D+01  0.1000000000D+01
 G   1 1.00       0.000000000000
      0.3119071000D+01  0.1000000000D+01
 G   1 1.00       0.000000000000
      0.1503072000D+01  0.1000000000D+01
 G   1 1.00       0.000000000000
      0.7243260000D+00  0.1000000000D+01
 G   1 1.00       0.000000000000
      0.3490500000D+00  0.1000000000D+01
 H   1 1.00       0.000000000000
      0.5355083000D+01  0.1000000000D+01
 H   1 1.00       0.000000000000
      0.2414696000D+01  0.1000000000D+01
 H   1 1.00       0.000000000000
      0.1088827000D+01  0.1000000000D+01
 H   1 1.00       0.000000000000
      0.4909703000D+00  0.1000000000D+01
 I   1 1.00       0.000000000000
      0.4322113000D+01  0.1000000000D+01
 I   1 1.00       0.000000000000
      0.1716263000D+01  0.1000000000D+01
 I   1 1.00       0.000000000000
      0.6815089000D+00  0.1000000000D+01
 J   1 1.00       0.000000000000
      0.3060973723D+01  0.1000000000D+01
 ****

 There are   208 symmetry adapted basis functions of A1  symmetry.
 There are   106 symmetry adapted basis functions of A2  symmetry.
 There are   151 symmetry adapted basis functions of B1  symmetry.
 There are   151 symmetry adapted basis functions of B2  symmetry.
 Integral buffers will be    131072 words long.
 Raffenetti 2 integral format.
 Two-electron integral symmetry is turned on.
   616 basis functions,  1356 primitive gaussians,  1044 cartesian basis functions
    19 alpha electrons       17 beta electrons
       nuclear repulsion energy        72.8500016742 Hartrees.
 IExCor=    0 DFT=F Ex=HF Corr=None ExCW=0 ScaHFX=  1.000000
 ScaDFX=  1.000000  1.000000  1.000000  1.000000 ScalE2=  1.000000  1.000000
 IRadAn=      5 IRanWt=     -1 IRanGd=            0 ICorTp=0
 NAtoms=    2 NActive=    2 NUniq=    2 SFac= 7.50D-01 NAtFMM=   80 NAOKFM=F Big=F
 Leave Link  301 at Tue Dec 17 17:46:09 2013, MaxMem=17179869184 cpu:      11.4
 (Enter /share/apps/gaussian/g09root/g09/l302.exe)
 NPDir=0 NMtPBC=     1 NCelOv=     1 NCel=       1 NClECP=     1 NCelD=      1
         NCelK=      1 NCelE2=     1 NClLst=     1 CellRange=     0.0.
 One-electron integrals computed using PRISM.
 NBasis=   616 RedAO= F  NBF=   208   106   151   151
 NBsUse=   616 1.00D-04 NBFU=   208   106   151   151
 Leave Link  302 at Tue Dec 17 17:46:10 2013, MaxMem=17179869184 cpu:      18.5
 (Enter /share/apps/gaussian/g09root/g09/l303.exe)
 DipDrv:  MaxL=1.
 Leave Link  303 at Tue Dec 17 17:46:10 2013, MaxMem=17179869184 cpu:       5.7
 (Enter /share/apps/gaussian/g09root/g09/l401.exe)
 Initial guess read from the checkpoint file:  NiO.chk
 B after Tr=     0.000000    0.000000    0.000000
         Rot=    1.000000    0.000000    0.000000    0.000000 Ang=   0.00 deg.
 Guess basis will be translated and rotated to current coordinates.
 Initial guess orbital symmetries:
       Occupied  (SG) (SG) (SG) (PI) (PI) (SG) (SG) (PI) (PI) (SG)
                 (SG) (SG) (DLTA) (DLTA) (PI) (PI) (SG) (PI) (PI)
       Virtual   (SG) (SG) (PI) (PI) (SG) (DLTA) (DLTA) (PI) (PI)
                 (SG) (SG) (SG) (PI) (PI) (PI) (PI) (SG) (DLTA)
                 (DLTA) (PI) (PI) (SG) (SG) (SG) (DLTA) (DLTA)
                 (PI) (PI) (SG) (PI) (PI) (PHI) (PHI) (SG) (PI)
                 (PI) (DLTA) (DLTA) (PI) (PI) (SG) (DLTA) (DLTA)
                 (SG) (PI) (PI) (SG) (SG) (DLTA) (DLTA) (PI) (PI)
                 (PI) (PI) (SG) (SG) (SG) (PHI) (PHI) (DLTA) (DLTA)
                 (PI) (PI) (SG) (PI) (PI) (SG) (PHI) (PHI) (DLTA)
                 (DLTA) (PI) (PI) (PI) (PI) (DLTA) (DLTA) (SG)
                 (PI) (PI) (SG) (SG) (DLTA) (DLTA) (PI) (PI) (SG)
                 (SG) (DLTA) (DLTA) (PHI) (PHI) (PI) (PI) (?A)
                 (?A) (SG) (DLTA) (DLTA) (PHI) (PHI) (PI) (PI)
                 (SG) (SG) (SG) (SG) (PI) (PI) (SG) (SG) (PI) (PI)
                 (DLTA) (DLTA) (SG) (PI) (PI) (DLTA) (DLTA) (SG)
                 (PI) (PI) (SG) (SG) (SG) (PI) (PI) (SG) (PI) (PI)
                 (SG) (SG) (SG) (SG) (SG) (SG) (PI) (PI) (SG) (PI)
                 (PI) (SG) (PI) (PI) (SG) (PI) (PI) (SG) (PI) (PI)
                 (SG) (PI) (PI) (SG) (SG) (PI) (PI) (DLTA) (DLTA)
                 (SG) (PI) (PI) (DLTA) (DLTA) (SG) (PI) (PI) (DLTA)
                 (DLTA) (PI) (PI) (DLTA) (DLTA) (PI) (PI) (DLTA)
                 (DLTA) (SG) (PI) (PI) (DLTA) (DLTA) (PHI) (PHI)
                 (SG) (PI) (PI) (DLTA) (DLTA) (PHI) (PHI) (SG)
                 (PI) (PI) (DLTA) (DLTA) (PHI) (PHI) (SG) (PI)
                 (PI) (DLTA) (DLTA) (PHI) (PHI) (SG) (PI) (PI)
                 (DLTA) (DLTA) (PHI) (PHI) (SG) (PI) (PI) (DLTA)
                 (DLTA) (PHI) (PHI) (SG) (PI) (PI) (DLTA) (DLTA)
                 (PHI) (PHI) (?A) (?A) (SG) (PI) (PI) (DLTA) (DLTA)
                 (PHI) (PHI) (?A) (?A) (SG) (PI) (PI) (DLTA) (DLTA)
                 (PHI) (PHI) (?A) (?A) (DLTA) (DLTA) (PHI) (PHI)
                 (?A) (?A) (SG) (PI) (PI) (DLTA) (DLTA) (PHI) (PHI)
                 (?A) (?A) (SG) (PI) (PI) (DLTA) (DLTA) (PHI) (PHI)
                 (?A) (?A) (SG) (PI) (PI) (DLTA) (DLTA) (PHI) (PHI)
                 (?A) (?A) (?B) (?B) (SG) (PI) (PI) (DLTA) (DLTA)
                 (PHI) (PHI) (?A) (?A) (?B) (?B) (SG) (PI) (PI)
                 (DLTA) (DLTA) (PHI) (PHI) (?A) (?A) (?B) (?B)
                 (SG) (PI) (PI) (DLTA) (DLTA) (PHI) (PHI) (?A)
                 (?A) (?B) (?B) (SG) (PI) (PI) (DLTA) (DLTA) (PHI)
                 (PHI) (?A) (?A) (?B) (?B) (SG) (PI) (PI) (DLTA)
                 (DLTA) (PHI) (PHI) (?A) (?A) (?B) (?B) (SG) (SG)
                 (SG) (PI) (PI) (DLTA) (DLTA) (PHI) (PHI) (?A)
                 (?A) (?B) (?B) (SG) (SG) (SG) (PI) (PI) (DLTA)
                 (DLTA) (PHI) (PHI) (?A) (?A) (?B) (?B) (SG) (SG)
                 (SG) (PI) (PI) (DLTA) (DLTA) (PHI) (PHI) (?A)
                 (?A) (?B) (?B) (SG) (SG) (SG) (PI) (PI) (DLTA)
                 (DLTA) (PHI) (PHI) (?A) (?A) (?B) (?B) (SG) (SG)
                 (?C) (?C) (SG) (PI) (PI) (DLTA) (DLTA) (PHI) (PHI)
                 (?A) (?A) (?B) (?B) (SG) (SG) (?C) (?C) (SG) (PI)
                 (PI) (DLTA) (DLTA) (PHI) (PHI) (?A) (?A) (?B)
                 (?B) (SG) (SG) (?C) (?C) (SG) (PI) (PI) (DLTA)
                 (DLTA) (PHI) (PHI) (?A) (?A) (?B) (?B) (SG) (SG)
                 (?C) (?C) (?D) (?D) (SG) (PI) (PI) (SG) (SG) (SG)
                 (PI) (PI) (SG) (PI) (PI) (SG) (PI) (PI) (DLTA)
                 (DLTA) (SG) (PI) (PI) (DLTA) (DLTA) (PI) (PI)
                 (DLTA) (DLTA) (SG) (DLTA) (DLTA) (SG) (PI) (PI)
                 (DLTA) (DLTA) (PHI) (PHI) (SG) (PI) (PI) (DLTA)
                 (DLTA) (PHI) (PHI) (PI) (PI) (DLTA) (DLTA) (PHI)
                 (PHI) (SG) (PHI) (PHI) (DLTA) (DLTA) (PHI) (PHI)
                 (DLTA) (DLTA) (SG) (PI) (PI) (DLTA) (DLTA) (PHI)
                 (PHI) (?A) (?A) (SG) (PI) (PI) (DLTA) (DLTA) (PHI)
                 (PHI) (?A) (?A) (SG) (PI) (PI) (DLTA) (DLTA) (PHI)
                 (PHI) (?A) (?A) (PI) (PI) (PHI) (PHI) (?A) (?A)
                 (PHI) (PHI) (?A) (?A) (SG) (PI) (PI) (DLTA) (DLTA)
                 (PHI) (PHI) (?A) (?A) (?B) (?B) (DLTA) (DLTA)
                 (PHI) (PHI) (?A) (?A) (?B) (?B) (DLTA) (DLTA)
                 (PHI) (PHI) (?A) (?A) (?B) (?B) (?A) (?A) (?B)
                 (?B) (PI) (PI) (DLTA) (DLTA) (PHI) (PHI) (?A)
                 (?A) (?B) (?B) (SG) (SG) (PHI) (PHI) (?A) (?A)
                 (?B) (?B) (SG) (SG) (?B) (?B) (SG) (SG) (?A) (?A)
                 (?B) (?B) (SG) (SG) (?C) (?C)
 The electronic state of the initial guess is 3-SG.
 Leave Link  401 at Tue Dec 17 17:46:28 2013, MaxMem=17179869184 cpu:     285.6
 (Enter /share/apps/gaussian/g09root/g09/l502.exe)
 Restricted open shell SCF:
 Requested convergence on RMS density matrix=1.00D-08 within 500 cycles.
 Requested convergence on MAX density matrix=1.00D-06.
 Requested convergence on             energy=1.00D-06.
 No special actions if energy rises.
 Using DIIS extrapolation, IDIIS=  1040.
 Integral symmetry usage will be decided dynamically.
 IEnd=     3547426 IEndB=     3547426 NGot= 17179869184 MDV= 17177663739
 LenX= 17177663739 LenY= 17176572759
 Fock matrices will be formed incrementally for  20 cycles.

 Cycle   1  Pass 1  IDiag  1:
 FoFCou: FMM=F IPFlag=           0 FMFlag=      100000 FMFlg1=           0
         NFxFlg=           0 DoJE=F BraDBF=F KetDBF=F FulRan=T
         Omega=  0.000000  0.000000  1.000000  0.000000  0.000000 ICntrl=       0 IOpCl=  1
         NMat0=    1 NMatS0=    1 NMatT0=    0 NMatD0=    1 NMtDS0=    0 NMtDT0=    0
         I1Cent=           0 NGrid=           0.
 Petite list used in FoFCou.
 E= -1581.63395129266    
 DIIS: error= 1.26D-02 at cycle   1 NSaved=   1.
 NSaved= 1 IEnMin= 1 EnMin= -1581.63395129266     IErMin= 1 ErrMin= 1.26D-02
 ErrMax= 1.26D-02 EMaxC= 1.00D-01 BMatC= 2.46D-02 BMatP= 2.46D-02
 IDIUse=3 WtCom= 8.74D-01 WtEn= 1.26D-01
 Coeff-Com:  0.100D+01
 Coeff-En:   0.100D+01
 Coeff:      0.100D+01
 Gap=     0.110 Goal=   None    Shift=    0.000
 GapD=    0.110 DampG=1.000 DampE=0.250 DampFc=0.2500 IDamp=-1.
 Damping current iteration by 2.50D-01
 RMSDP=2.79D-03 MaxDP=6.19D-01              OVMax= 6.17D-03

 Cycle   2  Pass 1  IDiag  1:
 RMSU=  4.60D-04    CP:  9.68D-01
 E= -1581.63442760545     Delta-E=       -0.000476312788 Rises=F Damp=T
 DIIS: error= 9.44D-03 at cycle   2 NSaved=   2.
 NSaved= 2 IEnMin= 2 EnMin= -1581.63442760545     IErMin= 2 ErrMin= 9.44D-03
 ErrMax= 9.44D-03 EMaxC= 1.00D-01 BMatC= 1.39D-02 BMatP= 2.46D-02
 IDIUse=3 WtCom= 9.06D-01 WtEn= 9.44D-02
 Coeff-Com: -0.296D+01 0.396D+01
 Coeff-En:   0.000D+00 0.100D+01
 Coeff:     -0.268D+01 0.368D+01
 Gap=     0.109 Goal=   None    Shift=    0.000
 RMSDP=2.20D-03 MaxDP=4.79D-01 DE=-4.76D-04 OVMax= 3.00D-02

 Cycle   3  Pass 1  IDiag  1:
 RMSU=  6.40D-04    CP:  8.69D-01  3.00D+00
 E= -1581.63474962022     Delta-E=       -0.000322014768 Rises=F Damp=F
 DIIS: error= 4.66D-03 at cycle   3 NSaved=   3.
 NSaved= 3 IEnMin= 3 EnMin= -1581.63474962022     IErMin= 3 ErrMin= 4.66D-03
 ErrMax= 4.66D-03 EMaxC= 1.00D-01 BMatC= 1.02D-03 BMatP= 1.39D-02
 IDIUse=3 WtCom= 9.53D-01 WtEn= 4.66D-02
 Coeff-Com: -0.194D+01 0.258D+01 0.362D+00
 Coeff-En:   0.000D+00 0.397D+00 0.603D+00
 Coeff:     -0.185D+01 0.248D+01 0.373D+00
 Gap=     0.109 Goal=   None    Shift=    0.000
 RMSDP=3.93D-04 MaxDP=8.91D-02 DE=-3.22D-04 OVMax= 2.98D-02

 Cycle   4  Pass 1  IDiag  1:
 RMSU=  3.46D-04    CP:  8.69D-01  3.00D+00  8.12D-01
 E= -1581.63589286529     Delta-E=       -0.001143245069 Rises=F Damp=F
 DIIS: error= 8.91D-04 at cycle   4 NSaved=   4.
 NSaved= 4 IEnMin= 4 EnMin= -1581.63589286529     IErMin= 4 ErrMin= 8.91D-04
 ErrMax= 8.91D-04 EMaxC= 1.00D-01 BMatC= 8.45D-05 BMatP= 1.02D-03
 IDIUse=3 WtCom= 9.91D-01 WtEn= 8.91D-03
 Coeff-Com: -0.125D+01 0.166D+01 0.198D+00 0.396D+00
 Coeff-En:   0.000D+00 0.000D+00 0.176D+00 0.824D+00
 Coeff:     -0.124D+01 0.164D+01 0.198D+00 0.400D+00
 Gap=     0.109 Goal=   None    Shift=    0.000
 RMSDP=1.17D-04 MaxDP=2.23D-02 DE=-1.14D-03 OVMax= 8.72D-03

 Cycle   5  Pass 1  IDiag  1:
 RMSU=  8.66D-05    CP:  8.68D-01  3.00D+00  8.31D-01  7.91D-01
 E= -1581.63592967058     Delta-E=       -0.000036805289 Rises=F Damp=F
 DIIS: error= 7.32D-04 at cycle   5 NSaved=   5.
 NSaved= 5 IEnMin= 5 EnMin= -1581.63592967058     IErMin= 5 ErrMin= 7.32D-04
 ErrMax= 7.32D-04 EMaxC= 1.00D-01 BMatC= 3.82D-05 BMatP= 8.45D-05
 IDIUse=3 WtCom= 9.93D-01 WtEn= 7.32D-03
 EnCoef did    13 forward-backward iterations
 Coeff-Com: -0.786D+00 0.104D+01 0.283D-01 0.147D+00 0.570D+00
 Coeff-En:   0.000D+00 0.000D+00 0.896D-01 0.541D+00 0.370D+00
 Coeff:     -0.780D+00 0.103D+01 0.287D-01 0.150D+00 0.569D+00
 Gap=     0.109 Goal=   None    Shift=    0.000
 RMSDP=5.35D-05 MaxDP=1.23D-02 DE=-3.68D-05 OVMax= 2.79D-03

 Cycle   6  Pass 1  IDiag  1:
 RMSU=  3.45D-05    CP:  8.68D-01  3.00D+00  8.33D-01  7.28D-01  1.38D+00
 E= -1581.63594939068     Delta-E=       -0.000019720100 Rises=F Damp=F
 DIIS: error= 4.12D-04 at cycle   6 NSaved=   6.
 NSaved= 6 IEnMin= 6 EnMin= -1581.63594939068     IErMin= 6 ErrMin= 4.12D-04
 ErrMax= 4.12D-04 EMaxC= 1.00D-01 BMatC= 1.57D-05 BMatP= 3.82D-05
 IDIUse=3 WtCom= 9.96D-01 WtEn= 4.12D-03
 EnCoef did   100 forward-backward iterations
 Coeff-Com: -0.380D+00 0.503D+00-0.547D-01-0.801D-01 0.231D+00 0.781D+00
 Coeff-En:   0.000D+00 0.000D+00 0.886D-01 0.381D+00 0.101D-01 0.520D+00
 Coeff:     -0.378D+00 0.500D+00-0.541D-01-0.782D-01 0.230D+00 0.780D+00
 Gap=     0.109 Goal=   None    Shift=    0.000
 RMSDP=4.60D-05 MaxDP=1.22D-02 DE=-1.97D-05 OVMax= 1.86D-03

 Cycle   7  Pass 1  IDiag  1:
 RMSU=  3.53D-05    CP:  8.68D-01  3.00D+00  8.20D-01  7.69D-01  1.61D+00
                    CP:  6.73D-01
 E= -1581.63595919476     Delta-E=       -0.000009804079 Rises=F Damp=F
 DIIS: error= 1.93D-04 at cycle   7 NSaved=   7.
 NSaved= 7 IEnMin= 7 EnMin= -1581.63595919476     IErMin= 7 ErrMin= 1.93D-04
 ErrMax= 1.93D-04 EMaxC= 1.00D-01 BMatC= 4.42D-06 BMatP= 1.57D-05
 IDIUse=3 WtCom= 9.98D-01 WtEn= 1.93D-03
 EnCoef did     4 forward-backward iterations
 Coeff-Com: -0.518D-01 0.687D-01-0.632D-01-0.165D+00-0.148D+00 0.658D+00
 Coeff-Com:  0.701D+00
 Coeff-En:   0.000D+00 0.000D+00 0.900D-01 0.221D+00 0.000D+00 0.000D+00
 Coeff-En:   0.689D+00
 Coeff:     -0.517D-01 0.686D-01-0.629D-01-0.164D+00-0.147D+00 0.657D+00
 Coeff:      0.701D+00
 Gap=     0.109 Goal=   None    Shift=    0.000
 RMSDP=2.88D-05 MaxDP=7.17D-03 DE=-9.80D-06 OVMax= 1.17D-03

 Cycle   8  Pass 1  IDiag  1:
 RMSU=  3.63D-06    CP:  8.68D-01  3.00D+00  8.15D-01  7.75D-01  1.82D+00
                    CP:  1.06D+00  5.38D-01
 E= -1581.63596255361     Delta-E=       -0.000003358857 Rises=F Damp=F
 DIIS: error= 2.62D-05 at cycle   8 NSaved=   8.
 NSaved= 8 IEnMin= 8 EnMin= -1581.63596255361     IErMin= 8 ErrMin= 2.62D-05
 ErrMax= 2.62D-05 EMaxC= 1.00D-01 BMatC= 1.00D-07 BMatP= 4.42D-06
 IDIUse=1 WtCom= 1.00D+00 WtEn= 0.00D+00
 Coeff-Com: -0.155D-01 0.205D-01-0.189D-01-0.556D-01-0.849D-01 0.222D+00
 Coeff-Com:  0.204D+00 0.729D+00
 Coeff:     -0.155D-01 0.205D-01-0.189D-01-0.556D-01-0.849D-01 0.222D+00
 Coeff:      0.204D+00 0.729D+00
 Gap=     0.109 Goal=   None    Shift=    0.000
 RMSDP=6.02D-06 MaxDP=1.26D-03 DE=-3.36D-06 OVMax= 2.07D-04

 Cycle   9  Pass 1  IDiag  1:
 RMSU=  7.73D-07    CP:  8.68D-01  3.00D+00  8.14D-01  7.68D-01  1.87D+00
                    CP:  1.07D+00  6.29D-01  9.37D-01
 E= -1581.63596263676     Delta-E=       -0.000000083145 Rises=F Damp=F
 DIIS: error= 6.70D-06 at cycle   9 NSaved=   9.
 NSaved= 9 IEnMin= 9 EnMin= -1581.63596263676     IErMin= 9 ErrMin= 6.70D-06
 ErrMax= 6.70D-06 EMaxC= 1.00D-01 BMatC= 1.69D-08 BMatP= 1.00D-07
 IDIUse=1 WtCom= 1.00D+00 WtEn= 0.00D+00
 Coeff-Com: -0.131D-02 0.176D-02-0.148D-02-0.722D-02-0.274D-01 0.307D-01
 Coeff-Com: -0.535D-02 0.356D+00 0.654D+00
 Coeff:     -0.131D-02 0.176D-02-0.148D-02-0.722D-02-0.274D-01 0.307D-01
 Coeff:     -0.535D-02 0.356D+00 0.654D+00
 Gap=     0.110 Goal=   None    Shift=    0.000
 RMSDP=1.84D-06 MaxDP=4.21D-04 DE=-8.31D-08 OVMax= 9.84D-05

 Cycle  10  Pass 1  IDiag  1:
 RMSU=  2.56D-07    CP:  8.68D-01  3.00D+00  8.14D-01  7.67D-01  1.88D+00
                    CP:  1.11D+00  6.28D-01  9.70D-01  6.87D-01
 E= -1581.63596266002     Delta-E=       -0.000000023266 Rises=F Damp=F
 DIIS: error= 3.12D-06 at cycle  10 NSaved=  10.
 NSaved=10 IEnMin=10 EnMin= -1581.63596266002     IErMin=10 ErrMin= 3.12D-06
 ErrMax= 3.12D-06 EMaxC= 1.00D-01 BMatC= 3.79D-09 BMatP= 1.69D-08
 IDIUse=1 WtCom= 1.00D+00 WtEn= 0.00D+00
 Coeff-Com:  0.161D-02-0.214D-02 0.341D-02 0.996D-02 0.139D-01-0.391D-01
 Coeff-Com: -0.413D-01-0.154D+00 0.258D+00 0.950D+00
 Coeff:      0.161D-02-0.214D-02 0.341D-02 0.996D-02 0.139D-01-0.391D-01
 Coeff:     -0.413D-01-0.154D+00 0.258D+00 0.950D+00
 Gap=     0.110 Goal=   None    Shift=    0.000
 RMSDP=2.18D-06 MaxDP=7.39D-04 DE=-2.33D-08 OVMax= 7.53D-05

 Cycle  11  Pass 1  IDiag  1:
 RMSU=  1.39D-07    CP:  8.68D-01  3.00D+00  8.14D-01  7.66D-01  1.88D+00
                    CP:  1.14D+00  5.76D-01  1.02D+00  6.57D-01  1.32D+00
 E= -1581.63596267169     Delta-E=       -0.000000011661 Rises=F Damp=F
 DIIS: error= 3.49D-06 at cycle  11 NSaved=  11.
 NSaved=11 IEnMin=11 EnMin= -1581.63596267169     IErMin=10 ErrMin= 3.12D-06
 ErrMax= 3.49D-06 EMaxC= 1.00D-01 BMatC= 2.98D-09 BMatP= 3.79D-09
 IDIUse=1 WtCom= 1.00D+00 WtEn= 0.00D+00
 Coeff-Com:  0.339D-02-0.452D-02 0.597D-02 0.189D-01 0.355D-01-0.720D-01
 Coeff-Com: -0.626D-01-0.385D+00-0.854D-01 0.858D+00 0.687D+00
 Coeff:      0.339D-02-0.452D-02 0.597D-02 0.189D-01 0.355D-01-0.720D-01
 Coeff:     -0.626D-01-0.385D+00-0.854D-01 0.858D+00 0.687D+00
 Gap=     0.110 Goal=   None    Shift=    0.000
 RMSDP=1.82D-06 MaxDP=6.34D-04 DE=-1.17D-08 OVMax= 9.05D-05

 Cycle  12  Pass 1  IDiag  1:
 RMSU=  1.34D-07    CP:  8.68D-01  3.00D+00  8.14D-01  7.67D-01  1.88D+00
                    CP:  1.11D+00  6.18D-01  9.98D-01  8.50D-01  1.64D+00
                    CP:  1.35D+00
 E= -1581.63596268136     Delta-E=       -0.000000009670 Rises=F Damp=F
 DIIS: error= 1.70D-06 at cycle  12 NSaved=  12.
 NSaved=12 IEnMin=12 EnMin= -1581.63596268136     IErMin=12 ErrMin= 1.70D-06
 ErrMax= 1.70D-06 EMaxC= 1.00D-01 BMatC= 8.91D-10 BMatP= 2.98D-09
 IDIUse=1 WtCom= 1.00D+00 WtEn= 0.00D+00
 Coeff-Com:  0.698D-03-0.934D-03 0.141D-02 0.486D-02 0.906D-02-0.806D-02
 Coeff-Com: -0.243D-01-0.748D-01-0.112D+00-0.112D-01-0.190D-01 0.123D+01
 Coeff:      0.698D-03-0.934D-03 0.141D-02 0.486D-02 0.906D-02-0.806D-02
 Coeff:     -0.243D-01-0.748D-01-0.112D+00-0.112D-01-0.190D-01 0.123D+01
 Gap=     0.110 Goal=   None    Shift=    0.000
 RMSDP=2.93D-07 MaxDP=6.48D-05 DE=-9.67D-09 OVMax= 8.08D-05

 Cycle  13  Pass 1  IDiag  1:
 RMSU=  5.35D-08    CP:  8.68D-01  3.00D+00  8.14D-01  7.67D-01  1.88D+00
                    CP:  1.11D+00  6.14D-01  9.98D-01  8.68D-01  2.05D+00
                    CP:  1.81D+00  1.47D+00
 E= -1581.63596268573     Delta-E=       -0.000000004374 Rises=F Damp=F
 DIIS: error= 8.35D-07 at cycle  13 NSaved=  13.
 NSaved=13 IEnMin=13 EnMin= -1581.63596268573     IErMin=13 ErrMin= 8.35D-07
 ErrMax= 8.35D-07 EMaxC= 1.00D-01 BMatC= 1.62D-10 BMatP= 8.91D-10
 IDIUse=1 WtCom= 1.00D+00 WtEn= 0.00D+00
 Coeff-Com: -0.596D-03 0.795D-03-0.418D-03-0.168D-02-0.482D-02 0.802D-02
 Coeff-Com:  0.105D-02 0.874D-01 0.330D-01-0.207D+00-0.250D+00 0.717D-01
 Coeff-Com:  0.126D+01
 Coeff:     -0.596D-03 0.795D-03-0.418D-03-0.168D-02-0.482D-02 0.802D-02
 Coeff:      0.105D-02 0.874D-01 0.330D-01-0.207D+00-0.250D+00 0.717D-01
 Coeff:      0.126D+01
 Gap=     0.110 Goal=   None    Shift=    0.000
 RMSDP=3.36D-07 MaxDP=9.99D-05 DE=-4.37D-09 OVMax= 4.93D-05

 Cycle  14  Pass 1  IDiag  1:
 RMSU=  4.47D-08    CP:  8.68D-01  3.00D+00  8.14D-01  7.67D-01  1.88D+00
                    CP:  1.11D+00  6.08D-01  9.99D-01  8.93D-01  2.27D+00
                    CP:  2.14D+00  1.70D+00  1.07D+00
 E= -1581.63596268677     Delta-E=       -0.000000001038 Rises=F Damp=F
 DIIS: error= 6.46D-07 at cycle  14 NSaved=  14.
 NSaved=14 IEnMin=14 EnMin= -1581.63596268677     IErMin=14 ErrMin= 6.46D-07
 ErrMax= 6.46D-07 EMaxC= 1.00D-01 BMatC= 4.99D-11 BMatP= 1.62D-10
 IDIUse=1 WtCom= 1.00D+00 WtEn= 0.00D+00
 Coeff-Com: -0.504D-03 0.672D-03-0.352D-03-0.133D-02-0.296D-02 0.263D-02
 Coeff-Com:  0.484D-02 0.409D-01 0.422D-01-0.759D-01-0.737D-01-0.280D+00
 Coeff-Com:  0.556D+00 0.788D+00
 Coeff:     -0.504D-03 0.672D-03-0.352D-03-0.133D-02-0.296D-02 0.263D-02
 Coeff:      0.484D-02 0.409D-01 0.422D-01-0.759D-01-0.737D-01-0.280D+00
 Coeff:      0.556D+00 0.788D+00
 Gap=     0.110 Goal=   None    Shift=    0.000
 RMSDP=3.12D-07 MaxDP=1.06D-04 DE=-1.04D-09 OVMax= 1.38D-05

 Cycle  15  Pass 1  IDiag  1:
 RMSU=  1.91D-08    CP:  8.68D-01  3.00D+00  8.14D-01  7.67D-01  1.88D+00
                    CP:  1.11D+00  6.13D-01  9.98D-01  9.02D-01  2.31D+00
                    CP:  2.20D+00  1.87D+00  1.41D+00  7.27D-01
 E= -1581.63596268690     Delta-E=       -0.000000000132 Rises=F Damp=F
 DIIS: error= 2.85D-07 at cycle  15 NSaved=  15.
 NSaved=15 IEnMin=15 EnMin= -1581.63596268690     IErMin=15 ErrMin= 2.85D-07
 ErrMax= 2.85D-07 EMaxC= 1.00D-01 BMatC= 1.27D-11 BMatP= 4.99D-11
 IDIUse=1 WtCom= 1.00D+00 WtEn= 0.00D+00
 Coeff-Com: -0.162D-03 0.214D-03-0.112D-03-0.289D-03-0.136D-03-0.127D-04
 Coeff-Com:  0.210D-02-0.598D-02 0.383D-02 0.106D-01 0.305D-01-0.649D-01
 Coeff-Com: -0.691D-01 0.187D+00 0.907D+00
 Coeff:     -0.162D-03 0.214D-03-0.112D-03-0.289D-03-0.136D-03-0.127D-04
 Coeff:      0.210D-02-0.598D-02 0.383D-02 0.106D-01 0.305D-01-0.649D-01
 Coeff:     -0.691D-01 0.187D+00 0.907D+00
 Gap=     0.110 Goal=   None    Shift=    0.000
 RMSDP=7.79D-08 MaxDP=2.39D-05 DE=-1.32D-10 OVMax= 2.37D-06

 Cycle  16  Pass 1  IDiag  1:
 RMSU=  5.25D-09    CP:  8.68D-01  3.00D+00  8.14D-01  7.67D-01  1.88D+00
                    CP:  1.11D+00  6.12D-01  9.99D-01  9.08D-01  2.31D+00
                    CP:  2.21D+00  1.87D+00  1.42D+00  8.89D-01  9.19D-01
 E= -1581.63596268692     Delta-E=       -0.000000000016 Rises=F Damp=F
 DIIS: error= 9.96D-08 at cycle  16 NSaved=  16.
 NSaved=16 IEnMin=16 EnMin= -1581.63596268692     IErMin=16 ErrMin= 9.96D-08
 ErrMax= 9.96D-08 EMaxC= 1.00D-01 BMatC= 2.48D-12 BMatP= 1.27D-11
 IDIUse=1 WtCom= 1.00D+00 WtEn= 0.00D+00
 Coeff-Com: -0.508D-04 0.665D-04-0.527D-05 0.413D-04 0.297D-03-0.612D-04
 Coeff-Com:  0.211D-03-0.765D-02-0.820D-02 0.120D-01 0.207D-01 0.387D-01
 Coeff-Com: -0.146D+00-0.130D+00 0.302D+00 0.918D+00
 Coeff:     -0.508D-04 0.665D-04-0.527D-05 0.413D-04 0.297D-03-0.612D-04
 Coeff:      0.211D-03-0.765D-02-0.820D-02 0.120D-01 0.207D-01 0.387D-01
 Coeff:     -0.146D+00-0.130D+00 0.302D+00 0.918D+00
 Gap=     0.110 Goal=   None    Shift=    0.000
 RMSDP=2.05D-08 MaxDP=3.62D-06 DE=-1.64D-11 OVMax= 2.74D-06

 Cycle  17  Pass 1  IDiag  1:
 RMSU=  2.46D-09    CP:  8.68D-01  3.00D+00  8.14D-01  7.67D-01  1.88D+00
                    CP:  1.11D+00  6.12D-01  9.99D-01  9.03D-01  2.33D+00
                    CP:  2.23D+00  1.87D+00  1.47D+00  9.30D-01  1.04D+00
                    CP:  1.20D+00
 E= -1581.63596268693     Delta-E=       -0.000000000011 Rises=F Damp=F
 DIIS: error= 4.86D-08 at cycle  17 NSaved=  17.
 NSaved=17 IEnMin=17 EnMin= -1581.63596268693     IErMin=17 ErrMin= 4.86D-08
 ErrMax= 4.86D-08 EMaxC= 1.00D-01 BMatC= 4.58D-13 BMatP= 2.48D-12
 IDIUse=1 WtCom= 1.00D+00 WtEn= 0.00D+00
 Coeff-Com: -0.568D-05 0.719D-05-0.589D-05-0.226D-05 0.683D-05 0.286D-03
 Coeff-Com: -0.857D-04-0.967D-03-0.355D-02 0.333D-02 0.495D-03 0.236D-01
 Coeff-Com: -0.298D-01-0.840D-01-0.989D-01 0.336D+00 0.854D+00
 Coeff:     -0.568D-05 0.719D-05-0.589D-05-0.226D-05 0.683D-05 0.286D-03
 Coeff:     -0.857D-04-0.967D-03-0.355D-02 0.333D-02 0.495D-03 0.236D-01
 Coeff:     -0.298D-01-0.840D-01-0.989D-01 0.336D+00 0.854D+00
 Gap=     0.110 Goal=   None    Shift=    0.000
 RMSDP=1.33D-08 MaxDP=4.84D-06 DE=-1.14D-11 OVMax= 5.58D-07

 Cycle  18  Pass 1  IDiag  1:
 RMSU=  1.13D-09    CP:  8.68D-01  3.00D+00  8.14D-01  7.67D-01  1.88D+00
                    CP:  1.11D+00  6.12D-01  9.99D-01  9.07D-01  2.33D+00
                    CP:  2.23D+00  1.88D+00  1.47D+00  9.36D-01  1.13D+00
                    CP:  1.27D+00  7.57D-01
 E= -1581.63596268691     Delta-E=        0.000000000013 Rises=F Damp=F
 DIIS: error= 1.01D-08 at cycle  18 NSaved=  18.
 NSaved=18 IEnMin=17 EnMin= -1581.63596268693     IErMin=18 ErrMin= 1.01D-08
 ErrMax= 1.01D-08 EMaxC= 1.00D-01 BMatC= 2.83D-14 BMatP= 4.58D-13
 IDIUse=1 WtCom= 1.00D+00 WtEn= 0.00D+00
 Coeff-Com:  0.196D-05-0.258D-05-0.783D-06-0.736D-05-0.233D-04-0.288D-05
 Coeff-Com:  0.609D-04 0.482D-03 0.521D-03-0.753D-03-0.697D-03-0.417D-02
 Coeff-Com:  0.135D-01 0.227D-02-0.504D-01-0.409D-01 0.987D-01 0.981D+00
 Coeff:      0.196D-05-0.258D-05-0.783D-06-0.736D-05-0.233D-04-0.288D-05
 Coeff:      0.609D-04 0.482D-03 0.521D-03-0.753D-03-0.697D-03-0.417D-02
 Coeff:      0.135D-01 0.227D-02-0.504D-01-0.409D-01 0.987D-01 0.981D+00
 Gap=     0.110 Goal=   None    Shift=    0.000
 RMSDP=3.27D-09 MaxDP=1.16D-06 DE= 1.30D-11 OVMax= 1.22D-07

 Cycle  19  Pass 1  IDiag  1:
 RMSU=  4.01D-10    CP:  8.68D-01  3.00D+00  8.14D-01  7.67D-01  1.88D+00
                    CP:  1.11D+00  6.12D-01  9.99D-01  9.06D-01  2.33D+00
                    CP:  2.23D+00  1.87D+00  1.47D+00  9.40D-01  1.12D+00
                    CP:  1.31D+00  8.49D-01  9.02D-01
 E= -1581.63596268692     Delta-E=       -0.000000000009 Rises=F Damp=F
 DIIS: error= 3.01D-09 at cycle  19 NSaved=  19.
 NSaved=19 IEnMin=17 EnMin= -1581.63596268693     IErMin=19 ErrMin= 3.01D-09
 ErrMax= 3.01D-09 EMaxC= 1.00D-01 BMatC= 1.71D-15 BMatP= 2.83D-14
 IDIUse=1 WtCom= 1.00D+00 WtEn= 0.00D+00
 Large coefficients: NSaved= 19 BigCof=    0.00 CofMax=   10.00 Det=-4.29D-15
 Inversion failed.  Reducing to 18 matrices.
 Large coefficients: NSaved= 18 BigCof=    0.00 CofMax=   10.00 Det=-4.29D-15
 Inversion failed.  Reducing to 17 matrices.
 Large coefficients: NSaved= 17 BigCof=    0.00 CofMax=   10.00 Det=-4.31D-15
 Inversion failed.  Reducing to 16 matrices.
 Large coefficients: NSaved= 16 BigCof=    0.00 CofMax=   10.00 Det=-4.33D-15
 Inversion failed.  Reducing to 15 matrices.
 Coeff-Com:  0.897D-06-0.508D-05-0.819D-05 0.623D-04 0.776D-04-0.874D-05
 Coeff-Com: -0.252D-03-0.852D-03 0.913D-03 0.411D-02 0.673D-02-0.138D-01
 Coeff-Com: -0.438D-01-0.406D-01 0.109D+01
 Coeff:      0.897D-06-0.508D-05-0.819D-05 0.623D-04 0.776D-04-0.874D-05
 Coeff:     -0.252D-03-0.852D-03 0.913D-03 0.411D-02 0.673D-02-0.138D-01
 Coeff:     -0.438D-01-0.406D-01 0.109D+01
 Gap=     0.110 Goal=   None    Shift=    0.000
 RMSDP=8.63D-10 MaxDP=2.94D-07 DE=-9.09D-12 OVMax= 5.18D-08

 SCF Done:  E(ROHF) =  -1581.63596269     A.U. after   19 cycles
             Convg  =    0.8631D-09             -V/T =  1.9999
 <Sx>= 0.0000 <Sy>= 0.0000 <Sz>= 1.0000 <S**2>= 2.0000 S= 1.0000
 <L.S>= 0.000000000000E+00
 KE= 1.581751757524D+03 PE=-3.924956973200D+03 EE= 6.887192513145D+02
 Annihilation of the first spin contaminant:
 S**2 before annihilation     2.0000,   after     2.0000
 DiagDN has N=   616 LTot=  1880 but NE2=     3 cannot use DSYEVD.
 Leave Link  502 at Wed Dec 18 00:48:18 2013, MaxMem=17179869184 cpu:  404339.3
 (Enter /share/apps/gaussian/g09root/g09/l801.exe)
 GenMOA:  NOpAll=  4 NOp2=4 NOpUse=  4 JSym2X=1
 FoFCou: FMM=F IPFlag=           0 FMFlag=           0 FMFlg1=           0
         NFxFlg=           0 DoJE=F BraDBF=F KetDBF=F FulRan=T
         Omega=  0.000000  0.000000  1.000000  0.000000  0.000000 ICntrl=       0 IOpCl=  1
         NMat0=    1 NMatS0=    1 NMatT0=    0 NMatD0=    1 NMtDS0=    0 NMtDT0=    0
         I1Cent=           0 NGrid=           0.
 Petite list used in FoFCou.
 <Sx>= 0.0000 <Sy>= 0.0000 <Sz>= 1.0000 <S**2>= 2.0000 S= 1.0000
 ExpMin= 8.26D-03 ExpMax= 4.57D+07 ExpMxC= 4.03D+03 IAcc=3 IRadAn=         5 AccDes= 0.00D+00
 HarFok:  IExCor=  205 AccDes= 0.00D+00 IRadAn=         5 IDoV=-2
 ScaDFX=  1.000000  1.000000  1.000000  1.000000
 Largest valence mixing into a core orbital is  5.39D-04
 Largest core mixing into a valence orbital is  2.73D-04
 Largest valence mixing into a core orbital is  6.96D-04
 Largest core mixing into a valence orbital is  1.40D-04
 Range of M.O.s used for correlation:    11   616
 NBasis=   616 NAE=    19 NBE=    17 NFC=    10 NFV=     0
 NROrb=    606 NOA=     9 NOB=     7 NVA=   597 NVB=   599

 **** Warning!!: The largest alpha MO coefficient is  0.28919349D+03


 **** Warning!!: The largest beta MO coefficient is  0.28919308D+03

 Singles contribution to E2=   -0.3223791081D-02
 Leave Link  801 at Wed Dec 18 01:10:04 2013, MaxMem=17179869184 cpu:   20848.3
 (Enter /share/apps/gaussian/g09root/g09/l906.exe)
 FulOut=F Deriv=F AODrv=F NAtomX=     2
   MMem=           0  MDisk=           9 MDiskD=           9
  W3Min=    11256408 MinDsk=    12544187 NBas6D=        1044
 NBas2D=      555573    NTT=      545490    LW2=   251210375
    MDV= 17175383714 MDiskM=        4061 NBas2p=      555482
 Disk-based method using OVN memory for  9 occupieds at a time.
 Permanent disk used for amplitudes and <ij||ab> integrals=    65389452 words.
 Estimated scratch disk usage=  9007303110 words.
 IUseRI=2 ITolRI= 6 IR12RI=0
 IMap=   1   2   3   4   5   6   7   8   9
 Actual    scratch disk usage=  8977223282 words.
 JobTyp=2 Pass  1:  I=   1 to   9 NPSUse= 16 ParTrn=T ParDer=T DoDerP=F.
 (rs|ai) integrals will be sorted in core.
 T,EIJ(AA): I=   1 J=   2      0.1134105E-03     -0.7942999E-03
 T,EIJ(AA): I=   1 J=   3      0.1134105E-03     -0.7942999E-03
 T,EIJ(AA): I=   1 J=   4      0.1426053E-03     -0.7060733E-03
 T,EIJ(AA): I=   1 J=   5      0.6699638E-04     -0.4500790E-03
 T,EIJ(AA): I=   1 J=   6      0.6699638E-04     -0.4500790E-03
 T,EIJ(AA): I=   1 J=   7      0.7540887E-03     -0.3348609E-02
 T,EIJ(AA): I=   1 J=   8      0.7540887E-03     -0.3348609E-02
 T,EIJ(AA): I=   1 J=   9      0.8272911E-03     -0.3161659E-02
 T,EIJ(AA): I=   2 J=   3      0.8972265E-03     -0.7302738E-02
 T,EIJ(AA): I=   2 J=   4      0.1306773E-02     -0.9855124E-02
 T,EIJ(AA): I=   2 J=   5      0.9803614E-03     -0.7631922E-02
 T,EIJ(AA): I=   2 J=   6      0.9803614E-03     -0.7631922E-02
 T,EIJ(AA): I=   2 J=   7      0.9261564E-04     -0.4029704E-03
 T,EIJ(AA): I=   2 J=   8      0.1435747E-03     -0.7215729E-03
 T,EIJ(AA): I=   2 J=   9      0.3688181E-03     -0.1736299E-02
 T,EIJ(AA): I=   3 J=   4      0.1306773E-02     -0.9855124E-02
 T,EIJ(AA): I=   3 J=   5      0.9803614E-03     -0.7631922E-02
 T,EIJ(AA): I=   3 J=   6      0.9803614E-03     -0.7631922E-02
 T,EIJ(AA): I=   3 J=   7      0.1435747E-03     -0.7215729E-03
 T,EIJ(AA): I=   3 J=   8      0.9261564E-04     -0.4029704E-03
 T,EIJ(AA): I=   3 J=   9      0.3688181E-03     -0.1736299E-02
 T,EIJ(AA): I=   4 J=   5      0.9967084E-03     -0.6362418E-02
 T,EIJ(AA): I=   4 J=   6      0.9967084E-03     -0.6362418E-02
 T,EIJ(AA): I=   4 J=   7      0.4411970E-03     -0.1583689E-02
 T,EIJ(AA): I=   4 J=   8      0.4411970E-03     -0.1583689E-02
 T,EIJ(AA): I=   4 J=   9      0.4721802E-03     -0.1812951E-02
 T,EIJ(AA): I=   5 J=   6      0.1580251E-02     -0.1240938E-01
 T,EIJ(AA): I=   5 J=   7      0.1265990E-03     -0.6163754E-03
 T,EIJ(AA): I=   5 J=   8      0.1265990E-03     -0.6163754E-03
 T,EIJ(AA): I=   5 J=   9      0.3241814E-03     -0.1470277E-02
 T,EIJ(AA): I=   6 J=   7      0.1265990E-03     -0.6163754E-03
 T,EIJ(AA): I=   6 J=   8      0.1265990E-03     -0.6163754E-03
 T,EIJ(AA): I=   6 J=   9      0.3241814E-03     -0.1470277E-02
 T,EIJ(AA): I=   7 J=   8      0.3511149E-02     -0.1003842E-01
 T,EIJ(AA): I=   7 J=   9      0.4867902E-02     -0.1037442E-01
 T,EIJ(AA): I=   8 J=   9      0.4867902E-02     -0.1037442E-01
 T,EIJ(AB): I=   1 J=   1      0.2069290E-02     -0.1284675E-01
 T,EIJ(AB): I=   1 J=   2      0.3771421E-03     -0.2436475E-02
 T,EIJ(AB): I=   1 J=   3      0.8636614E-04     -0.6559602E-03
 T,EIJ(AB): I=   1 J=   4      0.8636614E-04     -0.6559602E-03
 T,EIJ(AB): I=   1 J=   5      0.2236577E-02     -0.1151181E-01
 T,EIJ(AB): I=   1 J=   6      0.2236577E-02     -0.1151181E-01
 T,EIJ(AB): I=   1 J=   7      0.2014923E-02     -0.9601347E-02
 T,EIJ(AB): I=   2 J=   1      0.1534808E-03     -0.1075209E-02
 T,EIJ(AB): I=   2 J=   2      0.1457623E-02     -0.1091029E-01
 T,EIJ(AB): I=   2 J=   3      0.1364931E-02     -0.1080486E-01
 T,EIJ(AB): I=   2 J=   4      0.1364931E-02     -0.1080486E-01
 T,EIJ(AB): I=   2 J=   5      0.4430383E-03     -0.1707118E-02
 T,EIJ(AB): I=   2 J=   6      0.6542397E-03     -0.2709363E-02
 T,EIJ(AB): I=   2 J=   7      0.5720244E-03     -0.2605445E-02
 T,EIJ(AB): I=   3 J=   1      0.1534808E-03     -0.1075209E-02
 T,EIJ(AB): I=   3 J=   2      0.1457623E-02     -0.1091029E-01
 T,EIJ(AB): I=   3 J=   3      0.1364931E-02     -0.1080486E-01
 T,EIJ(AB): I=   3 J=   4      0.1364931E-02     -0.1080486E-01
 T,EIJ(AB): I=   3 J=   5      0.6542397E-03     -0.2709363E-02
 T,EIJ(AB): I=   3 J=   6      0.4430384E-03     -0.1707118E-02
 T,EIJ(AB): I=   3 J=   7      0.5720244E-03     -0.2605445E-02
 T,EIJ(AB): I=   4 J=   1      0.3483979E-03     -0.2286019E-02
 T,EIJ(AB): I=   4 J=   2      0.2828093E-02     -0.1796603E-01
 T,EIJ(AB): I=   4 J=   3      0.1567622E-02     -0.1046054E-01
 T,EIJ(AB): I=   4 J=   4      0.1567622E-02     -0.1046054E-01
 T,EIJ(AB): I=   4 J=   5      0.1298487E-02     -0.3726428E-02
 T,EIJ(AB): I=   4 J=   6      0.1298487E-02     -0.3726428E-02
 T,EIJ(AB): I=   4 J=   7      0.1364308E-02     -0.4966568E-02
 T,EIJ(AB): I=   5 J=   1      0.7960732E-04     -0.6164609E-03
 T,EIJ(AB): I=   5 J=   2      0.1509305E-02     -0.1010895E-01
 T,EIJ(AB): I=   5 J=   3      0.2582320E-02     -0.2040265E-01
 T,EIJ(AB): I=   5 J=   4      0.1694267E-02     -0.1292392E-01
 T,EIJ(AB): I=   5 J=   5      0.4768175E-03     -0.1680877E-02
 T,EIJ(AB): I=   5 J=   6      0.4768175E-03     -0.1680877E-02
 T,EIJ(AB): I=   5 J=   7      0.6047705E-03     -0.2402259E-02
 T,EIJ(AB): I=   6 J=   1      0.7960732E-04     -0.6164609E-03
 T,EIJ(AB): I=   6 J=   2      0.1509305E-02     -0.1010895E-01
 T,EIJ(AB): I=   6 J=   3      0.1694267E-02     -0.1292392E-01
 T,EIJ(AB): I=   6 J=   4      0.2582320E-02     -0.2040265E-01
 T,EIJ(AB): I=   6 J=   5      0.4768175E-03     -0.1680877E-02
 T,EIJ(AB): I=   6 J=   6      0.4768175E-03     -0.1680877E-02
 T,EIJ(AB): I=   6 J=   7      0.6047705E-03     -0.2402259E-02
 T,EIJ(AB): I=   7 J=   1      0.2190370E-02     -0.1164772E-01
 T,EIJ(AB): I=   7 J=   2      0.6416693E-03     -0.2477315E-02
 T,EIJ(AB): I=   7 J=   3      0.1612635E-03     -0.7901099E-03
 T,EIJ(AB): I=   7 J=   4      0.1612635E-03     -0.7901099E-03
 T,EIJ(AB): I=   7 J=   5      0.5067799E-02     -0.1433693E-01
 T,EIJ(AB): I=   7 J=   6      0.8552662E-02     -0.2612121E-01
 T,EIJ(AB): I=   7 J=   7      0.6571206E-02     -0.1425500E-01
 T,EIJ(AB): I=   8 J=   1      0.2190370E-02     -0.1164772E-01
 T,EIJ(AB): I=   8 J=   2      0.6416693E-03     -0.2477315E-02
 T,EIJ(AB): I=   8 J=   3      0.1612635E-03     -0.7901099E-03
 T,EIJ(AB): I=   8 J=   4      0.1612635E-03     -0.7901099E-03
 T,EIJ(AB): I=   8 J=   5      0.8552662E-02     -0.2612121E-01
 T,EIJ(AB): I=   8 J=   6      0.5067799E-02     -0.1433693E-01
 T,EIJ(AB): I=   8 J=   7      0.6571206E-02     -0.1425500E-01
 T,EIJ(AB): I=   9 J=   1      0.2105885E-02     -0.9954788E-02
 T,EIJ(AB): I=   9 J=   2      0.1557180E-02     -0.5182175E-02
 T,EIJ(AB): I=   9 J=   3      0.6246858E-03     -0.2350116E-02
 T,EIJ(AB): I=   9 J=   4      0.6246858E-03     -0.2350116E-02
 T,EIJ(AB): I=   9 J=   5      0.7597265E-02     -0.1577834E-01
 T,EIJ(AB): I=   9 J=   6      0.7597265E-02     -0.1577834E-01
 T,EIJ(AB): I=   9 J=   7      0.1917482E-01     -0.2893698E-01
 IMap=   1   2   3   4   5   6   7
 Actual    scratch disk usage=  9007297478 words.
 JobTyp=3 Pass  1:  I=   1 to   7 NPSUse= 16 ParTrn=T ParDer=T DoDerP=F.
 (rs|ai) integrals will be sorted in core.
 T,EIJ(BB): I=   1 J=   2      0.1643241E-03     -0.7968574E-03
 T,EIJ(BB): I=   1 J=   3      0.6947634E-04     -0.4587804E-03
 T,EIJ(BB): I=   1 J=   4      0.6947634E-04     -0.4587804E-03
 T,EIJ(BB): I=   1 J=   5      0.8834017E-03     -0.3685818E-02
 T,EIJ(BB): I=   1 J=   6      0.8834017E-03     -0.3685818E-02
 T,EIJ(BB): I=   1 J=   7      0.8417819E-03     -0.3207064E-02
 T,EIJ(BB): I=   2 J=   3      0.1037133E-02     -0.6482150E-02
 T,EIJ(BB): I=   2 J=   4      0.1037133E-02     -0.6482150E-02
 T,EIJ(BB): I=   2 J=   5      0.1240730E-02     -0.3138361E-02
 T,EIJ(BB): I=   2 J=   6      0.1240730E-02     -0.3138361E-02
 T,EIJ(BB): I=   2 J=   7      0.4820586E-03     -0.1836228E-02
 T,EIJ(BB): I=   3 J=   4      0.1979213E-02     -0.1320563E-01
 T,EIJ(BB): I=   3 J=   5      0.4529117E-03     -0.1465639E-02
 T,EIJ(BB): I=   3 J=   6      0.4529117E-03     -0.1465639E-02
 T,EIJ(BB): I=   3 J=   7      0.3528517E-03     -0.1591186E-02
 T,EIJ(BB): I=   4 J=   5      0.4529117E-03     -0.1465639E-02
 T,EIJ(BB): I=   4 J=   6      0.4529117E-03     -0.1465639E-02
 T,EIJ(BB): I=   4 J=   7      0.3528517E-03     -0.1591186E-02
 T,EIJ(BB): I=   5 J=   6      0.5360607E-02     -0.1224448E-01
 T,EIJ(BB): I=   5 J=   7      0.5758029E-02     -0.1138063E-01
 T,EIJ(BB): I=   6 J=   7      0.5758029E-02     -0.1138063E-01
 Spin components of T(2) and E(2):
     alpha-alpha T2 =       0.3081107715D-01 E2=     -0.1426239258D+00
     alpha-beta  T2 =       0.1322228576D+00 E2=     -0.5048465620D+00
     beta-beta   T2 =       0.2932287561D-01 E2=     -0.9062666833D-01
 The integrals were generated   2 times.
 ANorm=    0.1092964637D+01
 E2 =    -0.7413209472D+00 EUMP2 =    -0.15823772836341D+04
 Leave Link  906 at Wed Dec 18 02:07:50 2013, MaxMem=17179869184 cpu:   54111.8
 (Enter /share/apps/gaussian/g09root/g09/l904.exe)

 Complete Basis Set (CBS) Extrapolation:
 M. R. Nyden and G. A. Petersson, JCP 75, 1843 (1981)
 G. A. Petersson and M. A. Al-Laham, JCP 94, 6081 (1991)
 G. A. Petersson, T. Tensfeldt, and J. A. Montgomery, JCP 94, 6091 (1991)
 J. A. Montgomery, J. W. Ochterski, and G. A. Petersson, JCP 101, 5900 (1994)
 
 Available Memory in CBS = **********
 Minimum Number of PNO for Extrapolation =  25
 Absolute Overlaps: IRadAn =         5
 LocTrn: ILocal=3 LocCor=F DoCore=F.
 Entering OneElI...
 Overlap between basis sets.
 Requested accuracy = 0.1000D-12
 PrsmSu:  NPrtUS=   1 ThrOK=F IAlg=1
 PRISM was handed 17178007996 working-precision words and    47 shell-pairs
 IPart=  0 NShTot=          47 NBatch=          11 AvBLen=         4.3
 CnvPC2: ToCart=F DoDens=F IPureD=0 IPureF=0.
 Transformed matrix in CnvPC2: 
                 1             2             3             4             5 
      1   0.100000D+01  0.392442D+00  0.000000D+00  0.000000D+00  0.000000D+00
      2   0.392442D+00  0.100000D+01  0.000000D+00  0.000000D+00  0.000000D+00
      3   0.000000D+00  0.000000D+00  0.100000D+01  0.000000D+00  0.000000D+00
      4   0.000000D+00  0.000000D+00  0.000000D+00  0.100000D+01  0.000000D+00
      5   0.000000D+00  0.000000D+00  0.000000D+00  0.000000D+00  0.100000D+01
      6   0.263888D-01  0.323074D+00  0.000000D+00  0.000000D+00  0.000000D+00
      7   0.000000D+00  0.000000D+00  0.336017D+00  0.000000D+00  0.000000D+00
      8   0.000000D+00  0.000000D+00  0.000000D+00  0.336017D+00  0.000000D+00
      9   0.000000D+00  0.000000D+00  0.000000D+00  0.000000D+00  0.336017D+00
     10   0.000000D+00  0.000000D+00  0.000000D+00  0.000000D+00  0.000000D+00
     11   0.000000D+00  0.000000D+00  0.000000D+00  0.000000D+00  0.000000D+00
     12   0.000000D+00  0.000000D+00  0.000000D+00  0.000000D+00  0.000000D+00
     13   0.000000D+00  0.000000D+00  0.000000D+00  0.000000D+00  0.000000D+00
     14   0.000000D+00  0.000000D+00  0.000000D+00  0.000000D+00  0.000000D+00
     15  -0.349048D-03  0.311961D-02  0.000000D+00  0.000000D+00  0.000000D+00
     16   0.000000D+00  0.000000D+00  0.102476D-01  0.000000D+00  0.000000D+00
     17   0.000000D+00  0.000000D+00  0.000000D+00  0.102476D-01  0.000000D+00
     18   0.000000D+00  0.000000D+00  0.000000D+00  0.000000D+00  0.102476D-01
     19   0.000000D+00  0.000000D+00  0.000000D+00  0.000000D+00  0.000000D+00
     20   0.639118D-03  0.428350D-02  0.000000D+00  0.000000D+00 -0.195315D-02
     21   0.000000D+00  0.000000D+00  0.578107D-03  0.000000D+00  0.000000D+00
     22   0.000000D+00  0.000000D+00  0.000000D+00  0.578107D-03  0.000000D+00
     23   0.135662D-02  0.885435D-02  0.000000D+00  0.000000D+00 -0.351266D-02
                 6             7             8             9            10 
      1   0.263888D-01  0.000000D+00  0.000000D+00  0.000000D+00  0.000000D+00
      2   0.323074D+00  0.000000D+00  0.000000D+00  0.000000D+00  0.000000D+00
      3   0.000000D+00  0.336017D+00  0.000000D+00  0.000000D+00  0.000000D+00
      4   0.000000D+00  0.000000D+00  0.336017D+00  0.000000D+00  0.000000D+00
      5   0.000000D+00  0.000000D+00  0.000000D+00  0.336017D+00  0.000000D+00
      6   0.100000D+01  0.000000D+00  0.000000D+00  0.000000D+00  0.000000D+00
      7   0.000000D+00  0.100000D+01  0.000000D+00  0.000000D+00  0.000000D+00
      8   0.000000D+00  0.000000D+00  0.100000D+01  0.000000D+00  0.000000D+00
      9   0.000000D+00  0.000000D+00  0.000000D+00  0.100000D+01  0.000000D+00
     10   0.000000D+00  0.000000D+00  0.000000D+00  0.000000D+00  0.100000D+01
     11   0.000000D+00  0.000000D+00  0.000000D+00  0.000000D+00  0.000000D+00
     12   0.000000D+00  0.000000D+00  0.000000D+00  0.000000D+00  0.000000D+00
     13   0.000000D+00  0.000000D+00  0.000000D+00  0.000000D+00  0.000000D+00
     14   0.000000D+00  0.000000D+00  0.000000D+00  0.000000D+00  0.000000D+00
     15   0.165188D+00  0.000000D+00  0.000000D+00  0.000000D+00  0.000000D+00
     16   0.000000D+00  0.182209D+00  0.000000D+00  0.000000D+00  0.000000D+00
     17   0.000000D+00  0.000000D+00  0.182209D+00  0.000000D+00  0.000000D+00
     18   0.000000D+00  0.000000D+00  0.000000D+00  0.182209D+00  0.000000D+00
     19   0.186725D-04  0.000000D+00  0.000000D+00 -0.573627D-04  0.383151D-03
     20   0.358220D-01  0.000000D+00  0.000000D+00 -0.397205D-01  0.353024D-01
     21   0.000000D+00  0.121368D-01  0.000000D+00  0.000000D+00  0.000000D+00
     22   0.000000D+00  0.000000D+00  0.121368D-01  0.000000D+00  0.000000D+00
     23   0.630621D-01  0.000000D+00  0.000000D+00 -0.639765D-01  0.525033D-01
                11            12            13            14            15 
      1   0.000000D+00  0.000000D+00  0.000000D+00  0.000000D+00 -0.349048D-03
      2   0.000000D+00  0.000000D+00  0.000000D+00  0.000000D+00  0.311961D-02
      3   0.000000D+00  0.000000D+00  0.000000D+00  0.000000D+00  0.000000D+00
      4   0.000000D+00  0.000000D+00  0.000000D+00  0.000000D+00  0.000000D+00
      5   0.000000D+00  0.000000D+00  0.000000D+00  0.000000D+00  0.000000D+00
      6   0.000000D+00  0.000000D+00  0.000000D+00  0.000000D+00  0.165188D+00
      7   0.000000D+00  0.000000D+00  0.000000D+00  0.000000D+00  0.000000D+00
      8   0.000000D+00  0.000000D+00  0.000000D+00  0.000000D+00  0.000000D+00
      9   0.000000D+00  0.000000D+00  0.000000D+00  0.000000D+00  0.000000D+00
     10   0.000000D+00  0.000000D+00  0.000000D+00  0.000000D+00  0.000000D+00
     11   0.100000D+01  0.000000D+00  0.000000D+00  0.000000D+00  0.000000D+00
     12   0.000000D+00  0.100000D+01  0.000000D+00  0.000000D+00  0.000000D+00
     13   0.000000D+00  0.000000D+00  0.100000D+01  0.000000D+00  0.000000D+00
     14   0.000000D+00  0.000000D+00  0.000000D+00  0.100000D+01  0.000000D+00
     15   0.000000D+00  0.000000D+00  0.000000D+00  0.000000D+00  0.100000D+01
[...]
 Copying SCF densities to generalized density rwf, IOpCl= 0 IROHF=1.

 **********************************************************************

            Population analysis using the SCF density.

 **********************************************************************

 Orbital symmetries:
       Occupied  (SG) (SG) (SG) (PI) (PI) (SG) (SG) (PI) (PI) (SG)
                 (SG) (SG) (DLTA) (DLTA) (PI) (PI) (SG) (PI) (PI)
       Virtual   (SG) (SG) (PI) (PI) (SG) (DLTA) (DLTA) (PI) (PI)
                 (SG) (SG) (PI) (PI) (SG) (PI) (PI) (SG) (DLTA)
                 (DLTA) (SG) (PI) (PI) (SG) (SG) (PI) (PI) (SG)
                 (DLTA) (DLTA) (PI) (PI) (SG) (PHI) (PHI) (PI)
                 (PI) (SG) (DLTA) (DLTA) (PI) (PI) (SG) (DLTA)
                 (DLTA) (SG) (PI) (PI) (PI) (PI) (SG) (PHI) (PHI)
                 (SG) (SG) (DLTA) (DLTA) (PI) (PI) (DLTA) (DLTA)
                 (?A) (?A) (SG) (PI) (PI) (PHI) (PHI) (SG) (DLTA)
                 (DLTA) (PI) (PI) (SG) (PI) (PI) (PHI) (PHI) (DLTA)
                 (DLTA) (PI) (PI) (DLTA) (DLTA) (SG) (?A) (?A)
                 (SG) (PI) (PI) (SG) (PHI) (PHI) (PI) (PI) (SG)
                 (SG) (DLTA) (DLTA) (PI) (PI) (PHI) (PHI) (SG)
                 (DLTA) (DLTA) (?B) (?B) (?A) (?A) (PI) (PI) (DLTA)
                 (DLTA) (SG) (SG) (PI) (PI) (DLTA) (DLTA) (PHI)
                 (PHI) (?B) (?B) (PHI) (PHI) (?A) (?A) (PI) (PI)
                 (SG) (?A) (?A) (DLTA) (DLTA) (PI) (PI) (SG) (PHI)
                 (PHI) (PI) (PI) (SG) (SG) (DLTA) (DLTA) (PI) (PI)
                 (PHI) (PHI) (DLTA) (DLTA) (PI) (PI) (SG) (PI)
                 (PI) (SG) (?A) (?A) (PHI) (PHI) (DLTA) (DLTA)
                 (SG) (?B) (?B) (SG) (SG) (DLTA) (DLTA) (?A) (?A)
                 (SG) (SG) (PI) (PI) (SG) (PHI) (PHI) (PI) (PI)
                 (SG) (?B) (?B) (DLTA) (DLTA) (DLTA) (DLTA) (SG)
                 (PI) (PI) (PHI) (PHI) (SG) (DLTA) (DLTA) (PI)
                 (PI) (?A) (?A) (PHI) (PHI) (SG) (SG) (DLTA) (DLTA)
                 (PI) (PI) (?B) (?B) (?A) (?A) (PI) (PI) (SG) (PHI)
                 (PHI) (DLTA) (DLTA) (PI) (PI) (?A) (?A) (SG) (PHI)
                 (PHI) (?B) (?B) (PI) (PI) (?A) (?A) (PHI) (PHI)
                 (PI) (PI) (DLTA) (DLTA) (PHI) (PHI) (SG) (PI)
                 (PI) (DLTA) (DLTA) (SG) (DLTA) (DLTA) (?C) (?C)
                 (SG) (SG) (PI) (PI) (SG) (?B) (?B) (SG) (?A) (?A)
                 (SG) (PI) (PI) (SG) (?A) (?A) (PHI) (PHI) (DLTA)
                 (DLTA) (PI) (PI) (PHI) (PHI) (SG) (PHI) (PHI)
                 (DLTA) (DLTA) (DLTA) (DLTA) (PI) (PI) (SG) (SG)
                 (DLTA) (DLTA) (PI) (PI) (DLTA) (DLTA) (SG) (PI)
                 (PI) (SG) (PI) (PI) (SG) (SG) (?B) (?B) (DLTA)
                 (DLTA) (?A) (?A) (PI) (PI) (PHI) (PHI) (SG) (SG)
                 (SG) (?B) (?B) (?A) (?A) (PHI) (PHI) (SG) (DLTA)
                 (DLTA) (PI) (PI) (?B) (?B) (?A) (?A) (SG) (PHI)
                 (PHI) (?A) (?A) (DLTA) (DLTA) (PI) (PI) (PHI)
                 (PHI) (PHI) (PHI) (SG) (DLTA) (DLTA) (PI) (PI)
                 (DLTA) (DLTA) (PI) (PI) (SG) (?B) (?B) (?A) (?A)
                 (SG) (PHI) (PHI) (SG) (PI) (PI) (PI) (PI) (DLTA)
                 (DLTA) (SG) (PI) (PI) (?A) (?A) (PHI) (PHI) (PHI)
                 (PHI) (DLTA) (DLTA) (SG) (PI) (PI) (DLTA) (DLTA)
                 (SG) (PI) (PI) (SG) (DLTA) (DLTA) (SG) (DLTA)
                 (DLTA) (PI) (PI) (SG) (PI) (PI) (SG) (SG) (?B)
                 (?B) (?C) (?C) (?A) (?A) (PHI) (PHI) (DLTA) (DLTA)
                 (PI) (PI) (SG) (?B) (?B) (SG) (SG) (?C) (?C) (SG)
                 (?A) (?A) (PHI) (PHI) (DLTA) (DLTA) (SG) (PI)
                 (PI) (SG) (?B) (?B) (SG) (SG) (?A) (?A) (PHI)
                 (PHI) (DLTA) (DLTA) (PI) (PI) (SG) (?A) (?A) (PHI)
                 (PHI) (DLTA) (DLTA) (?A) (?A) (?B) (?B) (PI) (PI)
                 (PHI) (PHI) (SG) (DLTA) (DLTA) (PI) (PI) (SG)
                 (SG) (?B) (?B) (SG) (?A) (?A) (PHI) (PHI) (DLTA)
                 (DLTA) (PHI) (PHI) (PI) (PI) (SG) (DLTA) (DLTA)
                 (PI) (PI) (SG) (?B) (?B) (?A) (?A) (PHI) (PHI)
                 (DLTA) (DLTA) (PI) (PI) (SG) (PI) (PI) (SG) (PHI)
                 (PHI) (DLTA) (DLTA) (PI) (PI) (SG) (?A) (?A) (PHI)
                 (PHI) (DLTA) (DLTA) (PI) (PI) (SG) (DLTA) (DLTA)
                 (PI) (PI) (SG) (?A) (?A) (PHI) (PHI) (?B) (?B)
                 (DLTA) (DLTA) (SG) (SG) (PI) (PI) (?C) (?C) (SG)
                 (?D) (?D) (PI) (PI) (SG) (DLTA) (DLTA) (PI) (PI)
                 (SG) (?B) (?B) (SG) (SG) (?A) (?A) (?C) (?C) (PHI)
                 (PHI) (DLTA) (DLTA) (PI) (PI) (SG) (SG) (?A) (?A)
                 (PHI) (PHI) (DLTA) (DLTA) (PI) (PI) (SG) (?B)
                 (?B) (?A) (?A) (SG) (SG) (PHI) (PHI) (DLTA) (DLTA)
                 (PI) (PI) (SG) (?A) (?A) (?B) (?B) (PHI) (PHI)
                 (DLTA) (DLTA) (SG) (PI) (PI) (PHI) (PHI) (DLTA)
                 (DLTA) (PI) (PI) (SG) (SG) (SG)
 The electronic state is 3-SG.
 Alpha  occ. eigenvalues -- -305.63843 -37.97363 -33.02056 -32.98568 -32.98568
 Alpha  occ. eigenvalues --  -20.46044  -4.99913  -3.46356  -3.38354  -3.38354
 Alpha  occ. eigenvalues --   -1.14661  -0.80684  -0.80684  -0.74144  -0.71754
 Alpha  occ. eigenvalues --   -0.71754  -0.37651  -0.37651  -0.36945
 Alpha virt. eigenvalues --   -0.05245   0.01604   0.03389   0.03389   0.04661
 Alpha virt. eigenvalues --    0.07115   0.07115   0.07613   0.07613   0.09199
 Alpha virt. eigenvalues --    0.09831   0.14975   0.14975   0.16623   0.20919
 Alpha virt. eigenvalues --    0.20919   0.22727   0.24841   0.24841   0.25249
 Alpha virt. eigenvalues --    0.25815   0.25815   0.32426   0.38514   0.40385
 Alpha virt. eigenvalues --    0.40385   0.49490   0.51758   0.51758   0.52085
 Alpha virt. eigenvalues --    0.52085   0.54185   0.61666   0.61666   0.62444
 Alpha virt. eigenvalues --    0.62444   0.66720   0.66853   0.66853   0.67424
 Alpha virt. eigenvalues --    0.67424   0.71250   0.73386   0.73386   0.85386
 Alpha virt. eigenvalues --    0.88523   0.88523   0.92607   0.92607   0.95437
 Alpha virt. eigenvalues --    1.00917   1.00917   1.04414   1.17871   1.19025
 Alpha virt. eigenvalues --    1.19025   1.21034   1.21034   1.26044   1.26044
 Alpha virt. eigenvalues --    1.29025   1.29025   1.33838   1.35277   1.35277
 Alpha virt. eigenvalues --    1.41030   1.41030   1.43936   1.47049   1.47049
 Alpha virt. eigenvalues --    1.53263   1.53263   1.58497   1.61900   1.61900
 Alpha virt. eigenvalues --    1.62670   1.62670   1.71794   1.71794   1.72062
 Alpha virt. eigenvalues --    1.72062   1.81184   1.81184   1.82284   1.83929
 Alpha virt. eigenvalues --    1.83929   1.85863   1.94948   1.94948   1.99282
 Alpha virt. eigenvalues --    2.09608   2.09608   2.28648   2.28648   2.32443
 Alpha virt. eigenvalues --    2.35474   2.38628   2.38628   2.39015   2.39015
 Alpha virt. eigenvalues --    2.43337   2.43337   2.48383   2.56481   2.56481
 Alpha virt. eigenvalues --    2.56997   2.56997   2.65713   2.65713   2.76670
 Alpha virt. eigenvalues --    2.76670   2.79999   2.79999   2.91955   2.96002
 Alpha virt. eigenvalues --    2.96939   2.96939   2.99823   2.99823   3.00862
 Alpha virt. eigenvalues --    3.00862   3.10012   3.10012   3.19765   3.19765
 Alpha virt. eigenvalues --    3.27303   3.27303   3.27425   3.27425   3.37374
 Alpha virt. eigenvalues --    3.41476   3.41476   3.45225   3.45225   3.47239
 Alpha virt. eigenvalues --    3.47239   3.56713   3.61516   3.61516   3.63683
 Alpha virt. eigenvalues --    3.63683   3.64802   3.81850   3.89121   3.89121
 Alpha virt. eigenvalues --    4.00927   4.00927   4.03257   4.03257   4.10395
 Alpha virt. eigenvalues --    4.10395   4.10698   4.10698   4.13404   4.29692
 Alpha virt. eigenvalues --    4.29692   4.30213   4.45085   4.45085   4.54239
 Alpha virt. eigenvalues --    4.54239   4.54334   4.54334   4.58685   4.72443
 Alpha virt. eigenvalues --    4.72443   4.83565   4.83565   4.88242   4.88242
 Alpha virt. eigenvalues --    5.01666   5.01666   5.07480   5.07480   5.07575
 Alpha virt. eigenvalues --    5.07575   5.08036   5.10121   5.10121   5.14629
 Alpha virt. eigenvalues --    5.14629   5.37192   5.40341   5.40341   5.41975
 Alpha virt. eigenvalues --    5.41975   5.50822   5.50822   5.51985   5.63165
 Alpha virt. eigenvalues --    5.63165   5.67233   5.67233   5.81713   5.89382
 Alpha virt. eigenvalues --    5.89382   6.00465   6.00465   6.02805   6.02805
 Alpha virt. eigenvalues --    6.16197   6.16197   6.29044   6.37946   6.43953
 Alpha virt. eigenvalues --    6.43953   6.52503   6.52503   6.58366   6.58366
 Alpha virt. eigenvalues --    6.64487   6.64487   6.79337   6.79337   6.88503
 Alpha virt. eigenvalues --    7.00237   7.00237   7.05027   7.05027   7.09443
 Alpha virt. eigenvalues --    7.09443   7.34475   7.34475   7.38549   7.55498
 Alpha virt. eigenvalues --    7.55498   7.64944   7.64944   7.69792   7.69792
 Alpha virt. eigenvalues --    7.70956   7.70956   7.78291   7.78291   7.89611
 Alpha virt. eigenvalues --    7.89611   7.93997   7.93997   7.99885   7.99885
 Alpha virt. eigenvalues --    8.02765   8.22583   8.22583   8.24432   8.24432
 Alpha virt. eigenvalues --    8.43258   8.73522   8.73522   8.80865   8.80865
 Alpha virt. eigenvalues --    8.80972   8.80972   8.81200   8.81200   8.85389
 Alpha virt. eigenvalues --    8.95821   8.95821   8.98629   9.39137   9.39137
 Alpha virt. eigenvalues --    9.42571   9.46842   9.46842   9.59337   9.60456
 Alpha virt. eigenvalues --    9.60456   9.75580   9.75580   9.91812   9.91812
 Alpha virt. eigenvalues --   10.03807  10.03807  10.08091  10.08091  10.24712
 Alpha virt. eigenvalues --   10.27602  10.27602  10.31262  10.31262  10.36292
 Alpha virt. eigenvalues --   10.36292  10.47177  10.47177  10.69933  10.93241
 Alpha virt. eigenvalues --   10.93405  10.93405  11.18257  11.18257  11.31730
 Alpha virt. eigenvalues --   11.31730  11.90908  11.90914  11.90914  12.08622
 Alpha virt. eigenvalues --   12.38510  12.38510  12.64304  12.64304  12.65282
 Alpha virt. eigenvalues --   12.65282  12.81233  12.81233  12.83503  12.83503
 Alpha virt. eigenvalues --   12.90097  12.90097  13.08506  13.08506  13.33175
 Alpha virt. eigenvalues --   13.41362  13.41362  13.44765  13.44765  13.58947
 Alpha virt. eigenvalues --   13.58947  13.97787  13.97787  14.07722  14.47909
 Alpha virt. eigenvalues --   14.47909  14.76281  14.76281  14.99310  14.99310
 Alpha virt. eigenvalues --   14.99600  14.99600  15.09009  15.23688  15.23688
 Alpha virt. eigenvalues --   15.45075  15.45075  15.61153  15.61153  15.67702
 Alpha virt. eigenvalues --   15.67702  15.69072  15.69072  15.88108  15.88108
 Alpha virt. eigenvalues --   15.90870  16.16781  16.16781  16.62442  16.62442
 Alpha virt. eigenvalues --   16.82282  16.82282  16.87396  16.87396  17.10652
 Alpha virt. eigenvalues --   17.18648  17.18648  17.25782  17.25782  17.28158
 Alpha virt. eigenvalues --   17.56324  17.56324  17.66306  17.73485  17.73485
 Alpha virt. eigenvalues --   18.13781  18.13781  18.16904  18.16904  18.71416
 Alpha virt. eigenvalues --   19.30008  19.30008  19.92724  19.92724  20.04548
 Alpha virt. eigenvalues --   20.04548  20.23398  20.23398  20.31462  20.31462
 Alpha virt. eigenvalues --   20.32192  20.69753  20.69753  20.83575  20.83575
 Alpha virt. eigenvalues --   20.93740  21.97281  21.97281  22.08026  22.27464
 Alpha virt. eigenvalues --   22.27464  22.94460  23.08552  23.08552  23.13861
 Alpha virt. eigenvalues --   23.13861  23.53990  23.89687  23.89687  24.22303
 Alpha virt. eigenvalues --   24.22303  24.23453  24.23453  24.25810  24.25810
 Alpha virt. eigenvalues --   24.31850  24.31850  24.49912  24.49912  24.70814
 Alpha virt. eigenvalues --   24.70814  24.76036  24.76036  24.84143  25.41413
 Alpha virt. eigenvalues --   25.41413  25.41678  25.41678  25.43127  25.43127
 Alpha virt. eigenvalues --   25.47566  25.50563  25.50563  25.75797  25.75797
 Alpha virt. eigenvalues --   25.86498  25.86498  25.91943  26.32621  26.32621
 Alpha virt. eigenvalues --   28.31094  30.21895  30.21895  30.25076  30.25076
 Alpha virt. eigenvalues --   30.29284  30.29284  30.41538  30.41538  30.48928
 Alpha virt. eigenvalues --   30.48928  30.75722  30.75722  30.75877  32.68411
 Alpha virt. eigenvalues --   32.68411  32.77898  32.77898  33.04703  33.04703
 Alpha virt. eigenvalues --   33.20069  33.20069  33.23573  33.23573  33.30345
 Alpha virt. eigenvalues --   33.30345  33.34756  33.34756  33.68750  33.80259
 Alpha virt. eigenvalues --   33.80259  33.88024  33.88024  34.03971  34.03971
 Alpha virt. eigenvalues --   34.04444  34.04444  34.06399  34.09602  34.09602
 Alpha virt. eigenvalues --   34.25126  34.25126  34.59451  34.59451  34.89629
 Alpha virt. eigenvalues --   34.89629  35.00084  35.00084  35.16244  35.32368
 Alpha virt. eigenvalues --   35.32368  36.55121  36.55121  36.71252  39.00752
 Alpha virt. eigenvalues --   39.00752  39.04284  39.04284  39.20133  39.20133
 Alpha virt. eigenvalues --   39.46309  39.46309  39.52882  39.52882  39.61531
 Alpha virt. eigenvalues --   40.73068  40.73068  41.57586  41.68369  41.68369
 Alpha virt. eigenvalues --   41.95526  41.95526  42.49152  42.49152  42.67834
 Alpha virt. eigenvalues --   42.86127  42.86127  42.95602  42.95602  43.31745
 Alpha virt. eigenvalues --   43.31745  44.01719  44.01719  44.09074  46.78921
 Alpha virt. eigenvalues --   46.78921  47.27413  47.27413  47.91264  49.58623
 Alpha virt. eigenvalues --   49.58623  49.58876  49.58876  49.59046  49.59046
 Alpha virt. eigenvalues --   49.60389  49.60389  49.60394  49.60394  49.62841
 Alpha virt. eigenvalues --   49.62841  49.63148  49.63148  49.63355  49.67893
 Alpha virt. eigenvalues --   49.67893  52.85493  52.85493  55.24779  60.02779
 Alpha virt. eigenvalues --   60.02779  60.71342  60.71342  61.39305  63.90597
 Alpha virt. eigenvalues --   63.90597  63.92405  63.92405  63.93663  63.93663
 Alpha virt. eigenvalues --   63.98022  63.98022  64.01378  64.01378  64.06167
 Alpha virt. eigenvalues --   64.06167  64.09767  64.09767  64.10721  64.38045
 Alpha virt. eigenvalues --   71.91779  71.91779  71.95624  71.95624  72.19189
 Alpha virt. eigenvalues --   72.19189  72.34634  72.34634  72.54648  72.65009
 Alpha virt. eigenvalues --   72.65009  72.66977  72.66977  72.70190  72.70190
 Alpha virt. eigenvalues --   72.74377  72.74377  72.78793  72.78793  73.03812
 Alpha virt. eigenvalues --   73.03812  73.21947  75.73015  75.73015  75.77618
 Alpha virt. eigenvalues --   75.77618  75.80034  75.80034  76.09123  76.09123
 Alpha virt. eigenvalues --   76.20524  76.21559  76.21559  79.47997  79.47997
 Alpha virt. eigenvalues --   79.67998  79.67998  80.45157  80.45157  80.81934
 Alpha virt. eigenvalues --  108.13582 808.51915
          Condensed to atoms (all electrons):
              1          2
     1  Ni  26.603684   0.296191
     2  O    0.296191   8.803933
 Mulliken atomic charges:
              1
     1  Ni   1.100125
     2  O   -1.100125
 Sum of Mulliken atomic charges =   0.00000
 Mulliken charges with hydrogens summed into heavy atoms:
              1
     1  Ni   1.100125
     2  O   -1.100125
 Sum of Mulliken charges with hydrogens summed into heavy atoms =   0.00000
          Atomic-Atomic Spin Densities.
              1          2
     1  Ni   1.928204  -0.035623
     2  O   -0.035623   0.143041
 Mulliken atomic spin densities:
              1
     1  Ni   1.892581
     2  O    0.107419
 Sum of Mulliken atomic spin densities =   2.00000
 Electronic spatial extent (au):  <R**2>=            102.7035
 Charge=              0.0000 electrons
 Dipole moment (field-independent basis, Debye):
    X=              0.0000    Y=              0.0000    Z=              8.2725  Tot=              8.2725
 Quadrupole moment (field-independent basis, Debye-Ang):
   XX=            -18.6686   YY=            -18.6686   ZZ=            -21.6771
   XY=              0.0000   XZ=              0.0000   YZ=              0.0000
 Traceless Quadrupole moment (field-independent basis, Debye-Ang):
   XX=              1.0028   YY=              1.0028   ZZ=             -2.0057
   XY=              0.0000   XZ=              0.0000   YZ=              0.0000
 Octapole moment (field-independent basis, Debye-Ang**2):
  XXX=              0.0000  YYY=              0.0000  ZZZ=             24.7263  XYY=              0.0000
  XXY=              0.0000  XXZ=              6.0698  XZZ=              0.0000  YZZ=              0.0000
  YYZ=              6.0698  XYZ=              0.0000
 Hexadecapole moment (field-independent basis, Debye-Ang**3):
 XXXX=            -20.0023 YYYY=            -20.0023 ZZZZ=            -93.8108 XXXY=              0.0000
 XXXZ=              0.0000 YYYX=              0.0000 YYYZ=              0.0000 ZZZX=              0.0000
 ZZZY=              0.0000 XXYY=             -6.6674 XXZZ=            -18.2881 YYZZ=            -18.2881
 XXYZ=              0.0000 YYXZ=              0.0000 ZZXY=              0.0000
 N-N= 7.285000167422D+01 E-N=-5.846632823470D+03  KE= 2.363463743099D+03
                          Isotropic Fermi Contact Couplings
        Atom                 a.u.       MegaHertz       Gauss      10(-4) cm-1
     1  Ni(61)             0.00000       0.00000       0.00000       0.00000
     2  O(17)              0.00000       0.00000       0.00000       0.00000
 --------------------------------------------------------
       Center         ----  Spin Dipole Couplings  ----
                      3XX-RR        3YY-RR        3ZZ-RR
 --------------------------------------------------------
     1   Atom       -1.894610     -1.894610      3.789219
     2   Atom        0.044442      0.044442     -0.088884
 --------------------------------------------------------
                        XY            XZ            YZ
 --------------------------------------------------------
     1   Atom        0.000000      0.000000      0.000000
     2   Atom        0.000000      0.000000      0.000000
 --------------------------------------------------------


 ---------------------------------------------------------------------------------
              Anisotropic Spin Dipole Couplings in Principal Axis System
 ---------------------------------------------------------------------------------

       Atom             a.u.   MegaHertz   Gauss  10(-4) cm-1        Axes

              Baa    -1.8946    90.490    32.289    30.184  0.0000  1.0000  0.0000
     1 Ni(61) Bbb    -1.8946    90.490    32.289    30.184  1.0000  0.0000  0.0000
              Bcc     3.7892  -180.980   -64.578   -60.369  0.0000  0.0000  1.0000
 
              Baa    -0.0889     6.432     2.295     2.145  0.0000  0.0000  1.0000
     2 O(17)  Bbb     0.0444    -3.216    -1.147    -1.073  0.0000  1.0000  0.0000
              Bcc     0.0444    -3.216    -1.147    -1.073  1.0000  0.0000  0.0000
 

 ---------------------------------------------------------------------------------

 No NMR shielding tensors so no spin-rotation constants.
 Leave Link  601 at Wed Dec 18 02:10:22 2013, MaxMem=17179869184 cpu:     182.9
 (Enter /share/apps/gaussian/g09root/g09/l9999.exe)

 Test job not archived.
 1\1\GINC-N37\SP\ROMP2-FC\Gen\Ni1O1(3)\GPETERSSON\18-Dec-2013\0\\#p ROM
 P2 GFinput Int=NoBasisTransform Guess=Read Gen scf=(symm,tight) IOP(3/
 32=2,5/6=8,9/33=1) SCFcyc=500 Int(Grid=Ultrafine) CBSextrapolate(Nmin=
 25,MinPop)\\NiO 3Sg\\0,3\Ni\O,1,1.62712\\Version=EM64L-G09RevA.02\Stat
 e=3-SG\HF=-1581.6359627\MP2=-1582.3772836\E2(CBS)=-0.7473091\CBS-Int=-
 0.7449079\OIii=3.2097981\RMSD=8.631e-10\PG=C*V [C*(O1Ni1)]\\@


 KNOWING HOW CONTENTED, FREE, AND JOYFUL IS LIFE IN
 THE REALMS OF SCIENCE, ONE FERVENTLY WISHES THAT
 MANY WOULD ENTER HER PORTALS.
   --  DMITRI IVANOVICH MENDELEEV
 "FIRST PRINCIPLES OF CHEMISTRY", LONGMANS, GREEN,
 AND CO.  LONDON, 1891
 Job cpu time:  5 days 13 hours 54 minutes  9.4 seconds.
 File lengths (MBytes):  RWF=  69333 Int=      0 D2E=      0 Chk=     33 Scr=      1
 Normal termination of Gaussian 09 at Wed Dec 18 02:10:30 2013.
