 Entering Gaussian System, Link 0=gdv
 AtFile(1): 6ZaPa-NR.gbs
 Initial command:
 /share/apps/gaussian/gdvh12/gdv/l1.exe /localscratch/826276/Gau-7416.inp -scrdir=/localscratch/826276/
 Entering Link 1 = /share/apps/gaussian/gdvh12/gdv/l1.exe PID=      7417.
  
 Copyright (c) 1988,1990,1992,1993,1995,1998,2003,2009,2011,
            Gaussian, Inc.  All Rights Reserved.
  
 This is the private, development version of
 the Gaussian(R) DV system of programs. It is based on
 the Gaussian(R) 09 system (copyright 2009, Gaussian, Inc.),
 the Gaussian(R) 03 system (copyright 2003, Gaussian, Inc.),
 the Gaussian(R) 98 system (copyright 1998, Gaussian, Inc.),
 the Gaussian(R) 94 system (copyright 1995, Gaussian, Inc.),
 the Gaussian 92(TM) system (copyright 1992, Gaussian, Inc.),
 the Gaussian 90(TM) system (copyright 1990, Gaussian, Inc.),
 the Gaussian 88(TM) system (copyright 1988, Gaussian, Inc.),
 the Gaussian 86(TM) system (copyright 1986, Carnegie Mellon
 University), and the Gaussian 82(TM) system (copyright 1983,
 Carnegie Mellon University). Gaussian is a federally registered
 trademark of Gaussian, Inc.
  
 This software contains proprietary and confidential information,
 including trade secrets, belonging to Gaussian, Inc.
  
 This software is provided under written license and may be
 used, copied, transmitted, or stored only in accord with that
 written license.
  
 The following legend is applicable only to US Government
 contracts under FAR:
  
                    RESTRICTED RIGHTS LEGEND
  
 Use, reproduction and disclosure by the US Government is
 subject to restrictions as set forth in subparagraphs (a)
 and (c) of the Commercial Computer Software - Restricted
 Rights clause in FAR 52.227-19.
  
 Gaussian, Inc.
 340 Quinnipiac St., Bldg. 40, Wallingford CT 06492
  
  
 ---------------------------------------------------------------
 Warning -- This program may not be used in any manner that
 competes with the business of Gaussian, Inc. or will provide
 assistance to any competitor of Gaussian, Inc.  The licensee
 of this program is prohibited from giving any competitor of
 Gaussian, Inc. access to this program.  By using this program,
 the user acknowledges that Gaussian, Inc. is engaged in the
 business of creating and licensing software in the field of
 computational chemistry and represents and warrants to the
 licensee that it is not a competitor of Gaussian, Inc. and that
 it will not use this program in any manner prohibited above.
 ---------------------------------------------------------------
  

 Cite this work as:
 Gaussian Development Version, Revision H.12,
 M. J. Frisch, G. W. Trucks, H. B. Schlegel, G. E. Scuseria, 
 M. A. Robb, J. R. Cheeseman, G. Scalmani, V. Barone, B. Mennucci, 
 G. A. Petersson, H. Nakatsuji, M. Caricato, X. Li, H. P. Hratchian, 
 A. F. Izmaylov, J. Bloino, G. Zheng, J. L. Sonnenberg, M. Hada, 
 M. Ehara, K. Toyota, R. Fukuda, J. Hasegawa, M. Ishida, T. Nakajima, 
 Y. Honda, O. Kitao, H. Nakai, T. Vreven, J. A. Montgomery, Jr., 
 J. E. Peralta, F. Ogliaro, M. Bearpark, J. J. Heyd, E. Brothers, 
 K. N. Kudin, V. N. Staroverov, T. Keith, R. Kobayashi, J. Normand, 
 K. Raghavachari, A. Rendell, J. C. Burant, S. S. Iyengar, J. Tomasi, 
 M. Cossi, N. Rega, J. M. Millam, M. Klene, J. E. Knox, J. B. Cross, 
 V. Bakken, C. Adamo, J. Jaramillo, R. Gomperts, R. E. Stratmann, 
 O. Yazyev, A. J. Austin, R. Cammi, C. Pomelli, J. W. Ochterski, 
 R. L. Martin, K. Morokuma, V. G. Zakrzewski, G. A. Voth, 
 P. Salvador, J. J. Dannenberg, S. Dapprich, P. V. Parandekar, 
 N. J. Mayhall, A. D. Daniels, O. Farkas, J. B. Foresman, 
 J. V. Ortiz, J. Cioslowski, and D. J. Fox, 
 Gaussian, Inc., Wallingford CT, 2010.
 
 ******************************************
 Gaussian DV:  EM64L-GDVRevH.12  9-Jun-2011
                 8-Mar-2013 
 ******************************************
 % Mem=12GB
 % Nproc=8
 Will use up to    8 processors via shared memory.
 % Chk=Sc-_3F.chk
 ----------------------------------------------------------------------
 # ROCCSD(T,RW) Gen GFinput Int=NoBasisTransform Int(Grid=Ultrafine) IO
 p(3/32=2,5/6=10,8/11=1,9/33=1) Maxdisk=128GB Guess=Read
 ----------------------------------------------------------------------
 1/38=1/1;
 2/12=2,17=6,18=5,40=1/2;
 3/5=7,11=2,16=1,24=10,25=1,30=1,32=2,60=-1,75=-5,116=101/1,2,3;
 4/5=1/1;
 5/5=2,6=10,38=6/2;
 8/5=-1,6=4,9=120000,10=91,11=1/1,4;
 9/5=7,14=2,33=1/13;
 6/7=2,8=2,9=2,10=2/1;
 99/5=1,9=1/99;
 ------
 Sc- 3F
 ------
 Charge = -1 Multiplicity = 3
 Symbolic Z-Matrix:
 Sc
 
                          Input orientation:                          
 ---------------------------------------------------------------------
 Center     Atomic      Atomic             Coordinates (Angstroms)
 Number     Number       Type             X           Y           Z
 ---------------------------------------------------------------------
      1         21           0        0.000000    0.000000    0.000000
 ---------------------------------------------------------------------
 Stoichiometry    Sc(1-,3)
 Framework group  OH[O(Sc)]
 Deg. of freedom     0
 Full point group                 OH      NOp  48
 Largest Abelian subgroup         D2H     NOp   8
 Largest concise Abelian subgroup C1      NOp   1
                         Standard orientation:                         
 ---------------------------------------------------------------------
 Center     Atomic      Atomic             Coordinates (Angstroms)
 Number     Number       Type             X           Y           Z
 ---------------------------------------------------------------------
      1         21           0        0.000000    0.000000    0.000000
 ---------------------------------------------------------------------
 General basis read from cards:  (5D, 7F)
 AO basis set in the form of general basis input (Overlap normalization):
      1 0
 S  16 1.00       0.000000000000
      0.1013830380D+08  0.1544734360D-05
      0.1898497040D+07  0.9670552173D-05
      0.4331375030D+06  0.5528968719D-04
      0.1168523740D+06  0.2518547949D-03
      0.3629143280D+05  0.9721095798D-03
      0.1266881550D+05  0.3256934521D-02
      0.4866453290D+04  0.9704135582D-02
      0.2018827360D+04  0.2609054241D-01
      0.8897431710D+03  0.6330738850D-01
      0.4106751510D+03  0.1359602032D+00
      0.1960775110D+03  0.2446468378D+00
      0.9581538000D+02  0.3278785603D+00
      0.4748710200D+02  0.2553281056D+00
      0.2368610900D+02  0.7737761097D-01
      0.1181247800D+02  0.5310405606D-02
      0.5857244000D+01  0.1144077222D-02
 S  12 1.00       0.000000000000
      0.2018827360D+04 -0.1691839226D-03
      0.8897431710D+03 -0.8075122779D-03
      0.4106751510D+03 -0.4429884075D-02
      0.1960775110D+03 -0.1706502837D-01
      0.9581538000D+02 -0.5297701600D-01
      0.4748710200D+02 -0.8802876240D-01
      0.2368610900D+02  0.8718624871D-02
      0.1181247800D+02  0.3458212755D+00
      0.5857244000D+01  0.5361844443D+00
      0.2873876000D+01  0.2086480396D+00
      0.1389444000D+01  0.1215978103D-01
      0.6594240000D+00  0.3222734652D-02
 P  14 1.00       0.000000000000
      0.2023501600D+05  0.1446961852D-04
      0.4736711060D+04  0.1350451584D-03
      0.1512085790D+04  0.7958375242D-03
      0.5878492190D+03  0.3391149675D-02
      0.2570839880D+03  0.1191600398D-01
      0.1201447490D+03  0.3611734102D-01
      0.5828188500D+02  0.9479335622D-01
      0.2898162300D+02  0.1983230926D+00
      0.1474762400D+02  0.3074234852D+00
      0.7705059000D+01  0.3188649109D+00
      0.4144086000D+01  0.1772036154D+00
      0.2285759000D+01  0.4413376283D-01
      0.1272456000D+01  0.4469488599D-02
      0.6911060000D+00  0.4684601856D-03
 S  10 1.00       0.000000000000
      0.9581538000D+02  0.3416250577D-03
      0.4748710200D+02  0.1993367921D-02
      0.2368610900D+02  0.5790238316D-03
      0.1181247800D+02 -0.2820770763D-01
      0.5857244000D+01 -0.1764771372D+00
      0.2873876000D+01 -0.1189127273D+00
      0.1389444000D+01  0.4121706185D+00
      0.6594240000D+00  0.6212161361D+00
      0.3061150000D+00  0.1832586704D+00
      0.1385020000D+00  0.1264514853D-03
 P  13 1.00       0.000000000000
      0.5878492190D+03 -0.3427016557D-05
      0.2570839880D+03 -0.3733727252D-04
      0.1201447490D+03 -0.2519780838D-03
      0.5828188500D+02 -0.1425765414D-02
      0.2898162300D+02 -0.5090666836D-02
      0.1474762400D+02 -0.1243281567D-01
      0.7705059000D+01 -0.1977013172D-01
      0.4144086000D+01  0.2706521449D-01
      0.2285759000D+01  0.1764854199D+00
      0.1272456000D+01  0.3197862361D+00
      0.6911060000D+00  0.3755288892D+00
      0.3457300000D+00  0.2071067012D+00
      0.1460330000D+00  0.2678097814D-01
 D  14 1.00       0.000000000000
      0.4757321790D+03  0.4149545383D-04
      0.1467998940D+03  0.3922471878D-03
      0.5668256800D+02  0.2301458220D-02
      0.2529732800D+02  0.8962590796D-02
      0.1232100700D+02  0.2489730153D-01
      0.6297189000D+01  0.5860547812D-01
      0.3295563000D+01  0.1209865979D+00
      0.1742418000D+01  0.1949233364D+00
      0.9251440000D+00  0.2495534686D+00
      0.4922280000D+00  0.2663169714D+00
      0.2619340000D+00  0.2278848644D+00
      0.1386730000D+00  0.1455468505D+00
      0.7215100000D-01  0.5788205351D-01
      0.3606000000D-01  0.7934359849D-02
 D   1 1.00       0.000000000000
      0.2626305966D-01  0.1000000000D+01
 S   9 1.00       0.000000000000
      0.1181247800D+02  0.2893364824D-03
      0.5857244000D+01  0.5720389243D-02
      0.2873876000D+01  0.5291187458D-03
      0.1389444000D+01 -0.1795665290D-01
      0.6594240000D+00 -0.1037748441D+00
      0.3061150000D+00 -0.1685090532D+00
      0.1385020000D+00  0.1806534396D+00
      0.6085100000D-01  0.6468357876D+00
      0.2585500000D-01  0.3580326309D+00
 S   1 1.00       0.000000000000
      0.6957250976D-02  0.1000000000D+01
 P   9 1.00       0.000000000000
      0.1474762400D+02 -0.1346486637D-02
      0.7705059000D+01  0.2546825877D-02
      0.4144086000D+01 -0.7987290669D-02
      0.2285759000D+01  0.2203819278D-01
      0.1272456000D+01 -0.2406969868D-01
      0.6911060000D+00  0.3366041409D-01
      0.3457300000D+00 -0.5498958972D-01
      0.1460330000D+00  0.4440370532D+00
      0.4597762390D-01  0.6692644284D+00
 P   1 1.00       0.000000000000
      0.2034617241D-01  0.1000000000D+01
 S   1 1.00       0.000000000000
      0.5726610000D+00  0.1000000000D+01
 S   1 1.00       0.000000000000
      0.2609430000D+00  0.1000000000D+01
 S   1 1.00       0.000000000000
      0.1189030000D+00  0.1000000000D+01
 S   1 1.00       0.000000000000
      0.5418000000D-01  0.1000000000D+01
 S   1 1.00       0.000000000000
      0.2468800000D-01  0.1000000000D+01
 P   1 1.00       0.000000000000
      0.1027096000D+01  0.1000000000D+01
 P   1 1.00       0.000000000000
      0.4687990000D+00  0.1000000000D+01
 P   1 1.00       0.000000000000
      0.2139740000D+00  0.1000000000D+01
 P   1 1.00       0.000000000000
      0.9766500000D-01  0.1000000000D+01
 P   1 1.00       0.000000000000
      0.4457700000D-01  0.1000000000D+01
 D   1 1.00       0.000000000000
      0.1152779000D+01  0.1000000000D+01
 D   1 1.00       0.000000000000
      0.5673020000D+00  0.1000000000D+01
 D   1 1.00       0.000000000000
      0.2791790000D+00  0.1000000000D+01
 D   1 1.00       0.000000000000
      0.1373890000D+00  0.1000000000D+01
 D   1 1.00       0.000000000000
      0.6761100000D-01  0.1000000000D+01
 F   1 1.00       0.000000000000
      0.2787790000D+01  0.1000000000D+01
 F   1 1.00       0.000000000000
      0.1212037000D+01  0.1000000000D+01
 F   1 1.00       0.000000000000
      0.5269530000D+00  0.1000000000D+01
 F   1 1.00       0.000000000000
      0.2291010000D+00  0.1000000000D+01
 F   1 1.00       0.000000000000
      0.9960500000D-01  0.1000000000D+01
 G   1 1.00       0.000000000000
      0.1113803000D+01  0.1000000000D+01
 G   1 1.00       0.000000000000
      0.5352910000D+00  0.1000000000D+01
 G   1 1.00       0.000000000000
      0.2572600000D+00  0.1000000000D+01
 G   1 1.00       0.000000000000
      0.1236390000D+00  0.1000000000D+01
 H   1 1.00       0.000000000000
      0.6087780000D+00  0.1000000000D+01
 H   1 1.00       0.000000000000
      0.3094790000D+00  0.1000000000D+01
 H   1 1.00       0.000000000000
      0.1573270000D+00  0.1000000000D+01
 I   1 1.00       0.000000000000
      0.4551810000D+00  0.1000000000D+01
 I   1 1.00       0.000000000000
      0.2184160000D+00  0.1000000000D+01
 J   1 1.00       0.000000000000
      0.3529734332D+00  0.1000000000D+01
 ****

 There are    75 symmetry adapted cartesian basis functions of AG  symmetry.
 There are    31 symmetry adapted cartesian basis functions of B1G symmetry.
 There are    31 symmetry adapted cartesian basis functions of B2G symmetry.
 There are    31 symmetry adapted cartesian basis functions of B3G symmetry.
 There are    20 symmetry adapted cartesian basis functions of AU  symmetry.
 There are    52 symmetry adapted cartesian basis functions of B1U symmetry.
 There are    52 symmetry adapted cartesian basis functions of B2U symmetry.
 There are    52 symmetry adapted cartesian basis functions of B3U symmetry.
 There are    44 symmetry adapted basis functions of AG  symmetry.
 There are    21 symmetry adapted basis functions of B1G symmetry.
 There are    21 symmetry adapted basis functions of B2G symmetry.
 There are    21 symmetry adapted basis functions of B3G symmetry.
 There are    14 symmetry adapted basis functions of AU  symmetry.
 There are    32 symmetry adapted basis functions of B1U symmetry.
 There are    32 symmetry adapted basis functions of B2U symmetry.
 There are    32 symmetry adapted basis functions of B3U symmetry.
   217 basis functions,   564 primitive gaussians,   344 cartesian basis functions
    12 alpha electrons       10 beta electrons
       nuclear repulsion energy         0.0000000000 Hartrees.
 NAtoms=    1 NActive=    1 NUniq=    1 SFac= 1.00D+00 NAtFMM=   60 NAOKFM=F Big=F
 Integral buffers will be    131072 words long.
 Raffenetti 2 integral format.
 Two-electron integral symmetry is turned on.
 One-electron integrals computed using PRISM.
 PrsmSu:  requested number of processors reduced to:   4 ShMem   1 Linda.
 NBasis=   217 RedAO= F EigKep=  0.00D+00  NBF=    44    21    21    21    14    32    32    32
 NBsUse=   217 1.00D-04 EigRej=  0.00D+00 NBFU=    44    21    21    21    14    32    32    32
 Initial guess from the checkpoint file:  Sc-_3F.chk
 B after Tr=     0.000000    0.000000    0.000000
         Rot=    1.000000    0.000000    0.000000    0.000000 Ang=   0.00 deg.
 Initial guess orbital symmetries:
       Occupied  (A1G) (A1G) (T1U) (T1U) (T1U) (A1G) (?A) (?A)
                 (?A) (?B) (?A) (?C)
       Virtual   (?B) (?A) (?A) (?B) (?C) (?C) (?B) (?C) (?A) (?A)
                 (?A) (?B) (?B) (?C) (?C) (?B) (?C) (?B) (?C) (?C)
                 (?B) (?A) (?A) (?A) (?A) (?A) (?A) (?D) (?A) (?A)
                 (?A) (?B) (?C) (?B) (?C) (?B) (?C) (?C) (?C) (?C)
                 (?B) (?C) (?B) (?C) (?C) (?B) (?A) (?A) (?A) (?A)
                 (?A) (?A) (?D) (?A) (?A) (?A) (?A) (?D) (?A) (?A)
                 (?A) (?A) (?D) (?A) (?A) (?A) (?A) (?C) (?B) (?C)
                 (?C) (?B) (?B) (?C) (?C) (?C) (?B) (?C) (?C) (?C)
                 (?B) (?B) (T1U) (T1U) (T1U) (?E) (?E) (?E) (A2U)
                 (?E) (?E) (?E) (A1G) (T1U) (T1U) (T1U) (EG) (T2G)
                 (T2G) (EG) (T2G) (EG) (T2G) (T2G) (EG) (T2G) (A1G)
                 (T1U) (T1U) (T1U) (?E) (?E) (?E) (?E) (A2U) (?E)
                 (?E) (?E) (?E) (?E) (?E) (A2U) (?E) (?E) (T2G)
                 (?F) (?F) (T2G) (?F) (?F) (?F) (T2G) (?F) (T2G)
                 (?F) (?F) (T2G) (?F) (?F) (?F) (T2G) (?F) (?F)
                 (?F) (?F) (?F) (EU) (?F) (?F) (?F) (EU) (?F) (?F)
                 (?F) (?F) (?F) (?F) (EU) (?F) (?F) (?F) (EU) (?F)
                 (?F) (?F) (?F) (?F) (?F) (?F) (?F) (?F) (?F) (?F)
                 (?F) (?F) (?F) (?F) (?F) (?F) (?F) (?F) (?F) (?F)
                 (?F) (?F) (?F) (?F) (?F) (?F) (?F) (?F) (?F) (?F)
                 (?F) (T1U) (?F) (?F) (?F) (T1U) (?F) (?F) (?F)
                 (T1U) (?F) (?F)
 Requested convergence on RMS density matrix=1.00D-10 within 128 cycles.
 Requested convergence on MAX density matrix=1.00D-08.
 Requested convergence on             energy=1.00D-08.
 No special actions if energy rises.
 Density matrix breaks symmetry, PCut= 1.00D-04
 Density has only Abelian symmetry.
 Density matrix breaks symmetry, PCut= 1.00D-07
 Density has only Abelian symmetry.
 Density matrix breaks symmetry, PCut= 1.00D-07
 Density has only Abelian symmetry.
 Density matrix breaks symmetry, PCut= 1.00D-07
 Density has only Abelian symmetry.
 Density matrix breaks symmetry, PCut= 1.00D-07
 Density has only Abelian symmetry.
 Density matrix breaks symmetry, PCut= 1.00D-07
 Density has only Abelian symmetry.
 Density matrix breaks symmetry, PCut= 1.00D-07
 Density has only Abelian symmetry.
 Density matrix breaks symmetry, PCut= 1.00D-07
 Density has only Abelian symmetry.
 Density matrix breaks symmetry, PCut= 1.00D-07
 Density has only Abelian symmetry.
 Density matrix breaks symmetry, PCut= 1.00D-07
 Density has only Abelian symmetry.
 Density matrix breaks symmetry, PCut= 1.00D-07
 Density has only Abelian symmetry.
 Density matrix breaks symmetry, PCut= 1.00D-07
 Density has only Abelian symmetry.
 Density matrix breaks symmetry, PCut= 1.00D-07
 Density has only Abelian symmetry.
 Density matrix breaks symmetry, PCut= 1.00D-07
 Density has only Abelian symmetry.
 Density matrix breaks symmetry, PCut= 1.00D-07
 Density has only Abelian symmetry.
 Density matrix breaks symmetry, PCut= 1.00D-07
 Density has only Abelian symmetry.
 Density matrix breaks symmetry, PCut= 1.00D-07
 Density has only Abelian symmetry.
 Density matrix breaks symmetry, PCut= 1.00D-07
 Density has only Abelian symmetry.
 Density matrix breaks symmetry, PCut= 1.00D-07
 Density has only Abelian symmetry.
 SCF Done:  E(ROHF) =  -759.722826230     A.U. after   18 cycles
            NFock= 18  Conv=0.46D-11     -V/T= 2.0000
 <Sx>= 0.0000 <Sy>= 0.0000 <Sz>= 1.0000 <S**2>= 2.0000 S= 1.0000
 <L.S>= 0.000000000000E+00
 Annihilation of the first spin contaminant:
 S**2 before annihilation     2.0000,   after     2.0000
 Density matrix breaks symmetry, PCut= 1.00D-07
 Density has only Abelian symmetry.
 GenMOA:  NOpAll= 48 NOp2=8 NOpUse=  8 JSym2X=1
 <Sx>= 0.0000 <Sy>= 0.0000 <Sz>= 1.0000 <S**2>= 2.0000 S= 1.0000
 Range of M.O.s used for correlation:    10   217
 NBasis=   217 NAE=    12 NBE=    10 NFC=     9 NFV=     0
 NROrb=    208 NOA=     3 NOB=     1 NVA=   205 NVB=   207

 **** Warning!!: The largest alpha MO coefficient is  0.83097662D+03


 **** Warning!!: The smallest alpha delta epsilon is  0.81494219D-01


 **** Warning!!: The largest beta MO coefficient is  0.83096462D+03

 Singles contribution to E2=   -0.1300176082D-02
 Semi-Direct transformation.
 ModeAB=           2 MOrb=             3 LenV=    1608719030
 LASXX=      1669484 LTotXX=     1669484 LenRXX=     1669484
 LTotAB=     1697426 MaxLAS=    37028160 LenRXY=    37028160
 NonZer=    38770992 LenScr=    58912768 LnRSAI=           0
 LnScr1=           0 LExtra=     4457450 Total=    102067862
 MaxDsk= 17179869184 SrtSym=           F ITran=            4
 GetIJB would need an additional  1630745282 words of memory to use all   8 processors.
 JobTyp=1 Pass  1:  I=   1 to   3.
 (rs|ai) integrals will be sorted in core.
 ModeAB=           2 MOrb=             1 LenV=    1608719030
 LASXX=       564082 LTotXX=      564082 LenRXX=    12342720
 LTotAB=      558825 MaxLAS=    12342720 LenRXY=      558825
 NonZer=    12923664 LenScr=    20154368 LnRSAI=           0
 LnScr1=           0 LExtra=    41485462 Total=     74541375
 MaxDsk= 17179869184 SrtSym=           F ITran=            4
 GetIJB would need an additional  1616478914 words of memory to use all   8 processors.
 JobTyp=2 Pass  1:  I=   1 to   1.
 (rs|ai) integrals will be sorted in core.
 Spin components of T(2) and E(2):
     alpha-alpha T2 =       0.7047878136D-02 E2=     -0.6449323724D-02
     alpha-beta  T2 =       0.4747406056D-01 E2=     -0.3275961770D-01
     beta-beta   T2 =       0.0000000000D+00 E2=      0.0000000000D+00
 ANorm=    0.1028993254D+01
 E2 =    -0.4050911751D-01 EUMP2 =    -0.75976333534731D+03
 (S**2,0)=  0.20000D+01           (S**2,1)=  0.20000D+01
 E(PUHF)=      -0.75972282623D+03        E(PMP2)=      -0.75976333535D+03
 SABFC:  FilMap=F DoRead=T UsPure=F NBasis=   217 NBas6D=   344 NB=   344 NOp=8 jStart=        3176
 MulTab 
              1            2            3            4            5
     1            1            2            3            4            5
     2            2            1            4            3            6
     3            3            4            1            2            7
     4            4            3            2            1            8
     5            5            6            7            8            1
     6            6            5            8            7            2
     7            7            8            5            6            3
     8            8            7            6            5            4
              6            7            8
     1            6            7            8
     2            5            8            7
     3            8            5            6
     4            7            6            5
     5            2            3            4
     6            1            4            3
     7            4            1            2
     8            3            2            1
 Order+ChrTbl 
              1            2            3            4            5
     1            1            1            1            1            1
     2            4            1           -1           -1            1
     3            3            1           -1            1           -1
     4            2            1            1           -1           -1
     5            5            1            1            1            1
     6            8            1           -1           -1            1
     7            7            1           -1            1           -1
     8            6            1            1           -1           -1
              6            7            8            9
     1            1            1            1            1
     2            1           -1           -1            1
     3            1           -1            1           -1
     4            1            1           -1           -1
     5           -1           -1           -1           -1
     6           -1            1            1           -1
     7           -1            1           -1            1
     8           -1           -1            1            1

 SABF information in SABFC1:
 NS=            0          75         106         137         168         188         240         292         344
 NS2=           0        8682       15712       22742       29772       36108       43852       51596       59340
 NS4=           0    37692903    62406868    87120833   111834798   131910414   161899054   191887694   221876334
 Would need an additional       372069117 words for in-memory AO integral storage.
 Iterations=  50 Convergence= 0.100D-06
 A(0)= 0.10000E+01      ANORM= 0.10269E+01      W(0)=-0.39208941E-01
 Singles contributions to ROMP2 energy
Alpha= -0.6472435270659E-03
Beta=  -0.6529325545548E-03
 Iteration Nr.   1
 **********************
 Bef DD1 bucket IAS1 number    25 has length          615 dot= 0.21284592D-02
 Bef DD1 bucket IAS2 number    26 has length          207 dot= 0.21767192D-02
 Bef DD1 bucket IAD1 number    22 has length         7919 dot= 0.70478781D-02
 Bef DD1 bucket IAD2 number    23 has length        16338 dot= 0.47474061D-01
 Bef DD1 bucket IAD3 number    24 is not present.
 Bef DD1 bucket IWS1 number 12997 has length          615 dot= 0.74333229D-04
 Bef DD1 bucket IWS2 number 12996 has length          207 dot= 0.73623441D-04
 Bef DD1 bucket IWD1 number 12995 has length         7919 dot= 0.00000000D+00
 Bef DD1 bucket IWD2 number 12994 has length        16338 dot= 0.00000000D+00
 Bef DD1 bucket IWD3 number     0 is not present.
 Bef DD1 bucket IWAI1 number     0 is not present.
 Bef DD1 bucket IWAI2 number     0 is not present.
 Bef DD1 bucket IWAI3 number     0 is not present.
 Bef DD1 bucket IWAI4 number     0 is not present.
 DD1Dir will call FoFJK   1 times, MxPair=        10
 NAB=     3 NAA=     3 NBB=     0 NumPrc=  6.
 DD1Dir:  Pass   1 NRAB=     3 NRAA=     3 NRBB=     0 NR=     9.
 FoFJK:  IHMeth= 1 ICntrl=     200 DoSepK=F KAlg= 0 I1Cent=   0 FoldK=F
 IRaf=       0 NMat=   9 IRICut=       1 DoRegI=T DoRafI=F ISym2E=-1.
 FoFCou: FMM=F IPFlag=           0 FMFlag=      100000 FMFlg1=           0
         NFxFlg=           0 DoJE=F BraDBF=F KetDBF=F FulRan=T
         wScrn=  0.000000 ICntrl=     200 IOpCl=  0 I1Cent=           0 NGrid=           0
         NMat0=    9 NMatS0=      0 NMatT0=    3 NMatD0=    9 NMtDS0=    0 NMtDT0=    0
 Petite list used in FoFCou.
 FoFCou:  KetSym=F NOpSet=  1 NOpAb=1 NOp=  1.
 FoFCou:  CnvScl= 1.00D+00 Thresh= 1.00D-10 IAcrcy=      10.
 PrismS was handed  1608941237 working-precision words and   861 shell-pairs
 FoFCou: LinMIO=F DoNuc=F BraDBF=F KetDBF=F HaveP=T PDBF=F HaveZ=F HaveW=F
         NIJTC =      36 NIJTAt=       0 NIJTCD=       0 NIJTT =      36
         IJTBeg=       1 IJTEnd=      36 KLTBeg=       1 KLTEnd=      36
         IPTBeg=       1 IPTEnd=      36 IPTBCv=       1 IPTECv=      36
         IZTBeg=       1 IZTEnd=      36 IZTBCv=       1 IZTECv=      36
         IWTBeg=      37 IWTEnd=      36 IWTBCv=      37 IWTECv=      36
         INTBeg=       1 INTEnd=       0 IFTBCv=       1 IFTECv=      36
 NCel replicated for PrismC:     1
 CoulSu:  IncDef=  1024 NBBP=         371091 NTPThr=   100 NPartT=    8 Incr=         463 LDynOK=F.
 CoulSu:  NPrtUS=   8 ThrOK=T IAlg=1 NPAlg=2 LenDen=      534060 LWGrdD=           0 DoCopy=T.
 Enter PrismC: JobTyp=20 DoJE=F Cont=F.
 PrismC:  IPart=     0 DynPar=T LinDyn=F Incr=         463 UseFst=F UseS4=T.
 PrismC was handed   200118791 working-precision words and   861 shell-pairs
 Enter PrismC: JobTyp=20 DoJE=F Cont=F.
 Enter PrismC: JobTyp=20 DoJE=F Cont=F.
 PrismC was handed   200118791 working-precision words and   861 shell-pairs
 PrismC was handed   200118791 working-precision words and   861 shell-pairs
 Enter PrismC: JobTyp=20 DoJE=F Cont=F.
 PrismC was handed   200118791 working-precision words and   861 shell-pairs
 Enter PrismC: JobTyp=20 DoJE=F Cont=F.
 Enter PrismC: JobTyp=20 DoJE=F Cont=F.
 PrismC was handed   200118791 working-precision words and   861 shell-pairs
 PrismC was handed   200118791 working-precision words and   861 shell-pairs
 Enter PrismC: JobTyp=20 DoJE=F Cont=F.
 Enter PrismC: JobTyp=20 DoJE=F Cont=F.
 PrismC was handed   200118791 working-precision words and   861 shell-pairs
 PrismC was handed   200118791 working-precision words and   861 shell-pairs
 IPart=  6 NShTot=       49767 NShNF=       49767 NShFF=           0 NBatch=        1870 AvBLen=        26.6
 IPart=  2 NShTot=       40746 NShNF=       40746 NShFF=           0 NBatch=        1779 AvBLen=        22.9
 IPart=  7 NShTot=       45890 NShNF=       45890 NShFF=           0 NBatch=        1897 AvBLen=        24.2
 IPart=  5 NShTot=       51522 NShNF=       51522 NShFF=           0 NBatch=        1986 AvBLen=        25.9
 IPart=  3 NShTot=       36740 NShNF=       36740 NShFF=           0 NBatch=        1628 AvBLen=        22.6
 IPart=  1 NShTot=       48170 NShNF=       48170 NShFF=           0 NBatch=        1921 AvBLen=        25.1
 IPart=  4 NShTot=       51569 NShNF=       51569 NShFF=           0 NBatch=        2037 AvBLen=        25.3
 IPart=  0 NShTot=       46501 NShNF=       46501 NShFF=           0 NBatch=        1618 AvBLen=        28.7
 CoulSu:  NxtVal=         381050.
 FoFCou EC=-0.268608321397E-01 ENF=-0.268608321397E-01
 Aft DD1 bucket IAS1 number    25 has length          615 dot= 0.21284592D-02
 Aft DD1 bucket IAS2 number    26 has length          207 dot= 0.21767192D-02
 Aft DD1 bucket IAD1 number    22 has length         7919 dot= 0.70478781D-02
 Aft DD1 bucket IAD2 number    23 has length        16338 dot= 0.47474061D-01
 Aft DD1 bucket IAD3 number    24 is not present.
 Aft DD1 bucket IWS1 number 12997 has length          615 dot= 0.24121920D-03
 Aft DD1 bucket IWS2 number 12996 has length          207 dot= 0.16156509D-03
 Aft DD1 bucket IWD1 number 12995 has length         7919 dot= 0.71198163D-03
 Aft DD1 bucket IWD2 number 12994 has length        16338 dot= 0.13543697D-01
 Aft DD1 bucket IWD3 number     0 is not present.
 Aft DD1 bucket IWAI1 number 19999 has length         1863 dot= 0.62551023D-03
 Aft DD1 bucket IWAI2 number 19998 has length          615 dot= 0.18625178D-03
 Aft DD1 bucket IWAI3 number 19997 has length         1845 dot= 0.53749653D-04
 Aft DD1 bucket IWAI4 number     0 is not present.
 Bef DD1 bucket IAS1 number    25 has length          615 dot= 0.21284592D-02
 Bef DD1 bucket IAS2 number    26 has length          207 dot= 0.21767192D-02
 Bef DD1 bucket IAD1 number 12999 has length         7919 dot= 0.64506521D-12
 Bef DD1 bucket IAD2 number 12998 has length        16338 dot= 0.46330581D-05
 Bef DD1 bucket IAD3 number     0 is not present.
 Bef DD1 bucket IWS1 number    30 has length          615 dot= 0.00000000D+00
 Bef DD1 bucket IWS2 number    31 has length          207 dot= 0.00000000D+00
 Bef DD1 bucket IWD1 number    27 has length         7919 dot= 0.00000000D+00
 Bef DD1 bucket IWD2 number    28 has length        16338 dot= 0.00000000D+00
 Bef DD1 bucket IWD3 number    29 is not present.
 Bef DD1 bucket IWAI1 number     0 is not present.
 Bef DD1 bucket IWAI2 number     0 is not present.
 Bef DD1 bucket IWAI3 number     0 is not present.
 Bef DD1 bucket IWAI4 number     0 is not present.
 DD1Dir will call FoFJK   1 times, MxPair=        10
 NAB=     3 NAA=     3 NBB=     0 NumPrc=  6.
 DD1Dir:  Pass   1 NRAB=     3 NRAA=     3 NRBB=     0 NR=     9.
 FoFJK:  IHMeth= 1 ICntrl=     200 DoSepK=F KAlg= 0 I1Cent=   0 FoldK=F
 IRaf=       0 NMat=   9 IRICut=       1 DoRegI=T DoRafI=F ISym2E=-1.
 FoFCou: FMM=F IPFlag=           0 FMFlag=      100000 FMFlg1=           0
         NFxFlg=           0 DoJE=F BraDBF=F KetDBF=F FulRan=T
         wScrn=  0.000000 ICntrl=     200 IOpCl=  0 I1Cent=           0 NGrid=           0
         NMat0=    9 NMatS0=      0 NMatT0=    3 NMatD0=    9 NMtDS0=    0 NMtDT0=    0
 Petite list used in FoFCou.
 FoFCou:  KetSym=F NOpSet=  1 NOpAb=1 NOp=  1.
 FoFCou:  CnvScl= 1.00D+00 Thresh= 1.00D-10 IAcrcy=      10.
 PrismS was handed  1608947447 working-precision words and   861 shell-pairs
 FoFCou: LinMIO=F DoNuc=F BraDBF=F KetDBF=F HaveP=T PDBF=F HaveZ=F HaveW=F
         NIJTC =      36 NIJTAt=       0 NIJTCD=       0 NIJTT =      36
         IJTBeg=       1 IJTEnd=      36 KLTBeg=       1 KLTEnd=      36
         IPTBeg=       1 IPTEnd=      36 IPTBCv=       1 IPTECv=      36
         IZTBeg=       1 IZTEnd=      36 IZTBCv=       1 IZTECv=      36
         IWTBeg=      37 IWTEnd=      36 IWTBCv=      37 IWTECv=      36
         INTBeg=       1 INTEnd=       0 IFTBCv=       1 IFTECv=      36
 NCel replicated for PrismC:     1
 CoulSu:  IncDef=  1024 NBBP=         371091 NTPThr=   100 NPartT=    8 Incr=         463 LDynOK=F.
 CoulSu:  NPrtUS=   8 ThrOK=T IAlg=1 NPAlg=2 LenDen=      534060 LWGrdD=           0 DoCopy=T.
 Enter PrismC: JobTyp=20 DoJE=F Cont=F.
 PrismC:  IPart=     0 DynPar=T LinDyn=F Incr=         463 UseFst=F UseS4=T.
 PrismC was handed   200119567 working-precision words and   861 shell-pairs
 Enter PrismC: JobTyp=20 DoJE=F Cont=F.
 PrismC was handed   200119567 working-precision words and   861 shell-pairs
 Enter PrismC: JobTyp=20 DoJE=F Cont=F.
 Enter PrismC: JobTyp=20 DoJE=F Cont=F.
 PrismC was handed   200119567 working-precision words and   861 shell-pairs
 PrismC was handed   200119567 working-precision words and   861 shell-pairs
 Enter PrismC: JobTyp=20 DoJE=F Cont=F.
 Enter PrismC: JobTyp=20 DoJE=F Cont=F.
 PrismC was handed   200119567 working-precision words and   861 shell-pairs
 PrismC was handed   200119567 working-precision words and   861 shell-pairs
 Enter PrismC: JobTyp=20 DoJE=F Cont=F.
 Enter PrismC: JobTyp=20 DoJE=F Cont=F.
 PrismC was handed   200119567 working-precision words and   861 shell-pairs
 PrismC was handed   200119567 working-precision words and   861 shell-pairs
 IPart=  2 NShTot=       44345 NShNF=       44345 NShFF=           0 NBatch=        1897 AvBLen=        23.4
 IPart=  0 NShTot=       38573 NShNF=       38573 NShFF=           0 NBatch=        1351 AvBLen=        28.6
 IPart=  5 NShTot=       50591 NShNF=       50591 NShFF=           0 NBatch=        1811 AvBLen=        27.9
 IPart=  7 NShTot=       41827 NShNF=       41827 NShFF=           0 NBatch=        1753 AvBLen=        23.9
 IPart=  1 NShTot=       36118 NShNF=       36118 NShFF=           0 NBatch=        1539 AvBLen=        23.5
 IPart=  3 NShTot=       54838 NShNF=       54838 NShFF=           0 NBatch=        2010 AvBLen=        27.3
 IPart=  4 NShTot=       34218 NShNF=       34218 NShFF=           0 NBatch=        1506 AvBLen=        22.7
 IPart=  6 NShTot=       52131 NShNF=       52131 NShFF=           0 NBatch=        1838 AvBLen=        28.4
 CoulSu:  NxtVal=         381050.
 FoFCou EC=-0.152250381252E-05 ENF=-0.152250381252E-05
 Aft DD1 bucket IAS1 number    25 has length          615 dot= 0.21284592D-02
 Aft DD1 bucket IAS2 number    26 has length          207 dot= 0.21767192D-02
 Aft DD1 bucket IAD1 number 12999 has length         7919 dot= 0.64506521D-12
 Aft DD1 bucket IAD2 number 12998 has length        16338 dot= 0.46330581D-05
 Aft DD1 bucket IAD3 number     0 is not present.
 Aft DD1 bucket IWS1 number    30 has length          615 dot= 0.10099803D-08
 Aft DD1 bucket IWS2 number    31 has length          207 dot= 0.99455096D-09
 Aft DD1 bucket IWD1 number    27 has length         7919 dot= 0.34999460D-13
 Aft DD1 bucket IWD2 number    28 has length        16338 dot= 0.18150676D-06
 Aft DD1 bucket IWD3 number    29 is not present.
 Aft DD1 bucket IWAI1 number 19999 has length         1863 dot= 0.62551023D-03
 Aft DD1 bucket IWAI2 number 19998 has length          615 dot= 0.18625178D-03
 Aft DD1 bucket IWAI3 number 19997 has length         1845 dot= 0.53749653D-04
 Aft DD1 bucket IWAI4 number     0 is not present.
 Aft SD4 bucket IAS1 number    25 has length          615 dot= 0.21284592D-02
 Aft SD4 bucket IAS2 number    26 has length          207 dot= 0.21767192D-02
 Aft SD4 bucket IAD1 number    22 has length         7919 dot= 0.70478781D-02
 Aft SD4 bucket IAD2 number    23 has length        16338 dot= 0.47474061D-01
 Aft SD4 bucket IAD3 number    24 is not present.
 Aft SD4 bucket IWS1 number    30 has length          615 dot= 0.10099803D-08
 Aft SD4 bucket IWS2 number    31 has length          207 dot= 0.99455096D-09
 Aft SD4 bucket IWD1 number    27 has length         7919 dot= 0.34999460D-13
 Aft SD4 bucket IWD2 number    28 has length        16338 dot= 0.18150676D-06
 Aft SD4 bucket IWD3 number    29 is not present.
 Aft SD4 bucket IWAI1 number 19999 has length         1863 dot= 0.62551023D-03
 Aft SD4 bucket IWAI2 number 19998 has length          615 dot= 0.18625178D-03
 Aft SD4 bucket IWAI3 number 19997 has length         1845 dot= 0.53749653D-04
 Aft SD4 bucket IWAI4 number     0 is not present.
 TestDE:  II= 99 I=2 DE=    0.199156466727D-01
 TestDE:  II= 99 I=1 DE=    0.187625755719D-02
 TestDE:  II= 99 I=3 DE=    0.000000000000D+00
 Aft DS4 bucket IAS1 number    25 has length          615 dot= 0.21284592D-02
 Aft DS4 bucket IAS2 number    26 has length          207 dot= 0.21767192D-02
 Aft DS4 bucket IAD1 number    22 has length         7919 dot= 0.70478781D-02
 Aft DS4 bucket IAD2 number    23 has length        16338 dot= 0.47474061D-01
 Aft DS4 bucket IAD3 number    24 is not present.
 Aft DS4 bucket IWS1 number    30 has length          615 dot= 0.10099803D-08
 Aft DS4 bucket IWS2 number    31 has length          207 dot= 0.99455096D-09
 Aft DS4 bucket IWD1 number    27 has length         7919 dot= 0.34999460D-13
 Aft DS4 bucket IWD2 number    28 has length        16338 dot= 0.18150676D-06
 Aft DS4 bucket IWD3 number    29 is not present.
 Aft DS4 bucket IWAI1 number 19999 has length         1863 dot= 0.62551023D-03
 Aft DS4 bucket IWAI2 number 19998 has length          615 dot= 0.18625178D-03
 Aft DS4 bucket IWAI3 number 19997 has length         1845 dot= 0.53749653D-04
 Aft DS4 bucket IWAI4 number     0 is not present.
 Bef SD5a bucket IAS1 number    25 has length          615 dot= 0.21284592D-02
 Bef SD5a bucket IAS2 number    26 has length          207 dot= 0.21767192D-02
 Bef SD5a bucket IAD1 number    22 has length         7919 dot= 0.70478781D-02
 Bef SD5a bucket IAD2 number    23 has length        16338 dot= 0.47474061D-01
 Bef SD5a bucket IAD3 number    24 is not present.
 Bef SD5a bucket IWS1 number    30 has length          615 dot= 0.10099803D-08
 Bef SD5a bucket IWS2 number    31 has length          207 dot= 0.99455096D-09
 Bef SD5a bucket IWD1 number    27 has length         7919 dot= 0.34999460D-13
 Bef SD5a bucket IWD2 number    28 has length        16338 dot= 0.18150676D-06
 Bef SD5a bucket IWD3 number    29 is not present.
 Bef SD5a bucket IWAI1 number 19999 has length         1863 dot= 0.62551023D-03
 Bef SD5a bucket IWAI2 number 19998 has length          615 dot= 0.18625178D-03
 Bef SD5a bucket IWAI3 number 19997 has length         1845 dot= 0.53749653D-04
 Bef SD5a bucket IWAI4 number     0 is not present.
 Bef SD5b bucket IAS1 number     0 is not present.
 Bef SD5b bucket IAS2 number     0 is not present.
 Bef SD5b bucket IAD1 number     0 is not present.
 Bef SD5b bucket IAD2 number     0 is not present.
 Bef SD5b bucket IAD3 number     0 is not present.
 Bef SD5b bucket IWS1 number 12997 has length          615 dot= 0.24121920D-03
 Bef SD5b bucket IWS2 number 12996 has length          207 dot= 0.16156509D-03
 Bef SD5b bucket IWD1 number 12995 has length         7919 dot= 0.77263831D-03
 Bef SD5b bucket IWD2 number 12994 has length        16338 dot= 0.13897743D-01
 Bef SD5b bucket IWD3 number     0 is not present.
 Bef SD5b bucket IWAI1 number     0 is not present.
 Bef SD5b bucket IWAI2 number     0 is not present.
 Bef SD5b bucket IWAI3 number     0 is not present.
 Bef SD5b bucket IWAI4 number     0 is not present.
 TestDE:  II= 19 I=1 DE=    0.153746181075D-05
 TestDE:  II= 19 I=2 DE=    0.324565140150D-05
 TestDE:  II= 19 I=3 DE=    0.000000000000D+00
 Aft SD5 bucket IAS1 number    25 has length          615 dot= 0.21284592D-02
 Aft SD5 bucket IAS2 number    26 has length          207 dot= 0.21767192D-02
 Aft SD5 bucket IAD1 number    22 has length         7919 dot= 0.70478781D-02
 Aft SD5 bucket IAD2 number    23 has length        16338 dot= 0.47474061D-01
 Aft SD5 bucket IAD3 number    24 is not present.
 Aft SD5 bucket IWS1 number    30 has length          615 dot= 0.13133075D-08
 Aft SD5 bucket IWS2 number    31 has length          207 dot= 0.13452546D-08
 Aft SD5 bucket IWD1 number    27 has length         7919 dot= 0.76792555D-08
 Aft SD5 bucket IWD2 number    28 has length        16338 dot= 0.68456144D-06
 Aft SD5 bucket IWD3 number    29 is not present.
 Aft SD5 bucket IWAI1 number     0 is not present.
 Aft SD5 bucket IWAI2 number     0 is not present.
 Aft SD5 bucket IWAI3 number     0 is not present.
 Aft SD5 bucket IWAI4 number     0 is not present.
 Contribution from DD1=    0.47831132D-05
 Bef DD2 bucket IAS1 number    25 has length          615 dot= 0.21284592D-02
 Bef DD2 bucket IAS2 number    26 has length          207 dot= 0.21767192D-02
 Bef DD2 bucket IAD1 number    22 has length         7919 dot= 0.70478781D-02
 Bef DD2 bucket IAD2 number    23 has length        16338 dot= 0.47474061D-01
 Bef DD2 bucket IAD3 number    24 is not present.
 Bef DD2 bucket IWS1 number    30 has length          615 dot= 0.13133075D-08
 Bef DD2 bucket IWS2 number    31 has length          207 dot= 0.13452546D-08
 Bef DD2 bucket IWD1 number    27 has length         7919 dot= 0.76792555D-08
 Bef DD2 bucket IWD2 number    28 has length        16338 dot= 0.68456144D-06
 Bef DD2 bucket IWD3 number    29 is not present.
 Bef DD2 bucket IWAI1 number     0 is not present.
 Bef DD2 bucket IWAI2 number     0 is not present.
 Bef DD2 bucket IWAI3 number     0 is not present.
 Bef DD2 bucket IWAI4 number     0 is not present.
 ExpSMa:  Full in-core algorithm.
 ExpSMa:  Full in-core algorithm.
 ExpSMa:  Full in-core algorithm.
 TestDE:  II= 70 I=2 DE=    0.605376090202D-05
 TestDE:  II= 50 I=1 DE=   -0.232211862876D-05
 TestDE:  II= 90 I=3 DE=    0.000000000000D+00
 Aft DD2 bucket IAS1 number    25 has length          615 dot= 0.21284592D-02
 Aft DD2 bucket IAS2 number    26 has length          207 dot= 0.21767192D-02
 Aft DD2 bucket IAD1 number    22 has length         7919 dot= 0.70478781D-02
 Aft DD2 bucket IAD2 number    23 has length        16338 dot= 0.47474061D-01
 Aft DD2 bucket IAD3 number    24 is not present.
 Aft DD2 bucket IWS1 number    30 has length          615 dot= 0.13133075D-08
 Aft DD2 bucket IWS2 number    31 has length          207 dot= 0.13452546D-08
 Aft DD2 bucket IWD1 number    27 has length         7919 dot= 0.80175954D-08
 Aft DD2 bucket IWD2 number    28 has length        16338 dot= 0.12105387D-05
 Aft DD2 bucket IWD3 number    29 is not present.
 Aft DD2 bucket IWAI1 number     0 is not present.
 Aft DD2 bucket IWAI2 number     0 is not present.
 Aft DD2 bucket IWAI3 number     0 is not present.
 Aft DD2 bucket IWAI4 number     0 is not present.
 Contribution from DD2=   -0.10514709D-05
 TestDE:  II=  5 I=1 DE=   -0.421876817082D-02
 TestDE:  II=  5 I=1 DE=   -0.107738352427D-04
 TestDE:  II=  7 I=2 DE=    0.605376090202D-05
 TestDE:  II=  7 I=2 DE=   -0.245673966961D-04
 TestDE:  II=  8 I=2 DE=   -0.200390925454D-01
 TestDE:  II=  8 I=2 DE=   -0.161108744075D-04
 TestDE:  II=  9 I=3 DE=    0.000000000000D+00
 TestDE:  II=  9 I=3 DE=    0.000000000000D+00
 Contribution from DD3=   -0.57505867D-04
 Singles added:  Sum=   -0.53741645D-04
 End CIDS3 bucket IAS1 number    25 has length          615 dot= 0.21284592D-02
 End CIDS3 bucket IAS2 number    26 has length          207 dot= 0.21767192D-02
 End CIDS3 bucket IAD1 number    22 has length         7919 dot= 0.70478781D-02
 End CIDS3 bucket IAD2 number    23 has length        16338 dot= 0.47474061D-01
 End CIDS3 bucket IAD3 number    24 is not present.
 End CIDS3 bucket IWS1 number    30 has length          615 dot= 0.13133075D-08
 End CIDS3 bucket IWS2 number    31 has length          207 dot= 0.13452546D-08
 End CIDS3 bucket IWD1 number    27 has length         7919 dot= 0.10389379D-06
 End CIDS3 bucket IWD2 number    28 has length        16338 dot= 0.11757583D-05
 End CIDS3 bucket IWD3 number    29 is not present.
 End CIDS3 bucket IWAI1 number     0 is not present.
 End CIDS3 bucket IWAI2 number     0 is not present.
 End CIDS3 bucket IWAI3 number     0 is not present.
 End CIDS3 bucket IWAI4 number     0 is not present.
 Entering DoROCS
 GetDE: DE=      0.00000000D+00
 MP3 Singles =       -0.39417539463D-03 Doubles=       -0.66418587182D-02
 Linear MP4 energy terms:
 Singles =       -0.77697616742D-03
 Doubles =       -0.41099224666D-02
 Mixed  =        0.17209855357D-04
 Total MP4L =       -0.48696887787D-02
 TestDE:  II= 99 I=2 DE=   -0.699706560606D-03
 TestDE:  II= 99 I=1 DE=   -0.292315333241D-04
 TestDE:  II= 99 I=3 DE=    0.000000000000D+00
 TestDE:  II= 99 I=1 DE=    0.260587573539D-04
 TestDE:  II= 11 I=2 DE=   -0.699706560606D-03
 TestDE:  II= 99 I=2 DE=   -0.494873330688D-03
 TestDE:  II= 98 I=2 DE=   -0.284719199035D-03
 TestDE:  II= 98 I=3 DE=    0.000000000000D+00
 TestDE:  II= 89 I=1 DE=    0.269625347660D-03
 TestDE:  II= 89 I=2 DE=    0.621598236585D-03
 TestDE:  II= 88 I=3 DE=    0.000000000000D+00
 TestDE:  II= 88 I=2 DE=    0.222052004803D-02
 TestDE:  II= 85 I=1 DE=    0.207634494383D-03
 TestDE:  II= 85 I=2 DE=    0.179834911609D-02
 TestDE:  II= 85 I=3 DE=    0.000000000000D+00
 UMP4Q scratch file information:
   i      file        len
 ---     ------    ------
   1      19999     49893
   2      19998     49893
   3      19997     49893
   4      19996     49893
   5      19995     49893
   6      19994     42849
 total scratch length=      292314
 UMP4(Q)=  0.904201772D-02
 MP4(R+Q)=  0.90420177D-02
 TestDE:  II= 71 I=2 DE=    0.143233342618D-04
 TestDE:  II= 70 I=2 DE=   -0.151178983979D-05
 TestDE:  II= 72 I=2 DE=    0.100264682152D-04
 TestDE:  II= 75 I=2 DE=    0.177651787579D-02
 TestDE:  II= 75 I=1 DE=    0.207830321191D-03
 TestDE:  II= 75 I=3 DE=    0.000000000000D+00
 MP4 NL singles =        0.12806698769D-03
 MP4 NL doubles =        0.19843481970D-02
 MP4 L =       -0.48696887787D-02
 MP4 NL =        0.21124151847D-02
 MP4 Mixed =       -0.45936220101D-04
 RO-SDQ-MP4 Energy =       -0.28032098141D-02
 GetDE: DE=      0.00000000D+00
 TestDE:  II= 65 I=1 DE=    0.669807493238D-02
 TestDE:  II= 65 I=2 DE=    0.442823632883D-01
 TestDE:  II= 65 I=3 DE=    0.000000000000D+00
 Singles A-vector converged to   1.6905080D-04
 Singles A-vector converged to   5.7065148D-04
 The Euclidean norm of the A-vectors is   6.2437880D-04
 The Euclidean norm of the A-vectors is   7.4628845D-04
 A(0)= 0.10000E+01      ANORM= 0.10254E+01      W(0)=-0.37322942E-01
 E3=       -0.70360341D-02        EROMP3=      -0.75977037138D+03
 E4(SDQ)=  -0.28032098D-02        ROMP4(SDQ)=  -0.75977317459D+03
 DE(Corr)= -0.38423968E-01 E(Corr)=     -759.76125020    
 NORM(A)=   0.10254351D+01
 Iteration Nr.   2
 **********************
 Bef DD1 bucket IAS1 number    25 has length          615 dot= 0.17826013D-02
 Bef DD1 bucket IAS2 number    26 has length          207 dot= 0.17046092D-02
 Bef DD1 bucket IAD1 number 12999 has length         7919 dot= 0.64038669D-02
 Bef DD1 bucket IAD2 number 12998 has length        16338 dot= 0.41708883D-01
 Bef DD1 bucket IAD3 number     0 is not present.
 Bef DD1 bucket IWS1 number    30 has length          615 dot= 0.62688359D-04
 Bef DD1 bucket IWS2 number    31 has length          207 dot= 0.59123660D-04
 Bef DD1 bucket IWD1 number    27 has length         7919 dot= 0.00000000D+00
 Bef DD1 bucket IWD2 number    28 has length        16338 dot= 0.00000000D+00
 Bef DD1 bucket IWD3 number    29 is not present.
 Bef DD1 bucket IWAI1 number     0 is not present.
 Bef DD1 bucket IWAI2 number     0 is not present.
 Bef DD1 bucket IWAI3 number     0 is not present.
 Bef DD1 bucket IWAI4 number     0 is not present.
 DD1Dir will call FoFJK   1 times, MxPair=        10
 NAB=     3 NAA=     3 NBB=     0 NumPrc=  6.
 DD1Dir:  Pass   1 NRAB=     3 NRAA=     3 NRBB=     0 NR=     9.
 FoFJK:  IHMeth= 1 ICntrl=     200 DoSepK=F KAlg= 0 I1Cent=   0 FoldK=F
 IRaf=       0 NMat=   9 IRICut=       1 DoRegI=T DoRafI=F ISym2E=-1.
 FoFCou: FMM=F IPFlag=           0 FMFlag=      100000 FMFlg1=           0
         NFxFlg=           0 DoJE=F BraDBF=F KetDBF=F FulRan=T
         wScrn=  0.000000 ICntrl=     200 IOpCl=  0 I1Cent=           0 NGrid=           0
         NMat0=    9 NMatS0=      0 NMatT0=    3 NMatD0=    9 NMtDS0=    0 NMtDT0=    0
 Petite list used in FoFCou.
 FoFCou:  KetSym=F NOpSet=  1 NOpAb=1 NOp=  1.
 FoFCou:  CnvScl= 1.00D+00 Thresh= 1.00D-10 IAcrcy=      10.
 PrismS was handed  1608947447 working-precision words and   861 shell-pairs
 FoFCou: LinMIO=F DoNuc=F BraDBF=F KetDBF=F HaveP=T PDBF=F HaveZ=F HaveW=F
         NIJTC =      36 NIJTAt=       0 NIJTCD=       0 NIJTT =      36
         IJTBeg=       1 IJTEnd=      36 KLTBeg=       1 KLTEnd=      36
         IPTBeg=       1 IPTEnd=      36 IPTBCv=       1 IPTECv=      36
         IZTBeg=       1 IZTEnd=      36 IZTBCv=       1 IZTECv=      36
         IWTBeg=      37 IWTEnd=      36 IWTBCv=      37 IWTECv=      36
         INTBeg=       1 INTEnd=       0 IFTBCv=       1 IFTECv=      36
 NCel replicated for PrismC:     1
 CoulSu:  IncDef=  1024 NBBP=         371091 NTPThr=   100 NPartT=    8 Incr=         463 LDynOK=F.
 CoulSu:  NPrtUS=   8 ThrOK=T IAlg=1 NPAlg=2 LenDen=      534060 LWGrdD=           0 DoCopy=T.
 Enter PrismC: JobTyp=20 DoJE=F Cont=F.
 PrismC:  IPart=     0 DynPar=T LinDyn=F Incr=         463 UseFst=F UseS4=T.
 PrismC was handed   200119567 working-precision words and   861 shell-pairs
 Enter PrismC: JobTyp=20 DoJE=F Cont=F.
 PrismC was handed   200119567 working-precision words and   861 shell-pairs
 Enter PrismC: JobTyp=20 DoJE=F Cont=F.
 Enter PrismC: JobTyp=20 DoJE=F Cont=F.
 PrismC was handed   200119567 working-precision words and   861 shell-pairs
 PrismC was handed   200119567 working-precision words and   861 shell-pairs
 Enter PrismC: JobTyp=20 DoJE=F Cont=F.
 Enter PrismC: JobTyp=20 DoJE=F Cont=F.
 PrismC was handed   200119567 working-precision words and   861 shell-pairs
 PrismC was handed   200119567 working-precision words and   861 shell-pairs
 Enter PrismC: JobTyp=20 DoJE=F Cont=F.
 Enter PrismC: JobTyp=20 DoJE=F Cont=F.
 PrismC was handed   200119567 working-precision words and   861 shell-pairs
 PrismC was handed   200119567 working-precision words and   861 shell-pairs
 IPart=  6 NShTot=       58065 NShNF=       58065 NShFF=           0 NBatch=        2037 AvBLen=        28.5
 IPart=  7 NShTot=       50595 NShNF=       50595 NShFF=           0 NBatch=        1957 AvBLen=        25.9
 IPart=  4 NShTot=       40026 NShNF=       40026 NShFF=           0 NBatch=        1705 AvBLen=        23.5
 IPart=  1 NShTot=       38534 NShNF=       38534 NShFF=           0 NBatch=        1773 AvBLen=        21.7
 IPart=  5 NShTot=       42918 NShNF=       42918 NShFF=           0 NBatch=        1764 AvBLen=        24.3
 IPart=  0 NShTot=       45619 NShNF=       45619 NShFF=           0 NBatch=        1604 AvBLen=        28.4
 IPart=  3 NShTot=       52848 NShNF=       52848 NShFF=           0 NBatch=        2011 AvBLen=        26.3
 IPart=  2 NShTot=       42297 NShNF=       42297 NShFF=           0 NBatch=        1897 AvBLen=        22.3
 CoulSu:  NxtVal=         381050.
 FoFCou EC=-0.240009632182E-01 ENF=-0.240009632182E-01
 Aft DD1 bucket IAS1 number    25 has length          615 dot= 0.17826013D-02
 Aft DD1 bucket IAS2 number    26 has length          207 dot= 0.17046092D-02
 Aft DD1 bucket IAD1 number 12999 has length         7919 dot= 0.64038669D-02
 Aft DD1 bucket IAD2 number 12998 has length        16338 dot= 0.41708883D-01
 Aft DD1 bucket IAD3 number     0 is not present.
 Aft DD1 bucket IWS1 number    30 has length          615 dot= 0.22384578D-03
 Aft DD1 bucket IWS2 number    31 has length          207 dot= 0.14529128D-03
 Aft DD1 bucket IWD1 number    27 has length         7919 dot= 0.67852409D-03
 Aft DD1 bucket IWD2 number    28 has length        16338 dot= 0.12418533D-01
 Aft DD1 bucket IWD3 number    29 is not present.
 Aft DD1 bucket IWAI1 number     0 is not present.
 Aft DD1 bucket IWAI2 number     0 is not present.
 Aft DD1 bucket IWAI3 number     0 is not present.
 Aft DD1 bucket IWAI4 number     0 is not present.
 Aft SD4 bucket IAS1 number    25 has length          615 dot= 0.17826013D-02
 Aft SD4 bucket IAS2 number    26 has length          207 dot= 0.17046092D-02
 Aft SD4 bucket IAD1 number    22 has length         7919 dot= 0.64035952D-02
 Aft SD4 bucket IAD2 number    23 has length        16338 dot= 0.41626383D-01
 Aft SD4 bucket IAD3 number    24 is not present.
 Aft SD4 bucket IWS1 number    30 has length          615 dot= 0.22384578D-03
 Aft SD4 bucket IWS2 number    31 has length          207 dot= 0.14529128D-03
 Aft SD4 bucket IWD1 number    27 has length         7919 dot= 0.67852409D-03
 Aft SD4 bucket IWD2 number    28 has length        16338 dot= 0.12418533D-01
 Aft SD4 bucket IWD3 number    29 is not present.
 Aft SD4 bucket IWAI1 number     0 is not present.
 Aft SD4 bucket IWAI2 number     0 is not present.
 Aft SD4 bucket IWAI3 number     0 is not present.
 Aft SD4 bucket IWAI4 number     0 is not present.
 TestDE:  II= 99 I=2 DE=    0.179050180402D-01
 TestDE:  II= 99 I=1 DE=    0.174414776623D-02
 TestDE:  II= 99 I=3 DE=    0.000000000000D+00
 Aft DS4 bucket IAS1 number    25 has length          615 dot= 0.17826013D-02
 Aft DS4 bucket IAS2 number    26 has length          207 dot= 0.17046092D-02
 Aft DS4 bucket IAD1 number    22 has length         7919 dot= 0.64035952D-02
 Aft DS4 bucket IAD2 number    23 has length        16338 dot= 0.41626383D-01
 Aft DS4 bucket IAD3 number    24 is not present.
 Aft DS4 bucket IWS1 number    30 has length          615 dot= 0.22384578D-03
 Aft DS4 bucket IWS2 number    31 has length          207 dot= 0.14529128D-03
 Aft DS4 bucket IWD1 number    27 has length         7919 dot= 0.73035221D-03
 Aft DS4 bucket IWD2 number    28 has length        16338 dot= 0.12728577D-01
 Aft DS4 bucket IWD3 number    29 is not present.
 Aft DS4 bucket IWAI1 number     0 is not present.
 Aft DS4 bucket IWAI2 number     0 is not present.
 Aft DS4 bucket IWAI3 number     0 is not present.
 Aft DS4 bucket IWAI4 number     0 is not present.
 Bef SD5a bucket IAS1 number    25 has length          615 dot= 0.17826013D-02
 Bef SD5a bucket IAS2 number    26 has length          207 dot= 0.17046092D-02
 Bef SD5a bucket IAD1 number 12999 has length         7919 dot= 0.64038669D-02
 Bef SD5a bucket IAD2 number 12998 has length        16338 dot= 0.41708883D-01
 Bef SD5a bucket IAD3 number     0 is not present.
 Bef SD5a bucket IWS1 number    30 has length          615 dot= 0.22384578D-03
 Bef SD5a bucket IWS2 number    31 has length          207 dot= 0.14529128D-03
 Bef SD5a bucket IWD1 number    27 has length         7919 dot= 0.73035221D-03
 Bef SD5a bucket IWD2 number    28 has length        16338 dot= 0.12728577D-01
 Bef SD5a bucket IWD3 number    29 is not present.
 Bef SD5a bucket IWAI1 number     0 is not present.
 Bef SD5a bucket IWAI2 number     0 is not present.
 Bef SD5a bucket IWAI3 number     0 is not present.
 Bef SD5a bucket IWAI4 number     0 is not present.
 Bef SD5b bucket IAS1 number     0 is not present.
 Bef SD5b bucket IAS2 number     0 is not present.
 Bef SD5b bucket IAD1 number     0 is not present.
 Bef SD5b bucket IAD2 number     0 is not present.
 Bef SD5b bucket IAD3 number     0 is not present.
 Bef SD5b bucket IWS1 number    30 has length          615 dot= 0.22384578D-03
 Bef SD5b bucket IWS2 number    31 has length          207 dot= 0.14529128D-03
 Bef SD5b bucket IWD1 number    27 has length         7919 dot= 0.73035221D-03
 Bef SD5b bucket IWD2 number    28 has length        16338 dot= 0.12728577D-01
 Bef SD5b bucket IWD3 number    29 is not present.
 Bef SD5b bucket IWAI1 number     0 is not present.
 Bef SD5b bucket IWAI2 number     0 is not present.
 Bef SD5b bucket IWAI3 number     0 is not present.
 Bef SD5b bucket IWAI4 number     0 is not present.
 TestDE:  II= 19 I=1 DE=    0.172314367538D-02
 TestDE:  II= 19 I=2 DE=    0.179896233187D-01
 TestDE:  II= 19 I=3 DE=    0.000000000000D+00
 Aft SD5 bucket IAS1 number    25 has length          615 dot= 0.17826013D-02
 Aft SD5 bucket IAS2 number    26 has length          207 dot= 0.17046092D-02
 Aft SD5 bucket IAD1 number    22 has length         7919 dot= 0.64035952D-02
 Aft SD5 bucket IAD2 number    23 has length        16338 dot= 0.41626383D-01
 Aft SD5 bucket IAD3 number    24 is not present.
 Aft SD5 bucket IWS1 number    30 has length          615 dot= 0.15147981D-03
 Aft SD5 bucket IWS2 number    31 has length          207 dot= 0.77552822D-04
 Aft SD5 bucket IWD1 number    27 has length         7919 dot= 0.72410584D-03
 Aft SD5 bucket IWD2 number    28 has length        16338 dot= 0.12763710D-01
 Aft SD5 bucket IWD3 number    29 is not present.
 Aft SD5 bucket IWAI1 number     0 is not present.
 Aft SD5 bucket IWAI2 number     0 is not present.
 Aft SD5 bucket IWAI3 number     0 is not present.
 Aft SD5 bucket IWAI4 number     0 is not present.
 Contribution from DD1=    0.19712767D-01
 Bef DD2 bucket IAS1 number    25 has length          615 dot= 0.17826013D-02
 Bef DD2 bucket IAS2 number    26 has length          207 dot= 0.17046092D-02
 Bef DD2 bucket IAD1 number    22 has length         7919 dot= 0.64035952D-02
 Bef DD2 bucket IAD2 number    23 has length        16338 dot= 0.41626383D-01
 Bef DD2 bucket IAD3 number    24 is not present.
 Bef DD2 bucket IWS1 number    30 has length          615 dot= 0.15147981D-03
 Bef DD2 bucket IWS2 number    31 has length          207 dot= 0.77552822D-04
 Bef DD2 bucket IWD1 number    27 has length         7919 dot= 0.72410584D-03
 Bef DD2 bucket IWD2 number    28 has length        16338 dot= 0.12763710D-01
 Bef DD2 bucket IWD3 number    29 is not present.
 Bef DD2 bucket IWAI1 number     0 is not present.
 Bef DD2 bucket IWAI2 number     0 is not present.
 Bef DD2 bucket IWAI3 number     0 is not present.
 Bef DD2 bucket IWAI4 number     0 is not present.
 ExpSMa:  Full in-core algorithm.
 ExpSMa:  Full in-core algorithm.
 ExpSMa:  Full in-core algorithm.
 TestDE:  II=419 I=1 DE=    0.278428923252D-02
 TestDE:  II=419 I=2 DE=    0.256441158986D-01
 TestDE:  II=419 I=3 DE=    0.000000000000D+00
 Aft DD2 bucket IAS1 number    25 has length          615 dot= 0.17826013D-02
 Aft DD2 bucket IAS2 number    26 has length          207 dot= 0.17046092D-02
 Aft DD2 bucket IAD1 number    22 has length         7919 dot= 0.64035952D-02
 Aft DD2 bucket IAD2 number    23 has length        16338 dot= 0.41626383D-01
 Aft DD2 bucket IAD3 number    24 is not present.
 Aft DD2 bucket IWS1 number    30 has length          615 dot= 0.15147981D-03
 Aft DD2 bucket IWS2 number    31 has length          207 dot= 0.77552822D-04
 Aft DD2 bucket IWD1 number    27 has length         7919 dot= 0.15410089D-02
 Aft DD2 bucket IWD2 number    28 has length        16338 dot= 0.20982300D-01
 Aft DD2 bucket IWD3 number    29 is not present.
 Aft DD2 bucket IWAI1 number     0 is not present.
 Aft DD2 bucket IWAI2 number     0 is not present.
 Aft DD2 bucket IWAI3 number     0 is not present.
 Aft DD2 bucket IWAI4 number     0 is not present.
 Contribution from DD2=    0.87156381D-02
 Contribution from DD3=    0.00000000D+00
 Singles added:  Sum=    0.28154142D-01
 End CIDS3 bucket IAS1 number    25 has length          615 dot= 0.17826013D-02
 End CIDS3 bucket IAS2 number    26 has length          207 dot= 0.17046092D-02
 End CIDS3 bucket IAD1 number    22 has length         7919 dot= 0.64035952D-02
 End CIDS3 bucket IAD2 number    23 has length        16338 dot= 0.41626383D-01
 End CIDS3 bucket IAD3 number    24 is not present.
 End CIDS3 bucket IWS1 number    30 has length          615 dot= 0.15147981D-03
 End CIDS3 bucket IWS2 number    31 has length          207 dot= 0.77552822D-04
 End CIDS3 bucket IWD1 number    27 has length         7919 dot= 0.15410089D-02
 End CIDS3 bucket IWD2 number    28 has length        16338 dot= 0.20982300D-01
 End CIDS3 bucket IWD3 number    29 is not present.
 End CIDS3 bucket IWAI1 number     0 is not present.
 End CIDS3 bucket IWAI2 number     0 is not present.
 End CIDS3 bucket IWAI3 number     0 is not present.
 End CIDS3 bucket IWAI4 number     0 is not present.
 Entering DoROCS
 TestDE:  II= 99 I=2 DE=    0.256441158986D-01
 TestDE:  II= 99 I=1 DE=    0.278428923252D-02
 TestDE:  II= 99 I=3 DE=    0.000000000000D+00
 TestDE:  II= 99 I=1 DE=    0.283160505833D-02
 TestDE:  II= 11 I=2 DE=    0.256441158986D-01
 TestDE:  II= 99 I=2 DE=    0.258119814420D-01
 TestDE:  II= 98 I=2 DE=    0.259843327498D-01
 TestDE:  II= 98 I=3 DE=    0.000000000000D+00
 TestDE:  II= 89 I=1 DE=    0.304095795627D-02
 TestDE:  II= 89 I=2 DE=    0.267383130000D-01
 TestDE:  II= 88 I=3 DE=    0.000000000000D+00
 TestDE:  II= 88 I=2 DE=    0.280667479141D-01
 TestDE:  II=  5 I=1 DE=   -0.398470954854D-02
 TestDE:  II=  7 I=2 DE=    0.148064678772D-01
 TestDE:  II=  8 I=2 DE=   -0.178587111415D-01
 TestDE:  II=  9 I=3 DE=    0.000000000000D+00
 TestDE:  II= 50 I=1 DE=   -0.943751592272D-03
 TestDE:  II= 70 I=2 DE=   -0.305224326426D-02
 TestDE:  II= 90 I=3 DE=    0.000000000000D+00
 UMP4Q scratch file information:
   i      file        len
 ---     ------    ------
   1      19999     49893
   2      19998     49893
   3      19997     49893
   4      19996     49893
   5      19995     49893
   6      19994     42849
 total scratch length=      292314
 TestDE:  II= 71 I=2 DE=    0.111318257587D-04
 TestDE:  II= 70 I=2 DE=   -0.115588482566D-05
 TestDE:  II= 72 I=2 DE=    0.783775534765D-05
 TestDE:  II= 75 I=2 DE=   -0.306922938841D-02
 TestDE:  II= 75 I=1 DE=   -0.943630952772D-03
 TestDE:  II= 75 I=3 DE=    0.000000000000D+00
 GetDE: DE=      0.00000000D+00
 TestDE:  II= 65 I=1 DE=    0.793982183606D-02
 TestDE:  II= 65 I=2 DE=    0.525916437660D-01
 TestDE:  II= 65 I=3 DE=    0.000000000000D+00
 Singles A-vector converged to   1.6088809D-03
 Singles A-vector converged to   3.9482815D-03
 The Euclidean norm of the A-vectors is   4.1980644D-03
 The Euclidean norm of the A-vectors is   4.7523919D-03
 A(0)= 0.10000E+01      ANORM= 0.10275E+01      W(0)=-0.38248206E-01
 DE(Corr)= -0.45147075E-01 E(CORR)=     -759.76797330     Delta=-6.72D-03
 NORM(A)=   0.10275002D+01
 Iteration Nr.   3
 **********************
 Bef DD1 bucket IAS1 number    25 has length          615 dot= 0.18661081D-02
 Bef DD1 bucket IAS2 number    26 has length          207 dot= 0.19974334D-02
 Bef DD1 bucket IAD1 number 12999 has length         7919 dot= 0.68869523D-02
 Bef DD1 bucket IAD2 number 12998 has length        16338 dot= 0.45110604D-01
 Bef DD1 bucket IAD3 number     0 is not present.
 Bef DD1 bucket IWS1 number    30 has length          615 dot= 0.68973046D-04
 Bef DD1 bucket IWS2 number    31 has length          207 dot= 0.68871307D-04
 Bef DD1 bucket IWD1 number    27 has length         7919 dot= 0.00000000D+00
 Bef DD1 bucket IWD2 number    28 has length        16338 dot= 0.00000000D+00
 Bef DD1 bucket IWD3 number    29 is not present.
 Bef DD1 bucket IWAI1 number     0 is not present.
 Bef DD1 bucket IWAI2 number     0 is not present.
 Bef DD1 bucket IWAI3 number     0 is not present.
 Bef DD1 bucket IWAI4 number     0 is not present.
 DD1Dir will call FoFJK   1 times, MxPair=        10
 NAB=     3 NAA=     3 NBB=     0 NumPrc=  6.
 DD1Dir:  Pass   1 NRAB=     3 NRAA=     3 NRBB=     0 NR=     9.
 FoFJK:  IHMeth= 1 ICntrl=     200 DoSepK=F KAlg= 0 I1Cent=   0 FoldK=F
 IRaf=       0 NMat=   9 IRICut=       1 DoRegI=T DoRafI=F ISym2E=-1.
 FoFCou: FMM=F IPFlag=           0 FMFlag=      100000 FMFlg1=           0
         NFxFlg=           0 DoJE=F BraDBF=F KetDBF=F FulRan=T
         wScrn=  0.000000 ICntrl=     200 IOpCl=  0 I1Cent=           0 NGrid=           0
         NMat0=    9 NMatS0=      0 NMatT0=    3 NMatD0=    9 NMtDS0=    0 NMtDT0=    0
 Petite list used in FoFCou.
 FoFCou:  KetSym=F NOpSet=  1 NOpAb=1 NOp=  1.
 FoFCou:  CnvScl= 1.00D+00 Thresh= 1.00D-10 IAcrcy=      10.
 PrismS was handed  1608947447 working-precision words and   861 shell-pairs
 FoFCou: LinMIO=F DoNuc=F BraDBF=F KetDBF=F HaveP=T PDBF=F HaveZ=F HaveW=F
         NIJTC =      36 NIJTAt=       0 NIJTCD=       0 NIJTT =      36
         IJTBeg=       1 IJTEnd=      36 KLTBeg=       1 KLTEnd=      36
         IPTBeg=       1 IPTEnd=      36 IPTBCv=       1 IPTECv=      36
         IZTBeg=       1 IZTEnd=      36 IZTBCv=       1 IZTECv=      36
         IWTBeg=      37 IWTEnd=      36 IWTBCv=      37 IWTECv=      36
         INTBeg=       1 INTEnd=       0 IFTBCv=       1 IFTECv=      36
 NCel replicated for PrismC:     1
 CoulSu:  IncDef=  1024 NBBP=         371091 NTPThr=   100 NPartT=    8 Incr=         463 LDynOK=F.
 CoulSu:  NPrtUS=   8 ThrOK=T IAlg=1 NPAlg=2 LenDen=      534060 LWGrdD=           0 DoCopy=T.
 Enter PrismC: JobTyp=20 DoJE=F Cont=F.
 PrismC:  IPart=     0 DynPar=T LinDyn=F Incr=         463 UseFst=F UseS4=T.
 PrismC was handed   200119567 working-precision words and   861 shell-pairs
 Enter PrismC: JobTyp=20 DoJE=F Cont=F.
 PrismC was handed   200119567 working-precision words and   861 shell-pairs
 Enter PrismC: JobTyp=20 DoJE=F Cont=F.
 Enter PrismC: JobTyp=20 DoJE=F Cont=F.
 PrismC was handed   200119567 working-precision words and   861 shell-pairs
 PrismC was handed   200119567 working-precision words and   861 shell-pairs
 Enter PrismC: JobTyp=20 DoJE=F Cont=F.
 Enter PrismC: JobTyp=20 DoJE=F Cont=F.
 PrismC was handed   200119567 working-precision words and   861 shell-pairs
 PrismC was handed   200119567 working-precision words and   861 shell-pairs
 Enter PrismC: JobTyp=20 DoJE=F Cont=F.
 Enter PrismC: JobTyp=20 DoJE=F Cont=F.
 PrismC was handed   200119567 working-precision words and   861 shell-pairs
 PrismC was handed   200119567 working-precision words and   861 shell-pairs
 IPart=  4 NShTot=       50226 NShNF=       50226 NShFF=           0 NBatch=        2013 AvBLen=        25.0
 IPart=  3 NShTot=       46322 NShNF=       46322 NShFF=           0 NBatch=        1850 AvBLen=        25.0
 IPart=  5 NShTot=       55284 NShNF=       55284 NShFF=           0 NBatch=        2010 AvBLen=        27.5
 IPart=  7 NShTot=       43000 NShNF=       43000 NShFF=           0 NBatch=        1762 AvBLen=        24.4
 IPart=  6 NShTot=       43922 NShNF=       43922 NShFF=           0 NBatch=        1766 AvBLen=        24.9
 IPart=  0 NShTot=       44414 NShNF=       44414 NShFF=           0 NBatch=        1579 AvBLen=        28.1
 IPart=  1 NShTot=       47967 NShNF=       47967 NShFF=           0 NBatch=        1985 AvBLen=        24.2
 IPart=  2 NShTot=       39766 NShNF=       39766 NShFF=           0 NBatch=        1782 AvBLen=        22.3
 CoulSu:  NxtVal=         381050.
 FoFCou EC=-0.246261426917E-01 ENF=-0.246261426917E-01
 Aft DD1 bucket IAS1 number    25 has length          615 dot= 0.18661081D-02
 Aft DD1 bucket IAS2 number    26 has length          207 dot= 0.19974334D-02
 Aft DD1 bucket IAD1 number 12999 has length         7919 dot= 0.68869523D-02
 Aft DD1 bucket IAD2 number 12998 has length        16338 dot= 0.45110604D-01
 Aft DD1 bucket IAD3 number     0 is not present.
 Aft DD1 bucket IWS1 number    30 has length          615 dot= 0.25674811D-03
 Aft DD1 bucket IWS2 number    31 has length          207 dot= 0.16350434D-03
 Aft DD1 bucket IWD1 number    27 has length         7919 dot= 0.70691599D-03
 Aft DD1 bucket IWD2 number    28 has length        16338 dot= 0.12449710D-01
 Aft DD1 bucket IWD3 number    29 is not present.
 Aft DD1 bucket IWAI1 number     0 is not present.
 Aft DD1 bucket IWAI2 number     0 is not present.
 Aft DD1 bucket IWAI3 number     0 is not present.
 Aft DD1 bucket IWAI4 number     0 is not present.
 Aft SD4 bucket IAS1 number    25 has length          615 dot= 0.18661081D-02
 Aft SD4 bucket IAS2 number    26 has length          207 dot= 0.19974334D-02
 Aft SD4 bucket IAD1 number    22 has length         7919 dot= 0.68777916D-02
 Aft SD4 bucket IAD2 number    23 has length        16338 dot= 0.45015340D-01
 Aft SD4 bucket IAD3 number    24 is not present.
 Aft SD4 bucket IWS1 number    30 has length          615 dot= 0.25674811D-03
 Aft SD4 bucket IWS2 number    31 has length          207 dot= 0.16350434D-03
 Aft SD4 bucket IWD1 number    27 has length         7919 dot= 0.70691599D-03
 Aft SD4 bucket IWD2 number    28 has length        16338 dot= 0.12449710D-01
 Aft SD4 bucket IWD3 number    29 is not present.
 Aft SD4 bucket IWAI1 number     0 is not present.
 Aft SD4 bucket IWAI2 number     0 is not present.
 Aft SD4 bucket IWAI3 number     0 is not present.
 Aft SD4 bucket IWAI4 number     0 is not present.
 TestDE:  II= 99 I=2 DE=    0.184611232681D-01
 TestDE:  II= 99 I=1 DE=    0.181571547368D-02
 TestDE:  II= 99 I=3 DE=    0.000000000000D+00
 Aft DS4 bucket IAS1 number    25 has length          615 dot= 0.18661081D-02
 Aft DS4 bucket IAS2 number    26 has length          207 dot= 0.19974334D-02
 Aft DS4 bucket IAD1 number    22 has length         7919 dot= 0.68777916D-02
 Aft DS4 bucket IAD2 number    23 has length        16338 dot= 0.45015340D-01
 Aft DS4 bucket IAD3 number    24 is not present.
 Aft DS4 bucket IWS1 number    30 has length          615 dot= 0.25674811D-03
 Aft DS4 bucket IWS2 number    31 has length          207 dot= 0.16350434D-03
 Aft DS4 bucket IWD1 number    27 has length         7919 dot= 0.73964807D-03
 Aft DS4 bucket IWD2 number    28 has length        16338 dot= 0.12615436D-01
 Aft DS4 bucket IWD3 number    29 is not present.
 Aft DS4 bucket IWAI1 number     0 is not present.
 Aft DS4 bucket IWAI2 number     0 is not present.
 Aft DS4 bucket IWAI3 number     0 is not present.
 Aft DS4 bucket IWAI4 number     0 is not present.
 Bef SD5a bucket IAS1 number    25 has length          615 dot= 0.18661081D-02
 Bef SD5a bucket IAS2 number    26 has length          207 dot= 0.19974334D-02
 Bef SD5a bucket IAD1 number 12999 has length         7919 dot= 0.68869523D-02
 Bef SD5a bucket IAD2 number 12998 has length        16338 dot= 0.45110604D-01
 Bef SD5a bucket IAD3 number     0 is not present.
 Bef SD5a bucket IWS1 number    30 has length          615 dot= 0.25674811D-03
 Bef SD5a bucket IWS2 number    31 has length          207 dot= 0.16350434D-03
 Bef SD5a bucket IWD1 number    27 has length         7919 dot= 0.73964807D-03
 Bef SD5a bucket IWD2 number    28 has length        16338 dot= 0.12615436D-01
 Bef SD5a bucket IWD3 number    29 is not present.
 Bef SD5a bucket IWAI1 number     0 is not present.
 Bef SD5a bucket IWAI2 number     0 is not present.
 Bef SD5a bucket IWAI3 number     0 is not present.
 Bef SD5a bucket IWAI4 number     0 is not present.
 Bef SD5b bucket IAS1 number     0 is not present.
 Bef SD5b bucket IAS2 number     0 is not present.
 Bef SD5b bucket IAD1 number     0 is not present.
 Bef SD5b bucket IAD2 number     0 is not present.
 Bef SD5b bucket IAD3 number     0 is not present.
 Bef SD5b bucket IWS1 number    30 has length          615 dot= 0.25674811D-03
 Bef SD5b bucket IWS2 number    31 has length          207 dot= 0.16350434D-03
 Bef SD5b bucket IWD1 number    27 has length         7919 dot= 0.73964807D-03
 Bef SD5b bucket IWD2 number    28 has length        16338 dot= 0.12615436D-01
 Bef SD5b bucket IWD3 number    29 is not present.
 Bef SD5b bucket IWAI1 number     0 is not present.
 Bef SD5b bucket IWAI2 number     0 is not present.
 Bef SD5b bucket IWAI3 number     0 is not present.
 Bef SD5b bucket IWAI4 number     0 is not present.
 TestDE:  II= 19 I=1 DE=    0.179944179370D-02
 TestDE:  II= 19 I=2 DE=    0.185819489654D-01
 TestDE:  II= 19 I=3 DE=    0.000000000000D+00
 Aft SD5 bucket IAS1 number    25 has length          615 dot= 0.18661081D-02
 Aft SD5 bucket IAS2 number    26 has length          207 dot= 0.19974334D-02
 Aft SD5 bucket IAD1 number    22 has length         7919 dot= 0.68777916D-02
 Aft SD5 bucket IAD2 number    23 has length        16338 dot= 0.45015340D-01
 Aft SD5 bucket IAD3 number    24 is not present.
 Aft SD5 bucket IWS1 number    30 has length          615 dot= 0.18183254D-03
 Aft SD5 bucket IWS2 number    31 has length          207 dot= 0.90114288D-04
 Aft SD5 bucket IWD1 number    27 has length         7919 dot= 0.73376590D-03
 Aft SD5 bucket IWD2 number    28 has length        16338 dot= 0.12669599D-01
 Aft SD5 bucket IWD3 number    29 is not present.
 Aft SD5 bucket IWAI1 number     0 is not present.
 Aft SD5 bucket IWAI2 number     0 is not present.
 Aft SD5 bucket IWAI3 number     0 is not present.
 Aft SD5 bucket IWAI4 number     0 is not present.
 Contribution from DD1=    0.20381391D-01
 Bef DD2 bucket IAS1 number    25 has length          615 dot= 0.18661081D-02
 Bef DD2 bucket IAS2 number    26 has length          207 dot= 0.19974334D-02
 Bef DD2 bucket IAD1 number    22 has length         7919 dot= 0.68777916D-02
 Bef DD2 bucket IAD2 number    23 has length        16338 dot= 0.45015340D-01
 Bef DD2 bucket IAD3 number    24 is not present.
 Bef DD2 bucket IWS1 number    30 has length          615 dot= 0.18183254D-03
 Bef DD2 bucket IWS2 number    31 has length          207 dot= 0.90114288D-04
 Bef DD2 bucket IWD1 number    27 has length         7919 dot= 0.73376590D-03
 Bef DD2 bucket IWD2 number    28 has length        16338 dot= 0.12669599D-01
 Bef DD2 bucket IWD3 number    29 is not present.
 Bef DD2 bucket IWAI1 number     0 is not present.
 Bef DD2 bucket IWAI2 number     0 is not present.
 Bef DD2 bucket IWAI3 number     0 is not present.
 Bef DD2 bucket IWAI4 number     0 is not present.
 ExpSMa:  Full in-core algorithm.
 ExpSMa:  Full in-core algorithm.
 ExpSMa:  Full in-core algorithm.
 TestDE:  II=419 I=1 DE=    0.293982205968D-02
 TestDE:  II=419 I=2 DE=    0.268504041704D-01
 TestDE:  II=419 I=3 DE=    0.000000000000D+00
 Aft DD2 bucket IAS1 number    25 has length          615 dot= 0.18661081D-02
 Aft DD2 bucket IAS2 number    26 has length          207 dot= 0.19974334D-02
 Aft DD2 bucket IAD1 number    22 has length         7919 dot= 0.68777916D-02
 Aft DD2 bucket IAD2 number    23 has length        16338 dot= 0.45015340D-01
 Aft DD2 bucket IAD3 number    24 is not present.
 Aft DD2 bucket IWS1 number    30 has length          615 dot= 0.18183254D-03
 Aft DD2 bucket IWS2 number    31 has length          207 dot= 0.90114288D-04
 Aft DD2 bucket IWD1 number    27 has length         7919 dot= 0.15930670D-02
 Aft DD2 bucket IWD2 number    28 has length        16338 dot= 0.21220472D-01
 Aft DD2 bucket IWD3 number    29 is not present.
 Aft DD2 bucket IWAI1 number     0 is not present.
 Aft DD2 bucket IWAI2 number     0 is not present.
 Aft DD2 bucket IWAI3 number     0 is not present.
 Aft DD2 bucket IWAI4 number     0 is not present.
 Contribution from DD2=    0.94088355D-02
 Contribution from DD3=    0.00000000D+00
 Singles added:  Sum=    0.29370554D-01
 End CIDS3 bucket IAS1 number    25 has length          615 dot= 0.18661081D-02
 End CIDS3 bucket IAS2 number    26 has length          207 dot= 0.19974334D-02
 End CIDS3 bucket IAD1 number    22 has length         7919 dot= 0.68777916D-02
 End CIDS3 bucket IAD2 number    23 has length        16338 dot= 0.45015340D-01
 End CIDS3 bucket IAD3 number    24 is not present.
 End CIDS3 bucket IWS1 number    30 has length          615 dot= 0.18183254D-03
 End CIDS3 bucket IWS2 number    31 has length          207 dot= 0.90114288D-04
 End CIDS3 bucket IWD1 number    27 has length         7919 dot= 0.15930670D-02
 End CIDS3 bucket IWD2 number    28 has length        16338 dot= 0.21220472D-01
 End CIDS3 bucket IWD3 number    29 is not present.
 End CIDS3 bucket IWAI1 number     0 is not present.
 End CIDS3 bucket IWAI2 number     0 is not present.
 End CIDS3 bucket IWAI3 number     0 is not present.
 End CIDS3 bucket IWAI4 number     0 is not present.
 Entering DoROCS
 TestDE:  II= 99 I=2 DE=    0.268504041704D-01
 TestDE:  II= 99 I=1 DE=    0.293982205968D-02
 TestDE:  II= 99 I=3 DE=    0.000000000000D+00
 TestDE:  II= 99 I=1 DE=    0.299802846955D-02
 TestDE:  II= 11 I=2 DE=    0.268504041704D-01
 TestDE:  II= 99 I=2 DE=    0.270612190828D-01
 TestDE:  II= 98 I=2 DE=    0.272806611841D-01
 TestDE:  II= 98 I=3 DE=    0.000000000000D+00
 TestDE:  II= 89 I=1 DE=    0.322371986138D-02
 TestDE:  II= 89 I=2 DE=    0.281025670540D-01
 TestDE:  II= 88 I=3 DE=    0.000000000000D+00
 TestDE:  II= 88 I=2 DE=    0.295592956023D-01
 TestDE:  II=  5 I=1 DE=   -0.426655846395D-02
 TestDE:  II=  7 I=2 DE=    0.152915949042D-01
 TestDE:  II=  8 I=2 DE=   -0.192738184710D-01
 TestDE:  II=  9 I=3 DE=    0.000000000000D+00
 TestDE:  II= 50 I=1 DE=   -0.104283860257D-02
 TestDE:  II= 70 I=2 DE=   -0.398222356681D-02
 TestDE:  II= 90 I=3 DE=    0.000000000000D+00
 UMP4Q scratch file information:
   i      file        len
 ---     ------    ------
   1      19999     49893
   2      19998     49893
   3      19997     49893
   4      19996     49893
   5      19995     49893
   6      19994     42849
 total scratch length=      292314
 TestDE:  II= 71 I=2 DE=    0.130241071077D-04
 TestDE:  II= 70 I=2 DE=   -0.141870641117D-05
 TestDE:  II= 72 I=2 DE=    0.900949879877D-05
 TestDE:  II= 75 I=2 DE=   -0.400132197892D-02
 TestDE:  II= 75 I=1 DE=   -0.104383486120D-02
 TestDE:  II= 75 I=3 DE=    0.000000000000D+00
 GetDE: DE=      0.00000000D+00
 TestDE:  II= 65 I=1 DE=    0.830725419983D-02
 TestDE:  II= 65 I=2 DE=    0.559133662499D-01
 TestDE:  II= 65 I=3 DE=    0.000000000000D+00
 Singles A-vector converged to   1.4818281D-03
 Singles A-vector converged to   3.5851643D-03
 The Euclidean norm of the A-vectors is   3.8084770D-03
 The Euclidean norm of the A-vectors is   4.3208167D-03
 A(0)= 0.10000E+01      ANORM= 0.10701E+01      W(0)=-0.51548829E-01
 DE(Corr)= -0.45726503E-01 E(CORR)=     -759.76855273     Delta=-5.79D-04
 NORM(A)=   0.10701019D+01
 Iteration Nr.   4
 **********************
 Bef DD1 bucket IAS1 number    25 has length          615 dot= 0.98103679D-02
 Bef DD1 bucket IAS2 number    26 has length          207 dot= 0.95207787D-02
 Bef DD1 bucket IAD1 number 12999 has length         7919 dot= 0.13220018D-01
 Bef DD1 bucket IAD2 number 12998 has length        16338 dot= 0.11291311D+00
 Bef DD1 bucket IAD3 number     0 is not present.
 Bef DD1 bucket IWS1 number    30 has length          615 dot= 0.38092389D-03
 Bef DD1 bucket IWS2 number    31 has length          207 dot= 0.31320523D-03
 Bef DD1 bucket IWD1 number    27 has length         7919 dot= 0.00000000D+00
 Bef DD1 bucket IWD2 number    28 has length        16338 dot= 0.00000000D+00
 Bef DD1 bucket IWD3 number    29 is not present.
 Bef DD1 bucket IWAI1 number     0 is not present.
 Bef DD1 bucket IWAI2 number     0 is not present.
 Bef DD1 bucket IWAI3 number     0 is not present.
 Bef DD1 bucket IWAI4 number     0 is not present.
 DD1Dir will call FoFJK   1 times, MxPair=        10
 NAB=     3 NAA=     3 NBB=     0 NumPrc=  6.
 DD1Dir:  Pass   1 NRAB=     3 NRAA=     3 NRBB=     0 NR=     9.
 FoFJK:  IHMeth= 1 ICntrl=     200 DoSepK=F KAlg= 0 I1Cent=   0 FoldK=F
 IRaf=       0 NMat=   9 IRICut=       1 DoRegI=T DoRafI=F ISym2E=-1.
 FoFCou: FMM=F IPFlag=           0 FMFlag=      100000 FMFlg1=           0
         NFxFlg=           0 DoJE=F BraDBF=F KetDBF=F FulRan=T
         wScrn=  0.000000 ICntrl=     200 IOpCl=  0 I1Cent=           0 NGrid=           0
         NMat0=    9 NMatS0=      0 NMatT0=    3 NMatD0=    9 NMtDS0=    0 NMtDT0=    0
 Petite list used in FoFCou.
 FoFCou:  KetSym=F NOpSet=  1 NOpAb=1 NOp=  1.
 FoFCou:  CnvScl= 1.00D+00 Thresh= 1.00D-10 IAcrcy=      10.
 PrismS was handed  1608947447 working-precision words and   861 shell-pairs
 FoFCou: LinMIO=F DoNuc=F BraDBF=F KetDBF=F HaveP=T PDBF=F HaveZ=F HaveW=F
         NIJTC =      36 NIJTAt=       0 NIJTCD=       0 NIJTT =      36
         IJTBeg=       1 IJTEnd=      36 KLTBeg=       1 KLTEnd=      36
         IPTBeg=       1 IPTEnd=      36 IPTBCv=       1 IPTECv=      36
         IZTBeg=       1 IZTEnd=      36 IZTBCv=       1 IZTECv=      36
         IWTBeg=      37 IWTEnd=      36 IWTBCv=      37 IWTECv=      36
         INTBeg=       1 INTEnd=       0 IFTBCv=       1 IFTECv=      36
 NCel replicated for PrismC:     1
 CoulSu:  IncDef=  1024 NBBP=         371091 NTPThr=   100 NPartT=    8 Incr=         463 LDynOK=F.
 CoulSu:  NPrtUS=   8 ThrOK=T IAlg=1 NPAlg=2 LenDen=      534060 LWGrdD=           0 DoCopy=T.
 Enter PrismC: JobTyp=20 DoJE=F Cont=F.
 PrismC:  IPart=     0 DynPar=T LinDyn=F Incr=         463 UseFst=F UseS4=T.
 PrismC was handed   200119567 working-precision words and   861 shell-pairs
 Enter PrismC: JobTyp=20 DoJE=F Cont=F.
 PrismC was handed   200119567 working-precision words and   861 shell-pairs
 Enter PrismC: JobTyp=20 DoJE=F Cont=F.
 Enter PrismC: JobTyp=20 DoJE=F Cont=F.
 PrismC was handed   200119567 working-precision words and   861 shell-pairs
 PrismC was handed   200119567 working-precision words and   861 shell-pairs
 Enter PrismC: JobTyp=20 DoJE=F Cont=F.
 Enter PrismC: JobTyp=20 DoJE=F Cont=F.
[...]
 Aft SD4 bucket IAD2 number    23 has length        16338 dot= 0.11435882D+00
 Aft SD4 bucket IAD3 number    24 is not present.
 Aft SD4 bucket IWS1 number    30 has length          615 dot= 0.12361273D-02
 Aft SD4 bucket IWS2 number    31 has length          207 dot= 0.78570149D-03
 Aft SD4 bucket IWD1 number    27 has length         7919 dot= 0.13121137D-02
 Aft SD4 bucket IWD2 number    28 has length        16338 dot= 0.17828335D-01
 Aft SD4 bucket IWD3 number    29 is not present.
 Aft SD4 bucket IWAI1 number     0 is not present.
 Aft SD4 bucket IWAI2 number     0 is not present.
 Aft SD4 bucket IWAI3 number     0 is not present.
 Aft SD4 bucket IWAI4 number     0 is not present.
 TestDE:  II= 99 I=2 DE=    0.330660362298D-01
 TestDE:  II= 99 I=1 DE=    0.316610053135D-02
 TestDE:  II= 99 I=3 DE=    0.000000000000D+00
 Aft DS4 bucket IAS1 number    25 has length          615 dot= 0.12919648D-01
 Aft DS4 bucket IAS2 number    26 has length          207 dot= 0.12181874D-01
 Aft DS4 bucket IAD1 number    22 has length         7919 dot= 0.14711674D-01
 Aft DS4 bucket IAD2 number    23 has length        16338 dot= 0.11435882D+00
 Aft DS4 bucket IAD3 number    24 is not present.
 Aft DS4 bucket IWS1 number    30 has length          615 dot= 0.12361273D-02
 Aft DS4 bucket IWS2 number    31 has length          207 dot= 0.78570149D-03
 Aft DS4 bucket IWD1 number    27 has length         7919 dot= 0.10601953D-02
 Aft DS4 bucket IWD2 number    28 has length        16338 dot= 0.16319721D-01
 Aft DS4 bucket IWD3 number    29 is not present.
 Aft DS4 bucket IWAI1 number     0 is not present.
 Aft DS4 bucket IWAI2 number     0 is not present.
 Aft DS4 bucket IWAI3 number     0 is not present.
 Aft DS4 bucket IWAI4 number     0 is not present.
 Bef SD5a bucket IAS1 number    25 has length          615 dot= 0.12919648D-01
 Bef SD5a bucket IAS2 number    26 has length          207 dot= 0.12181874D-01
 Bef SD5a bucket IAD1 number 12999 has length         7919 dot= 0.14894958D-01
 Bef SD5a bucket IAD2 number 12998 has length        16338 dot= 0.11489748D+00
 Bef SD5a bucket IAD3 number     0 is not present.
 Bef SD5a bucket IWS1 number    30 has length          615 dot= 0.12361273D-02
 Bef SD5a bucket IWS2 number    31 has length          207 dot= 0.78570149D-03
 Bef SD5a bucket IWD1 number    27 has length         7919 dot= 0.10601953D-02
 Bef SD5a bucket IWD2 number    28 has length        16338 dot= 0.16319721D-01
 Bef SD5a bucket IWD3 number    29 is not present.
 Bef SD5a bucket IWAI1 number     0 is not present.
 Bef SD5a bucket IWAI2 number     0 is not present.
 Bef SD5a bucket IWAI3 number     0 is not present.
 Bef SD5a bucket IWAI4 number     0 is not present.
 Bef SD5b bucket IAS1 number     0 is not present.
 Bef SD5b bucket IAS2 number     0 is not present.
 Bef SD5b bucket IAD1 number     0 is not present.
 Bef SD5b bucket IAD2 number     0 is not present.
 Bef SD5b bucket IAD3 number     0 is not present.
 Bef SD5b bucket IWS1 number    30 has length          615 dot= 0.12361273D-02
 Bef SD5b bucket IWS2 number    31 has length          207 dot= 0.78570149D-03
 Bef SD5b bucket IWD1 number    27 has length         7919 dot= 0.10601953D-02
 Bef SD5b bucket IWD2 number    28 has length        16338 dot= 0.16319721D-01
 Bef SD5b bucket IWD3 number    29 is not present.
 Bef SD5b bucket IWAI1 number     0 is not present.
 Bef SD5b bucket IWAI2 number     0 is not present.
 Bef SD5b bucket IWAI3 number     0 is not present.
 Bef SD5b bucket IWAI4 number     0 is not present.
 TestDE:  II= 19 I=1 DE=    0.318450619069D-02
 TestDE:  II= 19 I=2 DE=    0.337051594108D-01
 TestDE:  II= 19 I=3 DE=    0.000000000000D+00
 Aft SD5 bucket IAS1 number    25 has length          615 dot= 0.12919648D-01
 Aft SD5 bucket IAS2 number    26 has length          207 dot= 0.12181874D-01
 Aft SD5 bucket IAD1 number    22 has length         7919 dot= 0.14711674D-01
 Aft SD5 bucket IAD2 number    23 has length        16338 dot= 0.11435882D+00
 Aft SD5 bucket IAD3 number    24 is not present.
 Aft SD5 bucket IWS1 number    30 has length          615 dot= 0.11890040D-02
 Aft SD5 bucket IWS2 number    31 has length          207 dot= 0.66954045D-03
 Aft SD5 bucket IWD1 number    27 has length         7919 dot= 0.10265848D-02
 Aft SD5 bucket IWD2 number    28 has length        16338 dot= 0.16574564D-01
 Aft SD5 bucket IWD3 number    29 is not present.
 Aft SD5 bucket IWAI1 number     0 is not present.
 Aft SD5 bucket IWAI2 number     0 is not present.
 Aft SD5 bucket IWAI3 number     0 is not present.
 Aft SD5 bucket IWAI4 number     0 is not present.
 Contribution from DD1=    0.36889666D-01
 Bef DD2 bucket IAS1 number    25 has length          615 dot= 0.12919648D-01
 Bef DD2 bucket IAS2 number    26 has length          207 dot= 0.12181874D-01
 Bef DD2 bucket IAD1 number    22 has length         7919 dot= 0.14711674D-01
 Bef DD2 bucket IAD2 number    23 has length        16338 dot= 0.11435882D+00
 Bef DD2 bucket IAD3 number    24 is not present.
 Bef DD2 bucket IWS1 number    30 has length          615 dot= 0.11890040D-02
 Bef DD2 bucket IWS2 number    31 has length          207 dot= 0.66954045D-03
 Bef DD2 bucket IWD1 number    27 has length         7919 dot= 0.10265848D-02
 Bef DD2 bucket IWD2 number    28 has length        16338 dot= 0.16574564D-01
 Bef DD2 bucket IWD3 number    29 is not present.
 Bef DD2 bucket IWAI1 number     0 is not present.
 Bef DD2 bucket IWAI2 number     0 is not present.
 Bef DD2 bucket IWAI3 number     0 is not present.
 Bef DD2 bucket IWAI4 number     0 is not present.
 ExpSMa:  Full in-core algorithm.
 ExpSMa:  Full in-core algorithm.
 ExpSMa:  Full in-core algorithm.
 TestDE:  II=419 I=1 DE=    0.581208701031D-02
 TestDE:  II=419 I=2 DE=    0.545849777803D-01
 TestDE:  II=419 I=3 DE=    0.000000000000D+00
 Aft DD2 bucket IAS1 number    25 has length          615 dot= 0.12919648D-01
 Aft DD2 bucket IAS2 number    26 has length          207 dot= 0.12181874D-01
 Aft DD2 bucket IAD1 number    22 has length         7919 dot= 0.14711674D-01
 Aft DD2 bucket IAD2 number    23 has length        16338 dot= 0.11435882D+00
 Aft DD2 bucket IAD3 number    24 is not present.
 Aft DD2 bucket IWS1 number    30 has length          615 dot= 0.11890040D-02
 Aft DD2 bucket IWS2 number    31 has length          207 dot= 0.66954045D-03
 Aft DD2 bucket IWD1 number    27 has length         7919 dot= 0.27257585D-02
 Aft DD2 bucket IWD2 number    28 has length        16338 dot= 0.33156872D-01
 Aft DD2 bucket IWD3 number    29 is not present.
 Aft DD2 bucket IWAI1 number     0 is not present.
 Aft DD2 bucket IWAI2 number     0 is not present.
 Aft DD2 bucket IWAI3 number     0 is not present.
 Aft DD2 bucket IWAI4 number     0 is not present.
 Contribution from DD2=    0.23507399D-01
 Contribution from DD3=    0.00000000D+00
 Singles added:  Sum=    0.54587632D-01
 End CIDS3 bucket IAS1 number    25 has length          615 dot= 0.12919648D-01
 End CIDS3 bucket IAS2 number    26 has length          207 dot= 0.12181874D-01
 End CIDS3 bucket IAD1 number    22 has length         7919 dot= 0.14711674D-01
 End CIDS3 bucket IAD2 number    23 has length        16338 dot= 0.11435882D+00
 End CIDS3 bucket IAD3 number    24 is not present.
 End CIDS3 bucket IWS1 number    30 has length          615 dot= 0.11890040D-02
 End CIDS3 bucket IWS2 number    31 has length          207 dot= 0.66954045D-03
 End CIDS3 bucket IWD1 number    27 has length         7919 dot= 0.27257585D-02
 End CIDS3 bucket IWD2 number    28 has length        16338 dot= 0.33156872D-01
 End CIDS3 bucket IWD3 number    29 is not present.
 End CIDS3 bucket IWAI1 number     0 is not present.
 End CIDS3 bucket IWAI2 number     0 is not present.
 End CIDS3 bucket IWAI3 number     0 is not present.
 End CIDS3 bucket IWAI4 number     0 is not present.
 Entering DoROCS
 TestDE:  II= 99 I=2 DE=    0.545849777803D-01
 TestDE:  II= 99 I=1 DE=    0.581208701031D-02
 TestDE:  II= 99 I=3 DE=    0.000000000000D+00
 TestDE:  II= 99 I=1 DE=    0.611695269324D-02
 TestDE:  II= 11 I=2 DE=    0.545849777803D-01
 TestDE:  II= 99 I=2 DE=    0.560346855608D-01
 TestDE:  II= 98 I=2 DE=    0.575904561511D-01
 TestDE:  II= 98 I=3 DE=    0.000000000000D+00
 TestDE:  II= 89 I=1 DE=    0.654508973164D-02
 TestDE:  II= 89 I=2 DE=    0.598832048783D-01
 TestDE:  II= 88 I=3 DE=    0.000000000000D+00
 TestDE:  II= 88 I=2 DE=    0.643152693279D-01
 TestDE:  II=  5 I=1 DE=   -0.111459262175D-01
 TestDE:  II=  7 I=2 DE=    0.264102006480D-01
 TestDE:  II=  8 I=2 DE=   -0.505007399241D-01
 TestDE:  II=  9 I=3 DE=    0.000000000000D+00
 TestDE:  II= 50 I=1 DE=   -0.460083648588D-02
 TestDE:  II= 70 I=2 DE=   -0.240905392761D-01
 TestDE:  II= 90 I=3 DE=    0.000000000000D+00
 UMP4Q scratch file information:
   i      file        len
 ---     ------    ------
   1      19999     49893
   2      19998     49893
   3      19997     49893
   4      19996     49893
   5      19995     49893
   6      19994     42849
 total scratch length=      292314
 TestDE:  II= 71 I=2 DE=    0.892012572375D-04
 TestDE:  II= 70 I=2 DE=   -0.140203045721D-04
 TestDE:  II= 72 I=2 DE=    0.430709169996D-04
 TestDE:  II= 75 I=2 DE=   -0.241717785735D-01
 TestDE:  II= 75 I=1 DE=   -0.463597998793D-02
 TestDE:  II= 75 I=3 DE=    0.000000000000D+00
 GetDE: DE=      0.00000000D+00
 TestDE:  II= 65 I=1 DE=    0.147117520657D-01
 TestDE:  II= 65 I=2 DE=    0.114358778376D+00
 TestDE:  II= 65 I=3 DE=    0.000000000000D+00
 Singles A-vector converged to   1.2381807D-08
 Singles A-vector converged to   3.4690041D-08
 The Euclidean norm of the A-vectors is   5.2083468D-08
 The Euclidean norm of the A-vectors is   6.1010228D-08
 A(0)= 0.10000E+01      ANORM= 0.10743E+01      W(0)=-0.50359986E-01
 DE(Corr)= -0.52518324E-01 E(CORR)=     -759.77534455     Delta=-7.89D-09
 NORM(A)=   0.10743241D+01
 Wavefunction amplitudes converged. E(Corr)=     -759.77534455    
 Largest amplitude= 8.23D-02
    T4(aaa)= -0.74002925D-04
    T5(aaa)= -0.21420067D-06
    T4(aab)= -0.31072197D-02
    T5(aab)= -0.68471300D-04
 Time for triples=      157.36 seconds.
 T4(CCSD)= -0.31812226D-02
 T5(CCSD)= -0.68685500D-04
 CCSD(T)= -0.75977859446D+03
 Discarding MO integrals.

 **********************************************************************

            Population analysis using the SCF density.

 **********************************************************************

 Orbital symmetries:
       Occupied  (A1G) (A1G) (T1U) (T1U) (T1U) (A1G) (?A) (?A)
                 (?A) (?B) (?A) (?C)
       Virtual   (?B) (?A) (?A) (?B) (?C) (?C) (?B) (?C) (?A) (?A)
                 (?A) (?B) (?B) (?C) (?C) (?B) (?C) (?A) (?B) (?A)
                 (?C) (?A) (?C) (?B) (?A) (?A) (?A) (?D) (?A) (?A)
                 (?A) (?B) (?B) (?C) (?C) (?C) (?B) (?C) (?C) (?C)
                 (?B) (?C) (?B) (?C) (?C) (?B) (?A) (?A) (?A) (?A)
                 (?A) (?A) (?D) (?A) (?A) (?A) (?D) (?A) (?A) (?A)
                 (?A) (?A) (?A) (?D) (?A) (?A) (?A) (?B) (?B) (?C)
                 (?C) (?C) (?B) (?C) (?C) (?C) (?B) (?B) (?C) (?C)
                 (?C) (?C) (?B) (?C) (?B) (?C) (?C) (?C) (?B) (?C)
                 (?C) (?B) (?C) (?C) (?B) (?A) (?A) (?A) (?A) (?A)
                 (?A) (?D) (?A) (?A) (?A) (?A) (?D) (?A) (?A) (?A)
                 (?A) (?A) (?D) (?A) (?A) (?A) (?A) (?A) (?A) (?D)
                 (?A) (?A) (?A) (?A) (?D) (?A) (?A) (?D) (?A) (?A)
                 (?A) (?E) (?C) (?C) (?E) (?C) (?C) (?C) (?C) (?E)
                 (?E) (?C) (?C) (?C) (?E) (T1U) (T1U) (T1U) (?E)
                 (?C) (?C) (?C) (?E) (?C) (?C) (?E) (?C) (?C) (?C)
                 (?C) (?E) (?E) (?A) (?A) (?A) (?A) (?D) (?A) (?A)
                 (?D) (?A) (?A) (?A) (?A) (?A) (?A) (?D) (?A) (?A)
                 (?A) (?F) (?F) (?F) (?F) (?F) (?F) (?F) (?F) (?F)
                 (?F) (?F) (?F) (?F) (?F) (T1U) (T1U) (T1U) (?F)
                 (?F) (?F) (?F) (A2U) (?F) (?F) (A1G)
 Unable to determine electronic state:  an orbital has unidentified symmetry.
 Alpha  occ. eigenvalues -- -165.75962 -18.94678 -15.53614 -15.53477 -15.53435
 Alpha  occ. eigenvalues --   -2.45402  -1.48053  -1.48047  -1.44712  -0.20489
 Alpha  occ. eigenvalues --   -0.09158   0.00952
 Alpha virt. eigenvalues --    0.09101   0.12072   0.12172   0.16726   0.16841
 Alpha virt. eigenvalues --    0.17372   0.17375   0.17402   0.18895   0.20064
 Alpha virt. eigenvalues --    0.20237   0.21139   0.26111   0.26622   0.26762
 Alpha virt. eigenvalues --    0.28265   0.36959   0.41230   0.41346   0.41421
 Alpha virt. eigenvalues --    0.41635   0.41792   0.41994   0.43243   0.49147
 Alpha virt. eigenvalues --    0.49149   0.49432   0.49432   0.49725   0.49787
 Alpha virt. eigenvalues --    0.49886   0.52360   0.70604   0.70604   0.71220
 Alpha virt. eigenvalues --    0.71221   0.71631   0.71659   0.71839   0.71995
 Alpha virt. eigenvalues --    0.72025   0.77071   0.80385   0.80586   0.81136
 Alpha virt. eigenvalues --    0.82199   0.85961   0.86377   0.87287   1.02145
 Alpha virt. eigenvalues --    1.02145   1.02815   1.02815   1.03295   1.03299
 Alpha virt. eigenvalues --    1.03580   1.03642   1.03738   1.03950   1.03959
 Alpha virt. eigenvalues --    1.09791   1.09829   1.09858   1.09982   1.10381
 Alpha virt. eigenvalues --    1.11120   1.11129   1.38238   1.55851   1.55851
 Alpha virt. eigenvalues --    1.56488   1.56501   1.56910   1.57036   1.57178
 Alpha virt. eigenvalues --    1.57535   1.57559   1.61816   1.62813   1.62813
 Alpha virt. eigenvalues --    1.63495   1.63495   1.63995   1.63996   1.64089
 Alpha virt. eigenvalues --    1.64316   1.64334   1.64348   1.64480   1.64634
 Alpha virt. eigenvalues --    1.64646   1.64939   1.64960   1.64963   1.66225
 Alpha virt. eigenvalues --    1.72246   1.73110   1.74101   2.22534   2.22534
 Alpha virt. eigenvalues --    2.23293   2.23299   2.23674   2.23777   2.23858
 Alpha virt. eigenvalues --    2.24179   2.24187   2.24727   2.24728   2.33196
 Alpha virt. eigenvalues --    2.33328   2.33359   2.34122   2.34606   2.35263
 Alpha virt. eigenvalues --    2.35516   3.00740   3.00740   3.01458   3.01458
 Alpha virt. eigenvalues --    3.01947   3.01952   3.02172   3.02260   3.02277
 Alpha virt. eigenvalues --    3.02499   3.02515   3.02857   3.02857   3.03320
 Alpha virt. eigenvalues --    3.03320   3.23900   3.23908   3.24404   3.24486
 Alpha virt. eigenvalues --    3.24796   3.25120   3.25198   3.25820   3.25831
 Alpha virt. eigenvalues --    3.46792   3.47458   3.47883   3.48326   3.49965
 Alpha virt. eigenvalues --    3.52733   3.54401   3.55098   3.74391   3.74391
 Alpha virt. eigenvalues --    3.75203   3.75210   3.75472   3.75564   3.75650
 Alpha virt. eigenvalues --    3.75918   3.75962   3.76434   3.76439   3.77116
 Alpha virt. eigenvalues --    3.77117   4.14127   4.57382   4.57383   4.58035
 Alpha virt. eigenvalues --    4.58156   4.58180   4.58499   4.58606   4.59171
 Alpha virt. eigenvalues --    4.59174   4.60040   4.60041   5.07534   5.07538
 Alpha virt. eigenvalues --    5.07538   5.07901   5.08834   5.09131   5.09359
 Alpha virt. eigenvalues --    6.63824   6.63866   6.64151   6.64350   6.64587
 Alpha virt. eigenvalues --    6.65107   6.65148   6.65994   6.66002   7.89666
 Alpha virt. eigenvalues --    7.90173   7.90271   7.90414   7.92170   8.62660
 Alpha virt. eigenvalues --    8.65009   8.65298  11.31887  11.32011  11.32138
 Alpha virt. eigenvalues --   11.32394  11.33179  11.33648  11.33698  23.46681
          Condensed to atoms (all electrons):
              1
     1  Sc  22.000000
          Atomic-Atomic Spin Densities.
              1
     1  Sc   2.000000
 Mulliken charges and spin densities:
              1          2
     1  Sc  -1.000000   2.000000
 Sum of Mulliken charges =  -1.00000 spin densities =   2.000000
 Mulliken charges and spin densities with hydrogens summed into heavy atoms:
              1          2
     1  Sc  -1.000000   2.000000
 Sum of Mulliken charges with hydrogens summed into heavy atoms =  -1.00000 spin densities =   2.000000
 Electronic spatial extent (au):  <R**2>=            114.7707
 Charge=             -1.0000 electrons
 Dipole moment (field-independent basis, Debye):
    X=              0.0000    Y=              0.0000    Z=              0.0000  Tot=              0.0000
 Quadrupole moment (field-independent basis, Debye-Ang):
   XX=            -41.7302   YY=            -41.4536   ZZ=            -71.1867
   XY=              0.0000   XZ=              0.0000   YZ=              0.0000
 Traceless Quadrupole moment (field-independent basis, Debye-Ang):
   XX=              9.7266   YY=             10.0032   ZZ=            -19.7298
   XY=              0.0000   XZ=              0.0000   YZ=              0.0000
 Octapole moment (field-independent basis, Debye-Ang**2):
  XXX=              0.0000  YYY=              0.0000  ZZZ=              0.0000  XYY=              0.0000
  XXY=              0.0000  XXZ=              0.0000  XZZ=              0.0000  YZZ=              0.0000
  YYZ=              0.0000  XYZ=              0.0000
 Hexadecapole moment (field-independent basis, Debye-Ang**3):
 XXXX=           -285.0897 YYYY=           -291.9100 ZZZZ=           -880.1651 XXXY=              0.0000
 XXXZ=              0.0000 YYYX=              0.0000 YYYZ=              0.0000 ZZZX=              0.0000
 ZZZY=              0.0000 XXYY=            -96.1498 XXZZ=           -195.1989 YYZZ=           -195.4173
 XXYZ=              0.0000 YYXZ=              0.0000 ZZXY=              0.0000
 N-N= 0.000000000000D+00 E-N=-2.693947493607D+03  KE= 1.138004318575D+03
                          Isotropic Fermi Contact Couplings
        Atom                 a.u.       MegaHertz       Gauss      10(-4) cm-1
     1  Sc(45)             0.00000       0.00000       0.00000       0.00000
 --------------------------------------------------------
       Center         ----  Spin Dipole Couplings  ----
                      3XX-RR        3YY-RR        3ZZ-RR
 --------------------------------------------------------
     1   Atom        0.261472     -0.953970      0.692498
 --------------------------------------------------------
                        XY            XZ            YZ
 --------------------------------------------------------
     1   Atom        0.000000      0.000000      0.000000
 --------------------------------------------------------


 ---------------------------------------------------------------------------------
              Anisotropic Spin Dipole Couplings in Principal Axis System
 ---------------------------------------------------------------------------------

       Atom             a.u.   MegaHertz   Gauss  10(-4) cm-1        Axes

              Baa    -0.9540  -123.838   -44.188   -41.308  0.0000  1.0000  0.0000
     1 Sc(45) Bbb     0.2615    33.942    12.112    11.322  1.0000  0.0000  0.0000
              Bcc     0.6925    89.895    32.077    29.986  0.0000  0.0000  1.0000
 

 ---------------------------------------------------------------------------------


 Test job not archived.
 1\1\GINC-C28\SP\ROCCSD(T)-RW\Gen\Sc1(1-,3)\GPETERSSON\08-Mar-2013\0\\#
  ROCCSD(T,RW) Gen GFinput Int=NoBasisTransform Int(Grid=Ultrafine) IOp
 (3/32=2,5/6=10,8/11=1,9/33=1) Maxdisk=128GB Guess=Read\\Sc- 3F\\-1,3\S
 c\\Version=EM64L-GDVRevH.12\HF=-759.7228262\MP2=-759.7633353\MP3=-759.
 7703714\PUHF=-759.7228262\PMP2-0=-759.7633353\MP4SDQ=-759.7731746\CCSD
 =-759.7753446\CCSD(T)=-759.7785945\RMSD=4.555e-12\PG=OH [O(Sc1)]\\@


 IT IS A PROFOUNDLY ERRONEOUS TRUISM ... THAT WE SHOULD CULTIVATE
 THE HABIT OF THINKING OF WHAT WE ARE DOING.
 THE PRECISE OPPOSITE IS THE CASE.
 CIVILIZATION ADVANCES BY EXTENDING THE NUMBER OF IMPORTANT OPERATIONS
 WHICH WE CAN PERFORM WITHOUT THINKING ABOUT THEM.

                                    -- ALFRED NORTH WHITEHEAD
 Job cpu time:  2 days  1 hours 48 minutes 41.9 seconds.
 File lengths (MBytes):  RWF=    771 Int=      0 D2E=      0 Chk=      5 Scr=      1
 Normal termination of Gaussian DV at Fri Mar  8 06:50:37 2013.
