 Entering Gaussian System, Link 0=g09
 AtFile(1): 4ZaPa-NR.gbs
 Initial command:
 /share/apps/gaussian/g09root/g09/l1.exe /localscratch/59662/Gau-28891.inp -scrdir=/localscratch/59662/
 Entering Link 1 = /share/apps/gaussian/g09root/g09/l1.exe PID=     28892.
  
 Copyright (c) 1988,1990,1992,1993,1995,1998,2003,2009, Gaussian, Inc.
                  All Rights Reserved.
  
 This is part of the Gaussian(R) 09 program.  It is based on
 the Gaussian(R) 03 system (copyright 2003, Gaussian, Inc.),
 the Gaussian(R) 98 system (copyright 1998, Gaussian, Inc.),
 the Gaussian(R) 94 system (copyright 1995, Gaussian, Inc.),
 the Gaussian 92(TM) system (copyright 1992, Gaussian, Inc.),
 the Gaussian 90(TM) system (copyright 1990, Gaussian, Inc.),
 the Gaussian 88(TM) system (copyright 1988, Gaussian, Inc.),
 the Gaussian 86(TM) system (copyright 1986, Carnegie Mellon
 University), and the Gaussian 82(TM) system (copyright 1983,
 Carnegie Mellon University). Gaussian is a federally registered
 trademark of Gaussian, Inc.
  
 This software contains proprietary and confidential information,
 including trade secrets, belonging to Gaussian, Inc.
  
 This software is provided under written license and may be
 used, copied, transmitted, or stored only in accord with that
 written license.
  
 The following legend is applicable only to US Government
 contracts under FAR:
  
                    RESTRICTED RIGHTS LEGEND
  
 Use, reproduction and disclosure by the US Government is
 subject to restrictions as set forth in subparagraphs (a)
 and (c) of the Commercial Computer Software - Restricted
 Rights clause in FAR 52.227-19.
  
 Gaussian, Inc.
 340 Quinnipiac St., Bldg. 40, Wallingford CT 06492
  
  
 ---------------------------------------------------------------
 Warning -- This program may not be used in any manner that
 competes with the business of Gaussian, Inc. or will provide
 assistance to any competitor of Gaussian, Inc.  The licensee
 of this program is prohibited from giving any competitor of
 Gaussian, Inc. access to this program.  By using this program,
 the user acknowledges that Gaussian, Inc. is engaged in the
 business of creating and licensing software in the field of
 computational chemistry and represents and warrants to the
 licensee that it is not a competitor of Gaussian, Inc. and that
 it will not use this program in any manner prohibited above.
 ---------------------------------------------------------------
  

 Cite this work as:
 Gaussian 09, Revision A.02,
 M. J. Frisch, G. W. Trucks, H. B. Schlegel, G. E. Scuseria, 
 M. A. Robb, J. R. Cheeseman, G. Scalmani, V. Barone, B. Mennucci, 
 G. A. Petersson, H. Nakatsuji, M. Caricato, X. Li, H. P. Hratchian, 
 A. F. Izmaylov, J. Bloino, G. Zheng, J. L. Sonnenberg, M. Hada, 
 M. Ehara, K. Toyota, R. Fukuda, J. Hasegawa, M. Ishida, T. Nakajima, 
 Y. Honda, O. Kitao, H. Nakai, T. Vreven, J. A. Montgomery, Jr., 
 J. E. Peralta, F. Ogliaro, M. Bearpark, J. J. Heyd, E. Brothers, 
 K. N. Kudin, V. N. Staroverov, R. Kobayashi, J. Normand, 
 K. Raghavachari, A. Rendell, J. C. Burant, S. S. Iyengar, J. Tomasi, 
 M. Cossi, N. Rega, J. M. Millam, M. Klene, J. E. Knox, J. B. Cross, 
 V. Bakken, C. Adamo, J. Jaramillo, R. Gomperts, R. E. Stratmann, 
 O. Yazyev, A. J. Austin, R. Cammi, C. Pomelli, J. W. Ochterski, 
 R. L. Martin, K. Morokuma, V. G. Zakrzewski, G. A. Voth, 
 P. Salvador, J. J. Dannenberg, S. Dapprich, A. D. Daniels, 
 O. Farkas, J. B. Foresman, J. V. Ortiz, J. Cioslowski, 
 and D. J. Fox, Gaussian, Inc., Wallingford CT, 2009.
 
 ******************************************
 Gaussian 09:  EM64L-G09RevA.02 11-Jun-2009
                11-Oct-2013 
 ******************************************
 % Mem=64GB
 % Nproc=16
 Will use up to   16 processors via shared memory.
 % Chk=Sc_4F.chk
 ----------------------------------------------------------------------
 #P CAS(3,6,StateAverage,nroot=7,Slater) Gen GFinput Int=NoBasisTransfo
 rm Int(Grid=Ultrafine) Pop=Full Guess=Print IOp(3/32=2,5/6=10,5/15=2) 
 Maxdisk=128GB SCF=(Symm,Tight)
 ----------------------------------------------------------------------
 1/38=1/1;
 2/12=2,17=6,18=5,40=1/2;
 3/5=7,16=1,24=10,25=1,32=2,60=-1,75=-5,116=101/1,2,3;
 4/9=4,17=3,18=6,21=10,33=2/1,5;
 5/5=2,6=10,15=2,17=11000000,28=7,32=2,38=5/10;
 6/7=3,28=1/1;
 99/5=1,9=1/99;
 Leave Link    1 at Fri Oct 11 13:16:39 2013, MaxMem= 8589934592 cpu:      11.4
 (Enter /share/apps/gaussian/g09root/g09/l101.exe)
 -----
 Sc 4F
 -----
 Symbolic Z-matrix:
 Charge =  0 Multiplicity = 4
 Sc
 
 NAtoms=      1 NQM=      1 NQMF=      0 NMic=      0 NMicF=      0 NTot=      1.
                    Isotopes and Nuclear Properties:
 (Nuclear quadrupole moments (NQMom) in fm**2, nuclear magnetic moments (NMagM)
  in nuclear magnetons)

  Atom         1
 IAtWgt=          45
 AtmWgt=  44.9559136
 NucSpn=           7
 AtZEff=   0.0000000
 NQMom=  -22.0000000
 NMagM=    4.7564830
 Leave Link  101 at Fri Oct 11 13:16:40 2013, MaxMem= 8589934592 cpu:      23.3
 (Enter /share/apps/gaussian/g09root/g09/l202.exe)
                          Input orientation:                          
 ---------------------------------------------------------------------
 Center     Atomic      Atomic             Coordinates (Angstroms)
 Number     Number       Type             X           Y           Z
 ---------------------------------------------------------------------
      1         21           0        0.000000    0.000000    0.000000
 ---------------------------------------------------------------------
 Stoichiometry    Sc(4)
 Framework group  OH[O(Sc)]
 Deg. of freedom     0
 Full point group                 OH      NOp  48
 Largest Abelian subgroup         D2H     NOp   8
 Largest concise Abelian subgroup C1      NOp   1
                         Standard orientation:                         
 ---------------------------------------------------------------------
 Center     Atomic      Atomic             Coordinates (Angstroms)
 Number     Number       Type             X           Y           Z
 ---------------------------------------------------------------------
      1         21           0        0.000000    0.000000    0.000000
 ---------------------------------------------------------------------
 Leave Link  202 at Fri Oct 11 13:16:42 2013, MaxMem= 8589934592 cpu:      25.7
 (Enter /share/apps/gaussian/g09root/g09/l301.exe)
 General basis read from cards:  (5D, 7F)
 Centers:   1
 S 13 1.00 0.000000000000
     Exponent=  1.7767624400D+06 Coefficients=  1.4237864910D-05
     Exponent=  3.0101869500D+05 Coefficients=  1.0086546100D-04
     Exponent=  6.6521401900D+04 Coefficients=  5.7678660850D-04
     Exponent=  1.8093512300D+04 Coefficients=  2.5356220670D-03
     Exponent=  5.7718860200D+03 Coefficients=  9.2576542040D-03
     Exponent=  2.0757490000D+03 Coefficients=  2.8998079640D-02
     Exponent=  8.1517526700D+02 Coefficients=  7.9092205520D-02
     Exponent=  3.4085527800D+02 Coefficients=  1.8202450890D-01
     Exponent=  1.4878585700D+02 Coefficients=  3.2418219920D-01
     Exponent=  6.6772939000D+01 Coefficients=  3.5515136020D-01
     Exponent=  3.0447036000D+01 Coefficients=  1.5491110980D-01
     Exponent=  1.3972577000D+01 Coefficients=  1.2391815840D-02
     Exponent=  6.4008560000D+00 Coefficients=  2.6293277820D-03
 S 9 1.00 0.000000000000
     Exponent=  8.1517526700D+02 Coefficients= -1.2162069770D-03
     Exponent=  3.4085527800D+02 Coefficients= -6.3887377360D-03
     Exponent=  1.4878585700D+02 Coefficients= -3.1032004260D-02
     Exponent=  6.6772939000D+01 Coefficients= -8.5062091480D-02
     Exponent=  3.0447036000D+01 Coefficients= -6.0652744500D-02
     Exponent=  1.3972577000D+01 Coefficients=  2.8355579360D-01
     Exponent=  6.4008560000D+00 Coefficients=  6.0408953670D-01
     Exponent=  2.9038450000D+00 Coefficients=  2.4221791120D-01
     Exponent=  1.2932010000D+00 Coefficients=  5.2598945150D-03
 P 11 1.00 0.000000000000
     Exponent=  4.6544749400D+03 Coefficients=  1.8299550020D-04
     Exponent=  1.1279454700D+03 Coefficients=  1.6051810430D-03
     Exponent=  3.5883123400D+02 Coefficients=  9.2155765940D-03
     Exponent=  1.3617618200D+02 Coefficients=  3.6681009010D-02
     Exponent=  5.7618294000D+01 Coefficients=  1.1148627960D-01
     Exponent=  2.5972367000D+01 Coefficients=  2.4636049450D-01
     Exponent=  1.2111297000D+01 Coefficients=  3.7625550670D-01
     Exponent=  5.7307960000D+00 Coefficients=  3.1767527650D-01
     Exponent=  2.7100120000D+00 Coefficients=  9.2660790230D-02
     Exponent=  1.2589380000D+00 Coefficients=  5.6325973550D-03
     Exponent=  5.6028100000D-01 Coefficients=  5.6018016100D-04
 S 8 1.00 0.000000000000
     Exponent=  6.6772939000D+01 Coefficients=  1.4202862160D-03
     Exponent=  3.0447036000D+01 Coefficients=  1.7663954540D-03
     Exponent=  1.3972577000D+01 Coefficients= -1.5006297400D-02
     Exponent=  6.4008560000D+00 Coefficients= -1.7154574540D-01
     Exponent=  2.9038450000D+00 Coefficients= -1.4187173480D-01
     Exponent=  1.2932010000D+00 Coefficients=  5.2385113520D-01
     Exponent=  5.5934300000D-01 Coefficients=  6.1613437970D-01
     Exponent=  2.3178800000D-01 Coefficients=  8.2065892190D-02
 P 10 1.00 0.000000000000
     Exponent=  3.5883123400D+02 Coefficients= -2.2357566480D-05
     Exponent=  1.3617618200D+02 Coefficients= -2.1402476730D-04
     Exponent=  5.7618294000D+01 Coefficients= -1.7375434380D-03
     Exponent=  2.5972367000D+01 Coefficients= -6.6587623200D-03
     Exponent=  1.2111297000D+01 Coefficients= -1.8238574820D-02
     Exponent=  5.7307960000D+00 Coefficients= -1.1185531440D-02
     Exponent=  2.7100120000D+00 Coefficients=  1.5902508630D-01
     Exponent=  1.2589380000D+00 Coefficients=  4.3518446210D-01
     Exponent=  5.6028100000D-01 Coefficients=  4.2760453120D-01
     Exponent=  2.2972200000D-01 Coefficients=  1.0929266950D-01
 D 10 1.00 0.000000000000
     Exponent=  1.5925995200D+02 Coefficients=  4.4106918470D-04
     Exponent=  4.8052177000D+01 Coefficients=  3.8970100590D-03
     Exponent=  1.8166157000D+01 Coefficients=  1.8225987860D-02
     Exponent=  7.7741980000D+00 Coefficients=  5.4975624830D-02
     Exponent=  3.5322250000D+00 Coefficients=  1.3605243970D-01
     Exponent=  1.6416220000D+00 Coefficients=  2.4205968350D-01
     Exponent=  7.6427800000D-01 Coefficients=  3.1593244450D-01
     Exponent=  3.5108200000D-01 Coefficients=  3.1690461150D-01
     Exponent=  1.5598800000D-01 Coefficients=  2.1274425000D-01
     Exponent=  6.4711000000D-02 Coefficients=  6.4397830250D-02
 D 1 1.00 0.000000000000
     Exponent=  2.7965663540D-02 Coefficients=  1.0000000000D+00
 S 7 1.00 0.000000000000
     Exponent=  6.4008560000D+00 Coefficients=  4.9309997530D-03
     Exponent=  2.9038450000D+00 Coefficients=  1.1218979470D-03
     Exponent=  1.2932010000D+00 Coefficients= -2.4197147830D-02
     Exponent=  5.5934300000D-01 Coefficients= -1.4445992710D-01
     Exponent=  2.3178800000D-01 Coefficients= -1.2431493780D-01
     Exponent=  9.0414000000D-02 Coefficients=  5.7709965630D-01
     Exponent=  3.2453000000D-02 Coefficients=  6.1093019240D-01
 S 1 1.00 0.000000000000
     Exponent=  7.9164751310D-03 Coefficients=  1.0000000000D+00
 P 7 1.00 0.000000000000
     Exponent=  1.2111297000D+01 Coefficients= -3.3898147310D-03
     Exponent=  5.7307960000D+00 Coefficients=  5.3251487510D-03
     Exponent=  2.7100120000D+00 Coefficients= -2.3349452480D-03
     Exponent=  1.2589380000D+00 Coefficients=  6.6280681210D-02
     Exponent=  5.6028100000D-01 Coefficients= -6.4719840610D-02
     Exponent=  2.2972200000D-01 Coefficients=  2.7979017780D-01
     Exponent=  5.7039751400D-02 Coefficients=  8.2727036220D-01
 P 1 1.00 0.000000000000
     Exponent=  1.6118209240D-02 Coefficients=  1.0000000000D+00
 S 1 1.00 0.000000000000
     Exponent=  1.7439500000D-01 Coefficients=  1.0000000000D+00
 S 1 1.00 0.000000000000
     Exponent=  7.3585000000D-02 Coefficients=  1.0000000000D+00
 S 1 1.00 0.000000000000
     Exponent=  3.1048000000D-02 Coefficients=  1.0000000000D+00
 P 1 1.00 0.000000000000
     Exponent=  3.1371300000D-01 Coefficients=  1.0000000000D+00
 P 1 1.00 0.000000000000
     Exponent=  1.3233100000D-01 Coefficients=  1.0000000000D+00
 P 1 1.00 0.000000000000
     Exponent=  5.5820000000D-02 Coefficients=  1.0000000000D+00
 D 1 1.00 0.000000000000
     Exponent=  3.6697400000D-01 Coefficients=  1.0000000000D+00
 D 1 1.00 0.000000000000
     Exponent=  1.6940700000D-01 Coefficients=  1.0000000000D+00
 D 1 1.00 0.000000000000
     Exponent=  7.8203000000D-02 Coefficients=  1.0000000000D+00
 F 1 1.00 0.000000000000
     Exponent=  1.3792720000D+00 Coefficients=  1.0000000000D+00
 F 1 1.00 0.000000000000
     Exponent=  4.3750300000D-01 Coefficients=  1.0000000000D+00
 F 1 1.00 0.000000000000
     Exponent=  1.3877500000D-01 Coefficients=  1.0000000000D+00
 F 1 1.00 0.000000000000
     Exponent=  4.4019000000D-02 Coefficients=  1.0000000000D+00
 G 1 1.00 0.000000000000
     Exponent=  4.5900100000D-01 Coefficients=  1.0000000000D+00
 G 1 1.00 0.000000000000
     Exponent=  1.7212700000D-01 Coefficients=  1.0000000000D+00
 G 1 1.00 0.000000000000
     Exponent=  6.4548000000D-02 Coefficients=  1.0000000000D+00
 H 1 1.00 0.000000000000
     Exponent=  2.6297343320D-01 Coefficients=  1.0000000000D+00
 ****
 AO basis set in the form of general basis input (Overlap normalization):
      1 0
 S  13 1.00       0.000000000000
      0.1776762440D+07  0.1423786491D-04
      0.3010186950D+06  0.1008654610D-03
      0.6652140190D+05  0.5767866085D-03
      0.1809351230D+05  0.2535622067D-02
      0.5771886020D+04  0.9257654205D-02
      0.2075749000D+04  0.2899807964D-01
      0.8151752670D+03  0.7909220553D-01
      0.3408552780D+03  0.1820245089D+00
      0.1487858570D+03  0.3241821992D+00
      0.6677293900D+02  0.3551513602D+00
      0.3044703600D+02  0.1549111098D+00
      0.1397257700D+02  0.1239181584D-01
      0.6400856000D+01  0.2629327782D-02
 S   9 1.00       0.000000000000
      0.8151752670D+03 -0.1216206977D-02
      0.3408552780D+03 -0.6388737736D-02
      0.1487858570D+03 -0.3103200426D-01
      0.6677293900D+02 -0.8506209148D-01
      0.3044703600D+02 -0.6065274450D-01
      0.1397257700D+02  0.2835557936D+00
      0.6400856000D+01  0.6040895367D+00
      0.2903845000D+01  0.2422179112D+00
      0.1293201000D+01  0.5259894515D-02
 P  11 1.00       0.000000000000
      0.4654474940D+04  0.1829955002D-03
      0.1127945470D+04  0.1605181043D-02
      0.3588312340D+03  0.9215576595D-02
      0.1361761820D+03  0.3668100901D-01
      0.5761829400D+02  0.1114862796D+00
      0.2597236700D+02  0.2463604945D+00
      0.1211129700D+02  0.3762555067D+00
      0.5730796000D+01  0.3176752765D+00
      0.2710012000D+01  0.9266079024D-01
      0.1258938000D+01  0.5632597355D-02
      0.5602810000D+00  0.5601801610D-03
 S   8 1.00       0.000000000000
      0.6677293900D+02  0.1420286216D-02
      0.3044703600D+02  0.1766395454D-02
      0.1397257700D+02 -0.1500629740D-01
      0.6400856000D+01 -0.1715457454D+00
      0.2903845000D+01 -0.1418717348D+00
      0.1293201000D+01  0.5238511352D+00
      0.5593430000D+00  0.6161343797D+00
      0.2317880000D+00  0.8206589219D-01
 P  10 1.00       0.000000000000
      0.3588312340D+03 -0.2235756648D-04
      0.1361761820D+03 -0.2140247673D-03
      0.5761829400D+02 -0.1737543438D-02
      0.2597236700D+02 -0.6658762320D-02
      0.1211129700D+02 -0.1823857482D-01
      0.5730796000D+01 -0.1118553144D-01
      0.2710012000D+01  0.1590250863D+00
      0.1258938000D+01  0.4351844621D+00
      0.5602810000D+00  0.4276045312D+00
      0.2297220000D+00  0.1092926695D+00
 D  10 1.00       0.000000000000
      0.1592599520D+03  0.4410691847D-03
      0.4805217700D+02  0.3897010059D-02
      0.1816615700D+02  0.1822598786D-01
      0.7774198000D+01  0.5497562483D-01
      0.3532225000D+01  0.1360524397D+00
      0.1641622000D+01  0.2420596835D+00
      0.7642780000D+00  0.3159324445D+00
      0.3510820000D+00  0.3169046115D+00
      0.1559880000D+00  0.2127442500D+00
      0.6471100000D-01  0.6439783025D-01
 D   1 1.00       0.000000000000
      0.2796566354D-01  0.1000000000D+01
 S   7 1.00       0.000000000000
      0.6400856000D+01  0.4930999753D-02
      0.2903845000D+01  0.1121897947D-02
      0.1293201000D+01 -0.2419714783D-01
      0.5593430000D+00 -0.1444599271D+00
      0.2317880000D+00 -0.1243149378D+00
      0.9041400000D-01  0.5770996563D+00
      0.3245300000D-01  0.6109301924D+00
 S   1 1.00       0.000000000000
      0.7916475131D-02  0.1000000000D+01
 P   7 1.00       0.000000000000
      0.1211129700D+02 -0.3389814731D-02
      0.5730796000D+01  0.5325148751D-02
      0.2710012000D+01 -0.2334945248D-02
      0.1258938000D+01  0.6628068121D-01
      0.5602810000D+00 -0.6471984061D-01
      0.2297220000D+00  0.2797901778D+00
      0.5703975140D-01  0.8272703622D+00
 P   1 1.00       0.000000000000
      0.1611820924D-01  0.1000000000D+01
 S   1 1.00       0.000000000000
      0.1743950000D+00  0.1000000000D+01
 S   1 1.00       0.000000000000
      0.7358500000D-01  0.1000000000D+01
 S   1 1.00       0.000000000000
      0.3104800000D-01  0.1000000000D+01
 P   1 1.00       0.000000000000
      0.3137130000D+00  0.1000000000D+01
 P   1 1.00       0.000000000000
      0.1323310000D+00  0.1000000000D+01
 P   1 1.00       0.000000000000
      0.5582000000D-01  0.1000000000D+01
 D   1 1.00       0.000000000000
      0.3669740000D+00  0.1000000000D+01
 D   1 1.00       0.000000000000
      0.1694070000D+00  0.1000000000D+01
 D   1 1.00       0.000000000000
      0.7820300000D-01  0.1000000000D+01
 F   1 1.00       0.000000000000
      0.1379272000D+01  0.1000000000D+01
 F   1 1.00       0.000000000000
      0.4375030000D+00  0.1000000000D+01
 F   1 1.00       0.000000000000
      0.1387750000D+00  0.1000000000D+01
 F   1 1.00       0.000000000000
      0.4401900000D-01  0.1000000000D+01
 G   1 1.00       0.000000000000
      0.4590010000D+00  0.1000000000D+01
 G   1 1.00       0.000000000000
      0.1721270000D+00  0.1000000000D+01
 G   1 1.00       0.000000000000
      0.6454800000D-01  0.1000000000D+01
 H   1 1.00       0.000000000000
      0.2629734332D+00  0.1000000000D+01
 ****

 There are    27 symmetry adapted basis functions of AG  symmetry.
 There are    11 symmetry adapted basis functions of B1G symmetry.
 There are    11 symmetry adapted basis functions of B2G symmetry.
 There are    11 symmetry adapted basis functions of B3G symmetry.
 There are     6 symmetry adapted basis functions of AU  symmetry.
 There are    18 symmetry adapted basis functions of B1U symmetry.
 There are    18 symmetry adapted basis functions of B2U symmetry.
 There are    18 symmetry adapted basis functions of B3U symmetry.
 Integral buffers will be    131072 words long.
 Regular integral format.
 Two-electron integral symmetry is turned off.
   120 basis functions,   327 primitive gaussians,   165 cartesian basis functions
    12 alpha electrons        9 beta electrons
       nuclear repulsion energy         0.0000000000 Hartrees.
 IExCor=    0 DFT=F Ex=HF Corr=None ExCW=0 ScaHFX=  1.000000
 ScaDFX=  1.000000  1.000000  1.000000  1.000000 ScalE2=  1.000000  1.000000
 IRadAn=      5 IRanWt=     -1 IRanGd=            0 ICorTp=0
 NAtoms=    1 NActive=    1 NUniq=    1 SFac= 7.50D-01 NAtFMM=   80 NAOKFM=F Big=F
 Leave Link  301 at Fri Oct 11 13:16:43 2013, MaxMem= 8589934592 cpu:      13.6
 (Enter /share/apps/gaussian/g09root/g09/l302.exe)
 NPDir=0 NMtPBC=     1 NCelOv=     1 NCel=       1 NClECP=     1 NCelD=      1
         NCelK=      1 NCelE2=     1 NClLst=     1 CellRange=     0.0.
 One-electron integrals computed using PRISM.
 NBasis=   120 RedAO= F  NBF=    27    11    11    11     6    18    18    18
 NBsUse=   120 1.00D-04 NBFU=    27    11    11    11     6    18    18    18
 Leave Link  302 at Fri Oct 11 13:16:44 2013, MaxMem= 8589934592 cpu:      18.3
 (Enter /share/apps/gaussian/g09root/g09/l303.exe)
 DipDrv:  MaxL=1.
 Leave Link  303 at Fri Oct 11 13:16:44 2013, MaxMem= 8589934592 cpu:       1.7
 (Enter /share/apps/gaussian/g09root/g09/l401.exe)
 Initial guess wavefunction:
 Harris functional with IExCor=  205 diagonalized for initial guess.
 ReadGW:  IGet=1 IStart=           1 Next=           1 LGW=           0.
 ExpMin= 7.92D-03 ExpMax= 1.78D+06 ExpMxC= 2.08D+03 IAcc=3 IRadAn=         5 AccDes= 0.00D+00
 HarFok:  IExCor=  205 AccDes= 0.00D+00 IRadAn=         5 IDoV= 1
 ScaDFX=  1.000000  1.000000  1.000000  1.000000
 Pruned (  99, 590) grid will be used in CalDFT.
 CkSvGd:  ISavGI=        -1 IRadAn=       5 IRASav=       0 ISavGd=        -1.
 StAtR1:  I=    1 I1=    1 IA= 21 C=  21.0 OKShel=TTTTTTT
                                                  SSPSPSD
                                                  2262621
          I=    1 IA= 21 I1=    1 NAtG=22 NE= 21 C=  21.000 Err= 2.57D-11
 CalDSu:  NPrtUS=  16 ThrOK=T IAlg=1
 IPart= 0 IRanGd=          0 ScrnBf=T ScrnGd=T RCrit=4.00D+00 DoMicB=T.
 CutRad = 1000.00    CtRdIn =    0.00    XCrit =  15.00   ICut = 0
 IPart= 1 IRanGd=          0 ScrnBf=T ScrnGd=T RCrit=4.00D+00 DoMicB=T.
 CutRad = 1000.00    CtRdIn =    0.00    XCrit =  15.00   ICut = 0
 IPart=10 IRanGd=          0 ScrnBf=T ScrnGd=T RCrit=4.00D+00 DoMicB=T.
 IPart= 2 IRanGd=          0 ScrnBf=T ScrnGd=T RCrit=4.00D+00 DoMicB=T.
 CutRad = 1000.00    CtRdIn =    0.00    XCrit =  15.00   ICut = 0
 CutRad = 1000.00    CtRdIn =    0.00    XCrit =  15.00   ICut = 0
 IPart=15 IRanGd=          0 ScrnBf=T ScrnGd=T RCrit=4.00D+00 DoMicB=T.
 Pruned (  99, 590) grid will be used in CalDFT.
 CutRad = 1000.00    CtRdIn =    0.00    XCrit =  15.00   ICut = 0
 Pruned (  99, 590) grid will be used in CalDFT.
 Pruned (  99, 590) grid will be used in CalDFT.
 Pruned (  99, 590) grid will be used in CalDFT.
 Pruned (  99, 590) grid will be used in CalDFT.
 IPart=10 Atom number   1 atomic number 21 has       30352 grid points.
 IPart= 2 Atom number   1 atomic number 21 has       30352 grid points.
 IPart= 5 IRanGd=          0 ScrnBf=T ScrnGd=T RCrit=4.00D+00 DoMicB=T.
 CutRad = 1000.00    CtRdIn =    0.00    XCrit =  15.00   ICut = 0
 IPart=15 Atom number   1 atomic number 21 has       30352 grid points.
 IPart= 0 Atom number   1 atomic number 21 has       30352 grid points.
 IPart= 2 Atom   1 batch    4 overlaps    1 atoms,    28 shells and     1 DB shells.   NGrid=      1180
 IPart= 0 Atom   1 batch    1 overlaps    1 atoms,    28 shells and     1 DB shells.   NGrid=      1032
 IPart=10 Atom   1 batch    5 overlaps    1 atoms,    28 shells and     1 DB shells.   NGrid=      1180
 IPart=11 IRanGd=          0 ScrnBf=T ScrnGd=T RCrit=4.00D+00 DoMicB=T.
 CutRad = 1000.00    CtRdIn =    0.00    XCrit =  15.00   ICut = 0
 IPart=15 Atom   1 batch    3 overlaps    1 atoms,    28 shells and     1 DB shells.   NGrid=      1812
 IPart= 1 Atom number   1 atomic number 21 has       30352 grid points.
 IPart= 1 Atom   1 batch    2 overlaps    1 atoms,    28 shells and     1 DB shells.   NGrid=      2328
 Pruned (  99, 590) grid will be used in CalDFT.
 IPart= 5 Atom number   1 atomic number 21 has       30352 grid points.
 IPart= 5 Atom   1 batch    6 overlaps    1 atoms,    28 shells and     1 DB shells.   NGrid=      1180
 Pruned (  99, 590) grid will be used in CalDFT.
 IPart=11 Atom number   1 atomic number 21 has       30352 grid points.
 IPart=11 Atom   1 batch    7 overlaps    1 atoms,    28 shells and     1 DB shells.   NGrid=      1180
 IPart= 3 IRanGd=          0 ScrnBf=T ScrnGd=T RCrit=4.00D+00 DoMicB=T.
 CutRad = 1000.00    CtRdIn =    0.00    XCrit =  15.00   ICut = 0
 Symmetry reduced    86 angular points to    16 for atom    1.
 Pruned (  99, 590) grid will be used in CalDFT.
 IPart= 3 Atom number   1 atomic number 21 has       30352 grid points.
 IPart= 3 Atom   1 batch    8 overlaps    1 atoms,    28 shells and     1 DB shells.   NGrid=      1180
 IPart=12 IRanGd=          0 ScrnBf=T ScrnGd=T RCrit=4.00D+00 DoMicB=T.
 Symmetry reduced   194 angular points to    31 for atom    1.
 CutRad = 1000.00    CtRdIn =    0.00    XCrit =  15.00   ICut = 0
 Pruned (  99, 590) grid will be used in CalDFT.
 IPart=12 Atom number   1 atomic number 21 has       30352 grid points.
 IPart=12 Atom   1 batch    9 overlaps    1 atoms,    28 shells and     1 DB shells.   NGrid=      1180
 IPart= 7 IRanGd=          0 ScrnBf=T ScrnGd=T RCrit=4.00D+00 DoMicB=T.
 Symmetry reduced   590 angular points to    85 for atom    1.
 Symmetry reduced   590 angular points to    85 for atom    1.
 Symmetry reduced   590 angular points to    85 for atom    1.
 Symmetry reduced   590 angular points to    85 for atom    1.
 Symmetry reduced   590 angular points to    85 for atom    1.
 Symmetry reduced   590 angular points to    85 for atom    1.
 CutRad = 1000.00    CtRdIn =    0.00    XCrit =  15.00   ICut = 0
 Symmetry reduced   302 angular points to    46 for atom    1.
 Pruned (  99, 590) grid will be used in CalDFT.
 IPart= 7 Atom number   1 atomic number 21 has       30352 grid points.
 IPart= 7 Atom   1 batch   10 overlaps    1 atoms,    28 shells and     1 DB shells.   NGrid=      1180
 Symmetry reduced   590 angular points to    85 for atom    1.
 IPart= 9 IRanGd=          0 ScrnBf=T ScrnGd=T RCrit=4.00D+00 DoMicB=T.
 CutRad = 1000.00    CtRdIn =    0.00    XCrit =  15.00   ICut = 0
 IPart=13 IRanGd=          0 ScrnBf=T ScrnGd=T RCrit=4.00D+00 DoMicB=T.
 CutRad = 1000.00    CtRdIn =    0.00    XCrit =  15.00   ICut = 0
 Pruned (  99, 590) grid will be used in CalDFT.
 IPart=13 Atom number   1 atomic number 21 has       30352 grid points.
 IPart=13 Atom   1 batch   11 overlaps    1 atoms,    27 shells and     1 DB shells.   NGrid=      1180
 Symmetry reduced   590 angular points to    85 for atom    1.
 Pruned (  99, 590) grid will be used in CalDFT.
 IPart= 9 Atom number   1 atomic number 21 has       30352 grid points.
 IPart= 9 Atom   1 batch   12 overlaps    1 atoms,    27 shells and     1 DB shells.   NGrid=      1180
 Symmetry reduced   590 angular points to    85 for atom    1.
 IPart= 8 IRanGd=          0 ScrnBf=T ScrnGd=T RCrit=4.00D+00 DoMicB=T.
 IPart= 4 IRanGd=          0 ScrnBf=T ScrnGd=T RCrit=4.00D+00 DoMicB=T.
 CutRad = 1000.00    CtRdIn =    0.00    XCrit =  15.00   ICut = 0
 CutRad = 1000.00    CtRdIn =    0.00    XCrit =  15.00   ICut = 0
 Pruned (  99, 590) grid will be used in CalDFT.
 IPart= 8 Atom number   1 atomic number 21 has       30352 grid points.
 IPart= 8 Atom   1 batch   13 overlaps    1 atoms,    27 shells and     1 DB shells.   NGrid=      1180
 Pruned (  99, 590) grid will be used in CalDFT.
 IPart= 4 Atom number   1 atomic number 21 has       30352 grid points.
 IPart= 4 Atom   1 batch   14 overlaps    1 atoms,    27 shells and     1 DB shells.   NGrid=      1180
 IPart=14 IRanGd=          0 ScrnBf=T ScrnGd=T RCrit=4.00D+00 DoMicB=T.
 CutRad = 1000.00    CtRdIn =    0.00    XCrit =  15.00   ICut = 0
 Pruned (  99, 590) grid will be used in CalDFT.
 IPart=14 Atom number   1 atomic number 21 has       30352 grid points.
 IPart=14 Atom   1 batch   15 overlaps    1 atoms,    27 shells and     1 DB shells.   NGrid=      1180
 Symmetry reduced   590 angular points to    85 for atom    1.
 IPart= 6 IRanGd=          0 ScrnBf=T ScrnGd=T RCrit=4.00D+00 DoMicB=T.
 CutRad = 1000.00    CtRdIn =    0.00    XCrit =  15.00   ICut = 0
 Symmetry reduced   590 angular points to    85 for atom    1.
 Pruned (  99, 590) grid will be used in CalDFT.
 IPart= 6 Atom number   1 atomic number 21 has       30352 grid points.
 IPart= 6 Atom   1 batch   16 overlaps    1 atoms,    26 shells and     1 DB shells.   NGrid=      1180
 Symmetry reduced   590 angular points to    85 for atom    1.
 Symmetry reduced   590 angular points to    85 for atom    1.
 IPart=10 Atom   1 batch   18 overlaps    1 atoms,    24 shells and     1 DB shells.   NGrid=      1180
 IPart= 2 Atom   1 batch   17 overlaps    1 atoms,    25 shells and     1 DB shells.   NGrid=      1180
 IPart= 3 Atom   1 batch   19 overlaps    1 atoms,    24 shells and     1 DB shells.   NGrid=      1180
 IPart= 7 Atom   1 batch   21 overlaps    1 atoms,    18 shells and     1 DB shells.   NGrid=       590
 IPart= 5 Atom   1 batch   20 overlaps    1 atoms,    21 shells and     1 DB shells.   NGrid=      1180
 IPart= 8 Atom   1 batch   22 overlaps    1 atoms,    17 shells and     1 DB shells.   NGrid=       604
 IPart=13 Atom   1 batch   23 overlaps    1 atoms,    13 shells and     1 DB shells.   NGrid=       604
 IPart= 9 Atom   1 batch   24 overlaps    1 atoms,    12 shells and     0 DB shells.   NGrid=       604
 IPart=15 Atom   1 batch   25 overlaps    1 atoms,     8 shells and     0 DB shells.   NGrid=       604
 IPart= 0 Atom   1 batch   26 overlaps    1 atoms,     5 shells and     0 DB shells.   NGrid=       604
 IPart=14 Atom   1 batch   27 overlaps    1 atoms,     2 shells and     0 DB shells.   NGrid=       604
 IPart=15 Atom   1 batch   28 overlaps    1 atoms,     1 shells and     0 DB shells.   NGrid=       604
 IPart= 7 Atom   1 batch   29 overlaps    1 atoms,     0 shells and     0 DB shells.   NGrid=       302
 IPart= 7          255 of          255 points in       2 batches and        4 microbatches, Max-NSigAt=       1 Max-NSgAt2=       1
 IPart=15          460 of          460 points in       3 batches and        3 microbatches, Max-NSigAt=       1 Max-NSgAt2=       1
 Symmetry reduced   302 angular points to    46 for atom    1.
 IPart=10          340 of          340 points in       2 batches and        5 microbatches, Max-NSigAt=       1 Max-NSgAt2=       1
 IPart= 2          340 of          340 points in       2 batches and        4 microbatches, Max-NSigAt=       1 Max-NSgAt2=       1
 Symmetry reduced   302 angular points to    46 for atom    1.
 IPart= 3          340 of          340 points in       2 batches and        5 microbatches, Max-NSigAt=       1 Max-NSgAt2=       1
 IPart=11          170 of          170 points in       1 batches and        1 microbatches, Max-NSigAt=       1 Max-NSgAt2=       1
 IPart=12          170 of          170 points in       1 batches and        1 microbatches, Max-NSigAt=       1 Max-NSgAt2=       1
 Symmetry reduced   302 angular points to    46 for atom    1.
 IPart= 8          262 of          262 points in       2 batches and        3 microbatches, Max-NSigAt=       1 Max-NSgAt2=       1
 IPart= 9          262 of          262 points in       2 batches and        3 microbatches, Max-NSigAt=       1 Max-NSgAt2=       1
 IPart= 0          284 of          284 points in       2 batches and        2 microbatches, Max-NSigAt=       1 Max-NSgAt2=       1
 IPart= 5          340 of          340 points in       2 batches and        6 microbatches, Max-NSigAt=       1 Max-NSgAt2=       1
 Symmetry reduced   302 angular points to    46 for atom    1.
 IPart= 1          372 of          372 points in       1 batches and        1 microbatches, Max-NSigAt=       1 Max-NSgAt2=       1
 IPart=13          262 of          262 points in       2 batches and        2 microbatches, Max-NSigAt=       1 Max-NSgAt2=       1
 Symmetry reduced   302 angular points to    46 for atom    1.
 IPart=14          262 of          262 points in       2 batches and        4 microbatches, Max-NSigAt=       1 Max-NSgAt2=       1
 IPart= 6          170 of          170 points in       1 batches and        3 microbatches, Max-NSigAt=       1 Max-NSgAt2=       1
 IPart= 4          170 of          170 points in       1 batches and        3 microbatches, Max-NSigAt=       1 Max-NSgAt2=       1
 Requested info about the electron count:
 NE=   21 NElCor=    0 El error=1.45D-06 rel=6.91D-08 Tolerance=1.00D-03
 Shell     1     absolute error=7.40D-08              Tolerance=7.20D-02
 Shell     2       signed error=4.74D-12              Tolerance=1.00D-01
 StAtR1:  I=    1 I1=    1 IA= 21 C=  21.0 OKShel=TTTTTTT
                                                  SSPSPSD
                                                  2262621
          I=    1 IA= 21 I1=    1 NAtG=15 NE= 21 C=  21.000 Err= 1.43D-11
 FoFCou: FMM=F IPFlag=           0 FMFlag=      100000 FMFlg1=           0
         NFxFlg=           0 DoJE=T BraDBF=F KetDBF=T FulRan=T
         Omega=  0.000000  0.000000  1.000000  0.000000  0.000000 ICntrl=     500 IOpCl=  0
         NMat0=    1 NMatS0=    1 NMatT0=    0 NMatD0=    1 NMtDS0=    0 NMtDT0=    0
         I1Cent=           4 NGrid=           0.
 Petite list used in FoFCou.
 FoFCou:  KetSym=T NOpSet= 48 NOpAb=8 NOp= 48.
 FoFCou:  CnvScl= 1.00D+00 Thresh= 1.00D-10
 FoFCou: LinMIO=F DoNuc=F BraDBF=F KetDBF=T HaveP=T PDBF=T HaveZ=F HaveW=F
         NIJTC =      21 NIJTAt=       0 NIJTCD=       1 NIJTT =      22
         IJTBeg=       1 IJTEnd=      21 KLTBeg=      22 KLTEnd=      22
         IPTBeg=      22 IPTEnd=      22 IPTBCv=      22 IPTECv=      22
         IZTBeg=       1 IZTEnd=      21 IZTBCv=       1 IZTECv=      21
         IWTBeg=      22 IWTEnd=      22 IWTBCv=      22 IWTECv=      22
         INTBeg=       1 INTEnd=       0 IFTBCv=       1 IFTECv=      21
 CoulSu:  NPrtUS=  16 ThrOK=T IAlg=1
 Enter PrismC: JobTyp=20 DoJE=T Cont=T.
 PrismC was handed   536738743 working-precision words and   406 shell-pairs
 Enter PrismC: JobTyp=20 DoJE=T Cont=T.
 Enter PrismC: JobTyp=20 DoJE=T Cont=T.
 PrismC was handed   536738743 working-precision words and   406 shell-pairs
 Enter PrismC: JobTyp=20 DoJE=T Cont=T.
 Enter PrismC: JobTyp=20 DoJE=T Cont=T.
 PrismC was handed   536738743 working-precision words and   406 shell-pairs
 PrismC was handed   536738743 working-precision words and   406 shell-pairs
 PrismC was handed   536738743 working-precision words and   406 shell-pairs
 Enter PrismC: JobTyp=20 DoJE=T Cont=T.
 Enter PrismC: JobTyp=20 DoJE=T Cont=T.
 PrismC was handed   536738743 working-precision words and   406 shell-pairs
 Enter PrismC: JobTyp=20 DoJE=T Cont=T.
 PrismC was handed   536738743 working-precision words and   406 shell-pairs
 PrismC was handed   536738743 working-precision words and   406 shell-pairs
 Enter PrismC: JobTyp=20 DoJE=T Cont=T.
 PrismC was handed   536738743 working-precision words and   406 shell-pairs
 Enter PrismC: JobTyp=20 DoJE=T Cont=T.
 Enter PrismC: JobTyp=20 DoJE=T Cont=T.
 Enter PrismC: JobTyp=20 DoJE=T Cont=T.
 PrismC was handed   536738743 working-precision words and   406 shell-pairs
 PrismC was handed   536738743 working-precision words and   406 shell-pairs
 PrismC was handed   536738743 working-precision words and   406 shell-pairs
 Enter PrismC: JobTyp=20 DoJE=T Cont=T.
 Enter PrismC: JobTyp=20 DoJE=T Cont=T.
 PrismC was handed   536738743 working-precision words and   406 shell-pairs
 PrismC was handed   536738743 working-precision words and   406 shell-pairs
 Enter PrismC: JobTyp=20 DoJE=T Cont=T.
 PrismC was handed   536738743 working-precision words and   406 shell-pairs
 Enter PrismC: JobTyp=20 DoJE=T Cont=T.
 PrismC was handed   536738743 working-precision words and   406 shell-pairs
 IPart= 10 NShTot=           0 NShNF=           0 NShFF=           0 NBatch=           0 AvBLen=         0.0
 IPart=  6 NShTot=           0 NShNF=           0 NShFF=           0 NBatch=           0 AvBLen=         0.0
 IPart=  2 NShTot=           0 NShNF=           0 NShFF=           0 NBatch=           0 AvBLen=         0.0
 IPart=  8 NShTot=           0 NShNF=           0 NShFF=           0 NBatch=           0 AvBLen=         0.0
 IPart=  5 NShTot=           0 NShNF=           0 NShFF=           0 NBatch=           0 AvBLen=         0.0
 IPart=  7 NShTot=           0 NShNF=           0 NShFF=           0 NBatch=           0 AvBLen=         0.0
 IPart= 15 NShTot=           0 NShNF=           0 NShFF=           0 NBatch=           0 AvBLen=         0.0
 IPart=  9 NShTot=           0 NShNF=           0 NShFF=           0 NBatch=           0 AvBLen=         0.0
 IPart=  3 NShTot=           0 NShNF=           0 NShFF=           0 NBatch=           0 AvBLen=         0.0
 IPart=  4 NShTot=           0 NShNF=           0 NShFF=           0 NBatch=           0 AvBLen=         0.0
 IPart= 13 NShTot=           0 NShNF=           0 NShFF=           0 NBatch=           0 AvBLen=         0.0
 IPart=  1 NShTot=           0 NShNF=           0 NShFF=           0 NBatch=           0 AvBLen=         0.0
 IPart= 14 NShTot=           0 NShNF=           0 NShFF=           0 NBatch=           0 AvBLen=         0.0
 IPart=  0 NShTot=         406 NShNF=         406 NShFF=           0 NBatch=         406 AvBLen=         1.0
 IPart= 12 NShTot=           0 NShNF=           0 NShFF=           0 NBatch=           0 AvBLen=         0.0
 IPart= 11 NShTot=           0 NShNF=           0 NShFF=           0 NBatch=           0 AvBLen=         0.0
 CoulSu:  NPrtUS=  16 ThrOK=T IAlg=1
 Enter PrismC: JobTyp=20 DoJE=T Cont=F.
 PrismC was handed   536679537 working-precision words and   406 shell-pairs
 Enter PrismC: JobTyp=20 DoJE=T Cont=F.
 Enter PrismC: JobTyp=20 DoJE=T Cont=F.
 Enter PrismC: JobTyp=20 DoJE=T Cont=F.
 Enter PrismC: JobTyp=20 DoJE=T Cont=F.
 PrismC was handed   536679537 working-precision words and   406 shell-pairs
 PrismC was handed   536679537 working-precision words and   406 shell-pairs
 PrismC was handed   536679537 working-precision words and   406 shell-pairs
 PrismC was handed   536679537 working-precision words and   406 shell-pairs
 Enter PrismC: JobTyp=20 DoJE=T Cont=F.
 Enter PrismC: JobTyp=20 DoJE=T Cont=F.
 Enter PrismC: JobTyp=20 DoJE=T Cont=F.
 PrismC was handed   536679537 working-precision words and   406 shell-pairs
 PrismC was handed   536679537 working-precision words and   406 shell-pairs
 Enter PrismC: JobTyp=20 DoJE=T Cont=F.
 PrismC was handed   536679537 working-precision words and   406 shell-pairs
 PrismC was handed   536679537 working-precision words and   406 shell-pairs
 Enter PrismC: JobTyp=20 DoJE=T Cont=F.
 PrismC was handed   536679537 working-precision words and   406 shell-pairs
 Enter PrismC: JobTyp=20 DoJE=T Cont=F.
 Enter PrismC: JobTyp=20 DoJE=T Cont=F.
 PrismC was handed   536679537 working-precision words and   406 shell-pairs
 PrismC was handed   536679537 working-precision words and   406 shell-pairs
 Enter PrismC: JobTyp=20 DoJE=T Cont=F.
 PrismC was handed   536679537 working-precision words and   406 shell-pairs
 Enter PrismC: JobTyp=20 DoJE=T Cont=F.
 PrismC was handed   536679537 working-precision words and   406 shell-pairs
 Enter PrismC: JobTyp=20 DoJE=T Cont=F.
 PrismC was handed   536679537 working-precision words and   406 shell-pairs
 Enter PrismC: JobTyp=20 DoJE=T Cont=F.
 PrismC was handed   536679537 working-precision words and   406 shell-pairs
 IPart=  0 NShTot=           0 NShNF=           0 NShFF=           0 NBatch=           0 AvBLen=         0.0
 IPart=  6 NShTot=           0 NShNF=           0 NShFF=           0 NBatch=           0 AvBLen=         0.0
 IPart=  2 NShTot=           0 NShNF=           0 NShFF=           0 NBatch=           0 AvBLen=         0.0
 IPart=  8 NShTot=           0 NShNF=           0 NShFF=           0 NBatch=           0 AvBLen=         0.0
 IPart= 10 NShTot=           0 NShNF=           0 NShFF=           0 NBatch=           0 AvBLen=         0.0
 IPart=  9 NShTot=           0 NShNF=           0 NShFF=           0 NBatch=           0 AvBLen=         0.0
 IPart=  7 NShTot=           0 NShNF=           0 NShFF=           0 NBatch=           0 AvBLen=         0.0
 IPart=  5 NShTot=           0 NShNF=           0 NShFF=           0 NBatch=           0 AvBLen=         0.0
 IPart=  3 NShTot=           0 NShNF=           0 NShFF=           0 NBatch=           0 AvBLen=         0.0
 IPart= 13 NShTot=           0 NShNF=           0 NShFF=           0 NBatch=           0 AvBLen=         0.0
 IPart= 15 NShTot=           0 NShNF=           0 NShFF=           0 NBatch=           0 AvBLen=         0.0
 IPart= 14 NShTot=           0 NShNF=           0 NShFF=           0 NBatch=           0 AvBLen=         0.0
 IPart=  1 NShTot=           0 NShNF=           0 NShFF=           0 NBatch=           0 AvBLen=         0.0
 IPart=  4 NShTot=           0 NShNF=           0 NShFF=           0 NBatch=           0 AvBLen=         0.0
 IPart= 11 NShTot=           0 NShNF=           0 NShFF=           0 NBatch=           0 AvBLen=         0.0
 IPart= 12 NShTot=           0 NShNF=           0 NShFF=           0 NBatch=           0 AvBLen=         0.0
 FoFCou: FMM=F IPFlag=           0 FMFlag=      100000 FMFlg1=           0
         NFxFlg=           0 DoJE=T BraDBF=T KetDBF=T FulRan=T
         Omega=  0.000000  0.000000  1.000000  0.000000  0.000000 ICntrl=     500 IOpCl=  0
         NMat0=    1 NMatS0=    1 NMatT0=    0 NMatD0=    1 NMtDS0=    0 NMtDT0=    0
         I1Cent=           6 NGrid=           0.
 Petite list used in FoFCou.
 FoFCou:  KetSym=T NOpSet= 48 NOpAb=8 NOp= 48.
 FoFCou:  CnvScl= 1.00D+00 Thresh= 1.00D-10
 FoFCou: LinMIO=F DoNuc=F BraDBF=T KetDBF=T HaveP=T PDBF=T HaveZ=F HaveW=F
         NIJTC =       0 NIJTAt=       0 NIJTCD=       1 NIJTT =       1
         IJTBeg=       1 IJTEnd=       1 KLTBeg=       1 KLTEnd=       1
         IPTBeg=       1 IPTEnd=       1 IPTBCv=       1 IPTECv=       1
         IZTBeg=       1 IZTEnd=       0 IZTBCv=       1 IZTECv=       1
         IWTBeg=       1 IWTEnd=       1 IWTBCv=       1 IWTECv=       1
         INTBeg=       1 INTEnd=       0 IFTBCv=       1 IFTECv=       1
 CoulSu:  NPrtUS=  16 ThrOK=T IAlg=1
 Enter PrismC: JobTyp=20 DoJE=T Cont=T.
 Enter PrismC: JobTyp=20 DoJE=T Cont=T.
 Enter PrismC: JobTyp=20 DoJE=T Cont=T.
 Enter PrismC: JobTyp=20 DoJE=T Cont=T.
 Enter PrismC: JobTyp=20 DoJE=T Cont=T.
 PrismC was handed   536863596 working-precision words and     1 shell-pairs
 Enter PrismC: JobTyp=20 DoJE=T Cont=T.
 Enter PrismC: JobTyp=20 DoJE=T Cont=T.
 PrismC was handed   536863596 working-precision words and     1 shell-pairs
 Enter PrismC: JobTyp=20 DoJE=T Cont=T.
 Enter PrismC: JobTyp=20 DoJE=T Cont=T.
 Enter PrismC: JobTyp=20 DoJE=T Cont=T.
 PrismC was handed   536863596 working-precision words and     1 shell-pairs
 PrismC was handed   536863596 working-precision words and     1 shell-pairs
 Enter PrismC: JobTyp=20 DoJE=T Cont=T.
 Enter PrismC: JobTyp=20 DoJE=T Cont=T.
 PrismC was handed   536863596 working-precision words and     1 shell-pairs
 PrismC was handed   536863596 working-precision words and     1 shell-pairs
 PrismC was handed   536863596 working-precision words and     1 shell-pairs
 PrismC was handed   536863596 working-precision words and     1 shell-pairs
 PrismC was handed   536863596 working-precision words and     1 shell-pairs
 PrismC was handed   536863596 working-precision words and     1 shell-pairs
 PrismC was handed   536863596 working-precision words and     1 shell-pairs
 Enter PrismC: JobTyp=20 DoJE=T Cont=T.
 PrismC was handed   536863596 working-precision words and     1 shell-pairs
 Enter PrismC: JobTyp=20 DoJE=T Cont=T.
 PrismC was handed   536863596 working-precision words and     1 shell-pairs
 Enter PrismC: JobTyp=20 DoJE=T Cont=T.
 PrismC was handed   536863596 working-precision words and     1 shell-pairs
 PrismC was handed   536863596 working-precision words and     1 shell-pairs
 Enter PrismC: JobTyp=20 DoJE=T Cont=T.
 PrismC was handed   536863596 working-precision words and     1 shell-pairs
 IPart=  9 NShTot=           0 NShNF=           0 NShFF=           0 NBatch=           0 AvBLen=         0.0
 IPart=  8 NShTot=           0 NShNF=           0 NShFF=           0 NBatch=           0 AvBLen=         0.0
 IPart=  7 NShTot=           0 NShNF=           0 NShFF=           0 NBatch=           0 AvBLen=         0.0
 IPart=  3 NShTot=           0 NShNF=           0 NShFF=           0 NBatch=           0 AvBLen=         0.0
 IPart=  5 NShTot=           0 NShNF=           0 NShFF=           0 NBatch=           0 AvBLen=         0.0
 IPart=  2 NShTot=           0 NShNF=           0 NShFF=           0 NBatch=           0 AvBLen=         0.0
 IPart=  6 NShTot=           0 NShNF=           0 NShFF=           0 NBatch=           0 AvBLen=         0.0
 IPart= 10 NShTot=           0 NShNF=           0 NShFF=           0 NBatch=           0 AvBLen=         0.0
 IPart=  0 NShTot=           1 NShNF=           1 NShFF=           0 NBatch=           1 AvBLen=         1.0
 IPart= 13 NShTot=           0 NShNF=           0 NShFF=           0 NBatch=           0 AvBLen=         0.0
 IPart= 15 NShTot=           0 NShNF=           0 NShFF=           0 NBatch=           0 AvBLen=         0.0
 IPart= 14 NShTot=           0 NShNF=           0 NShFF=           0 NBatch=           0 AvBLen=         0.0
 IPart=  4 NShTot=           0 NShNF=           0 NShFF=           0 NBatch=           0 AvBLen=         0.0
 IPart=  1 NShTot=           0 NShNF=           0 NShFF=           0 NBatch=           0 AvBLen=         0.0
 IPart= 11 NShTot=           0 NShNF=           0 NShFF=           0 NBatch=           0 AvBLen=         0.0
 IPart= 12 NShTot=           0 NShNF=           0 NShFF=           0 NBatch=           0 AvBLen=         0.0
 CoulSu:  NPrtUS=  16 ThrOK=T IAlg=1
 Enter PrismC: JobTyp=20 DoJE=T Cont=F.
 Enter PrismC: JobTyp=20 DoJE=T Cont=F.
 Enter PrismC: JobTyp=20 DoJE=T Cont=F.
 Enter PrismC: JobTyp=20 DoJE=T Cont=F.
 Enter PrismC: JobTyp=20 DoJE=T Cont=F.
 Enter PrismC: JobTyp=20 DoJE=T Cont=F.
 PrismC was handed   536863566 working-precision words and     1 shell-pairs
 PrismC was handed   536863566 working-precision words and     1 shell-pairs
 PrismC was handed   536863566 working-precision words and     1 shell-pairs
 Enter PrismC: JobTyp=20 DoJE=T Cont=F.
 Enter PrismC: JobTyp=20 DoJE=T Cont=F.
 PrismC was handed   536863566 working-precision words and     1 shell-pairs
 Enter PrismC: JobTyp=20 DoJE=T Cont=F.
 PrismC was handed   536863566 working-precision words and     1 shell-pairs
 PrismC was handed   536863566 working-precision words and     1 shell-pairs
 PrismC was handed   536863566 working-precision words and     1 shell-pairs
 Enter PrismC: JobTyp=20 DoJE=T Cont=F.
 Enter PrismC: JobTyp=20 DoJE=T Cont=F.
 PrismC was handed   536863566 working-precision words and     1 shell-pairs
 PrismC was handed   536863566 working-precision words and     1 shell-pairs
 PrismC was handed   536863566 working-precision words and     1 shell-pairs
 PrismC was handed   536863566 working-precision words and     1 shell-pairs
 Enter PrismC: JobTyp=20 DoJE=T Cont=F.
 PrismC was handed   536863566 working-precision words and     1 shell-pairs
 Enter PrismC: JobTyp=20 DoJE=T Cont=F.
 PrismC was handed   536863566 working-precision words and     1 shell-pairs
 Enter PrismC: JobTyp=20 DoJE=T Cont=F.
 PrismC was handed   536863566 working-precision words and     1 shell-pairs
 Enter PrismC: JobTyp=20 DoJE=T Cont=F.
 PrismC was handed   536863566 working-precision words and     1 shell-pairs
 Enter PrismC: JobTyp=20 DoJE=T Cont=F.
 PrismC was handed   536863566 working-precision words and     1 shell-pairs
 IPart=  8 NShTot=           0 NShNF=           0 NShFF=           0 NBatch=           0 AvBLen=         0.0
 IPart=  0 NShTot=           0 NShNF=           0 NShFF=           0 NBatch=           0 AvBLen=         0.0
 IPart=  3 NShTot=           0 NShNF=           0 NShFF=           0 NBatch=           0 AvBLen=         0.0
 IPart=  5 NShTot=           0 NShNF=           0 NShFF=           0 NBatch=           0 AvBLen=         0.0
 IPart=  9 NShTot=           0 NShNF=           0 NShFF=           0 NBatch=           0 AvBLen=         0.0
 IPart= 10 NShTot=           0 NShNF=           0 NShFF=           0 NBatch=           0 AvBLen=         0.0
 IPart=  2 NShTot=           0 NShNF=           0 NShFF=           0 NBatch=           0 AvBLen=         0.0
 IPart=  6 NShTot=           0 NShNF=           0 NShFF=           0 NBatch=           0 AvBLen=         0.0
 IPart=  7 NShTot=           0 NShNF=           0 NShFF=           0 NBatch=           0 AvBLen=         0.0
 IPart= 13 NShTot=           0 NShNF=           0 NShFF=           0 NBatch=           0 AvBLen=         0.0
 IPart= 15 NShTot=           0 NShNF=           0 NShFF=           0 NBatch=           0 AvBLen=         0.0
 IPart= 12 NShTot=           0 NShNF=           0 NShFF=           0 NBatch=           0 AvBLen=         0.0
 IPart= 14 NShTot=           0 NShNF=           0 NShFF=           0 NBatch=           0 AvBLen=         0.0
 IPart= 11 NShTot=           0 NShNF=           0 NShFF=           0 NBatch=           0 AvBLen=         0.0
 IPart=  1 NShTot=           0 NShNF=           0 NShFF=           0 NBatch=           0 AvBLen=         0.0
 IPart=  4 NShTot=           0 NShNF=           0 NShFF=           0 NBatch=           0 AvBLen=         0.0
 FoFCou EC=  160.124400821     ENF=  160.124400821    
 Eigenvalues and eigenvectors of Harris matrix:
 Alpha MOs:
                           1         2         3         4         5
     Eigenvalues --  -159.86893 -17.17109 -14.17512 -14.17512 -14.17512
   1                    0.99997  -0.29505   0.00000   0.00000   0.00000
   2                   -0.00067   1.04286   0.00000   0.00000   0.00000
   3                    0.00000   0.00000  -0.00136   0.80983  -0.57689
   4                    0.00000   0.00000   0.99429   0.00312   0.00204
   5                    0.00000   0.00000  -0.00347   0.57689   0.80983
   6                   -0.00452   0.07159   0.00000   0.00000   0.00000
   7                    0.00000   0.00000  -0.00002   0.00943  -0.00672
   8                    0.00000   0.00000   0.01158   0.00004   0.00002
   9                    0.00000   0.00000  -0.00004   0.00672   0.00943
  10                    0.00000   0.00000   0.00000   0.00000   0.00000
  11                    0.00000   0.00000   0.00000   0.00000   0.00000
  12                    0.00000   0.00000   0.00000   0.00000   0.00000
  13                    0.00000   0.00000   0.00000   0.00000   0.00000
  14                    0.00000   0.00000   0.00000   0.00000   0.00000
  15                    0.00000   0.00000   0.00000   0.00000   0.00000
  16                    0.00000   0.00000   0.00000   0.00000   0.00000
  17                    0.00000   0.00000   0.00000   0.00000   0.00000
  18                    0.00000   0.00000   0.00000   0.00000   0.00000
  19                    0.00000   0.00000   0.00000   0.00000   0.00000
  20                   -0.01987   0.26655   0.00000   0.00000   0.00000
  21                    0.00007  -0.00070   0.00000   0.00000   0.00000
  22                    0.00000   0.00000  -0.00027   0.16009  -0.11404
  23                    0.00000   0.00000   0.19656   0.00062   0.00040
  24                    0.00000   0.00000  -0.00069   0.11404   0.16009
  25                    0.00000   0.00000   0.00000   0.00004  -0.00003
  26                    0.00000   0.00000   0.00005   0.00000   0.00000
  27                    0.00000   0.00000   0.00000   0.00003   0.00004
  28                   -0.00001  -0.00585   0.00000   0.00000   0.00000
  29                    0.01182  -0.15484   0.00000   0.00000   0.00000
  30                    0.01017  -0.13794   0.00000   0.00000   0.00000
  31                    0.00000   0.00000   0.00005  -0.02917   0.02078
  32                    0.00000   0.00000  -0.03581  -0.00011  -0.00007
  33                    0.00000   0.00000   0.00013  -0.02078  -0.02917
  34                    0.00000   0.00000   0.00004  -0.02499   0.01780
  35                    0.00000   0.00000  -0.03068  -0.00010  -0.00006
  36                    0.00000   0.00000   0.00011  -0.01780  -0.02499
  37                    0.00000   0.00000   0.00021  -0.12518   0.08917
  38                    0.00000   0.00000  -0.15369  -0.00048  -0.00032
  39                    0.00000   0.00000   0.00054  -0.08917  -0.12518
  40                    0.00000   0.00000   0.00000   0.00000   0.00000
  41                    0.00000   0.00000   0.00000   0.00000   0.00000
  42                    0.00000   0.00000   0.00000   0.00000   0.00000
  43                    0.00000   0.00000   0.00000   0.00000   0.00000
  44                    0.00000   0.00000   0.00000   0.00000   0.00000
  45                    0.00000   0.00000   0.00000   0.00000   0.00000
  46                    0.00000   0.00000   0.00000   0.00000   0.00000
  47                    0.00000   0.00000   0.00000   0.00000   0.00000
  48                    0.00000   0.00000   0.00000   0.00000   0.00000
  49                    0.00000   0.00000   0.00000   0.00000   0.00000
  50                    0.00000   0.00000   0.00000   0.00000   0.00000
  51                    0.00000   0.00000   0.00000   0.00000   0.00000
  52                    0.00000   0.00000   0.00000   0.00000   0.00000
  53                    0.00000   0.00000   0.00000   0.00000   0.00000
  54                    0.00000   0.00000   0.00000   0.00000   0.00000
  55                    0.00000   0.00000   0.00000   0.00000   0.00000
  56                    0.00000   0.00000   0.00000   0.00000   0.00000
  57                    0.00000   0.00000   0.00000   0.00000   0.00000
  58                    0.00000   0.00000   0.00000   0.00000   0.00000
  59                    0.00000   0.00000   0.00000   0.00000   0.00000
  60                    0.00000   0.00000   0.00000   0.00000   0.00000
  61                    0.00000   0.00000   0.00000   0.00000   0.00000
  62                    0.00000   0.00000   0.00000   0.00000   0.00000
  63                    0.00000   0.00000   0.00000   0.00000   0.00000
  64                    0.00000   0.00000   0.00000   0.00000   0.00000
  65                    0.00000   0.00000   0.00000   0.00000   0.00000
  66                    0.00000   0.00000   0.00000   0.00000   0.00000
  67                    0.00000   0.00000   0.00000   0.00000   0.00000
  68                    0.00000   0.00000   0.00000   0.00000   0.00000
  69                    0.00000   0.00000   0.00000   0.00000   0.00000
  70                    0.00000   0.00000   0.00000   0.00000   0.00000
  71                    0.00000   0.00000   0.00000   0.00000   0.00000
  72                    0.00000   0.00000   0.00000   0.00000   0.00000
  73                    0.00000   0.00000   0.00000   0.00000   0.00000
  74                    0.00000   0.00000   0.00000   0.00000   0.00000
  75                    0.00000   0.00000   0.00000   0.00000   0.00000
  76                    0.00000   0.00000   0.00000   0.00000   0.00000
  77                    0.00000   0.00000   0.00000   0.00000   0.00000
  78                    0.00000   0.00000   0.00000   0.00000   0.00000
  79                    0.00000   0.00000   0.00000   0.00000   0.00000
  80                    0.00000   0.00000   0.00000   0.00000   0.00000
  81                    0.00000   0.00000   0.00000   0.00000   0.00000
  82                    0.00000   0.00000   0.00000   0.00000   0.00000
  83                    0.00000   0.00000   0.00000   0.00000   0.00000
  84                    0.00000   0.00000   0.00000   0.00000   0.00000
  85                    0.00000   0.00000   0.00000   0.00000   0.00000
  86                    0.00000   0.00000   0.00000   0.00000   0.00000
  87                    0.00000   0.00000   0.00000   0.00000   0.00000
  88                    0.00000   0.00000   0.00000   0.00000   0.00000
  89                    0.00000   0.00000   0.00000   0.00000   0.00000
  90                    0.00000   0.00000   0.00000   0.00000   0.00000
  91                    0.00000   0.00000   0.00000   0.00000   0.00000
  92                    0.00000   0.00000   0.00000   0.00000   0.00000
  93                    0.00000   0.00000   0.00000   0.00000   0.00000
  94                    0.00000   0.00000   0.00000   0.00000   0.00000
  95                    0.00000   0.00000   0.00000   0.00000   0.00000
  96                    0.00000   0.00000   0.00000   0.00000   0.00000
  97                    0.00000   0.00000   0.00000   0.00000   0.00000
  98                    0.00000   0.00000   0.00000   0.00000   0.00000
  99                    0.00000   0.00000   0.00000   0.00000   0.00000
 100                    0.00000   0.00000   0.00000   0.00000   0.00000
 101                    0.00000   0.00000   0.00000   0.00000   0.00000
 102                    0.00000   0.00000   0.00000   0.00000   0.00000
 103                    0.00000   0.00000   0.00000   0.00000   0.00000
 104                    0.00000   0.00000   0.00000   0.00000   0.00000
 105                    0.00000   0.00000   0.00000   0.00000   0.00000
 106                    0.00000   0.00000   0.00000   0.00000   0.00000
 107                    0.00000   0.00000   0.00000   0.00000   0.00000
 108                    0.00000   0.00000   0.00000   0.00000   0.00000
 109                    0.00000   0.00000   0.00000   0.00000   0.00000
 110                    0.00000   0.00000   0.00000   0.00000   0.00000
 111                    0.00000   0.00000   0.00000   0.00000   0.00000
 112                    0.00000   0.00000   0.00000   0.00000   0.00000
 113                    0.00000   0.00000   0.00000   0.00000   0.00000
 114                    0.00000   0.00000   0.00000   0.00000   0.00000
 115                    0.00000   0.00000   0.00000   0.00000   0.00000
 116                    0.00000   0.00000   0.00000   0.00000   0.00000
 117                    0.00000   0.00000   0.00000   0.00000   0.00000
 118                    0.00000   0.00000   0.00000   0.00000   0.00000
 119                    0.00000   0.00000   0.00000   0.00000   0.00000
 120                    0.00000   0.00000   0.00000   0.00000   0.00000
                           6         7         8         9        10
     Eigenvalues --    -1.96551  -1.21590  -1.21590  -1.21590  -0.18569
   1                    0.10616   0.00000   0.00000   0.00000  -0.03106
   2                   -0.42404   0.00000   0.00000   0.00000   0.11332
   3                    0.00000  -0.05771  -0.33585   0.00000   0.00000
   4                    0.00000   0.00000   0.00000  -0.34077   0.00000
   5                    0.00000  -0.33585   0.05771   0.00000   0.00000
   6                    1.02118   0.00000   0.00000   0.00000  -0.36939
   7                    0.00000   0.17421   1.01384   0.00000   0.00000
   8                    0.00000   0.00001   0.00000   1.02870   0.00000
   9                    0.00000   1.01384  -0.17421  -0.00001   0.00000
  10                    0.00000   0.00000   0.00000   0.00000   0.00000
  11                    0.00000   0.00000   0.00000   0.00000   0.00000
  12                    0.00000   0.00000   0.00000   0.00000   0.00000
  13                    0.00000   0.00000   0.00000   0.00000   0.00000
  14                    0.00000   0.00000   0.00000   0.00000   0.00000
  15                    0.00000   0.00000   0.00000   0.00000   0.00000
  16                    0.00000   0.00000   0.00000   0.00000   0.00000
  17                    0.00000   0.00000   0.00000   0.00000   0.00000
  18                    0.00000   0.00000   0.00000   0.00000   0.00000
  19                    0.00000   0.00000   0.00000   0.00000   0.00000
  20                   -0.14014   0.00000   0.00000   0.00000   0.95290
  21                   -0.00035   0.00000   0.00000   0.00000  -0.00743
  22                    0.00000   0.02975   0.17312   0.00000   0.00000
  23                    0.00000   0.00000   0.00000   0.17565   0.00000
  24                    0.00000   0.17312  -0.02975   0.00000   0.00000
  25                    0.00000  -0.00002  -0.00014   0.00000   0.00000
  26                    0.00000   0.00000   0.00000  -0.00014   0.00000
  27                    0.00000  -0.00014   0.00002   0.00000   0.00000
  28                    0.03905   0.00000   0.00000   0.00000   0.01910
  29                    0.06883   0.00000   0.00000   0.00000   0.23668
  30                    0.07683   0.00000   0.00000   0.00000  -0.13927
  31                    0.00000  -0.00006  -0.00036   0.00000   0.00000
  32                    0.00000   0.00000   0.00000  -0.00036   0.00000
  33                    0.00000  -0.00036   0.00006   0.00000   0.00000
  34                    0.00000  -0.00388  -0.02260   0.00000   0.00000
  35                    0.00000   0.00000   0.00000  -0.02293   0.00000
  36                    0.00000  -0.02260   0.00388   0.00000   0.00000
  37                    0.00000  -0.02302  -0.13398   0.00000   0.00000
  38                    0.00000   0.00000   0.00000  -0.13595   0.00000
  39                    0.00000  -0.13398   0.02302   0.00000   0.00000
  40                    0.00000   0.00000   0.00000   0.00000   0.00000
  41                    0.00000   0.00000   0.00000   0.00000   0.00000
  42                    0.00000   0.00000   0.00000   0.00000   0.00000
  43                    0.00000   0.00000   0.00000   0.00000   0.00000
  44                    0.00000   0.00000   0.00000   0.00000   0.00000
  45                    0.00000   0.00000   0.00000   0.00000   0.00000
  46                    0.00000   0.00000   0.00000   0.00000   0.00000
  47                    0.00000   0.00000   0.00000   0.00000   0.00000
  48                    0.00000   0.00000   0.00000   0.00000   0.00000
  49                    0.00000   0.00000   0.00000   0.00000   0.00000
  50                    0.00000   0.00000   0.00000   0.00000   0.00000
  51                    0.00000   0.00000   0.00000   0.00000   0.00000
  52                    0.00000   0.00000   0.00000   0.00000   0.00000
  53                    0.00000   0.00000   0.00000   0.00000   0.00000
  54                    0.00000   0.00000   0.00000   0.00000   0.00000
  55                    0.00000   0.00000   0.00000   0.00000   0.00000
  56                    0.00000   0.00000   0.00000   0.00000   0.00000
  57                    0.00000   0.00000   0.00000   0.00000   0.00000
  58                    0.00000   0.00000   0.00000   0.00000   0.00000
  59                    0.00000   0.00000   0.00000   0.00000   0.00000
  60                    0.00000   0.00000   0.00000   0.00000   0.00000
  61                    0.00000   0.00000   0.00000   0.00000   0.00000
  62                    0.00000   0.00000   0.00000   0.00000   0.00000
  63                    0.00000   0.00000   0.00000   0.00000   0.00000
  64                    0.00000   0.00000   0.00000   0.00000   0.00000
  65                    0.00000   0.00000   0.00000   0.00000   0.00000
  66                    0.00000   0.00000   0.00000   0.00000   0.00000
  67                    0.00000   0.00000   0.00000   0.00000   0.00000
  68                    0.00000   0.00000   0.00000   0.00000   0.00000
  69                    0.00000   0.00000   0.00000   0.00000   0.00000
  70                    0.00000   0.00000   0.00000   0.00000   0.00000
  71                    0.00000   0.00000   0.00000   0.00000   0.00000
  72                    0.00000   0.00000   0.00000   0.00000   0.00000
  73                    0.00000   0.00000   0.00000   0.00000   0.00000
  74                    0.00000   0.00000   0.00000   0.00000   0.00000
  75                    0.00000   0.00000   0.00000   0.00000   0.00000
  76                    0.00000   0.00000   0.00000   0.00000   0.00000
  77                    0.00000   0.00000   0.00000   0.00000   0.00000
  78                    0.00000   0.00000   0.00000   0.00000   0.00000
  79                    0.00000   0.00000   0.00000   0.00000   0.00000
  80                    0.00000   0.00000   0.00000   0.00000   0.00000
  81                    0.00000   0.00000   0.00000   0.00000   0.00000
  82                    0.00000   0.00000   0.00000   0.00000   0.00000
  83                    0.00000   0.00000   0.00000   0.00000   0.00000
  84                    0.00000   0.00000   0.00000   0.00000   0.00000
  85                    0.00000   0.00000   0.00000   0.00000   0.00000
  86                    0.00000   0.00000   0.00000   0.00000   0.00000
  87                    0.00000   0.00000   0.00000   0.00000   0.00000
  88                    0.00000   0.00000   0.00000   0.00000   0.00000
  89                    0.00000   0.00000   0.00000   0.00000   0.00000
  90                    0.00000   0.00000   0.00000   0.00000   0.00000
  91                    0.00000   0.00000   0.00000   0.00000   0.00000
  92                    0.00000   0.00000   0.00000   0.00000   0.00000
  93                    0.00000   0.00000   0.00000   0.00000   0.00000
  94                    0.00000   0.00000   0.00000   0.00000   0.00000
  95                    0.00000   0.00000   0.00000   0.00000   0.00000
  96                    0.00000   0.00000   0.00000   0.00000   0.00000
  97                    0.00000   0.00000   0.00000   0.00000   0.00000
  98                    0.00000   0.00000   0.00000   0.00000   0.00000
  99                    0.00000   0.00000   0.00000   0.00000   0.00000
 100                    0.00000   0.00000   0.00000   0.00000   0.00000
 101                    0.00000   0.00000   0.00000   0.00000   0.00000
 102                    0.00000   0.00000   0.00000   0.00000   0.00000
 103                    0.00000   0.00000   0.00000   0.00000   0.00000
 104                    0.00000   0.00000   0.00000   0.00000   0.00000
 105                    0.00000   0.00000   0.00000   0.00000   0.00000
 106                    0.00000   0.00000   0.00000   0.00000   0.00000
 107                    0.00000   0.00000   0.00000   0.00000   0.00000
 108                    0.00000   0.00000   0.00000   0.00000   0.00000
 109                    0.00000   0.00000   0.00000   0.00000   0.00000
 110                    0.00000   0.00000   0.00000   0.00000   0.00000
 111                    0.00000   0.00000   0.00000   0.00000   0.00000
 112                    0.00000   0.00000   0.00000   0.00000   0.00000
 113                    0.00000   0.00000   0.00000   0.00000   0.00000
 114                    0.00000   0.00000   0.00000   0.00000   0.00000
 115                    0.00000   0.00000   0.00000   0.00000   0.00000
 116                    0.00000   0.00000   0.00000   0.00000   0.00000
 117                    0.00000   0.00000   0.00000   0.00000   0.00000
 118                    0.00000   0.00000   0.00000   0.00000   0.00000
 119                    0.00000   0.00000   0.00000   0.00000   0.00000
 120                    0.00000   0.00000   0.00000   0.00000   0.00000
                          11        12        13        14        15
     Eigenvalues --    -0.14265  -0.14265  -0.14265  -0.14265  -0.14265
   1                    0.00000   0.00000   0.00000   0.00000   0.00000
   2                    0.00000   0.00000   0.00000   0.00000   0.00000
   3                    0.00000   0.00000   0.00000   0.00000   0.00000
   4                    0.00000   0.00000   0.00000   0.00000   0.00000
   5                    0.00000   0.00000   0.00000   0.00000   0.00000
   6                    0.00000   0.00000   0.00000   0.00000   0.00000
   7                    0.00000   0.00000   0.00000   0.00000   0.00000
   8                    0.00000   0.00000   0.00000   0.00000   0.00000
   9                    0.00000   0.00000   0.00000   0.00000   0.00000
  10                    0.00001   0.00000   0.00000   0.92549   0.10909
  11                   -0.39254  -0.28548   0.79551   0.00000  -0.00001
  12                    0.74782   0.29139   0.47358  -0.00001   0.00001
  13                    0.00000  -0.00004   0.00000  -0.10909   0.92549
  14                   -0.39383   0.83786   0.10634   0.00000   0.00004
  15                    0.00000   0.00000   0.00000   0.03325   0.00392
  16                   -0.01410  -0.01026   0.02858   0.00000   0.00000
  17                    0.02687   0.01047   0.01702   0.00000   0.00000
  18                    0.00000   0.00000   0.00000  -0.00392   0.03325
  19                   -0.01415   0.03010   0.00382   0.00000   0.00000
  20                    0.00000   0.00000   0.00000   0.00000   0.00000
  21                    0.00000   0.00000   0.00000   0.00000   0.00000
  22                    0.00000   0.00000   0.00000   0.00000   0.00000
  23                    0.00000   0.00000   0.00000   0.00000   0.00000
  24                    0.00000   0.00000   0.00000   0.00000   0.00000
  25                    0.00000   0.00000   0.00000   0.00000   0.00000
  26                    0.00000   0.00000   0.00000   0.00000   0.00000
  27                    0.00000   0.00000   0.00000   0.00000   0.00000
  28                    0.00000   0.00000   0.00000   0.00000   0.00000
  29                    0.00000   0.00000   0.00000   0.00000   0.00000
  30                    0.00000   0.00000   0.00000   0.00000   0.00000
  31                    0.00000   0.00000   0.00000   0.00000   0.00000
  32                    0.00000   0.00000   0.00000   0.00000   0.00000
  33                    0.00000   0.00000   0.00000   0.00000   0.00000
  34                    0.00000   0.00000   0.00000   0.00000   0.00000
  35                    0.00000   0.00000   0.00000   0.00000   0.00000
  36                    0.00000   0.00000   0.00000   0.00000   0.00000
  37                    0.00000   0.00000   0.00000   0.00000   0.00000
  38                    0.00000   0.00000   0.00000   0.00000   0.00000
  39                    0.00000   0.00000   0.00000   0.00000   0.00000
  40                    0.00000   0.00000   0.00000  -0.03226  -0.00380
  41                    0.01368   0.00995  -0.02773   0.00000   0.00000
  42                   -0.02607  -0.01016  -0.01651   0.00000   0.00000
  43                    0.00000   0.00000   0.00000   0.00380  -0.03226
  44                    0.01373  -0.02921  -0.00371   0.00000   0.00000
  45                    0.00000   0.00000   0.00000   0.06628   0.00781
  46                   -0.02811  -0.02044   0.05697   0.00000   0.00000
  47                    0.05355   0.02087   0.03391   0.00000   0.00000
  48                    0.00000   0.00000   0.00000  -0.00781   0.06628
  49                   -0.02820   0.06000   0.00762   0.00000   0.00000
  50                    0.00000   0.00000   0.00000   0.08471   0.00999
  51                   -0.03593  -0.02613   0.07282   0.00000   0.00000
  52                    0.06845   0.02667   0.04335   0.00000   0.00000
  53                    0.00000   0.00000   0.00000  -0.00999   0.08471
  54                   -0.03605   0.07669   0.00973   0.00000   0.00000
  55                    0.00000   0.00000   0.00000   0.00000   0.00000
  56                    0.00000   0.00000   0.00000   0.00000   0.00000
  57                    0.00000   0.00000   0.00000   0.00000   0.00000
  58                    0.00000   0.00000   0.00000   0.00000   0.00000
  59                    0.00000   0.00000   0.00000   0.00000   0.00000
  60                    0.00000   0.00000   0.00000   0.00000   0.00000
  61                    0.00000   0.00000   0.00000   0.00000   0.00000
  62                    0.00000   0.00000   0.00000   0.00000   0.00000
  63                    0.00000   0.00000   0.00000   0.00000   0.00000
  64                    0.00000   0.00000   0.00000   0.00000   0.00000
  65                    0.00000   0.00000   0.00000   0.00000   0.00000
  66                    0.00000   0.00000   0.00000   0.00000   0.00000
  67                    0.00000   0.00000   0.00000   0.00000   0.00000
  68                    0.00000   0.00000   0.00000   0.00000   0.00000
  69                    0.00000   0.00000   0.00000   0.00000   0.00000
  70                    0.00000   0.00000   0.00000   0.00000   0.00000
  71                    0.00000   0.00000   0.00000   0.00000   0.00000
  72                    0.00000   0.00000   0.00000   0.00000   0.00000
  73                    0.00000   0.00000   0.00000   0.00000   0.00000
  74                    0.00000   0.00000   0.00000   0.00000   0.00000
  75                    0.00000   0.00000   0.00000   0.00000   0.00000
  76                    0.00000   0.00000   0.00000   0.00000   0.00000
  77                    0.00000   0.00000   0.00000   0.00000   0.00000
  78                    0.00000   0.00000   0.00000   0.00000   0.00000
  79                    0.00000   0.00000   0.00000   0.00000   0.00000
  80                    0.00000   0.00000   0.00000   0.00000   0.00000
  81                    0.00000   0.00000   0.00000   0.00000   0.00000
  82                    0.00000   0.00000   0.00000   0.00000   0.00000
  83                    0.00000   0.00000   0.00000   0.00000   0.00000
  84                    0.00000   0.00000   0.00000   0.00000   0.00000
  85                    0.00000   0.00000   0.00000   0.00000   0.00000
  86                    0.00000   0.00000   0.00000   0.00000   0.00000
  87                    0.00000   0.00000   0.00000   0.00000   0.00000
  88                    0.00000   0.00000   0.00000   0.00000   0.00000
  89                    0.00000   0.00000   0.00000   0.00000   0.00000
  90                    0.00000   0.00000   0.00000   0.00000   0.00000
  91                    0.00000   0.00000   0.00000   0.00000   0.00000
  92                    0.00000   0.00000   0.00000   0.00000   0.00000
  93                    0.00000   0.00000   0.00000   0.00000   0.00000
  94                    0.00000   0.00000   0.00000   0.00000   0.00000
  95                    0.00000   0.00000   0.00000   0.00000   0.00000
  96                    0.00000   0.00000   0.00000   0.00000   0.00000
  97                    0.00000   0.00000   0.00000   0.00000   0.00000
  98                    0.00000   0.00000   0.00000   0.00000   0.00000
  99                    0.00000   0.00000   0.00000   0.00000   0.00000
 100                    0.00000   0.00000   0.00000   0.00000   0.00000
 101                    0.00000   0.00000   0.00000   0.00000   0.00000
 102                    0.00000   0.00000   0.00000   0.00000   0.00000
 103                    0.00000   0.00000   0.00000   0.00000   0.00000
 104                    0.00000   0.00000   0.00000   0.00000   0.00000
 105                    0.00000   0.00000   0.00000   0.00000   0.00000
 106                    0.00000   0.00000   0.00000   0.00000   0.00000
 107                    0.00000   0.00000   0.00000   0.00000   0.00000
 108                    0.00000   0.00000   0.00000   0.00000   0.00000
 109                    0.00000   0.00000   0.00000   0.00000   0.00000
 110                    0.00000   0.00000   0.00000   0.00000   0.00000
 111                    0.00000   0.00000   0.00000   0.00000   0.00000
 112                    0.00000   0.00000   0.00000   0.00000   0.00000
 113                    0.00000   0.00000   0.00000   0.00000   0.00000
 114                    0.00000   0.00000   0.00000   0.00000   0.00000
 115                    0.00000   0.00000   0.00000   0.00000   0.00000
 116                    0.00000   0.00000   0.00000   0.00000   0.00000
 117                    0.00000   0.00000   0.00000   0.00000   0.00000
 118                    0.00000   0.00000   0.00000   0.00000   0.00000
 119                    0.00000   0.00000   0.00000   0.00000   0.00000
 120                    0.00000   0.00000   0.00000   0.00000   0.00000
                          16        17        18        19        20
     Eigenvalues --    -0.08221  -0.08221  -0.08221  -0.00449   0.02593
   1                    0.00000   0.00000   0.00000   0.01306   0.00000
   2                    0.00000   0.00000   0.00000  -0.04641   0.00000
   3                    0.00005   0.07807  -0.01609   0.00000   0.00000
   4                    0.07971  -0.00005   0.00000   0.00000   0.00000
   5                    0.00001   0.01609   0.07807   0.00000   0.00000
   6                    0.00000   0.00000   0.00000   0.16034   0.00000
   7                   -0.00020  -0.30525   0.06292   0.00000   0.00000
   8                   -0.31166   0.00020   0.00000   0.00000   0.00000
   9                   -0.00004  -0.06292  -0.30525   0.00000   0.00000
  10                    0.00000   0.00000   0.00000   0.00000   0.00000
  11                    0.00000   0.00000   0.00000   0.00000  -0.14994
  12                    0.00000   0.00000   0.00000   0.00000  -0.08875
  13                    0.00000   0.00000   0.00000   0.00000   0.00000
  14                    0.00000   0.00000   0.00000   0.00000  -0.25624
  15                    0.00000   0.00000   0.00000   0.00000  -0.00001
  16                    0.00000   0.00000   0.00000   0.00000   0.46281
  17                    0.00000   0.00000   0.00000   0.00000   0.27395
  18                    0.00000   0.00000   0.00000   0.00000   0.00000
  19                    0.00000   0.00000   0.00000   0.00000   0.79093
  20                    0.00000   0.00000   0.00000  -0.44574   0.00000
  21                    0.00000   0.00000   0.00000   1.12627   0.00000
  22                    0.00010   0.15826  -0.03262   0.00000   0.00000
  23                    0.16159  -0.00010   0.00000   0.00000   0.00000
  24                    0.00002   0.03262   0.15826   0.00000   0.00000
  25                    0.00013   0.21034  -0.04335   0.00000   0.00000
  26                    0.21476  -0.00014   0.00000   0.00000   0.00000
  27                    0.00003   0.04335   0.21034   0.00000   0.00000
  28                    0.00000   0.00000   0.00000   0.03509   0.00000
  29                    0.00000   0.00000   0.00000  -0.52083   0.00000
  30                    0.00000   0.00000   0.00000   0.25182   0.00000
  31                    0.00000   0.00235  -0.00048   0.00000   0.00000
  32                    0.00240   0.00000   0.00000   0.00000   0.00000
  33                    0.00000   0.00048   0.00235   0.00000   0.00000
  34                    0.00009   0.13563  -0.02796   0.00000   0.00000
  35                    0.13848  -0.00009   0.00000   0.00000   0.00000
  36                    0.00002   0.02796   0.13563   0.00000   0.00000
  37                    0.00039   0.60887  -0.12550   0.00000   0.00000
  38                    0.62167  -0.00040   0.00000   0.00000   0.00000
  39                    0.00008   0.12550   0.60887   0.00000   0.00000
  40                    0.00000   0.00000   0.00000   0.00000   0.00000
  41                    0.00000   0.00000   0.00000   0.00000   0.00437
  42                    0.00000   0.00000   0.00000   0.00000   0.00258
  43                    0.00000   0.00000   0.00000   0.00000   0.00000
  44                    0.00000   0.00000   0.00000   0.00000   0.00746
  45                    0.00000   0.00000   0.00000   0.00000   0.00000
  46                    0.00000   0.00000   0.00000   0.00000   0.01028
  47                    0.00000   0.00000   0.00000   0.00000   0.00609
  48                    0.00000   0.00000   0.00000   0.00000   0.00000
  49                    0.00000   0.00000   0.00000   0.00000   0.01758
  50                    0.00000   0.00000   0.00000   0.00000   0.00000
  51                    0.00000   0.00000   0.00000   0.00000   0.03731
  52                    0.00000   0.00000   0.00000   0.00000   0.02209
  53                    0.00000   0.00000   0.00000   0.00000   0.00000
  54                    0.00000   0.00000   0.00000   0.00000   0.06377
  55                    0.00000   0.00000   0.00000   0.00000   0.00000
  56                    0.00000   0.00000   0.00000   0.00000   0.00000
  57                    0.00000   0.00000   0.00000   0.00000   0.00000
  58                    0.00000   0.00000   0.00000   0.00000   0.00000
  59                    0.00000   0.00000   0.00000   0.00000   0.00000
  60                    0.00000   0.00000   0.00000   0.00000   0.00000
  61                    0.00000   0.00000   0.00000   0.00000   0.00000
  62                    0.00000   0.00000   0.00000   0.00000   0.00000
  63                    0.00000   0.00000   0.00000   0.00000   0.00000
  64                    0.00000   0.00000   0.00000   0.00000   0.00000
  65                    0.00000   0.00000   0.00000   0.00000   0.00000
  66                    0.00000   0.00000   0.00000   0.00000   0.00000
[...]
 113       28H+2        0.00000   0.00000   0.00000   0.00000   0.00000
 114       28H-2        0.00000   0.00000   0.00000   0.00000   0.00000
 115       28H+3        0.00000   0.00000   0.00000   0.00000   0.00000
 116       28H-3        0.00000   0.00000   0.00000   0.00000   0.00000
 117       28H+4        0.00000   0.00000   0.00000   0.00000   0.00000
 118       28H-4        0.00000   0.00000   0.00000   0.00000   0.00000
 119       28H+5        0.00000   0.00000   0.00000   0.00000   0.00000
 120       28H-5        0.00000   0.00000   0.00000   0.00000   0.00000
                          96        97        98        99       100
  96       26G-2        0.00000
  97       26G+3        0.00000   0.00000
  98       26G-3        0.00000   0.00000   0.00000
  99       26G+4        0.00000   0.00000   0.00000   0.00000
 100       26G-4        0.00000   0.00000   0.00000   0.00000   0.00000
 101       27G 0        0.00000   0.00000   0.00000   0.00000   0.00000
 102       27G+1        0.00000   0.00000   0.00000   0.00000   0.00000
 103       27G-1        0.00000   0.00000   0.00000   0.00000   0.00000
 104       27G+2        0.00000   0.00000   0.00000   0.00000   0.00000
 105       27G-2        0.00000   0.00000   0.00000   0.00000   0.00000
 106       27G+3        0.00000   0.00000   0.00000   0.00000   0.00000
 107       27G-3        0.00000   0.00000   0.00000   0.00000   0.00000
 108       27G+4        0.00000   0.00000   0.00000   0.00000   0.00000
 109       27G-4        0.00000   0.00000   0.00000   0.00000   0.00000
 110       28H 0        0.00000   0.00000   0.00000   0.00000   0.00000
 111       28H+1        0.00000   0.00000   0.00000   0.00000   0.00000
 112       28H-1        0.00000   0.00000   0.00000   0.00000   0.00000
 113       28H+2        0.00000   0.00000   0.00000   0.00000   0.00000
 114       28H-2        0.00000   0.00000   0.00000   0.00000   0.00000
 115       28H+3        0.00000   0.00000   0.00000   0.00000   0.00000
 116       28H-3        0.00000   0.00000   0.00000   0.00000   0.00000
 117       28H+4        0.00000   0.00000   0.00000   0.00000   0.00000
 118       28H-4        0.00000   0.00000   0.00000   0.00000   0.00000
 119       28H+5        0.00000   0.00000   0.00000   0.00000   0.00000
 120       28H-5        0.00000   0.00000   0.00000   0.00000   0.00000
                         101       102       103       104       105
 101       27G 0        0.00000
 102       27G+1        0.00000   0.00000
 103       27G-1        0.00000   0.00000   0.00000
 104       27G+2        0.00000   0.00000   0.00000   0.00000
 105       27G-2        0.00000   0.00000   0.00000   0.00000   0.00000
 106       27G+3        0.00000   0.00000   0.00000   0.00000   0.00000
 107       27G-3        0.00000   0.00000   0.00000   0.00000   0.00000
 108       27G+4        0.00000   0.00000   0.00000   0.00000   0.00000
 109       27G-4        0.00000   0.00000   0.00000   0.00000   0.00000
 110       28H 0        0.00000   0.00000   0.00000   0.00000   0.00000
 111       28H+1        0.00000   0.00000   0.00000   0.00000   0.00000
 112       28H-1        0.00000   0.00000   0.00000   0.00000   0.00000
 113       28H+2        0.00000   0.00000   0.00000   0.00000   0.00000
 114       28H-2        0.00000   0.00000   0.00000   0.00000   0.00000
 115       28H+3        0.00000   0.00000   0.00000   0.00000   0.00000
 116       28H-3        0.00000   0.00000   0.00000   0.00000   0.00000
 117       28H+4        0.00000   0.00000   0.00000   0.00000   0.00000
 118       28H-4        0.00000   0.00000   0.00000   0.00000   0.00000
 119       28H+5        0.00000   0.00000   0.00000   0.00000   0.00000
 120       28H-5        0.00000   0.00000   0.00000   0.00000   0.00000
                         106       107       108       109       110
 106       27G+3        0.00000
 107       27G-3        0.00000   0.00000
 108       27G+4        0.00000   0.00000   0.00000
 109       27G-4        0.00000   0.00000   0.00000   0.00000
 110       28H 0        0.00000   0.00000   0.00000   0.00000   0.00000
 111       28H+1        0.00000   0.00000   0.00000   0.00000   0.00000
 112       28H-1        0.00000   0.00000   0.00000   0.00000   0.00000
 113       28H+2        0.00000   0.00000   0.00000   0.00000   0.00000
 114       28H-2        0.00000   0.00000   0.00000   0.00000   0.00000
 115       28H+3        0.00000   0.00000   0.00000   0.00000   0.00000
 116       28H-3        0.00000   0.00000   0.00000   0.00000   0.00000
 117       28H+4        0.00000   0.00000   0.00000   0.00000   0.00000
 118       28H-4        0.00000   0.00000   0.00000   0.00000   0.00000
 119       28H+5        0.00000   0.00000   0.00000   0.00000   0.00000
 120       28H-5        0.00000   0.00000   0.00000   0.00000   0.00000
                         111       112       113       114       115
 111       28H+1        0.00000
 112       28H-1        0.00000   0.00000
 113       28H+2        0.00000   0.00000   0.00000
 114       28H-2        0.00000   0.00000   0.00000   0.00000
 115       28H+3        0.00000   0.00000   0.00000   0.00000   0.00000
 116       28H-3        0.00000   0.00000   0.00000   0.00000   0.00000
 117       28H+4        0.00000   0.00000   0.00000   0.00000   0.00000
 118       28H-4        0.00000   0.00000   0.00000   0.00000   0.00000
 119       28H+5        0.00000   0.00000   0.00000   0.00000   0.00000
 120       28H-5        0.00000   0.00000   0.00000   0.00000   0.00000
                         116       117       118       119       120
 116       28H-3        0.00000
 117       28H+4        0.00000   0.00000
 118       28H-4        0.00000   0.00000   0.00000
 119       28H+5        0.00000   0.00000   0.00000   0.00000
 120       28H-5        0.00000   0.00000   0.00000   0.00000   0.00000
     Gross orbital populations:
                           1
   1 1   Sc 1S          2.00001
   2        2S          1.99963
   3        3PX         2.00010
   4        3PY         2.00010
   5        3PZ         2.00010
   6        4S          1.93745
   7        5PX         1.95494
   8        5PY         1.95494
   9        5PZ         1.95494
  10        6D 0        0.69514
  11        6D+1        0.16651
  12        6D-1        0.05924
  13        6D+2        0.68149
  14        6D-2        0.05924
  15        7D 0        0.00918
  16        7D+1        0.00220
  17        7D-1        0.00078
  18        7D+2        0.00900
  19        7D-2        0.00078
  20        8S          0.72138
  21        9S          0.01721
  22       10PX         0.01415
  23       10PY         0.01415
  24       10PZ         0.01415
  25       11PX        -0.00003
  26       11PY        -0.00003
  27       11PZ        -0.00003
  28       12S         -0.00278
  29       13S          0.10447
  30       14S          0.22264
  31       15PX         0.03654
  32       15PY         0.03654
  33       15PZ         0.03654
  34       16PX        -0.00061
  35       16PY        -0.00061
  36       16PZ        -0.00061
  37       17PX        -0.00509
  38       17PY        -0.00509
  39       17PZ        -0.00509
  40       18D 0        0.02198
  41       18D+1        0.00527
  42       18D-1        0.00187
  43       18D+2        0.02155
  44       18D-2        0.00187
  45       19D 0        0.04997
  46       19D+1        0.01197
  47       19D-1        0.00426
  48       19D+2        0.04899
  49       19D-2        0.00426
  50       20D 0        0.06043
  51       20D+1        0.01447
  52       20D-1        0.00515
  53       20D+2        0.05924
  54       20D-2        0.00515
  55       21F 0        0.00000
  56       21F+1        0.00000
  57       21F-1        0.00000
  58       21F+2        0.00000
  59       21F-2        0.00000
  60       21F+3        0.00000
  61       21F-3        0.00000
  62       22F 0        0.00000
  63       22F+1        0.00000
  64       22F-1        0.00000
  65       22F+2        0.00000
  66       22F-2        0.00000
  67       22F+3        0.00000
  68       22F-3        0.00000
  69       23F 0        0.00000
  70       23F+1        0.00000
  71       23F-1        0.00000
  72       23F+2        0.00000
  73       23F-2        0.00000
  74       23F+3        0.00000
  75       23F-3        0.00000
  76       24F 0        0.00000
  77       24F+1        0.00000
  78       24F-1        0.00000
  79       24F+2        0.00000
  80       24F-2        0.00000
  81       24F+3        0.00000
  82       24F-3        0.00000
  83       25G 0        0.00000
  84       25G+1        0.00000
  85       25G-1        0.00000
  86       25G+2        0.00000
  87       25G-2        0.00000
  88       25G+3        0.00000
  89       25G-3        0.00000
  90       25G+4        0.00000
  91       25G-4        0.00000
  92       26G 0        0.00000
  93       26G+1        0.00000
  94       26G-1        0.00000
  95       26G+2        0.00000
  96       26G-2        0.00000
  97       26G+3        0.00000
  98       26G-3        0.00000
  99       26G+4        0.00000
 100       26G-4        0.00000
 101       27G 0        0.00000
 102       27G+1        0.00000
 103       27G-1        0.00000
 104       27G+2        0.00000
 105       27G-2        0.00000
 106       27G+3        0.00000
 107       27G-3        0.00000
 108       27G+4        0.00000
 109       27G-4        0.00000
 110       28H 0        0.00000
 111       28H+1        0.00000
 112       28H-1        0.00000
 113       28H+2        0.00000
 114       28H-2        0.00000
 115       28H+3        0.00000
 116       28H-3        0.00000
 117       28H+4        0.00000
 118       28H-4        0.00000
 119       28H+5        0.00000
 120       28H-5        0.00000
          Condensed to atoms (all electrons):
              1
     1  Sc  21.000000
 Mulliken atomic charges:
              1
     1  Sc   0.000000
 Sum of Mulliken atomic charges =   0.00000
 Mulliken charges with hydrogens summed into heavy atoms:
              1
     1  Sc   0.000000
 Sum of Mulliken charges with hydrogens summed into heavy atoms =   0.00000
 Electronic spatial extent (au):  <R**2>=             45.7584
 Charge=              0.0000 electrons
 Dipole moment (field-independent basis, Debye):
    X=              0.0000    Y=              0.0000    Z=              0.0000  Tot=              0.0000
 Quadrupole moment (field-independent basis, Debye-Ang):
   XX=            -20.3414   YY=            -20.5687   ZZ=            -20.6364
   XY=             -0.0011   XZ=              0.2946   YZ=             -0.0015
 Traceless Quadrupole moment (field-independent basis, Debye-Ang):
   XX=              0.1741   YY=             -0.0532   ZZ=             -0.1209
   XY=             -0.0011   XZ=              0.2946   YZ=             -0.0015
 Octapole moment (field-independent basis, Debye-Ang**2):
  XXX=              0.0000  YYY=              0.0000  ZZZ=              0.0000  XYY=              0.0000
  XXY=              0.0000  XXZ=              0.0000  XZZ=              0.0000  YZZ=              0.0000
  YYZ=              0.0000  XYZ=              0.0000
 Hexadecapole moment (field-independent basis, Debye-Ang**3):
 XXXX=            -70.3852 YYYY=            -71.8835 ZZZZ=            -71.7507 XXXY=              0.0008
 XXXZ=              1.9416 YYYX=             -0.0053 YYYZ=             -0.0109 ZZZX=             -0.5780
 ZZZY=              0.0058 XXYY=            -21.9865 XXZZ=            -22.4325 YYZZ=            -21.9865
 XXYZ=             -0.0017 YYXZ=              0.0000 ZZXY=             -0.0005
 N-N= 0.000000000000D+00 E-N=-1.802542124379D+03  KE= 7.596261282139D+02
 Orbital energies and kinetic energies (alpha):
                                 1                 2
   1         (A1G)--O          0.000000        210.927670
   2         (A1G)--O          0.000000         36.522313
   3         (T1U)--O          0.000000         35.276084
   4         (T1U)--O          0.000000         35.276084
   5         (T1U)--O          0.000000         35.276084
   6         (A1G)--O          0.000000          6.839326
   7         (T1U)--O          0.000000          5.692587
   8         (T1U)--O          0.000000          5.692587
   9         (T1U)--O          0.000000          5.692587
  10         (A1G)--O          0.000000          0.469891
  11         (T2G)--O          0.000000          2.382799
  12         (T2G)--O          0.000000          2.382799
  13         (T2G)--V          0.000000          2.382799
  14         (EG)--V           0.000000          2.382799
  15         (EG)--V           0.000000          2.382799
  16         (T1U)--V          0.000000          0.314103
  17         (T1U)--V          0.000000          0.314103
  18         (T1U)--V          0.000000          0.314103
  19         (A1G)--V          0.000000          0.046734
  20         (T2G)--V          0.000000          0.153287
  21         (T2G)--V          0.000000          0.153287
  22         (T2G)--V          0.000000          0.153287
  23         (EG)--V           0.000000          0.153287
  24         (EG)--V           0.000000          0.153287
  25         (T1U)--V          0.000000          0.070677
  26         (T1U)--V          0.000000          0.070677
  27         (T1U)--V          0.000000          0.070677
  28         (A1G)--V          0.000000          0.451938
  29         (T2U)--V          0.000000          0.190797
  30         (T2U)--V          0.000000          0.190797
  31         (T2U)--V          0.000000          0.190797
  32         (A2U)--V          0.000000          0.190797
  33         (T1U)--V          0.000000          0.190797
  34         (T1U)--V          0.000000          0.190797
  35         (T1U)--V          0.000000          0.190797
  36         (T2G)--V          0.000000          0.816448
  37         (T2G)--V          0.000000          0.816448
  38         (T2G)--V          0.000000          0.816448
  39         (EG)--V           0.000000          0.816448
  40         (EG)--V           0.000000          0.816448
  41         (T1U)--V          0.000000          1.072569
  42         (T1U)--V          0.000000          1.072569
  43         (T1U)--V          0.000000          1.072569
  44         (T1G)--V          0.000000          0.338693
  45         (T1G)--V          0.000000          0.338693
  46         (T1G)--V          0.000000          0.338693
  47         (T2G)--V          0.000000          0.338693
  48         (T2G)--V          0.000000          0.338693
  49         (T2G)--V          0.000000          0.338693
  50         (EG)--V           0.000000          0.338693
  51         (EG)--V           0.000000          0.338693
  52         (A1G)--V          0.000000          0.338693
  53         (T2U)--V          0.000000          0.687534
  54         (T2U)--V          0.000000          0.687534
  55         (T2U)--V          0.000000          0.687534
  56         (A2U)--V          0.000000          0.687534
  57         (T1U)--V          0.000000          0.687534
  58         (T1U)--V          0.000000          0.687534
  59         (T1U)--V          0.000000          0.687534
  60         (A1G)--V          0.000000          1.847696
  61         (T2G)--V          0.000000          2.015457
  62         (T2G)--V          0.000000          2.015457
  63         (T2G)--V          0.000000          2.015457
  64         (EG)--V           0.000000          2.015457
  65         (EG)--V           0.000000          2.015457
  66         (T1G)--V          0.000000          1.030449
  67         (T1G)--V          0.000000          1.030449
  68         (T1G)--V          0.000000          1.030449
  69         (T2G)--V          0.000000          1.030449
  70         (T2G)--V          0.000000          1.030449
  71         (T2G)--V          0.000000          1.030449
  72         (EG)--V           0.000000          1.030449
  73         (EG)--V           0.000000          1.030449
  74         (A1G)--V          0.000000          1.030449
  75         (T1U)--V          0.000000          2.861496
  76         (T1U)--V          0.000000          2.861496
  77         (T1U)--V          0.000000          2.861496
  78         (T2U)--V          0.000000          2.250539
  79         (T2U)--V          0.000000          2.250539
  80         (T2U)--V          0.000000          2.250539
  81         (A2U)--V          0.000000          2.250539
  82         (T1U)--V          0.000000          2.250539
  83         (T1U)--V          0.000000          2.250539
  84         (T1U)--V          0.000000          2.250539
  85         (EU)--V           0.000000          1.709327
  86         (EU)--V           0.000000          1.709327
  87         (T2U)--V          0.000000          1.709327
  88         (T2U)--V          0.000000          1.709327
  89         (T2U)--V          0.000000          1.709327
  90         (T1U)--V          0.000000          1.709327
  91         (T1U)--V          0.000000          1.709327
  92         (T1U)--V          0.000000          1.709327
  93         (T1U)--V          0.000000          1.709327
  94         (T1U)--V          0.000000          1.709327
  95         (T1U)--V          0.000000          1.709327
  96         (T2G)--V          0.000000          6.048008
  97         (T2G)--V          0.000000          6.048008
  98         (T2G)--V          0.000000          6.048008
  99         (EG)--V           0.000000          6.048008
 100         (EG)--V           0.000000          6.048008
 101         (T1G)--V          0.000000          2.908296
 102         (T1G)--V          0.000000          2.908296
 103         (T1G)--V          0.000000          2.908296
 104         (T2G)--V          0.000000          2.908296
 105         (T2G)--V          0.000000          2.908296
 106         (T2G)--V          0.000000          2.908296
 107         (EG)--V           0.000000          2.908296
 108         (EG)--V           0.000000          2.908296
 109         (A1G)--V          0.000000          2.908296
 110         (A1G)--V          0.000000          8.378005
 111         (T1U)--V          0.000000          8.594458
 112         (T1U)--V          0.000000          8.594458
 113         (T1U)--V          0.000000          8.594458
 114         (T2U)--V          0.000000          7.087293
 115         (T2U)--V          0.000000          7.087293
 116         (T2U)--V          0.000000          7.087293
 117         (A2U)--V          0.000000          7.087293
 118         (T1U)--V          0.000000          7.087293
 119         (T1U)--V          0.000000          7.087293
 120         (T1U)--V          0.000000          7.087293
 Total kinetic energy from orbitals= 7.648616181967D+02
 No NMR shielding tensors so no spin-rotation constants.
 Leave Link  601 at Fri Oct 11 13:22:51 2013, MaxMem= 8589934592 cpu:      10.5
 (Enter /share/apps/gaussian/g09root/g09/l9999.exe)

 Test job not archived.
 1\1\GINC-N34\SP\CASSCF\Gen\Sc1(4)\ROOT\11-Oct-2013\0\\#P CAS(3,6,State
 Average,nroot=7,Slater) Gen GFinput Int=NoBasisTransform Int(Grid=Ultr
 afine) Pop=Full Guess=Print IOp(3/32=2,5/6=10,5/15=2) Maxdisk=128GB SC
 F=(Symm,Tight)\\Sc 4F\\0,4\Sc\\Version=EM64L-G09RevA.02\HF=-759.698339
 9\RMSD=0.000e+00\Dipole=0.,0.,0.\Quadrupole=-0.089876,-0.0395575,0.129
 4335,-0.0010942,-0.2189951,0.0008023\PG=OH [O(Sc1)]\\@


 AND HERE I AM, FOR ALL MY LORE,
 THE WRETCHED FOOL I WAS BEFORE.
 CALLED MASTER OF ARTS, AND DOCTOR TO BOOT,
 FOR TEN YEARS ALMOST I CONFUTE
 AND UP AND DOWN, WHEREVER IT GOES
 I DRAG MY STUDENTS BY THE NOSE --
 AND SEE THAT FOR ALL OUR SCIENCE AND ART
 WE CAN KNOW NOTHING.  IT BURNS MY HEART.

                                       -- FAUST
 Job cpu time:  0 days  1 hours 37 minutes 50.0 seconds.
 File lengths (MBytes):  RWF=     13 Int=      0 D2E=      0 Chk=     11 Scr=      1
 Normal termination of Gaussian 09 at Fri Oct 11 13:22:51 2013.
