 Entering Gaussian System, Link 0=gdv
 AtFile(1): 6ZaPa-NR.gbs
 Initial command:
 /share/apps/gaussian/gdvh12/gdv/l1.exe /localscratch/933404/Gau-13378.inp -scrdir=/localscratch/933404/
 Entering Link 1 = /share/apps/gaussian/gdvh12/gdv/l1.exe PID=     13379.
  
 Copyright (c) 1988,1990,1992,1993,1995,1998,2003,2009,2011,
            Gaussian, Inc.  All Rights Reserved.
  
 This is the private, development version of
 the Gaussian(R) DV system of programs. It is based on
 the Gaussian(R) 09 system (copyright 2009, Gaussian, Inc.),
 the Gaussian(R) 03 system (copyright 2003, Gaussian, Inc.),
 the Gaussian(R) 98 system (copyright 1998, Gaussian, Inc.),
 the Gaussian(R) 94 system (copyright 1995, Gaussian, Inc.),
 the Gaussian 92(TM) system (copyright 1992, Gaussian, Inc.),
 the Gaussian 90(TM) system (copyright 1990, Gaussian, Inc.),
 the Gaussian 88(TM) system (copyright 1988, Gaussian, Inc.),
 the Gaussian 86(TM) system (copyright 1986, Carnegie Mellon
 University), and the Gaussian 82(TM) system (copyright 1983,
 Carnegie Mellon University). Gaussian is a federally registered
 trademark of Gaussian, Inc.
  
 This software contains proprietary and confidential information,
 including trade secrets, belonging to Gaussian, Inc.
  
 This software is provided under written license and may be
 used, copied, transmitted, or stored only in accord with that
 written license.
  
 The following legend is applicable only to US Government
 contracts under FAR:
  
                    RESTRICTED RIGHTS LEGEND
  
 Use, reproduction and disclosure by the US Government is
 subject to restrictions as set forth in subparagraphs (a)
 and (c) of the Commercial Computer Software - Restricted
 Rights clause in FAR 52.227-19.
  
 Gaussian, Inc.
 340 Quinnipiac St., Bldg. 40, Wallingford CT 06492
  
  
 ---------------------------------------------------------------
 Warning -- This program may not be used in any manner that
 competes with the business of Gaussian, Inc. or will provide
 assistance to any competitor of Gaussian, Inc.  The licensee
 of this program is prohibited from giving any competitor of
 Gaussian, Inc. access to this program.  By using this program,
 the user acknowledges that Gaussian, Inc. is engaged in the
 business of creating and licensing software in the field of
 computational chemistry and represents and warrants to the
 licensee that it is not a competitor of Gaussian, Inc. and that
 it will not use this program in any manner prohibited above.
 ---------------------------------------------------------------
  

 Cite this work as:
 Gaussian Development Version, Revision H.12,
 M. J. Frisch, G. W. Trucks, H. B. Schlegel, G. E. Scuseria, 
 M. A. Robb, J. R. Cheeseman, G. Scalmani, V. Barone, B. Mennucci, 
 G. A. Petersson, H. Nakatsuji, M. Caricato, X. Li, H. P. Hratchian, 
 A. F. Izmaylov, J. Bloino, G. Zheng, J. L. Sonnenberg, M. Hada, 
 M. Ehara, K. Toyota, R. Fukuda, J. Hasegawa, M. Ishida, T. Nakajima, 
 Y. Honda, O. Kitao, H. Nakai, T. Vreven, J. A. Montgomery, Jr., 
 J. E. Peralta, F. Ogliaro, M. Bearpark, J. J. Heyd, E. Brothers, 
 K. N. Kudin, V. N. Staroverov, T. Keith, R. Kobayashi, J. Normand, 
 K. Raghavachari, A. Rendell, J. C. Burant, S. S. Iyengar, J. Tomasi, 
 M. Cossi, N. Rega, J. M. Millam, M. Klene, J. E. Knox, J. B. Cross, 
 V. Bakken, C. Adamo, J. Jaramillo, R. Gomperts, R. E. Stratmann, 
 O. Yazyev, A. J. Austin, R. Cammi, C. Pomelli, J. W. Ochterski, 
 R. L. Martin, K. Morokuma, V. G. Zakrzewski, G. A. Voth, 
 P. Salvador, J. J. Dannenberg, S. Dapprich, P. V. Parandekar, 
 N. J. Mayhall, A. D. Daniels, O. Farkas, J. B. Foresman, 
 J. V. Ortiz, J. Cioslowski, and D. J. Fox, 
 Gaussian, Inc., Wallingford CT, 2010.
 
 ******************************************
 Gaussian DV:  EM64L-GDVRevH.12  9-Jun-2011
                 1-May-2013 
 ******************************************
 % Mem=12GB
 % Nproc=8
 Will use up to    8 processors via shared memory.
 ----------------------------------------------------------------------
 # ROMP2(RW) Gen GFinput Int=NoBasisTransform Int(Grid=Ultrafine) IOp(3
 /32=2,5/6=10,8/11=1,9/33=1) Maxdisk=128GB CBSextrapolate(Nmin=20,MinPo
 p)
 ----------------------------------------------------------------------
 1/38=1/1;
 2/12=2,17=6,18=5,40=1/2;
 3/5=7,11=2,16=1,24=10,25=1,30=1,32=2,60=-1,75=-5,116=101/1,2,3;
 4//1;
 5/5=2,6=10,38=5/2;
 8/5=-1,10=91,11=1/1;
 9/16=-3,33=1,75=2,81=20,83=4/6,4;
 6/7=2,8=2,9=2,10=2/1;
 99/5=1,9=1/99;
 ---
 Se2
 ---
 Charge =  0 Multiplicity = 3
 Symbolic Z-Matrix:
 Se
 Se                   1     2.166 
 
                          Input orientation:                          
 ---------------------------------------------------------------------
 Center     Atomic      Atomic             Coordinates (Angstroms)
 Number     Number       Type             X           Y           Z
 ---------------------------------------------------------------------
      1         34           0        0.000000    0.000000    0.000000
      2         34           0        0.000000    0.000000    2.166000
 ---------------------------------------------------------------------
 Stoichiometry    Se2(3)
 Framework group  D*H[C*(Se.Se)]
 Deg. of freedom     1
 Full point group                 D*H     NOp   8
 Largest Abelian subgroup         D2H     NOp   8
 Largest concise Abelian subgroup C2      NOp   2
                         Standard orientation:                         
 ---------------------------------------------------------------------
 Center     Atomic      Atomic             Coordinates (Angstroms)
 Number     Number       Type             X           Y           Z
 ---------------------------------------------------------------------
      1         34           0        0.000000    0.000000    1.083000
      2         34           0        0.000000    0.000000   -1.083000
 ---------------------------------------------------------------------
 Rotational constants (GHZ):      0.0000000      2.6958376      2.6958376
 General basis read from cards:  (5D, 7F)
 AO basis set in the form of general basis input (Overlap normalization):
      1 0
 S  17 1.00       0.000000000000
      0.4615677520D+08  0.7771927974D-06
      0.8764992200D+07  0.4757319355D-05
      0.2024605530D+07  0.2683243093D-04
      0.5515890190D+06  0.1208737580D-03
      0.1725100740D+06  0.4638657673D-03
      0.6048829310D+05  0.1551983367D-02
      0.2329650380D+05  0.4646152038D-02
      0.9683237530D+04  0.1265007700D-01
      0.4278831490D+04  0.3160357341D-01
      0.1984533980D+04  0.7204018258D-01
      0.9557349210D+03  0.1461861283D+00
      0.4736032690D+03  0.2490174510D+00
      0.2396360400D+03  0.3159329494D+00
      0.1229968380D+03  0.2370453956D+00
      0.6367071600D+02  0.7215129724D-01
      0.3306874400D+02  0.5025395015D-02
      0.1714580200D+02  0.8674177946D-03
 S  16 1.00       0.000000000000
      0.1725100740D+06 -0.1299959407D-06
      0.6048829310D+05 -0.8034787037D-06
      0.2329650380D+05 -0.8327863064D-05
      0.9683237530D+04 -0.4882287486D-04
      0.4278831490D+04 -0.2974048991D-03
      0.1984533980D+04 -0.1422913394D-02
      0.9557349210D+03 -0.6249615881D-02
      0.4736032690D+03 -0.2215804258D-01
      0.2396360400D+03 -0.6121014885D-01
      0.1229968380D+03 -0.9178543877D-01
      0.6367071600D+02  0.2375220112D-01
      0.3306874400D+02  0.3760501356D+00
      0.1714580200D+02  0.5130081613D+00
      0.8830085000D+01  0.1943459299D+00
      0.4492540000D+01  0.1655451916D-01
      0.2244466000D+01  0.1789532947D-02
 P  15 1.00       0.000000000000
      0.7117043210D+05 -0.9050991289D-05
      0.1863067460D+05 -0.7381059761D-04
      0.5908746770D+04 -0.4748503202D-03
      0.2183705110D+04 -0.2300622736D-02
      0.9094374950D+03 -0.8917664536D-02
      0.4147896600D+03 -0.2836711590D-01
      0.2022533400D+03 -0.7547144152D-01
      0.1033347360D+03 -0.1639047435D+00
      0.5440974000D+02 -0.2772300549D+00
      0.2912750200D+02 -0.3324857386D+00
      0.1568034000D+02 -0.2249937949D+00
      0.8413343000D+01 -0.6555125242D-01
      0.4466598000D+01 -0.6919901497D-02
      0.2331881000D+01 -0.8228830976D-03
      0.1190607000D+01 -0.1522413870D-03
 S  11 1.00       0.000000000000
      0.2396360400D+03  0.8619307020D-03
      0.1229968380D+03  0.2572968013D-02
      0.6367071600D+02  0.1633371369D-02
      0.3306874400D+02 -0.5588823257D-01
      0.1714580200D+02 -0.2029169788D+00
      0.8830085000D+01 -0.6774809843D-01
      0.4492540000D+01  0.4493237908D+00
      0.2244466000D+01  0.5936548954D+00
      0.1093445000D+01  0.1637793123D+00
      0.5152040000D+00  0.1706344484D-02
      0.2325080000D+00  0.2247059360D-02
 P  15 1.00       0.000000000000
      0.5908746770D+04 -0.1387059009D-07
      0.2183705110D+04 -0.3777131530D-05
      0.9094374950D+03 -0.3159432784D-04
      0.4147896600D+03 -0.2559554820D-03
      0.2022533400D+03 -0.1344759874D-02
      0.1033347360D+03 -0.5468775906D-02
      0.5440974000D+02 -0.1444184314D-01
      0.2912750200D+02 -0.2479468756D-01
      0.1568034000D+02  0.2613076173D-01
      0.8413343000D+01  0.2038805253D+00
      0.4466598000D+01  0.3879864161D+00
      0.2331881000D+01  0.3620262109D+00
      0.1190607000D+01  0.1316615564D+00
      0.5913610000D+00  0.1170234648D-01
      0.2841310000D+00  0.1154623644D-02
 D  14 1.00       0.000000000000
      0.2680398060D+04  0.1905632967D-04
      0.8266593670D+03  0.1937733218D-03
      0.3202500830D+03  0.1227276056D-02
      0.1437014030D+03  0.5525855204D-02
      0.7057046700D+02  0.1900864087D-01
      0.3654926500D+02  0.5162703527D-01
      0.1952399100D+02  0.1158802612D+00
      0.1062638700D+02  0.2016817830D+00
      0.5851800000D+01  0.2644587342D+00
      0.3239081000D+01  0.2753052082D+00
      0.1782465000D+01  0.2194177191D+00
      0.9557350000D+00  0.1160015690D+00
      0.4825560000D+00  0.3073946841D-01
      0.2176060000D+00  0.2891859923D-02
 S  10 1.00       0.000000000000
      0.6367071600D+02  0.1828978064D-03
      0.3306874400D+02 -0.9280452448D-03
      0.1714580200D+02  0.1742470225D-02
      0.8830085000D+01 -0.2859445913D-02
      0.4492540000D+01 -0.1043708799D-01
      0.2244466000D+01 -0.1527833253D+00
      0.1093445000D+01 -0.1413450962D+00
      0.5152040000D+00  0.3698778459D+00
      0.2325080000D+00  0.6208688866D+00
      0.9934900000D-01  0.2278561835D+00
 S   1 1.00       0.000000000000
      0.4148321407D-01  0.1000000000D+01
 P  10 1.00       0.000000000000
      0.2912750200D+02  0.6511386608D-04
      0.1568034000D+02 -0.7508202497D-03
      0.8413343000D+01 -0.4913337526D-02
      0.4466598000D+01 -0.1087449728D-01
      0.2331881000D+01 -0.3162098219D-01
      0.1190607000D+01  0.1908789264D-01
      0.5913610000D+00  0.2361745924D+00
      0.2841310000D+00  0.4199366390D+00
      0.1312180000D+00  0.3622758107D+00
      0.5780400000D-01  0.1050704090D+00
 P   1 1.00       0.000000000000
      0.2966218604D-01  0.1000000000D+01
 S   1 1.00       0.000000000000
      0.3493984000D+01  0.1000000000D+01
 S   1 1.00       0.000000000000
      0.1821364000D+01  0.1000000000D+01
 S   1 1.00       0.000000000000
      0.9494510000D+00  0.1000000000D+01
 S   1 1.00       0.000000000000
      0.4949350000D+00  0.1000000000D+01
 S   1 1.00       0.000000000000
      0.2580030000D+00  0.1000000000D+01
 P   1 1.00       0.000000000000
      0.1902679000D+01  0.1000000000D+01
 P   1 1.00       0.000000000000
      0.1026440000D+01  0.1000000000D+01
 P   1 1.00       0.000000000000
      0.5537340000D+00  0.1000000000D+01
 P   1 1.00       0.000000000000
      0.2987240000D+00  0.1000000000D+01
 P   1 1.00       0.000000000000
      0.1611530000D+00  0.1000000000D+01
 D   1 1.00       0.000000000000
      0.1970727000D+01  0.1000000000D+01
 D   1 1.00       0.000000000000
      0.1014687000D+01  0.1000000000D+01
 D   1 1.00       0.000000000000
      0.5224410000D+00  0.1000000000D+01
 D   1 1.00       0.000000000000
      0.2689940000D+00  0.1000000000D+01
 D   1 1.00       0.000000000000
      0.1385000000D+00  0.1000000000D+01
 D   1 1.00       0.000000000000
      0.7131110000D-01  0.1000000000D+01
 F   1 1.00       0.000000000000
      0.2128161000D+01  0.1000000000D+01
 F   1 1.00       0.000000000000
      0.1018769000D+01  0.1000000000D+01
 F   1 1.00       0.000000000000
      0.4876940000D+00  0.1000000000D+01
 F   1 1.00       0.000000000000
      0.2334630000D+00  0.1000000000D+01
 F   1 1.00       0.000000000000
      0.1117610000D+00  0.1000000000D+01
 G   1 1.00       0.000000000000
      0.1058292000D+01  0.1000000000D+01
 G   1 1.00       0.000000000000
      0.5744090000D+00  0.1000000000D+01
 G   1 1.00       0.000000000000
      0.3117710000D+00  0.1000000000D+01
 G   1 1.00       0.000000000000
      0.1692190000D+00  0.1000000000D+01
 H   1 1.00       0.000000000000
      0.1081370000D+01  0.1000000000D+01
 H   1 1.00       0.000000000000
      0.5337550000D+00  0.1000000000D+01
 H   1 1.00       0.000000000000
      0.2634570000D+00  0.1000000000D+01
 I   1 1.00       0.000000000000
      0.8395964974D+00  0.1000000000D+01
 ****
      2 0
 S  17 1.00       0.000000000000
      0.4615677520D+08  0.7771927974D-06
      0.8764992200D+07  0.4757319355D-05
      0.2024605530D+07  0.2683243093D-04
      0.5515890190D+06  0.1208737580D-03
      0.1725100740D+06  0.4638657673D-03
      0.6048829310D+05  0.1551983367D-02
      0.2329650380D+05  0.4646152038D-02
      0.9683237530D+04  0.1265007700D-01
      0.4278831490D+04  0.3160357341D-01
      0.1984533980D+04  0.7204018258D-01
      0.9557349210D+03  0.1461861283D+00
      0.4736032690D+03  0.2490174510D+00
      0.2396360400D+03  0.3159329494D+00
      0.1229968380D+03  0.2370453956D+00
      0.6367071600D+02  0.7215129724D-01
      0.3306874400D+02  0.5025395015D-02
      0.1714580200D+02  0.8674177946D-03
 S  16 1.00       0.000000000000
      0.1725100740D+06 -0.1299959407D-06
      0.6048829310D+05 -0.8034787037D-06
      0.2329650380D+05 -0.8327863064D-05
      0.9683237530D+04 -0.4882287486D-04
      0.4278831490D+04 -0.2974048991D-03
      0.1984533980D+04 -0.1422913394D-02
      0.9557349210D+03 -0.6249615881D-02
      0.4736032690D+03 -0.2215804258D-01
      0.2396360400D+03 -0.6121014885D-01
      0.1229968380D+03 -0.9178543877D-01
      0.6367071600D+02  0.2375220112D-01
      0.3306874400D+02  0.3760501356D+00
      0.1714580200D+02  0.5130081613D+00
      0.8830085000D+01  0.1943459299D+00
      0.4492540000D+01  0.1655451916D-01
      0.2244466000D+01  0.1789532947D-02
 P  15 1.00       0.000000000000
      0.7117043210D+05 -0.9050991289D-05
      0.1863067460D+05 -0.7381059761D-04
      0.5908746770D+04 -0.4748503202D-03
      0.2183705110D+04 -0.2300622736D-02
      0.9094374950D+03 -0.8917664536D-02
      0.4147896600D+03 -0.2836711590D-01
      0.2022533400D+03 -0.7547144152D-01
      0.1033347360D+03 -0.1639047435D+00
      0.5440974000D+02 -0.2772300549D+00
      0.2912750200D+02 -0.3324857386D+00
      0.1568034000D+02 -0.2249937949D+00
      0.8413343000D+01 -0.6555125242D-01
      0.4466598000D+01 -0.6919901497D-02
      0.2331881000D+01 -0.8228830976D-03
      0.1190607000D+01 -0.1522413870D-03
 S  11 1.00       0.000000000000
      0.2396360400D+03  0.8619307020D-03
      0.1229968380D+03  0.2572968013D-02
      0.6367071600D+02  0.1633371369D-02
      0.3306874400D+02 -0.5588823257D-01
      0.1714580200D+02 -0.2029169788D+00
      0.8830085000D+01 -0.6774809843D-01
      0.4492540000D+01  0.4493237908D+00
      0.2244466000D+01  0.5936548954D+00
      0.1093445000D+01  0.1637793123D+00
      0.5152040000D+00  0.1706344484D-02
      0.2325080000D+00  0.2247059360D-02
 P  15 1.00       0.000000000000
      0.5908746770D+04 -0.1387059009D-07
      0.2183705110D+04 -0.3777131530D-05
      0.9094374950D+03 -0.3159432784D-04
      0.4147896600D+03 -0.2559554820D-03
      0.2022533400D+03 -0.1344759874D-02
      0.1033347360D+03 -0.5468775906D-02
      0.5440974000D+02 -0.1444184314D-01
      0.2912750200D+02 -0.2479468756D-01
      0.1568034000D+02  0.2613076173D-01
      0.8413343000D+01  0.2038805253D+00
      0.4466598000D+01  0.3879864161D+00
      0.2331881000D+01  0.3620262109D+00
      0.1190607000D+01  0.1316615564D+00
      0.5913610000D+00  0.1170234648D-01
      0.2841310000D+00  0.1154623644D-02
 D  14 1.00       0.000000000000
      0.2680398060D+04  0.1905632967D-04
      0.8266593670D+03  0.1937733218D-03
      0.3202500830D+03  0.1227276056D-02
      0.1437014030D+03  0.5525855204D-02
      0.7057046700D+02  0.1900864087D-01
      0.3654926500D+02  0.5162703527D-01
      0.1952399100D+02  0.1158802612D+00
      0.1062638700D+02  0.2016817830D+00
      0.5851800000D+01  0.2644587342D+00
      0.3239081000D+01  0.2753052082D+00
      0.1782465000D+01  0.2194177191D+00
      0.9557350000D+00  0.1160015690D+00
      0.4825560000D+00  0.3073946841D-01
      0.2176060000D+00  0.2891859923D-02
 S  10 1.00       0.000000000000
      0.6367071600D+02  0.1828978064D-03
      0.3306874400D+02 -0.9280452448D-03
      0.1714580200D+02  0.1742470225D-02
      0.8830085000D+01 -0.2859445913D-02
      0.4492540000D+01 -0.1043708799D-01
      0.2244466000D+01 -0.1527833253D+00
      0.1093445000D+01 -0.1413450962D+00
      0.5152040000D+00  0.3698778459D+00
      0.2325080000D+00  0.6208688866D+00
      0.9934900000D-01  0.2278561835D+00
 S   1 1.00       0.000000000000
      0.4148321407D-01  0.1000000000D+01
 P  10 1.00       0.000000000000
      0.2912750200D+02  0.6511386608D-04
      0.1568034000D+02 -0.7508202497D-03
      0.8413343000D+01 -0.4913337526D-02
      0.4466598000D+01 -0.1087449728D-01
      0.2331881000D+01 -0.3162098219D-01
      0.1190607000D+01  0.1908789264D-01
      0.5913610000D+00  0.2361745924D+00
      0.2841310000D+00  0.4199366390D+00
      0.1312180000D+00  0.3622758107D+00
      0.5780400000D-01  0.1050704090D+00
 P   1 1.00       0.000000000000
      0.2966218604D-01  0.1000000000D+01
 S   1 1.00       0.000000000000
      0.3493984000D+01  0.1000000000D+01
 S   1 1.00       0.000000000000
      0.1821364000D+01  0.1000000000D+01
 S   1 1.00       0.000000000000
      0.9494510000D+00  0.1000000000D+01
 S   1 1.00       0.000000000000
      0.4949350000D+00  0.1000000000D+01
 S   1 1.00       0.000000000000
      0.2580030000D+00  0.1000000000D+01
 P   1 1.00       0.000000000000
      0.1902679000D+01  0.1000000000D+01
 P   1 1.00       0.000000000000
      0.1026440000D+01  0.1000000000D+01
 P   1 1.00       0.000000000000
      0.5537340000D+00  0.1000000000D+01
 P   1 1.00       0.000000000000
      0.2987240000D+00  0.1000000000D+01
 P   1 1.00       0.000000000000
      0.1611530000D+00  0.1000000000D+01
 D   1 1.00       0.000000000000
      0.1970727000D+01  0.1000000000D+01
 D   1 1.00       0.000000000000
      0.1014687000D+01  0.1000000000D+01
 D   1 1.00       0.000000000000
      0.5224410000D+00  0.1000000000D+01
 D   1 1.00       0.000000000000
      0.2689940000D+00  0.1000000000D+01
 D   1 1.00       0.000000000000
      0.1385000000D+00  0.1000000000D+01
 D   1 1.00       0.000000000000
      0.7131110000D-01  0.1000000000D+01
 F   1 1.00       0.000000000000
      0.2128161000D+01  0.1000000000D+01
 F   1 1.00       0.000000000000
      0.1018769000D+01  0.1000000000D+01
 F   1 1.00       0.000000000000
      0.4876940000D+00  0.1000000000D+01
 F   1 1.00       0.000000000000
      0.2334630000D+00  0.1000000000D+01
 F   1 1.00       0.000000000000
      0.1117610000D+00  0.1000000000D+01
 G   1 1.00       0.000000000000
      0.1058292000D+01  0.1000000000D+01
 G   1 1.00       0.000000000000
      0.5744090000D+00  0.1000000000D+01
 G   1 1.00       0.000000000000
      0.3117710000D+00  0.1000000000D+01
 G   1 1.00       0.000000000000
      0.1692190000D+00  0.1000000000D+01
 H   1 1.00       0.000000000000
      0.1081370000D+01  0.1000000000D+01
 H   1 1.00       0.000000000000
      0.5337550000D+00  0.1000000000D+01
 H   1 1.00       0.000000000000
      0.2634570000D+00  0.1000000000D+01
 I   1 1.00       0.000000000000
      0.8395964974D+00  0.1000000000D+01
 ****

 There are   107 symmetry adapted cartesian basis functions of AG  symmetry.
 There are    39 symmetry adapted cartesian basis functions of B1G symmetry.
 There are    67 symmetry adapted cartesian basis functions of B2G symmetry.
 There are    67 symmetry adapted cartesian basis functions of B3G symmetry.
 There are    39 symmetry adapted cartesian basis functions of AU  symmetry.
 There are   107 symmetry adapted cartesian basis functions of B1U symmetry.
 There are    67 symmetry adapted cartesian basis functions of B2U symmetry.
 There are    67 symmetry adapted cartesian basis functions of B3U symmetry.
 There are    68 symmetry adapted basis functions of AG  symmetry.
 There are    29 symmetry adapted basis functions of B1G symmetry.
 There are    46 symmetry adapted basis functions of B2G symmetry.
 There are    46 symmetry adapted basis functions of B3G symmetry.
 There are    29 symmetry adapted basis functions of AU  symmetry.
 There are    68 symmetry adapted basis functions of B1U symmetry.
 There are    46 symmetry adapted basis functions of B2U symmetry.
 There are    46 symmetry adapted basis functions of B3U symmetry.
   378 basis functions,  1038 primitive gaussians,   560 cartesian basis functions
    35 alpha electrons       33 beta electrons
       nuclear repulsion energy       282.4232932272 Hartrees.
 NAtoms=    2 NActive=    2 NUniq=    1 SFac= 4.00D+00 NAtFMM=   60 NAOKFM=F Big=F
 Integral buffers will be    131072 words long.
 Raffenetti 2 integral format.
 Two-electron integral symmetry is turned on.
 One-electron integrals computed using PRISM.
 PrsmSu:  requested number of processors reduced to:   4 ShMem   1 Linda.
 NBasis=   378 RedAO= F EigKep=  0.00D+00  NBF=    68    29    46    46    29    68    46    46
 NBsUse=   378 1.00D-04 EigRej=  0.00D+00 NBFU=    68    29    46    46    29    68    46    46
 ExpMin= 2.97D-02 ExpMax= 4.62D+07 ExpMxC= 9.68D+03 IAcc=3 IRadAn=         5 AccDes= 0.00D+00
 Harris functional with IExCor=  205 and IRadAn=       5 diagonalized for initial guess.
 HarFok:  IExCor=  205 AccDes= 0.00D+00 IRadAn=         5 IDoV= 1 UseB2=F ITyADJ=14
 ICtDFT=  3500011 ScaDFX=  1.000000  1.000000  1.000000  1.000000
 FoFCou: FMM=F IPFlag=           0 FMFlag=      100000 FMFlg1=           0
         NFxFlg=           0 DoJE=T BraDBF=F KetDBF=T FulRan=T
         wScrn=  0.000000 ICntrl=     500 IOpCl=  0 I1Cent=   200000004 NGrid=           0
         NMat0=    1 NMatS0=      1 NMatT0=    0 NMatD0=    1 NMtDS0=    0 NMtDT0=    0
 Petite list used in FoFCou.
 Initial guess orbital symmetries:
       Occupied  (SGU) (SGG) (SGU) (SGG) (SGU) (SGG) (PIG) (PIG)
                 (PIU) (PIU) (SGG) (SGU) (SGG) (SGU) (PIU) (PIU)
                 (PIG) (PIG) (SGG) (PIU) (PIU) (PIG) (PIG) (DLTG)
                 (DLTG) (SGU) (DLTU) (DLTU) (SGG) (SGU) (SGG) (PIU)
                 (PIU) (PIG) (PIG)
       Virtual   (SGU) (SGG) (PIU) (PIU) (SGU) (SGG) (PIG) (PIG)
                 (DLTG) (DLTG) (SGU) (PIU) (PIU) (DLTU) (DLTU)
                 (SGG) (SGU) (PIG) (PIG) (PIU) (PIU) (SGG) (PHIU)
                 (PHIU) (DLTG) (DLTG) (SGG) (PIU) (PIU) (PIG) (PIG)
                 (DLTG) (DLTG) (SGU) (DLTU) (DLTU) (PHIG) (PHIG)
                 (SGG) (PIG) (PIG) (SGU) (PIU) (PIU) (DLTU) (DLTU)
                 (SGU) (?A) (?A) (PHIU) (PHIU) (SGG) (PIU) (PIU)
                 (SGG) (?B) (?B) (DLTG) (DLTG) (PIG) (PIG) (PIU)
                 (PIU) (SGG) (PIG) (PIG) (DLTG) (DLTG) (PHIU) (PHIU)
                 (DLTU) (DLTU) (SGU) (PHIG) (PHIG) (PIU) (PIU)
                 (SGG) (DLTG) (DLTG) (PIG) (PIG) (DLTU) (DLTU)
                 (SGU) (PHIG) (PHIG) (SGU) (SGU) (PIU) (PIU) (DLTU)
                 (DLTU) (SGG) (?C) (?C) (?A) (?A) (PIG) (PIG) (?D)
                 (?D) (PHIU) (PHIU) (SGG) (PIU) (PIU) (?A) (?A)
                 (DLTG) (DLTG) (?B) (?B) (PHIU) (PHIU) (?B) (?B)
                 (SGU) (DLTU) (DLTU) (PIG) (PIG) (PHIG) (PHIG)
                 (PIU) (PIU) (SGU) (DLTG) (DLTG) (SGG) (PIG) (PIG)
                 (PHIG) (PHIG) (PHIU) (PHIU) (DLTU) (DLTU) (SGG)
                 (DLTG) (DLTG) (PIG) (PIG) (PIU) (PIU) (SGG) (SGU)
                 (PHIG) (PHIG) (DLTG) (DLTG) (PIU) (PIU) (DLTU)
                 (DLTU) (SGU) (PIG) (PIG) (SGG) (SGU) (PIG) (PIG)
                 (DLTU) (DLTU) (PIU) (PIU) (SGU) (SGG) (DLTG) (DLTG)
                 (PHIU) (PHIU) (PIU) (PIU) (?A) (?A) (PIG) (PIG)
                 (?A) (?A) (?C) (?C) (?B) (?B) (SGG) (PHIU) (PHIU)
                 (?D) (?D) (PHIG) (PHIG) (?B) (?B) (PIG) (PIG)
                 (SGU) (DLTU) (DLTU) (DLTG) (DLTG) (SGG) (PHIG)
                 (PHIG) (PIU) (PIU) (SGU) (DLTU) (DLTU) (PIG) (PIG)
                 (SGU) (PHIU) (PHIU) (DLTG) (DLTG) (PHIG) (PHIG)
                 (SGG) (PIU) (PIU) (DLTG) (DLTG) (DLTU) (DLTU)
                 (PIU) (PIU) (DLTU) (DLTU) (SGG) (PIG) (PIG) (SGU)
                 (PIU) (PIU) (SGG) (PIG) (PIG) (PHIU) (PHIU) (?A)
                 (?A) (SGU) (?C) (?C) (SGG) (?E) (?E) (?F) (?F)
                 (PIG) (PIG) (?D) (?D) (DLTG) (DLTG) (?B) (?B)
                 (SGU) (PIU) (PIU) (SGG) (PHIG) (PHIG) (?A) (?A)
                 (PHIU) (PHIU) (?B) (?B) (DLTG) (DLTG) (PIG) (PIG)
                 (DLTU) (DLTU) (PHIG) (PHIG) (SGU) (PIU) (PIU)
                 (SGU) (SGG) (DLTU) (DLTU) (?A) (?A) (?C) (?C)
                 (?D) (?D) (PHIU) (PHIU) (?B) (?B) (PIG) (PIG)
                 (PHIG) (PHIG) (SGU) (DLTG) (DLTG) (DLTU) (DLTU)
                 (SGG) (PIG) (PIG) (PIU) (PIU) (SGU) (PHIU) (PHIU)
                 (DLTG) (DLTG) (PHIG) (PHIG) (DLTU) (DLTU) (PIU)
                 (PIU) (SGU) (PIG) (PIG) (SGG) (DLTG) (DLTG) (DLTU)
                 (DLTU) (PIU) (PIU) (SGG) (PIG) (PIG) (SGU) (PIU)
                 (PIU) (SGG) (PIG) (PIG) (SGU) (SGG) (SGU) (SGG)
                 (SGU)
 The electronic state of the initial guess is 3-SGG.
 Requested convergence on RMS density matrix=1.00D-10 within 128 cycles.
 Requested convergence on MAX density matrix=1.00D-08.
 Requested convergence on             energy=1.00D-08.
 No special actions if energy rises.
 Initial convergence to 1.0D-05 achieved.  Increase integral accuracy.
 SCF Done:  E(ROHF) =  -4799.79012781     A.U. after   18 cycles
            NFock= 18  Conv=0.85D-10     -V/T= 2.0000
 <Sx>= 0.0000 <Sy>= 0.0000 <Sz>= 1.0000 <S**2>= 2.0000 S= 1.0000
 <L.S>= 0.000000000000E+00
 Annihilation of the first spin contaminant:
 S**2 before annihilation     2.0000,   after     2.0000
 GenMOA:  NOpAll=  8 NOp2=8 NOpUse=  8 JSym2X=1
 <Sx>= 0.0000 <Sy>= 0.0000 <Sz>= 1.0000 <S**2>= 2.0000 S= 1.0000
 Range of M.O.s used for correlation:    29   378
 NBasis=   378 NAE=    35 NBE=    33 NFC=    28 NFV=     0
 NROrb=    350 NOA=     7 NOB=     5 NVA=   343 NVB=   345

 **** Warning!!: The largest alpha MO coefficient is  0.37480244D+03


 **** Warning!!: The largest beta MO coefficient is  0.37495163D+03

 Singles contribution to E2=   -0.6803133220D-02
 Disk-based method using OVN memory for  7 occupieds at a time.
 Permanent disk used for amplitudes and <ij||ab> integrals=    11933676 words.
 Estimated scratch disk usage=   500395635 words.
 IUseRI=2 ITolRI= 6 IR12RI=0
 Actual    scratch disk usage=   494789917 words.
 GetIJB would need an additional  1397951702 words of memory to use all   8 processors.
 JobTyp=2 Pass  1:  I=   1 to   7 NPSUse=  1 ParTrn=F ParDer=F DoDerP=F.
 (rs|ai) integrals will be sorted in core.
 T,EIJ(AA): I=   1 J=   2      0.1303254E-03     -0.4377492E-03
 T,EIJ(AA): I=   1 J=   3      0.2136038E-03     -0.6982575E-03
 T,EIJ(AA): I=   1 J=   4      0.3416920E-03     -0.1057619E-02
 T,EIJ(AA): I=   1 J=   5      0.3416920E-03     -0.1057619E-02
 T,EIJ(AA): I=   1 J=   6      0.2906743E-03     -0.9127289E-03
 T,EIJ(AA): I=   1 J=   7      0.2906743E-03     -0.9127289E-03
 T,EIJ(AA): I=   2 J=   3      0.6744972E-03     -0.1683257E-02
 T,EIJ(AA): I=   2 J=   4      0.5338647E-03     -0.1330803E-02
 T,EIJ(AA): I=   2 J=   5      0.5338647E-03     -0.1330803E-02
 T,EIJ(AA): I=   2 J=   6      0.4550676E-03     -0.1201356E-02
 T,EIJ(AA): I=   2 J=   7      0.4550676E-03     -0.1201356E-02
 T,EIJ(AA): I=   3 J=   4      0.1523346E-02     -0.3309198E-02
 T,EIJ(AA): I=   3 J=   5      0.1523346E-02     -0.3309198E-02
 T,EIJ(AA): I=   3 J=   6      0.2644618E-02     -0.4743725E-02
 T,EIJ(AA): I=   3 J=   7      0.2644618E-02     -0.4743725E-02
 T,EIJ(AA): I=   4 J=   5      0.1550036E-02     -0.3215472E-02
 T,EIJ(AA): I=   4 J=   6      0.4911174E-03     -0.9346057E-03
 T,EIJ(AA): I=   4 J=   7      0.1409134E-02     -0.2932863E-02
 T,EIJ(AA): I=   5 J=   6      0.1409134E-02     -0.2932863E-02
 T,EIJ(AA): I=   5 J=   7      0.4911174E-03     -0.9346057E-03
 T,EIJ(AA): I=   6 J=   7      0.1985703E-02     -0.3796964E-02
 T,EIJ(AB): I=   1 J=   1      0.1890905E-02     -0.7402040E-02
 T,EIJ(AB): I=   1 J=   2      0.1068199E-02     -0.4090099E-02
 T,EIJ(AB): I=   1 J=   3      0.1368291E-02     -0.5058511E-02
 T,EIJ(AB): I=   1 J=   4      0.1704862E-02     -0.5079269E-02
 T,EIJ(AB): I=   1 J=   5      0.1704862E-02     -0.5079269E-02
 T,EIJ(AB): I=   2 J=   1      0.1029966E-02     -0.3940682E-02
 T,EIJ(AB): I=   2 J=   2      0.2389809E-02     -0.7518776E-02
 T,EIJ(AB): I=   2 J=   3      0.2395702E-02     -0.6886469E-02
 T,EIJ(AB): I=   2 J=   4      0.1924970E-02     -0.5096481E-02
 T,EIJ(AB): I=   2 J=   5      0.1924970E-02     -0.5096481E-02
 T,EIJ(AB): I=   3 J=   1      0.1741761E-02     -0.6105771E-02
 T,EIJ(AB): I=   3 J=   2      0.3509040E-02     -0.8526123E-02
 T,EIJ(AB): I=   3 J=   3      0.8320642E-02     -0.1640235E-01
 T,EIJ(AB): I=   3 J=   4      0.6888258E-02     -0.1003436E-01
 T,EIJ(AB): I=   3 J=   5      0.6888258E-02     -0.1003436E-01
 T,EIJ(AB): I=   4 J=   1      0.1617846E-02     -0.5124805E-02
 T,EIJ(AB): I=   4 J=   2      0.2719445E-02     -0.6402800E-02
 T,EIJ(AB): I=   4 J=   3      0.2143402E-02     -0.5097558E-02
 T,EIJ(AB): I=   4 J=   4      0.2619769E-02     -0.5349614E-02
 T,EIJ(AB): I=   4 J=   5      0.5488930E-02     -0.1144074E-01
 T,EIJ(AB): I=   5 J=   1      0.1617846E-02     -0.5124805E-02
 T,EIJ(AB): I=   5 J=   2      0.2719445E-02     -0.6402800E-02
 T,EIJ(AB): I=   5 J=   3      0.2143402E-02     -0.5097558E-02
 T,EIJ(AB): I=   5 J=   4      0.5488930E-02     -0.1144074E-01
 T,EIJ(AB): I=   5 J=   5      0.2619769E-02     -0.5349614E-02
 T,EIJ(AB): I=   6 J=   1      0.1461388E-02     -0.4313986E-02
 T,EIJ(AB): I=   6 J=   2      0.3245864E-02     -0.7741834E-02
 T,EIJ(AB): I=   6 J=   3      0.3523571E-02     -0.6967083E-02
 T,EIJ(AB): I=   6 J=   4      0.4059597E-02     -0.6675710E-02
 T,EIJ(AB): I=   6 J=   5      0.7098540E-02     -0.1266324E-01
 T,EIJ(AB): I=   7 J=   1      0.1461388E-02     -0.4313986E-02
 T,EIJ(AB): I=   7 J=   2      0.3245864E-02     -0.7741834E-02
 T,EIJ(AB): I=   7 J=   3      0.3523571E-02     -0.6967083E-02
 T,EIJ(AB): I=   7 J=   4      0.7098540E-02     -0.1266324E-01
 T,EIJ(AB): I=   7 J=   5      0.4059597E-02     -0.6675710E-02
 Actual    scratch disk usage=   497674867 words.
 GetIJB would need an additional  1397943862 words of memory to use all   8 processors.
 JobTyp=3 Pass  1:  I=   1 to   5 NPSUse=  1 ParTrn=F ParDer=F DoDerP=F.
 (rs|ai) integrals will be sorted in core.
 T,EIJ(BB): I=   1 J=   2      0.2950774E-03     -0.8227907E-03
 T,EIJ(BB): I=   1 J=   3      0.3012830E-03     -0.8979421E-03
 T,EIJ(BB): I=   1 J=   4      0.7492893E-03     -0.1833128E-02
 T,EIJ(BB): I=   1 J=   5      0.7492893E-03     -0.1833128E-02
 T,EIJ(BB): I=   2 J=   3      0.1060389E-02     -0.2248487E-02
 T,EIJ(BB): I=   2 J=   4      0.1743733E-02     -0.3129339E-02
 T,EIJ(BB): I=   2 J=   5      0.1743733E-02     -0.3129339E-02
 T,EIJ(BB): I=   3 J=   4      0.5790296E-02     -0.7614437E-02
 T,EIJ(BB): I=   3 J=   5      0.5790296E-02     -0.7614437E-02
 T,EIJ(BB): I=   4 J=   5      0.1147490E-01     -0.1067498E-01
 Spin components of T(2) and E(2):
     alpha-alpha T2 =       0.1993319493D-01 E2=     -0.4267749955D-01
     alpha-beta  T2 =       0.1127072022D+00 E2=     -0.2499057795D+00
     beta-beta   T2 =       0.2969828739D-01 E2=     -0.3979800667D-01
 ANorm=    0.1081536765D+01
 E2 =    -0.3391844189D+00 EUMP2 =    -0.48001293122336D+04

 Complete Basis Set (CBS) Extrapolation:
 M. R. Nyden and G. A. Petersson, JCP 75, 1843 (1981)
 G. A. Petersson and M. A. Al-Laham, JCP 94, 6081 (1991)
 G. A. Petersson, T. Tensfeldt, and J. A. Montgomery, JCP 94, 6091 (1991)
 J. A. Montgomery, J. W. Ochterski, and G. A. Petersson, JCP 101, 5900 (1994)
 
 Minimum Number of PNO for Extrapolation =  20
 Absolute Overlaps: IRadAn =         5
 LocTrn: ILocal=3 LocCor=F DoCore=F.
 Entering OneElI...
 Overlap between basis sets.
 Requested accuracy = 0.1000D-12
 PrsmSu:  NPrtUS=   1 ThrOK=F IAlg=1 NPAlg=1 LenDen=           0.
 Prism:   IPart=     0 DynPar=F LinDyn=F Incr=           1.
 PRISM was handed  1609983615 working-precision words and   136 shell-pairs
 IPart=  0 NShTot=         136 NBatch=          15 AvBLen=         9.1
 PrSmSu:  NxtVal=              2.
 CnvPC2: ToCart=F DoDens=F IPureD=0 IPureF=0.
 Transformed matrix in CnvPC2: 
                 1             2             3             4             5 
      1   0.100000D+01  0.405100D+00  0.000000D+00  0.000000D+00  0.000000D+00
      2   0.405100D+00  0.100000D+01  0.000000D+00  0.000000D+00  0.000000D+00
      3   0.000000D+00  0.000000D+00  0.100000D+01  0.000000D+00  0.000000D+00
      4   0.000000D+00  0.000000D+00  0.000000D+00  0.100000D+01  0.000000D+00
      5   0.000000D+00  0.000000D+00  0.000000D+00  0.000000D+00  0.100000D+01
      6   0.306349D-01  0.351216D+00  0.000000D+00  0.000000D+00  0.000000D+00
      7   0.000000D+00  0.000000D+00  0.364086D+00  0.000000D+00  0.000000D+00
      8   0.000000D+00  0.000000D+00  0.000000D+00  0.364086D+00  0.000000D+00
      9   0.000000D+00  0.000000D+00  0.000000D+00  0.000000D+00  0.364086D+00
     10   0.000000D+00  0.000000D+00  0.000000D+00  0.000000D+00  0.000000D+00
     11   0.000000D+00  0.000000D+00  0.000000D+00  0.000000D+00  0.000000D+00
     12   0.000000D+00  0.000000D+00  0.000000D+00  0.000000D+00  0.000000D+00
     13   0.000000D+00  0.000000D+00  0.000000D+00  0.000000D+00  0.000000D+00
     14   0.000000D+00  0.000000D+00  0.000000D+00  0.000000D+00  0.000000D+00
     15  -0.386923D-03  0.519359D-02  0.000000D+00  0.000000D+00  0.000000D+00
     16   0.000000D+00  0.000000D+00  0.135458D-01  0.000000D+00  0.000000D+00
     17   0.000000D+00  0.000000D+00  0.000000D+00  0.135458D-01  0.000000D+00
     18   0.000000D+00  0.000000D+00  0.000000D+00  0.000000D+00  0.135458D-01
     19   0.000000D+00  0.000000D+00  0.000000D+00  0.000000D+00  0.000000D+00
     20   0.000000D+00  0.000000D+00  0.000000D+00  0.000000D+00  0.000000D+00
     21   0.000000D+00  0.000000D+00  0.000000D+00  0.000000D+00  0.000000D+00
     22   0.000000D+00  0.000000D+00  0.000000D+00  0.000000D+00  0.000000D+00
     23   0.000000D+00  0.000000D+00  0.000000D+00  0.000000D+00  0.000000D+00
     24   0.000000D+00  0.000000D+00  0.000000D+00  0.000000D+00  0.000000D+00
     25   0.000000D+00  0.000000D+00  0.000000D+00  0.000000D+00  0.000000D+00
     26   0.000000D+00  0.000000D+00  0.000000D+00  0.000000D+00  0.000000D+00
     27   0.000000D+00  0.000000D+00  0.000000D+00  0.000000D+00  0.000000D+00
     28   0.000000D+00  0.000000D+00  0.000000D+00  0.000000D+00  0.000000D+00
     29   0.000000D+00  0.000000D+00  0.000000D+00  0.000000D+00  0.000000D+00
     30   0.000000D+00  0.000000D+00  0.000000D+00  0.000000D+00  0.000000D+00
     31   0.000000D+00  0.000000D+00  0.000000D+00  0.000000D+00  0.000000D+00
     32   0.000000D+00  0.000000D+00  0.000000D+00  0.000000D+00  0.000000D+00
     33   0.000000D+00  0.000000D+00  0.000000D+00  0.000000D+00  0.000000D+00
     34   0.000000D+00  0.000000D+00  0.000000D+00  0.000000D+00  0.000000D+00
     35   0.000000D+00  0.000000D+00  0.000000D+00  0.000000D+00  0.000000D+00
     36   0.000000D+00  0.000000D+00  0.000000D+00  0.000000D+00  0.000000D+00
     37   0.000000D+00  0.000000D+00  0.000000D+00  0.000000D+00  0.000000D+00
     38   0.621316D-03  0.384497D-02  0.000000D+00  0.000000D+00 -0.996175D-03
     39   0.000000D+00  0.000000D+00  0.278475D-03  0.000000D+00  0.000000D+00
     40   0.000000D+00  0.000000D+00  0.000000D+00  0.278475D-03  0.000000D+00
     41   0.114685D-02  0.705860D-02  0.000000D+00  0.000000D+00 -0.165429D-02
     42   0.513214D-02  0.310219D-01  0.000000D+00  0.000000D+00 -0.447085D-02
     43   0.000000D+00  0.000000D+00  0.212344D-02  0.000000D+00  0.000000D+00
     44   0.000000D+00  0.000000D+00  0.000000D+00  0.212344D-02  0.000000D+00
     45   0.000000D+00  0.000000D+00  0.000000D+00  0.000000D+00  0.000000D+00
     46   0.000000D+00  0.000000D+00  0.000000D+00  0.000000D+00  0.000000D+00
                 6             7             8             9            10 
      1   0.306349D-01  0.000000D+00  0.000000D+00  0.000000D+00  0.000000D+00
      2   0.351216D+00  0.000000D+00  0.000000D+00  0.000000D+00  0.000000D+00
      3   0.000000D+00  0.364086D+00  0.000000D+00  0.000000D+00  0.000000D+00
      4   0.000000D+00  0.000000D+00  0.364086D+00  0.000000D+00  0.000000D+00
      5   0.000000D+00  0.000000D+00  0.000000D+00  0.364086D+00  0.000000D+00
      6   0.100000D+01  0.000000D+00  0.000000D+00  0.000000D+00  0.000000D+00
      7   0.000000D+00  0.100000D+01  0.000000D+00  0.000000D+00  0.000000D+00
      8   0.000000D+00  0.000000D+00  0.100000D+01  0.000000D+00  0.000000D+00
      9   0.000000D+00  0.000000D+00  0.000000D+00  0.100000D+01  0.000000D+00
     10   0.000000D+00  0.000000D+00  0.000000D+00  0.000000D+00  0.100000D+01
     11   0.000000D+00  0.000000D+00  0.000000D+00  0.000000D+00  0.000000D+00
     12   0.000000D+00  0.000000D+00  0.000000D+00  0.000000D+00  0.000000D+00
     13   0.000000D+00  0.000000D+00  0.000000D+00  0.000000D+00  0.000000D+00
     14   0.000000D+00  0.000000D+00  0.000000D+00  0.000000D+00  0.000000D+00
     15   0.192427D+00  0.000000D+00  0.000000D+00  0.000000D+00  0.000000D+00
     16   0.000000D+00  0.209028D+00  0.000000D+00  0.000000D+00  0.000000D+00
     17   0.000000D+00  0.000000D+00  0.209028D+00  0.000000D+00  0.000000D+00
     18   0.000000D+00  0.000000D+00  0.000000D+00  0.209028D+00  0.000000D+00
     19   0.000000D+00  0.000000D+00  0.000000D+00  0.000000D+00  0.473157D-01
     20   0.000000D+00  0.000000D+00  0.000000D+00  0.000000D+00  0.000000D+00
     21   0.000000D+00  0.000000D+00  0.000000D+00  0.000000D+00  0.000000D+00
     22   0.000000D+00  0.000000D+00  0.000000D+00  0.000000D+00  0.000000D+00
     23   0.000000D+00  0.000000D+00  0.000000D+00  0.000000D+00  0.000000D+00
     24   0.000000D+00  0.000000D+00  0.000000D+00  0.000000D+00  0.000000D+00
     25   0.000000D+00  0.000000D+00  0.000000D+00  0.000000D+00  0.000000D+00
     26   0.000000D+00  0.000000D+00  0.000000D+00  0.000000D+00  0.000000D+00
     27   0.000000D+00  0.000000D+00  0.000000D+00  0.000000D+00  0.000000D+00
     28   0.000000D+00  0.000000D+00  0.000000D+00  0.000000D+00  0.000000D+00
     29   0.000000D+00  0.000000D+00  0.000000D+00  0.000000D+00  0.000000D+00
     30   0.000000D+00  0.000000D+00  0.000000D+00  0.000000D+00  0.000000D+00
     31   0.000000D+00  0.000000D+00  0.000000D+00  0.000000D+00  0.000000D+00
     32   0.000000D+00  0.000000D+00  0.000000D+00  0.000000D+00  0.000000D+00
     33   0.000000D+00  0.000000D+00  0.000000D+00  0.000000D+00  0.000000D+00
     34   0.000000D+00  0.000000D+00  0.000000D+00  0.000000D+00  0.000000D+00
     35   0.000000D+00  0.000000D+00  0.000000D+00  0.000000D+00  0.000000D+00
     36   0.000000D+00  0.000000D+00  0.000000D+00  0.000000D+00  0.000000D+00
     37   0.000000D+00  0.000000D+00  0.000000D+00  0.000000D+00  0.000000D+00
     38   0.226069D-01  0.000000D+00  0.000000D+00 -0.156212D-01  0.592837D-02
     39   0.000000D+00  0.452225D-02  0.000000D+00  0.000000D+00  0.000000D+00
     40   0.000000D+00  0.000000D+00  0.452225D-02  0.000000D+00  0.000000D+00
     41   0.400246D-01  0.000000D+00  0.000000D+00 -0.256043D-01  0.952279D-02
     42   0.152183D+00  0.000000D+00  0.000000D+00 -0.586863D-01  0.111024D-01
     43   0.000000D+00  0.304739D-01  0.000000D+00  0.000000D+00  0.000000D+00
     44   0.000000D+00  0.000000D+00  0.304739D-01  0.000000D+00  0.000000D+00
     45   0.000000D+00  0.000000D+00  0.000000D+00  0.000000D+00  0.000000D+00
     46   0.000000D+00  0.000000D+00  0.000000D+00  0.000000D+00  0.000000D+00
                11            12            13            14            15 
      1   0.000000D+00  0.000000D+00  0.000000D+00  0.000000D+00 -0.386923D-03
      2   0.000000D+00  0.000000D+00  0.000000D+00  0.000000D+00  0.519359D-02
      3   0.000000D+00  0.000000D+00  0.000000D+00  0.000000D+00  0.000000D+00
      4   0.000000D+00  0.000000D+00  0.000000D+00  0.000000D+00  0.000000D+00
      5   0.000000D+00  0.000000D+00  0.000000D+00  0.000000D+00  0.000000D+00
      6   0.000000D+00  0.000000D+00  0.000000D+00  0.000000D+00  0.192427D+00
      7   0.000000D+00  0.000000D+00  0.000000D+00  0.000000D+00  0.000000D+00
      8   0.000000D+00  0.000000D+00  0.000000D+00  0.000000D+00  0.000000D+00
      9   0.000000D+00  0.000000D+00  0.000000D+00  0.000000D+00  0.000000D+00
     10   0.000000D+00  0.000000D+00  0.000000D+00  0.000000D+00  0.000000D+00
     11   0.100000D+01  0.000000D+00  0.000000D+00  0.000000D+00  0.000000D+00
     12   0.000000D+00  0.100000D+01  0.000000D+00  0.000000D+00  0.000000D+00
     13   0.000000D+00  0.000000D+00  0.100000D+01  0.000000D+00  0.000000D+00
     14   0.000000D+00  0.000000D+00  0.000000D+00  0.100000D+01  0.000000D+00
     15   0.000000D+00  0.000000D+00  0.000000D+00  0.000000D+00  0.100000D+01
     16   0.000000D+00  0.000000D+00  0.000000D+00  0.000000D+00  0.000000D+00
     17   0.000000D+00  0.000000D+00  0.000000D+00  0.000000D+00  0.000000D+00
     18   0.000000D+00  0.000000D+00  0.000000D+00  0.000000D+00  0.000000D+00
     19   0.000000D+00  0.000000D+00  0.000000D+00  0.000000D+00  0.000000D+00
     20   0.473157D-01  0.000000D+00  0.000000D+00  0.000000D+00  0.000000D+00
     21   0.000000D+00  0.473157D-01  0.000000D+00  0.000000D+00  0.000000D+00
     22   0.000000D+00  0.000000D+00  0.473157D-01  0.000000D+00  0.000000D+00
     23   0.000000D+00  0.000000D+00  0.000000D+00  0.473157D-01  0.000000D+00
     24   0.000000D+00  0.000000D+00  0.000000D+00  0.000000D+00  0.621316D-03
     25   0.000000D+00  0.000000D+00  0.000000D+00  0.000000D+00  0.384497D-02
     26   0.000000D+00  0.000000D+00  0.000000D+00  0.000000D+00  0.000000D+00
     27   0.000000D+00  0.000000D+00  0.000000D+00  0.000000D+00  0.000000D+00
     28   0.000000D+00  0.000000D+00  0.000000D+00  0.000000D+00  0.996175D-03
     29   0.000000D+00  0.000000D+00  0.000000D+00  0.000000D+00  0.226069D-01
     30   0.000000D+00  0.000000D+00  0.000000D+00  0.000000D+00  0.000000D+00
     31   0.000000D+00  0.000000D+00  0.000000D+00  0.000000D+00  0.000000D+00
     32   0.000000D+00  0.000000D+00  0.000000D+00  0.000000D+00  0.156212D-01
     33   0.000000D+00  0.000000D+00  0.000000D+00  0.000000D+00  0.592837D-02
     34   0.000000D+00  0.000000D+00  0.000000D+00  0.000000D+00  0.000000D+00
     35   0.000000D+00  0.000000D+00  0.000000D+00  0.000000D+00  0.000000D+00
     36   0.000000D+00  0.000000D+00  0.000000D+00  0.000000D+00  0.000000D+00
     37   0.000000D+00  0.000000D+00  0.000000D+00  0.000000D+00  0.000000D+00
     38   0.000000D+00  0.000000D+00  0.000000D+00  0.000000D+00  0.224208D+00
     39  -0.320840D-02  0.000000D+00  0.000000D+00  0.000000D+00  0.000000D+00
     40   0.000000D+00 -0.320840D-02  0.000000D+00  0.000000D+00  0.000000D+00
     41   0.000000D+00  0.000000D+00  0.000000D+00  0.000000D+00  0.289086D+00
     42   0.000000D+00  0.000000D+00  0.000000D+00  0.000000D+00  0.402090D+00
     43  -0.141610D-01  0.000000D+00  0.000000D+00  0.000000D+00  0.000000D+00
     44   0.000000D+00 -0.141610D-01  0.000000D+00  0.000000D+00  0.000000D+00
     45   0.000000D+00  0.000000D+00  0.325648D-02  0.000000D+00  0.000000D+00
     46   0.000000D+00  0.000000D+00  0.000000D+00  0.325648D-02  0.000000D+00
                16            17            18            19            20 
      1   0.000000D+00  0.000000D+00  0.000000D+00  0.000000D+00  0.000000D+00
      2   0.000000D+00  0.000000D+00  0.000000D+00  0.000000D+00  0.000000D+00
      3   0.135458D-01  0.000000D+00  0.000000D+00  0.000000D+00  0.000000D+00
      4   0.000000D+00  0.135458D-01  0.000000D+00  0.000000D+00  0.000000D+00
      5   0.000000D+00  0.000000D+00  0.135458D-01  0.000000D+00  0.000000D+00
      6   0.000000D+00  0.000000D+00  0.000000D+00  0.000000D+00  0.000000D+00
      7   0.209028D+00  0.000000D+00  0.000000D+00  0.000000D+00  0.000000D+00
      8   0.000000D+00  0.209028D+00  0.000000D+00  0.000000D+00  0.000000D+00
      9   0.000000D+00  0.000000D+00  0.209028D+00  0.000000D+00  0.000000D+00
     10   0.000000D+00  0.000000D+00  0.000000D+00  0.473157D-01  0.000000D+00
     11   0.000000D+00  0.000000D+00  0.000000D+00  0.000000D+00  0.473157D-01
     12   0.000000D+00  0.000000D+00  0.000000D+00  0.000000D+00  0.000000D+00
     13   0.000000D+00  0.000000D+00  0.000000D+00  0.000000D+00  0.000000D+00
     14   0.000000D+00  0.000000D+00  0.000000D+00  0.000000D+00  0.000000D+00
     15   0.000000D+00  0.000000D+00  0.000000D+00  0.000000D+00  0.000000D+00
     16   0.100000D+01  0.000000D+00  0.000000D+00  0.000000D+00  0.000000D+00
     17   0.000000D+00  0.100000D+01  0.000000D+00  0.000000D+00  0.000000D+00
     18   0.000000D+00  0.000000D+00  0.100000D+01  0.000000D+00  0.000000D+00
     19   0.000000D+00  0.000000D+00  0.000000D+00  0.100000D+01  0.000000D+00
     20   0.000000D+00  0.000000D+00  0.000000D+00  0.000000D+00  0.100000D+01
     21   0.000000D+00  0.000000D+00  0.000000D+00  0.000000D+00  0.000000D+00
     22   0.000000D+00  0.000000D+00  0.000000D+00  0.000000D+00  0.000000D+00
     23   0.000000D+00  0.000000D+00  0.000000D+00  0.000000D+00  0.000000D+00
     24   0.000000D+00  0.000000D+00 -0.114685D-02  0.513214D-02  0.000000D+00
     25   0.000000D+00  0.000000D+00 -0.705860D-02  0.310219D-01  0.000000D+00
     26   0.278475D-03  0.000000D+00  0.000000D+00  0.000000D+00 -0.212344D-02
     27   0.000000D+00  0.278475D-03  0.000000D+00  0.000000D+00  0.000000D+00
     28   0.000000D+00  0.000000D+00 -0.165429D-02  0.447085D-02  0.000000D+00
     29   0.000000D+00  0.000000D+00 -0.400246D-01  0.152183D+00  0.000000D+00
     30   0.452225D-02  0.000000D+00  0.000000D+00  0.000000D+00 -0.304739D-01
     31   0.000000D+00  0.452225D-02  0.000000D+00  0.000000D+00  0.000000D+00
     32   0.000000D+00  0.000000D+00 -0.256043D-01  0.586863D-01  0.000000D+00
     33   0.000000D+00  0.000000D+00 -0.952279D-02  0.111024D-01  0.000000D+00
     34   0.320840D-02  0.000000D+00  0.000000D+00  0.000000D+00 -0.141610D-01
     35   0.000000D+00  0.320840D-02  0.000000D+00  0.000000D+00  0.000000D+00
     36   0.000000D+00  0.000000D+00  0.000000D+00  0.000000D+00  0.000000D+00
     37   0.000000D+00  0.000000D+00  0.000000D+00  0.000000D+00  0.000000D+00
     38   0.000000D+00  0.000000D+00 -0.289086D+00  0.402090D+00  0.000000D+00
     39   0.113102D+00  0.000000D+00  0.000000D+00  0.000000D+00 -0.337498D+00
     40   0.000000D+00  0.113102D+00  0.000000D+00  0.000000D+00  0.000000D+00
     41   0.000000D+00  0.000000D+00 -0.349435D+00  0.278141D+00  0.000000D+00
     42   0.000000D+00  0.000000D+00 -0.278141D+00 -0.225190D-01  0.000000D+00
     43   0.337498D+00  0.000000D+00  0.000000D+00  0.000000D+00 -0.444907D+00
     44   0.000000D+00  0.337498D+00  0.000000D+00  0.000000D+00  0.000000D+00
     45   0.000000D+00  0.000000D+00  0.000000D+00  0.000000D+00  0.000000D+00
     46   0.000000D+00  0.000000D+00  0.000000D+00  0.000000D+00  0.000000D+00
                21            22            23            24            25 
      1   0.000000D+00  0.000000D+00  0.000000D+00  0.000000D+00  0.000000D+00
      2   0.000000D+00  0.000000D+00  0.000000D+00  0.000000D+00  0.000000D+00
      3   0.000000D+00  0.000000D+00  0.000000D+00  0.000000D+00  0.000000D+00
      4   0.000000D+00  0.000000D+00  0.000000D+00  0.000000D+00  0.000000D+00
      5   0.000000D+00  0.000000D+00  0.000000D+00  0.000000D+00  0.000000D+00
      6   0.000000D+00  0.000000D+00  0.000000D+00  0.000000D+00  0.000000D+00
      7   0.000000D+00  0.000000D+00  0.000000D+00  0.000000D+00  0.000000D+00
      8   0.000000D+00  0.000000D+00  0.000000D+00  0.000000D+00  0.000000D+00
      9   0.000000D+00  0.000000D+00  0.000000D+00  0.000000D+00  0.000000D+00
     10   0.000000D+00  0.000000D+00  0.000000D+00  0.000000D+00  0.000000D+00
     11   0.000000D+00  0.000000D+00  0.000000D+00  0.000000D+00  0.000000D+00
     12   0.473157D-01  0.000000D+00  0.000000D+00  0.000000D+00  0.000000D+00
     13   0.000000D+00  0.473157D-01  0.000000D+00  0.000000D+00  0.000000D+00
     14   0.000000D+00  0.000000D+00  0.473157D-01  0.000000D+00  0.000000D+00
     15   0.000000D+00  0.000000D+00  0.000000D+00  0.621316D-03  0.384497D-02
     16   0.000000D+00  0.000000D+00  0.000000D+00  0.000000D+00  0.000000D+00
     17   0.000000D+00  0.000000D+00  0.000000D+00  0.000000D+00  0.000000D+00
     18   0.000000D+00  0.000000D+00  0.000000D+00 -0.114685D-02 -0.705860D-02
     19   0.000000D+00  0.000000D+00  0.000000D+00  0.513214D-02  0.310219D-01
     20   0.000000D+00  0.000000D+00  0.000000D+00  0.000000D+00  0.000000D+00
     21   0.100000D+01  0.000000D+00  0.000000D+00  0.000000D+00  0.000000D+00
     22   0.000000D+00  0.100000D+01  0.000000D+00  0.000000D+00  0.000000D+00
     23   0.000000D+00  0.000000D+00  0.100000D+01  0.000000D+00  0.000000D+00
     24   0.000000D+00  0.000000D+00  0.000000D+00  0.100000D+01  0.405100D+00
     25   0.000000D+00  0.000000D+00  0.000000D+00  0.405100D+00  0.100000D+01
     26   0.000000D+00  0.000000D+00  0.000000D+00  0.000000D+00  0.000000D+00
     27  -0.212344D-02  0.000000D+00  0.000000D+00  0.000000D+00  0.000000D+00
     28   0.000000D+00  0.000000D+00  0.000000D+00  0.000000D+00  0.000000D+00
     29   0.000000D+00  0.000000D+00  0.000000D+00  0.306349D-01  0.351216D+00
     30   0.000000D+00  0.000000D+00  0.000000D+00  0.000000D+00  0.000000D+00
     31  -0.304739D-01  0.000000D+00  0.000000D+00  0.000000D+00  0.000000D+00
     32   0.000000D+00  0.000000D+00  0.000000D+00  0.000000D+00  0.000000D+00
     33   0.000000D+00  0.000000D+00  0.000000D+00  0.000000D+00  0.000000D+00
     34   0.000000D+00  0.000000D+00  0.000000D+00  0.000000D+00  0.000000D+00
     35  -0.141610D-01  0.000000D+00  0.000000D+00  0.000000D+00  0.000000D+00
     36   0.000000D+00  0.325648D-02  0.000000D+00  0.000000D+00  0.000000D+00
     37   0.000000D+00  0.000000D+00  0.325648D-02  0.000000D+00  0.000000D+00
     38   0.000000D+00  0.000000D+00  0.000000D+00 -0.386923D-03  0.519359D-02
     39   0.000000D+00  0.000000D+00  0.000000D+00  0.000000D+00  0.000000D+00
     40  -0.337498D+00  0.000000D+00  0.000000D+00  0.000000D+00  0.000000D+00
     41   0.000000D+00  0.000000D+00  0.000000D+00  0.000000D+00  0.000000D+00
     42   0.000000D+00  0.000000D+00  0.000000D+00  0.000000D+00  0.000000D+00
     43   0.000000D+00  0.000000D+00  0.000000D+00  0.000000D+00  0.000000D+00
     44  -0.444907D+00  0.000000D+00  0.000000D+00  0.000000D+00  0.000000D+00
     45   0.000000D+00  0.240730D+00  0.000000D+00  0.000000D+00  0.000000D+00
     46   0.000000D+00  0.000000D+00  0.240730D+00  0.000000D+00  0.000000D+00
                26            27            28            29            30 
      1   0.000000D+00  0.000000D+00  0.000000D+00  0.000000D+00  0.000000D+00
      2   0.000000D+00  0.000000D+00  0.000000D+00  0.000000D+00  0.000000D+00
      3   0.000000D+00  0.000000D+00  0.000000D+00  0.000000D+00  0.000000D+00
      4   0.000000D+00  0.000000D+00  0.000000D+00  0.000000D+00  0.000000D+00
      5   0.000000D+00  0.000000D+00  0.000000D+00  0.000000D+00  0.000000D+00
      6   0.000000D+00  0.000000D+00  0.000000D+00  0.000000D+00  0.000000D+00
      7   0.000000D+00  0.000000D+00  0.000000D+00  0.000000D+00  0.000000D+00
      8   0.000000D+00  0.000000D+00  0.000000D+00  0.000000D+00  0.000000D+00
      9   0.000000D+00  0.000000D+00  0.000000D+00  0.000000D+00  0.000000D+00
     10   0.000000D+00  0.000000D+00  0.000000D+00  0.000000D+00  0.000000D+00
     11   0.000000D+00  0.000000D+00  0.000000D+00  0.000000D+00  0.000000D+00
     12   0.000000D+00  0.000000D+00  0.000000D+00  0.000000D+00  0.000000D+00
     13   0.000000D+00  0.000000D+00  0.000000D+00  0.000000D+00  0.000000D+00
     14   0.000000D+00  0.000000D+00  0.000000D+00  0.000000D+00  0.000000D+00
     15   0.000000D+00  0.000000D+00  0.996175D-03  0.226069D-01  0.000000D+00
     16   0.278475D-03  0.000000D+00  0.000000D+00  0.000000D+00  0.452225D-02
     17   0.000000D+00  0.278475D-03  0.000000D+00  0.000000D+00  0.000000D+00
     18   0.000000D+00  0.000000D+00 -0.165429D-02 -0.400246D-01  0.000000D+00
     19   0.000000D+00  0.000000D+00  0.447085D-02  0.152183D+00  0.000000D+00
     20  -0.212344D-02  0.000000D+00  0.000000D+00  0.000000D+00 -0.304739D-01
     21   0.000000D+00 -0.212344D-02  0.000000D+00  0.000000D+00  0.000000D+00
     22   0.000000D+00  0.000000D+00  0.000000D+00  0.000000D+00  0.000000D+00
     23   0.000000D+00  0.000000D+00  0.000000D+00  0.000000D+00  0.000000D+00
     24   0.000000D+00  0.000000D+00  0.000000D+00  0.306349D-01  0.000000D+00
     25   0.000000D+00  0.000000D+00  0.000000D+00  0.351216D+00  0.000000D+00
     26   0.100000D+01  0.000000D+00  0.000000D+00  0.000000D+00  0.364086D+00
     27   0.000000D+00  0.100000D+01  0.000000D+00  0.000000D+00  0.000000D+00
     28   0.000000D+00  0.000000D+00  0.100000D+01  0.000000D+00  0.000000D+00
     29   0.000000D+00  0.000000D+00  0.000000D+00  0.100000D+01  0.000000D+00
     30   0.364086D+00  0.000000D+00  0.000000D+00  0.000000D+00  0.100000D+01
     31   0.000000D+00  0.364086D+00  0.000000D+00  0.000000D+00  0.000000D+00
     32   0.000000D+00  0.000000D+00  0.364086D+00  0.000000D+00  0.000000D+00
     33   0.000000D+00  0.000000D+00  0.000000D+00  0.000000D+00  0.000000D+00
     34   0.000000D+00  0.000000D+00  0.000000D+00  0.000000D+00  0.000000D+00
     35   0.000000D+00  0.000000D+00  0.000000D+00  0.000000D+00  0.000000D+00
     36   0.000000D+00  0.000000D+00  0.000000D+00  0.000000D+00  0.000000D+00
     37   0.000000D+00  0.000000D+00  0.000000D+00  0.000000D+00  0.000000D+00
     38   0.000000D+00  0.000000D+00  0.000000D+00  0.192427D+00  0.000000D+00
     39   0.135458D-01  0.000000D+00  0.000000D+00  0.000000D+00  0.209028D+00
     40   0.000000D+00  0.135458D-01  0.000000D+00  0.000000D+00  0.000000D+00
     41   0.000000D+00  0.000000D+00  0.135458D-01  0.000000D+00  0.000000D+00
     42   0.000000D+00  0.000000D+00  0.000000D+00  0.000000D+00  0.000000D+00
     43   0.000000D+00  0.000000D+00  0.000000D+00  0.000000D+00  0.000000D+00
     44   0.000000D+00  0.000000D+00  0.000000D+00  0.000000D+00  0.000000D+00
     45   0.000000D+00  0.000000D+00  0.000000D+00  0.000000D+00  0.000000D+00
     46   0.000000D+00  0.000000D+00  0.000000D+00  0.000000D+00  0.000000D+00
                31            32            33            34            35 
      1   0.000000D+00  0.000000D+00  0.000000D+00  0.000000D+00  0.000000D+00
      2   0.000000D+00  0.000000D+00  0.000000D+00  0.000000D+00  0.000000D+00
      3   0.000000D+00  0.000000D+00  0.000000D+00  0.000000D+00  0.000000D+00
      4   0.000000D+00  0.000000D+00  0.000000D+00  0.000000D+00  0.000000D+00
      5   0.000000D+00  0.000000D+00  0.000000D+00  0.000000D+00  0.000000D+00
      6   0.000000D+00  0.000000D+00  0.000000D+00  0.000000D+00  0.000000D+00
      7   0.000000D+00  0.000000D+00  0.000000D+00  0.000000D+00  0.000000D+00
      8   0.000000D+00  0.000000D+00  0.000000D+00  0.000000D+00  0.000000D+00
      9   0.000000D+00  0.000000D+00  0.000000D+00  0.000000D+00  0.000000D+00
     10   0.000000D+00  0.000000D+00  0.000000D+00  0.000000D+00  0.000000D+00
     11   0.000000D+00  0.000000D+00  0.000000D+00  0.000000D+00  0.000000D+00
     12   0.000000D+00  0.000000D+00  0.000000D+00  0.000000D+00  0.000000D+00
     13   0.000000D+00  0.000000D+00  0.000000D+00  0.000000D+00  0.000000D+00
     14   0.000000D+00  0.000000D+00  0.000000D+00  0.000000D+00  0.000000D+00
     15   0.000000D+00  0.156212D-01  0.592837D-02  0.000000D+00  0.000000D+00
     16   0.000000D+00  0.000000D+00  0.000000D+00  0.320840D-02  0.000000D+00
     17   0.452225D-02  0.000000D+00  0.000000D+00  0.000000D+00  0.320840D-02
     18   0.000000D+00 -0.256043D-01 -0.952279D-02  0.000000D+00  0.000000D+00
     19   0.000000D+00  0.586863D-01  0.111024D-01  0.000000D+00  0.000000D+00
     20   0.000000D+00  0.000000D+00  0.000000D+00 -0.141610D-01  0.000000D+00
     21  -0.304739D-01  0.000000D+00  0.000000D+00  0.000000D+00 -0.141610D-01
     22   0.000000D+00  0.000000D+00  0.000000D+00  0.000000D+00  0.000000D+00
     23   0.000000D+00  0.000000D+00  0.000000D+00  0.000000D+00  0.000000D+00
     24   0.000000D+00  0.000000D+00  0.000000D+00  0.000000D+00  0.000000D+00
     25   0.000000D+00  0.000000D+00  0.000000D+00  0.000000D+00  0.000000D+00
     26   0.000000D+00  0.000000D+00  0.000000D+00  0.000000D+00  0.000000D+00
     27   0.364086D+00  0.000000D+00  0.000000D+00  0.000000D+00  0.000000D+00
     28   0.000000D+00  0.364086D+00  0.000000D+00  0.000000D+00  0.000000D+00
     29   0.000000D+00  0.000000D+00  0.000000D+00  0.000000D+00  0.000000D+00
     30   0.000000D+00  0.000000D+00  0.000000D+00  0.000000D+00  0.000000D+00
     31   0.100000D+01  0.000000D+00  0.000000D+00  0.000000D+00  0.000000D+00
     32   0.000000D+00  0.100000D+01  0.000000D+00  0.000000D+00  0.000000D+00
     33   0.000000D+00  0.000000D+00  0.100000D+01  0.000000D+00  0.000000D+00
     34   0.000000D+00  0.000000D+00  0.000000D+00  0.100000D+01  0.000000D+00
     35   0.000000D+00  0.000000D+00  0.000000D+00  0.000000D+00  0.100000D+01
     36   0.000000D+00  0.000000D+00  0.000000D+00  0.000000D+00  0.000000D+00
     37   0.000000D+00  0.000000D+00  0.000000D+00  0.000000D+00  0.000000D+00
     38   0.000000D+00  0.000000D+00  0.000000D+00  0.000000D+00  0.000000D+00
     39   0.000000D+00  0.000000D+00  0.000000D+00  0.000000D+00  0.000000D+00
     40   0.209028D+00  0.000000D+00  0.000000D+00  0.000000D+00  0.000000D+00
     41   0.000000D+00  0.209028D+00  0.000000D+00  0.000000D+00  0.000000D+00
     42   0.000000D+00  0.000000D+00  0.473157D-01  0.000000D+00  0.000000D+00
     43   0.000000D+00  0.000000D+00  0.000000D+00  0.473157D-01  0.000000D+00
     44   0.000000D+00  0.000000D+00  0.000000D+00  0.000000D+00  0.473157D-01
     45   0.000000D+00  0.000000D+00  0.000000D+00  0.000000D+00  0.000000D+00
     46   0.000000D+00  0.000000D+00  0.000000D+00  0.000000D+00  0.000000D+00
                36            37            38            39            40 
      1   0.000000D+00  0.000000D+00  0.621316D-03  0.000000D+00  0.000000D+00
      2   0.000000D+00  0.000000D+00  0.384497D-02  0.000000D+00  0.000000D+00
      3   0.000000D+00  0.000000D+00  0.000000D+00  0.278475D-03  0.000000D+00
      4   0.000000D+00  0.000000D+00  0.000000D+00  0.000000D+00  0.278475D-03
      5   0.000000D+00  0.000000D+00 -0.996175D-03  0.000000D+00  0.000000D+00
      6   0.000000D+00  0.000000D+00  0.226069D-01  0.000000D+00  0.000000D+00
      7   0.000000D+00  0.000000D+00  0.000000D+00  0.452225D-02  0.000000D+00
      8   0.000000D+00  0.000000D+00  0.000000D+00  0.000000D+00  0.452225D-02
      9   0.000000D+00  0.000000D+00 -0.156212D-01  0.000000D+00  0.000000D+00
     10   0.000000D+00  0.000000D+00  0.592837D-02  0.000000D+00  0.000000D+00
     11   0.000000D+00  0.000000D+00  0.000000D+00 -0.320840D-02  0.000000D+00
     12   0.000000D+00  0.000000D+00  0.000000D+00  0.000000D+00 -0.320840D-02
     13   0.000000D+00  0.000000D+00  0.000000D+00  0.000000D+00  0.000000D+00
     14   0.000000D+00  0.000000D+00  0.000000D+00  0.000000D+00  0.000000D+00
     15   0.000000D+00  0.000000D+00  0.224208D+00  0.000000D+00  0.000000D+00
     16   0.000000D+00  0.000000D+00  0.000000D+00  0.113102D+00  0.000000D+00
     17   0.000000D+00  0.000000D+00  0.000000D+00  0.000000D+00  0.113102D+00
     18   0.000000D+00  0.000000D+00 -0.289086D+00  0.000000D+00  0.000000D+00
     19   0.000000D+00  0.000000D+00  0.402090D+00  0.000000D+00  0.000000D+00
     20   0.000000D+00  0.000000D+00  0.000000D+00 -0.337498D+00  0.000000D+00
     21   0.000000D+00  0.000000D+00  0.000000D+00  0.000000D+00 -0.337498D+00
     22   0.325648D-02  0.000000D+00  0.000000D+00  0.000000D+00  0.000000D+00
     23   0.000000D+00  0.325648D-02  0.000000D+00  0.000000D+00  0.000000D+00
     24   0.000000D+00  0.000000D+00 -0.386923D-03  0.000000D+00  0.000000D+00
     25   0.000000D+00  0.000000D+00  0.519359D-02  0.000000D+00  0.000000D+00
     26   0.000000D+00  0.000000D+00  0.000000D+00  0.135458D-01  0.000000D+00
     27   0.000000D+00  0.000000D+00  0.000000D+00  0.000000D+00  0.135458D-01
     28   0.000000D+00  0.000000D+00  0.000000D+00  0.000000D+00  0.000000D+00
     29   0.000000D+00  0.000000D+00  0.192427D+00  0.000000D+00  0.000000D+00
     30   0.000000D+00  0.000000D+00  0.000000D+00  0.209028D+00  0.000000D+00
     31   0.000000D+00  0.000000D+00  0.000000D+00  0.000000D+00  0.209028D+00
     32   0.000000D+00  0.000000D+00  0.000000D+00  0.000000D+00  0.000000D+00
     33   0.000000D+00  0.000000D+00  0.000000D+00  0.000000D+00  0.000000D+00
     34   0.000000D+00  0.000000D+00  0.000000D+00  0.000000D+00  0.000000D+00
     35   0.000000D+00  0.000000D+00  0.000000D+00  0.000000D+00  0.000000D+00
     36   0.100000D+01  0.000000D+00  0.000000D+00  0.000000D+00  0.000000D+00
     37   0.000000D+00  0.100000D+01  0.000000D+00  0.000000D+00  0.000000D+00
     38   0.000000D+00  0.000000D+00  0.100000D+01  0.000000D+00  0.000000D+00
     39   0.000000D+00  0.000000D+00  0.000000D+00  0.100000D+01  0.000000D+00
     40   0.000000D+00  0.000000D+00  0.000000D+00  0.000000D+00  0.100000D+01
     41   0.000000D+00  0.000000D+00  0.000000D+00  0.000000D+00  0.000000D+00
     42   0.000000D+00  0.000000D+00  0.000000D+00  0.000000D+00  0.000000D+00
     43   0.000000D+00  0.000000D+00  0.000000D+00  0.000000D+00  0.000000D+00
     44   0.000000D+00  0.000000D+00  0.000000D+00  0.000000D+00  0.000000D+00
     45   0.473157D-01  0.000000D+00  0.000000D+00  0.000000D+00  0.000000D+00
     46   0.000000D+00  0.473157D-01  0.000000D+00  0.000000D+00  0.000000D+00
                41            42            43            44            45 
      1   0.114685D-02  0.513214D-02  0.000000D+00  0.000000D+00  0.000000D+00
      2   0.705860D-02  0.310219D-01  0.000000D+00  0.000000D+00  0.000000D+00
      3   0.000000D+00  0.000000D+00  0.212344D-02  0.000000D+00  0.000000D+00
      4   0.000000D+00  0.000000D+00  0.000000D+00  0.212344D-02  0.000000D+00
      5  -0.165429D-02 -0.447085D-02  0.000000D+00  0.000000D+00  0.000000D+00
      6   0.400246D-01  0.152183D+00  0.000000D+00  0.000000D+00  0.000000D+00
      7   0.000000D+00  0.000000D+00  0.304739D-01  0.000000D+00  0.000000D+00
      8   0.000000D+00  0.000000D+00  0.000000D+00  0.304739D-01  0.000000D+00
      9  -0.256043D-01 -0.586863D-01  0.000000D+00  0.000000D+00  0.000000D+00
     10   0.952279D-02  0.111024D-01  0.000000D+00  0.000000D+00  0.000000D+00
     11   0.000000D+00  0.000000D+00 -0.141610D-01  0.000000D+00  0.000000D+00
     12   0.000000D+00  0.000000D+00  0.000000D+00 -0.141610D-01  0.000000D+00
     13   0.000000D+00  0.000000D+00  0.000000D+00  0.000000D+00  0.325648D-02
     14   0.000000D+00  0.000000D+00  0.000000D+00  0.000000D+00  0.000000D+00
     15   0.289086D+00  0.402090D+00  0.000000D+00  0.000000D+00  0.000000D+00
     16   0.000000D+00  0.000000D+00  0.337498D+00  0.000000D+00  0.000000D+00
     17   0.000000D+00  0.000000D+00  0.000000D+00  0.337498D+00  0.000000D+00
     18  -0.349435D+00 -0.278141D+00  0.000000D+00  0.000000D+00  0.000000D+00
     19   0.278141D+00 -0.225190D-01  0.000000D+00  0.000000D+00  0.000000D+00
     20   0.000000D+00  0.000000D+00 -0.444907D+00  0.000000D+00  0.000000D+00
     21   0.000000D+00  0.000000D+00  0.000000D+00 -0.444907D+00  0.000000D+00
     22   0.000000D+00  0.000000D+00  0.000000D+00  0.000000D+00  0.240730D+00
     23   0.000000D+00  0.000000D+00  0.000000D+00  0.000000D+00  0.000000D+00
     24   0.000000D+00  0.000000D+00  0.000000D+00  0.000000D+00  0.000000D+00
     25   0.000000D+00  0.000000D+00  0.000000D+00  0.000000D+00  0.000000D+00
     26   0.000000D+00  0.000000D+00  0.000000D+00  0.000000D+00  0.000000D+00
     27   0.000000D+00  0.000000D+00  0.000000D+00  0.000000D+00  0.000000D+00
     28   0.135458D-01  0.000000D+00  0.000000D+00  0.000000D+00  0.000000D+00
     29   0.000000D+00  0.000000D+00  0.000000D+00  0.000000D+00  0.000000D+00
     30   0.000000D+00  0.000000D+00  0.000000D+00  0.000000D+00  0.000000D+00
     31   0.000000D+00  0.000000D+00  0.000000D+00  0.000000D+00  0.000000D+00
     32   0.209028D+00  0.000000D+00  0.000000D+00  0.000000D+00  0.000000D+00
     33   0.000000D+00  0.473157D-01  0.000000D+00  0.000000D+00  0.000000D+00
     34   0.000000D+00  0.000000D+00  0.473157D-01  0.000000D+00  0.000000D+00
     35   0.000000D+00  0.000000D+00  0.000000D+00  0.473157D-01  0.000000D+00
     36   0.000000D+00  0.000000D+00  0.000000D+00  0.000000D+00  0.473157D-01
     37   0.000000D+00  0.000000D+00  0.000000D+00  0.000000D+00  0.000000D+00
     38   0.000000D+00  0.000000D+00  0.000000D+00  0.000000D+00  0.000000D+00
     39   0.000000D+00  0.000000D+00  0.000000D+00  0.000000D+00  0.000000D+00
     40   0.000000D+00  0.000000D+00  0.000000D+00  0.000000D+00  0.000000D+00
     41   0.100000D+01  0.000000D+00  0.000000D+00  0.000000D+00  0.000000D+00
     42   0.000000D+00  0.100000D+01  0.000000D+00  0.000000D+00  0.000000D+00
     43   0.000000D+00  0.000000D+00  0.100000D+01  0.000000D+00  0.000000D+00
     44   0.000000D+00  0.000000D+00  0.000000D+00  0.100000D+01  0.000000D+00
     45   0.000000D+00  0.000000D+00  0.000000D+00  0.000000D+00  0.100000D+01
     46   0.000000D+00  0.000000D+00  0.000000D+00  0.000000D+00  0.000000D+00
                46 
      1   0.000000D+00
      2   0.000000D+00
      3   0.000000D+00
      4   0.000000D+00
      5   0.000000D+00
      6   0.000000D+00
      7   0.000000D+00
      8   0.000000D+00
      9   0.000000D+00
     10   0.000000D+00
     11   0.000000D+00
     12   0.000000D+00
     13   0.000000D+00
     14   0.325648D-02
     15   0.000000D+00
     16   0.000000D+00
     17   0.000000D+00
     18   0.000000D+00
     19   0.000000D+00
     20   0.000000D+00
     21   0.000000D+00
     22   0.000000D+00
     23   0.240730D+00
     24   0.000000D+00
     25   0.000000D+00
     26   0.000000D+00
     27   0.000000D+00
     28   0.000000D+00
     29   0.000000D+00
     30   0.000000D+00
     31   0.000000D+00
     32   0.000000D+00
     33   0.000000D+00
     34   0.000000D+00
     35   0.000000D+00
     36   0.000000D+00
     37   0.473157D-01
     38   0.000000D+00
     39   0.000000D+00
     40   0.000000D+00
     41   0.000000D+00
     42   0.000000D+00
     43   0.000000D+00
     44   0.000000D+00
     45   0.000000D+00
     46   0.100000D+01
 Entering OneElI...
 Overlap between basis sets.
 Requested accuracy = 0.1000D-12
 PrsmSu:  NPrtUS=   1 ThrOK=F IAlg=1 NPAlg=1 LenDen=           0.
 Prism:   IPart=     0 DynPar=F LinDyn=F Incr=           9.
 PRISM was handed  1609457654 working-precision words and   926 shell-pairs
 IPart=  0 NShTot=         926 NBatch=          81 AvBLen=        11.4
 PrSmSu:  NxtVal=             10.
 CnvPC2: ToCart=F DoDens=F IPureD=0 IPureF=0.
 Transformed matrix in CnvPC2: 
                 1             2             3             4             5 
      1   0.999795D+00  0.413047D+00  0.000000D+00  0.000000D+00  0.000000D+00
      2   0.290578D+00  0.988353D+00  0.000000D+00  0.000000D+00  0.000000D+00
      3   0.000000D+00  0.000000D+00 -0.999255D+00  0.000000D+00  0.000000D+00
      4   0.000000D+00  0.000000D+00  0.000000D+00 -0.999255D+00  0.000000D+00
      5   0.000000D+00  0.000000D+00  0.000000D+00  0.000000D+00 -0.999255D+00
      6   0.137359D-01  0.328551D+00  0.000000D+00  0.000000D+00  0.000000D+00
      7   0.000000D+00  0.000000D+00  0.354113D+00  0.000000D+00  0.000000D+00
      8   0.000000D+00  0.000000D+00  0.000000D+00  0.354113D+00  0.000000D+00
      9   0.000000D+00  0.000000D+00  0.000000D+00  0.000000D+00  0.354113D+00
     10   0.000000D+00  0.000000D+00  0.000000D+00  0.000000D+00  0.000000D+00
     11   0.000000D+00  0.000000D+00  0.000000D+00  0.000000D+00  0.000000D+00
     12   0.000000D+00  0.000000D+00  0.000000D+00  0.000000D+00  0.000000D+00
     13   0.000000D+00  0.000000D+00  0.000000D+00  0.000000D+00  0.000000D+00
     14   0.000000D+00  0.000000D+00  0.000000D+00  0.000000D+00  0.000000D+00
     15   0.433038D-03  0.180441D-01  0.000000D+00  0.000000D+00  0.000000D+00
     16   0.467598D-02  0.283369D-01  0.000000D+00  0.000000D+00  0.000000D+00
     17   0.000000D+00  0.000000D+00  0.100748D-01  0.000000D+00  0.000000D+00
     18   0.000000D+00  0.000000D+00  0.000000D+00  0.100748D-01  0.000000D+00
     19   0.000000D+00  0.000000D+00  0.000000D+00  0.000000D+00  0.100748D-01
     20   0.000000D+00  0.000000D+00  0.122666D-02  0.000000D+00  0.000000D+00
     21   0.000000D+00  0.000000D+00  0.000000D+00  0.122666D-02  0.000000D+00
     22   0.000000D+00  0.000000D+00  0.000000D+00  0.000000D+00  0.122666D-02
     23   0.125978D+00  0.606131D+00  0.000000D+00  0.000000D+00  0.000000D+00
     24   0.784633D-01  0.419345D+00  0.000000D+00  0.000000D+00  0.000000D+00
     25   0.485217D-01  0.275243D+00  0.000000D+00  0.000000D+00  0.000000D+00
     26   0.298923D-01  0.175173D+00  0.000000D+00  0.000000D+00  0.000000D+00
     27   0.183788D-01  0.109592D+00  0.000000D+00  0.000000D+00  0.000000D+00
     28   0.000000D+00  0.000000D+00  0.177762D+00  0.000000D+00  0.000000D+00
     29   0.000000D+00  0.000000D+00  0.000000D+00  0.177762D+00  0.000000D+00
     30   0.000000D+00  0.000000D+00  0.000000D+00  0.000000D+00  0.177762D+00
     31   0.000000D+00  0.000000D+00  0.909688D-01  0.000000D+00  0.000000D+00
     32   0.000000D+00  0.000000D+00  0.000000D+00  0.909688D-01  0.000000D+00
     33   0.000000D+00  0.000000D+00  0.000000D+00  0.000000D+00  0.909688D-01
     34   0.000000D+00  0.000000D+00  0.445486D-01  0.000000D+00  0.000000D+00
     35   0.000000D+00  0.000000D+00  0.000000D+00  0.445486D-01  0.000000D+00
     36   0.000000D+00  0.000000D+00  0.000000D+00  0.000000D+00  0.445486D-01
     37   0.000000D+00  0.000000D+00  0.212641D-01  0.000000D+00  0.000000D+00
     38   0.000000D+00  0.000000D+00  0.000000D+00  0.212641D-01  0.000000D+00
     39   0.000000D+00  0.000000D+00  0.000000D+00  0.000000D+00  0.212641D-01
     40   0.000000D+00  0.000000D+00  0.100044D-01  0.000000D+00  0.000000D+00
     41   0.000000D+00  0.000000D+00  0.000000D+00  0.100044D-01  0.000000D+00
     42   0.000000D+00  0.000000D+00  0.000000D+00  0.000000D+00  0.100044D-01
     43   0.000000D+00  0.000000D+00  0.000000D+00  0.000000D+00  0.000000D+00
     44   0.000000D+00  0.000000D+00  0.000000D+00  0.000000D+00  0.000000D+00
     45   0.000000D+00  0.000000D+00  0.000000D+00  0.000000D+00  0.000000D+00
     46   0.000000D+00  0.000000D+00  0.000000D+00  0.000000D+00  0.000000D+00
     47   0.000000D+00  0.000000D+00  0.000000D+00  0.000000D+00  0.000000D+00
     48   0.000000D+00  0.000000D+00  0.000000D+00  0.000000D+00  0.000000D+00
     49   0.000000D+00  0.000000D+00  0.000000D+00  0.000000D+00  0.000000D+00
     50   0.000000D+00  0.000000D+00  0.000000D+00  0.000000D+00  0.000000D+00
     51   0.000000D+00  0.000000D+00  0.000000D+00  0.000000D+00  0.000000D+00
     52   0.000000D+00  0.000000D+00  0.000000D+00  0.000000D+00  0.000000D+00
     53   0.000000D+00  0.000000D+00  0.000000D+00  0.000000D+00  0.000000D+00
     54   0.000000D+00  0.000000D+00  0.000000D+00  0.000000D+00  0.000000D+00
     55   0.000000D+00  0.000000D+00  0.000000D+00  0.000000D+00  0.000000D+00
     56   0.000000D+00  0.000000D+00  0.000000D+00  0.000000D+00  0.000000D+00
     57   0.000000D+00  0.000000D+00  0.000000D+00  0.000000D+00  0.000000D+00
     58   0.000000D+00  0.000000D+00  0.000000D+00  0.000000D+00  0.000000D+00
     59   0.000000D+00  0.000000D+00  0.000000D+00  0.000000D+00  0.000000D+00
     60   0.000000D+00  0.000000D+00  0.000000D+00  0.000000D+00  0.000000D+00
     61   0.000000D+00  0.000000D+00  0.000000D+00  0.000000D+00  0.000000D+00
     62   0.000000D+00  0.000000D+00  0.000000D+00  0.000000D+00  0.000000D+00
     63   0.000000D+00  0.000000D+00  0.000000D+00  0.000000D+00  0.000000D+00
     64   0.000000D+00  0.000000D+00  0.000000D+00  0.000000D+00  0.000000D+00
     65   0.000000D+00  0.000000D+00  0.000000D+00  0.000000D+00  0.000000D+00
     66   0.000000D+00  0.000000D+00  0.000000D+00  0.000000D+00  0.000000D+00
     67   0.000000D+00  0.000000D+00  0.000000D+00  0.000000D+00  0.000000D+00
     68   0.000000D+00  0.000000D+00  0.000000D+00  0.000000D+00  0.000000D+00
     69   0.000000D+00  0.000000D+00  0.000000D+00  0.000000D+00  0.000000D+00
     70   0.000000D+00  0.000000D+00  0.000000D+00  0.000000D+00  0.000000D+00
     71   0.000000D+00  0.000000D+00  0.000000D+00  0.000000D+00  0.000000D+00
     72   0.000000D+00  0.000000D+00  0.000000D+00  0.000000D+00  0.000000D+00
     73   0.000000D+00  0.000000D+00  0.000000D+00  0.000000D+00  0.000000D+00
     74   0.000000D+00  0.000000D+00  0.000000D+00  0.000000D+00  0.000000D+00
     75   0.000000D+00  0.000000D+00  0.000000D+00  0.000000D+00  0.000000D+00
     76   0.000000D+00  0.000000D+00  0.000000D+00  0.000000D+00  0.000000D+00
     77   0.000000D+00  0.000000D+00  0.000000D+00  0.000000D+00  0.000000D+00
     78   0.000000D+00  0.000000D+00  0.000000D+00  0.000000D+00  0.000000D+00
     79   0.000000D+00  0.000000D+00  0.000000D+00  0.000000D+00  0.000000D+00
     80   0.000000D+00  0.000000D+00  0.000000D+00  0.000000D+00  0.000000D+00
     81   0.000000D+00  0.000000D+00  0.000000D+00  0.000000D+00  0.000000D+00
     82   0.000000D+00  0.000000D+00  0.000000D+00  0.000000D+00  0.000000D+00
     83   0.000000D+00  0.000000D+00  0.000000D+00  0.000000D+00  0.000000D+00
     84   0.000000D+00  0.000000D+00  0.000000D+00  0.000000D+00  0.000000D+00
     85   0.000000D+00  0.000000D+00  0.000000D+00  0.000000D+00  0.000000D+00
     86   0.000000D+00  0.000000D+00  0.000000D+00  0.000000D+00  0.000000D+00
     87   0.000000D+00  0.000000D+00  0.000000D+00  0.000000D+00  0.000000D+00
     88   0.000000D+00  0.000000D+00  0.000000D+00  0.000000D+00  0.000000D+00
     89   0.000000D+00  0.000000D+00  0.000000D+00  0.000000D+00  0.000000D+00
     90   0.000000D+00  0.000000D+00  0.000000D+00  0.000000D+00  0.000000D+00
     91   0.000000D+00  0.000000D+00  0.000000D+00  0.000000D+00  0.000000D+00
     92   0.000000D+00  0.000000D+00  0.000000D+00  0.000000D+00  0.000000D+00
     93   0.000000D+00  0.000000D+00  0.000000D+00  0.000000D+00  0.000000D+00
     94   0.000000D+00  0.000000D+00  0.000000D+00  0.000000D+00  0.000000D+00
     95   0.000000D+00  0.000000D+00  0.000000D+00  0.000000D+00  0.000000D+00
     96   0.000000D+00  0.000000D+00  0.000000D+00  0.000000D+00  0.000000D+00
     97   0.000000D+00  0.000000D+00  0.000000D+00  0.000000D+00  0.000000D+00
     98   0.000000D+00  0.000000D+00  0.000000D+00  0.000000D+00  0.000000D+00
     99   0.000000D+00  0.000000D+00  0.000000D+00  0.000000D+00  0.000000D+00
    100   0.000000D+00  0.000000D+00  0.000000D+00  0.000000D+00  0.000000D+00
    101   0.000000D+00  0.000000D+00  0.000000D+00  0.000000D+00  0.000000D+00
    102   0.000000D+00  0.000000D+00  0.000000D+00  0.000000D+00  0.000000D+00
    103   0.000000D+00  0.000000D+00  0.000000D+00  0.000000D+00  0.000000D+00
    104   0.000000D+00  0.000000D+00  0.000000D+00  0.000000D+00  0.000000D+00
    105   0.000000D+00  0.000000D+00  0.000000D+00  0.000000D+00  0.000000D+00
    106   0.000000D+00  0.000000D+00  0.000000D+00  0.000000D+00  0.000000D+00
    107   0.000000D+00  0.000000D+00  0.000000D+00  0.000000D+00  0.000000D+00
    108   0.000000D+00  0.000000D+00  0.000000D+00  0.000000D+00  0.000000D+00
    109   0.000000D+00  0.000000D+00  0.000000D+00  0.000000D+00  0.000000D+00
    110   0.000000D+00  0.000000D+00  0.000000D+00  0.000000D+00  0.000000D+00
    111   0.000000D+00  0.000000D+00  0.000000D+00  0.000000D+00  0.000000D+00
    112   0.000000D+00  0.000000D+00  0.000000D+00  0.000000D+00  0.000000D+00
    113   0.000000D+00  0.000000D+00  0.000000D+00  0.000000D+00  0.000000D+00
    114   0.000000D+00  0.000000D+00  0.000000D+00  0.000000D+00  0.000000D+00
    115   0.000000D+00  0.000000D+00  0.000000D+00  0.000000D+00  0.000000D+00
    116   0.000000D+00  0.000000D+00  0.000000D+00  0.000000D+00  0.000000D+00
    117   0.000000D+00  0.000000D+00  0.000000D+00  0.000000D+00  0.000000D+00
    118   0.000000D+00  0.000000D+00  0.000000D+00  0.000000D+00  0.000000D+00
    119   0.000000D+00  0.000000D+00  0.000000D+00  0.000000D+00  0.000000D+00
    120   0.000000D+00  0.000000D+00  0.000000D+00  0.000000D+00  0.000000D+00
    121   0.000000D+00  0.000000D+00  0.000000D+00  0.000000D+00  0.000000D+00
    122   0.000000D+00  0.000000D+00  0.000000D+00  0.000000D+00  0.000000D+00
    123   0.000000D+00  0.000000D+00  0.000000D+00  0.000000D+00  0.000000D+00
    124   0.000000D+00  0.000000D+00  0.000000D+00  0.000000D+00  0.000000D+00
    125   0.000000D+00  0.000000D+00  0.000000D+00  0.000000D+00  0.000000D+00
    126   0.000000D+00  0.000000D+00  0.000000D+00  0.000000D+00  0.000000D+00
    127   0.000000D+00  0.000000D+00  0.000000D+00  0.000000D+00  0.000000D+00
    128   0.000000D+00  0.000000D+00  0.000000D+00  0.000000D+00  0.000000D+00
    129   0.000000D+00  0.000000D+00  0.000000D+00  0.000000D+00  0.000000D+00
    130   0.000000D+00  0.000000D+00  0.000000D+00  0.000000D+00  0.000000D+00
    131   0.000000D+00  0.000000D+00  0.000000D+00  0.000000D+00  0.000000D+00
    132   0.000000D+00  0.000000D+00  0.000000D+00  0.000000D+00  0.000000D+00
    133   0.000000D+00  0.000000D+00  0.000000D+00  0.000000D+00  0.000000D+00
    134   0.000000D+00  0.000000D+00  0.000000D+00  0.000000D+00  0.000000D+00
    135   0.000000D+00  0.000000D+00  0.000000D+00  0.000000D+00  0.000000D+00
    136   0.000000D+00  0.000000D+00  0.000000D+00  0.000000D+00  0.000000D+00
    137   0.000000D+00  0.000000D+00  0.000000D+00  0.000000D+00  0.000000D+00
    138   0.000000D+00  0.000000D+00  0.000000D+00  0.000000D+00  0.000000D+00
    139   0.000000D+00  0.000000D+00  0.000000D+00  0.000000D+00  0.000000D+00
    140   0.000000D+00  0.000000D+00  0.000000D+00  0.000000D+00  0.000000D+00
    141   0.000000D+00  0.000000D+00  0.000000D+00  0.000000D+00  0.000000D+00
    142   0.000000D+00  0.000000D+00  0.000000D+00  0.000000D+00  0.000000D+00
    143   0.000000D+00  0.000000D+00  0.000000D+00  0.000000D+00  0.000000D+00
    144   0.000000D+00  0.000000D+00  0.000000D+00  0.000000D+00  0.000000D+00
    145   0.000000D+00  0.000000D+00  0.000000D+00  0.000000D+00  0.000000D+00
    146   0.000000D+00  0.000000D+00  0.000000D+00  0.000000D+00  0.000000D+00
    147   0.000000D+00  0.000000D+00  0.000000D+00  0.000000D+00  0.000000D+00
    148   0.000000D+00  0.000000D+00  0.000000D+00  0.000000D+00  0.000000D+00
    149   0.000000D+00  0.000000D+00  0.000000D+00  0.000000D+00  0.000000D+00
[...]
         |
   31    |  1.522160  1.526599  1.880575  3.565364  3.565364  1.826706
   31    |  1.828162  1.794031  0.000000  2.188446  2.188446  0.000000
         |
   32    |  2.388895  2.385720  2.381789  2.435621  3.579379  3.715351
   32    |  1.791540  1.785397  1.756085  0.000000  3.213915  0.000000
         |
   33    |  2.388895  2.385720  2.381789  2.169485  2.435621  3.715351
   33    |  1.791540  1.785397  1.756085  2.169485  0.000000  0.000000
         |
   34    |  1.846887  1.479189  1.634941  1.458061  1.458061  0.000000
   34    |  0.000000  0.000000  0.000000  0.000000  0.000000  0.000000
         |
   35    |  1.500282  1.896696  1.568806  1.458061  1.458061  0.000000
   35    |  0.000000  0.000000  0.000000  0.000000  0.000000  0.000000
         |

 AB - AA |     35
 BA - BB |     35
--------------------
   29    |  1.656518
   29    |  0.000000
         |
   30    |  2.148606
   30    |  0.000000
         |
   31    |  1.707044
   31    |  0.000000
         |
   32    |  3.715351
   32    |  0.000000
         |
   33    |  3.715351
   33    |  0.000000
         |
   34    |  1.429875
   34    |  0.000000
         |
   35    |  0.000000
   35    |  0.000000
         |

                   MP2(CBS) Pair Energies
                   ----------------------

 AB - AA |     29        30        31        32        33        34
 BA - BB |     29        30        31        32        33        34
----------------------------------------------------------------------
   29    | -0.015386 -0.003433 -0.003479 -0.001226 -0.001226 -0.002107
   29    |  0.000000 -0.008980 -0.008568 -0.002398 -0.002398  0.000000
         |
   30    | -0.007101 -0.015584 -0.003485 -0.001232 -0.001232 -0.003392
   30    | -0.007002  0.000000 -0.008513 -0.002389 -0.002389  0.000000
         |
   31    | -0.007741 -0.007714 -0.016951 -0.001276 -0.001276 -0.002951
   31    | -0.006904 -0.006976  0.000000 -0.002320 -0.002320  0.000000
         |
   32    | -0.004613 -0.004605 -0.004551 -0.014212 -0.000039 -0.001250
   32    | -0.005599 -0.005596 -0.005583  0.000000 -0.000045  0.000000
         |
   33    | -0.004613 -0.004605 -0.004551 -0.000079 -0.014212 -0.001250
   33    | -0.005599 -0.005596 -0.005583 -0.000079  0.000000  0.000000
         |
   34    | -0.010464 -0.006387 -0.008303 -0.007248 -0.007248  0.000000
   34    |  0.000000  0.000000  0.000000  0.000000  0.000000  0.000000
         |
   35    | -0.006843 -0.010749 -0.007552 -0.007248 -0.007248  0.000000
   35    |  0.000000  0.000000  0.000000  0.000000  0.000000  0.000000
         |

 AB - AA |     35
 BA - BB |     35
--------------------
   29    | -0.003230
   29    |  0.000000
         |
   30    | -0.002037
   30    |  0.000000
         |
   31    | -0.003183
   31    |  0.000000
         |
   32    | -0.001250
   32    |  0.000000
         |
   33    | -0.001250
   33    |  0.000000
         |
   34    | -0.003813
   34    |  0.000000
         |
   35    |  0.000000
   35    |  0.000000
         |

                     Sum of ab pair energies =    -0.205807 A.U.
                     Sum of ba pair energies =    -0.054516 A.U.
                     Sum of aa pair energies =    -0.043620 A.U.
                     Sum of bb pair energies =    -0.040322 A.U.

           Sum of intraorbital pair energies =    -0.076345 A.U.
           Sum of interorbital pair energies =    -0.267921 A.U.
                                                  ----------
                         Total pair energies =    -0.344266 A.U.

                         Single Excitations  =    -0.006803 A.U.

                          Total second order =    -0.351069 A.U.



            MP2(CBS) (With Interference Correction) 
            ---------------------------------------

 AB - AA |     29        30        31        32        33        34
 BA - BB |     29        30        31        32        33        34
----------------------------------------------------------------------
   29    | -0.014899 -0.003426 -0.003472 -0.001218 -0.001218 -0.002098
   29    |  0.000000 -0.008968 -0.008556 -0.002385 -0.002385  0.000000
         |
   30    | -0.006971 -0.015092 -0.003478 -0.001224 -0.001224 -0.003389
   30    | -0.006873  0.000000 -0.008501 -0.002376 -0.002376  0.000000
         |
   31    | -0.007603 -0.007577 -0.016429 -0.001267 -0.001267 -0.002942
   31    | -0.006775 -0.006846  0.000000 -0.002308 -0.002308  0.000000
         |
   32    | -0.004531 -0.004524 -0.004472 -0.013833 -0.000039 -0.001242
   32    | -0.005505 -0.005503 -0.005491  0.000000 -0.000045  0.000000
         |
   33    | -0.004531 -0.004524 -0.004472 -0.000079 -0.013833 -0.001242
   33    | -0.005505 -0.005503 -0.005491 -0.000079  0.000000  0.000000
         |
   34    | -0.010258 -0.006312 -0.008165 -0.007126 -0.007126  0.000000
   34    |  0.000000  0.000000  0.000000  0.000000  0.000000  0.000000
         |
   35    | -0.006759 -0.010533 -0.007438 -0.007126 -0.007126  0.000000
   35    |  0.000000  0.000000  0.000000  0.000000  0.000000  0.000000
         |

 AB - AA |     35
 BA - BB |     35
--------------------
   29    | -0.003226
   29    |  0.000000
         |
   30    | -0.002028
   30    |  0.000000
         |
   31    | -0.003175
   31    |  0.000000
         |
   32    | -0.001242
   32    |  0.000000
         |
   33    | -0.001242
   33    |  0.000000
         |
   34    | -0.003808
   34    |  0.000000
         |
   35    |  0.000000
   35    |  0.000000
         |

                     Sum of ab pair energies =    -0.201341 A.U.
                     Sum of ba pair energies =    -0.053569 A.U.
                     Sum of aa pair energies =    -0.043468 A.U.
                     Sum of bb pair energies =    -0.040209 A.U.

           Sum of intraorbital pair energies =    -0.074086 A.U.
           Sum of interorbital pair energies =    -0.264501 A.U.
                                                  ----------
                         Total pair energies =    -0.338587 A.U.

                         Single Excitations  =    -0.006803 A.U.

                          Total second order =    -0.345391 A.U.

                         E2(CBS) - E2(Dir) =      -0.011885 A.U.

 E2(CBS)=      -0.351069 CBS-Int=       0.005679 OIii=       1.823985

 **********************************************************************

            Population analysis using the SCF density.

 **********************************************************************

 Orbital symmetries:
       Occupied  (SGG) (SGU) (SGG) (SGU) (SGG) (SGU) (PIG) (PIG)
                 (PIU) (PIU) (SGG) (SGU) (SGG) (SGU) (PIU) (PIU)
                 (PIG) (PIG) (SGG) (PIU) (PIU) (PIG) (PIG) (SGU)
                 (DLTG) (DLTG) (DLTU) (DLTU) (SGG) (SGU) (SGG)
                 (PIU) (PIU) (PIG) (PIG)
       Virtual   (SGU) (SGG) (PIU) (PIU) (SGG) (PIG) (PIG) (SGU)
                 (DLTG) (DLTG) (SGU) (PIU) (PIU) (DLTU) (DLTU)
                 (SGG) (SGU) (PIG) (PIG) (PIU) (PIU) (SGG) (SGG)
                 (PHIU) (PHIU) (DLTG) (DLTG) (PIG) (PIG) (PIU)
                 (PIU) (SGU) (DLTG) (DLTG) (PHIG) (PHIG) (DLTU)
                 (DLTU) (SGG) (SGU) (PIU) (PIU) (DLTU) (DLTU) (PIG)
                 (PIG) (SGU) (?A) (?A) (PHIU) (PHIU) (SGG) (?B)
                 (?B) (PIU) (PIU) (SGG) (PIG) (PIG) (DLTG) (DLTG)
                 (PIU) (PIU) (SGG) (PHIG) (PHIG) (PIG) (PIG) (SGU)
                 (DLTU) (DLTU) (PHIU) (PHIU) (DLTG) (DLTG) (PIU)
                 (PIU) (SGG) (DLTG) (DLTG) (DLTU) (DLTU) (PIG)
                 (PIG) (SGU) (PHIG) (PHIG) (SGU) (SGU) (PIU) (PIU)
                 (DLTU) (DLTU) (?C) (?C) (?A) (?A) (PIG) (PIG)
                 (SGG) (?D) (?D) (PHIU) (PHIU) (SGG) (?A) (?A)
                 (PIU) (PIU) (?B) (?B) (DLTG) (DLTG) (PHIU) (PHIU)
                 (?B) (?B) (DLTU) (DLTU) (PIG) (PIG) (SGU) (PHIG)
                 (PHIG) (PIU) (PIU) (DLTG) (DLTG) (SGU) (SGG) (PIG)
                 (PIG) (PHIG) (PHIG) (SGG) (DLTU) (DLTU) (PHIU)
                 (PHIU) (PIG) (PIG) (DLTG) (DLTG) (PIU) (PIU) (SGG)
                 (PHIG) (PHIG) (SGU) (DLTG) (DLTG) (PIU) (PIU)
                 (PIG) (PIG) (SGU) (DLTU) (DLTU) (SGG) (SGU) (PIG)
                 (PIG) (DLTU) (DLTU) (PIU) (PIU) (SGU) (SGG) (DLTG)
                 (DLTG) (PHIU) (PHIU) (PIU) (PIU) (?A) (?A) (PIG)
                 (PIG) (?C) (?C) (?A) (?A) (?B) (?B) (?D) (?D)
                 (PHIU) (PHIU) (SGG) (PHIG) (PHIG) (?B) (?B) (PIG)
                 (PIG) (SGU) (DLTU) (DLTU) (DLTG) (DLTG) (PHIG)
                 (PHIG) (SGG) (PIU) (PIU) (SGU) (DLTU) (DLTU) (PIG)
                 (PIG) (SGU) (PHIU) (PHIU) (DLTG) (DLTG) (PHIG)
                 (PHIG) (SGG) (PIU) (PIU) (DLTG) (DLTG) (DLTU)
                 (DLTU) (PIU) (PIU) (DLTU) (DLTU) (SGG) (PIG) (PIG)
                 (SGU) (PIU) (PIU) (SGG) (PHIU) (PHIU) (?A) (?A)
                 (PIG) (PIG) (SGU) (?C) (?C) (?E) (?E) (SGG) (?F)
                 (?F) (?D) (?D) (PIG) (PIG) (DLTG) (DLTG) (?B)
                 (?B) (PIU) (PIU) (SGU) (PHIG) (PHIG) (SGG) (?A)
                 (?A) (PHIU) (PHIU) (?B) (?B) (PIG) (PIG) (DLTG)
                 (DLTG) (DLTU) (DLTU) (PHIG) (PHIG) (SGU) (PIU)
                 (PIU) (SGU) (SGG) (DLTU) (DLTU) (?A) (?A) (?C)
                 (?C) (?D) (?D) (PHIU) (PHIU) (?B) (?B) (PIG) (PIG)
                 (PHIG) (PHIG) (SGU) (DLTG) (DLTG) (DLTU) (DLTU)
                 (SGG) (PIG) (PIG) (PIU) (PIU) (SGU) (PHIU) (PHIU)
                 (DLTG) (DLTG) (PHIG) (PHIG) (DLTU) (DLTU) (PIU)
                 (PIU) (SGU) (PIG) (PIG) (SGG) (DLTG) (DLTG) (DLTU)
                 (DLTU) (PIU) (PIU) (SGG) (PIG) (PIG) (SGU) (PIU)
                 (PIU) (SGG) (PIG) (PIG) (SGU) (SGG) (SGU) (SGG)
                 (SGU)
 The electronic state is 3-SGG.
 Alpha  occ. eigenvalues -- -460.87980-460.87980 -60.68039 -60.68039 -54.28233
 Alpha  occ. eigenvalues --  -54.28233 -54.28233 -54.28233 -54.28022 -54.28022
 Alpha  occ. eigenvalues --   -8.94679  -8.94667  -6.67906  -6.67906  -6.67899
 Alpha  occ. eigenvalues --   -6.67899  -6.67609  -6.67553  -2.66916  -2.66590
 Alpha  occ. eigenvalues --   -2.66590  -2.66364  -2.66364  -2.66354  -2.66354
 Alpha  occ. eigenvalues --   -2.66342  -2.66342  -2.66254  -1.02317  -0.82781
 Alpha  occ. eigenvalues --   -0.48462  -0.47725  -0.47725  -0.34825  -0.34825
 Alpha virt. eigenvalues --    0.03619   0.06058   0.06950   0.06950   0.08554
 Alpha virt. eigenvalues --    0.08922   0.08922   0.09915   0.15421   0.15421
 Alpha virt. eigenvalues --    0.17709   0.20319   0.20319   0.22283   0.22283
 Alpha virt. eigenvalues --    0.22712   0.26631   0.26782   0.26782   0.30133
 Alpha virt. eigenvalues --    0.30133   0.32271   0.38212   0.39010   0.39010
 Alpha virt. eigenvalues --    0.39231   0.39231   0.39867   0.39867   0.40060
 Alpha virt. eigenvalues --    0.40060   0.44954   0.46667   0.46667   0.47261
 Alpha virt. eigenvalues --    0.47261   0.48240   0.48240   0.51210   0.55641
 Alpha virt. eigenvalues --    0.56295   0.56295   0.56729   0.56729   0.57852
 Alpha virt. eigenvalues --    0.57852   0.61578   0.73755   0.73755   0.79876
 Alpha virt. eigenvalues --    0.79876   0.83442   0.85075   0.85075   0.85077
 Alpha virt. eigenvalues --    0.85077   0.85406   0.88850   0.88850   0.91334
 Alpha virt. eigenvalues --    0.91334   0.92815   0.92815   0.95642   0.98826
 Alpha virt. eigenvalues --    0.98826   0.99191   0.99191   1.00252   1.00252
 Alpha virt. eigenvalues --    1.00402   1.01968   1.01968   1.02057   1.02057
 Alpha virt. eigenvalues --    1.03586   1.03586   1.04430   1.04920   1.04920
 Alpha virt. eigenvalues --    1.06105   1.06105   1.06631   1.06631   1.07696
 Alpha virt. eigenvalues --    1.10872   1.10872   1.18144   1.34025   1.35801
 Alpha virt. eigenvalues --    1.35801   1.40437   1.40437   1.47498   1.47498
 Alpha virt. eigenvalues --    1.49244   1.49244   1.52451   1.52451   1.53075
 Alpha virt. eigenvalues --    1.60078   1.60078   1.66514   1.66514   1.72261
 Alpha virt. eigenvalues --    1.77272   1.77272   1.77431   1.77431   1.79804
 Alpha virt. eigenvalues --    1.79804   1.80957   1.80957   1.81539   1.81539
 Alpha virt. eigenvalues --    1.86460   1.86460   1.90955   1.90955   1.92395
 Alpha virt. eigenvalues --    1.92395   1.92684   1.93747   1.93747   1.96675
 Alpha virt. eigenvalues --    1.96675   1.96977   1.96977   1.98958   1.99723
 Alpha virt. eigenvalues --    2.03131   2.03131   2.09428   2.09428   2.15922
 Alpha virt. eigenvalues --    2.16061   2.16061   2.17766   2.17766   2.21756
 Alpha virt. eigenvalues --    2.21756   2.21937   2.21937   2.23393   2.23393
 Alpha virt. eigenvalues --    2.25824   2.32098   2.32098   2.32393   2.34166
 Alpha virt. eigenvalues --    2.34166   2.39949   2.39949   2.40931   2.40931
 Alpha virt. eigenvalues --    2.42776   2.43072   2.43072   2.54540   2.66405
 Alpha virt. eigenvalues --    2.87167   2.87167   2.89329   2.89329   2.94107
 Alpha virt. eigenvalues --    2.94107   3.20731   3.21692   3.38360   3.38360
 Alpha virt. eigenvalues --    3.41635   3.41635   3.45310   3.45310   3.52438
 Alpha virt. eigenvalues --    3.52438   3.55108   3.55108   3.57746   3.57746
 Alpha virt. eigenvalues --    3.58528   3.58528   3.63618   3.63618   3.63844
 Alpha virt. eigenvalues --    3.63844   3.66202   3.66202   3.68515   3.74356
 Alpha virt. eigenvalues --    3.74356   3.77824   3.77824   3.85684   3.85684
 Alpha virt. eigenvalues --    3.89312   3.91356   3.91356   3.93970   3.93970
 Alpha virt. eigenvalues --    4.04570   4.04570   4.04773   4.09720   4.09720
 Alpha virt. eigenvalues --    4.13969   4.14413   4.14413   4.28762   4.28762
 Alpha virt. eigenvalues --    4.38809   4.49545   4.49545   4.51355   4.51355
 Alpha virt. eigenvalues --    4.58130   4.58130   4.70843   4.76963   4.76963
 Alpha virt. eigenvalues --    4.88489   4.88489   4.93252   4.93252   5.05425
 Alpha virt. eigenvalues --    5.05425   5.10264   5.10264   5.15247   5.17731
 Alpha virt. eigenvalues --    5.17731   5.20873   5.30206   5.30206   5.60271
 Alpha virt. eigenvalues --    5.62559   5.62559   5.63427   5.63427   5.64086
 Alpha virt. eigenvalues --    5.64086   5.71071   5.77077   5.77077   5.82294
 Alpha virt. eigenvalues --    5.82294   5.83295   5.83295   5.83338   5.88214
 Alpha virt. eigenvalues --    5.88214   5.95878   5.95878   5.97532   5.97532
 Alpha virt. eigenvalues --    6.09921   6.09921   6.46174   6.46174   6.54081
 Alpha virt. eigenvalues --    6.57303   6.57303   6.61563   6.79262   6.79262
 Alpha virt. eigenvalues --    6.79775   6.79775   6.83991   6.83991   6.85866
 Alpha virt. eigenvalues --    6.85866   6.86512   6.86512   6.90410   6.90410
 Alpha virt. eigenvalues --    6.95319   6.95319   6.95561   7.02856   7.02856
 Alpha virt. eigenvalues --    7.15556   7.47097   7.50074   7.50074   7.58219
 Alpha virt. eigenvalues --    7.58219   7.59790   7.59790   7.63885   7.63885
 Alpha virt. eigenvalues --    7.66334   7.66334   7.72533   7.72533   7.83958
 Alpha virt. eigenvalues --    7.83958   7.91184   7.91184   7.92400   7.94384
 Alpha virt. eigenvalues --    7.94384   8.01367   8.01367   8.12343   8.18728
 Alpha virt. eigenvalues --    8.18728   8.21453   8.21453   8.50784   8.93192
 Alpha virt. eigenvalues --    8.93192   8.96835   8.96835   8.99613   8.99613
 Alpha virt. eigenvalues --    9.41904   9.41904   9.43408   9.43408  10.27384
 Alpha virt. eigenvalues --   10.37345  10.37345  10.42429  10.93554  10.93554
 Alpha virt. eigenvalues --   11.05647  11.05647  11.10200  11.10200  11.80324
 Alpha virt. eigenvalues --   11.86556  11.86556  13.16499  13.42135  13.42135
 Alpha virt. eigenvalues --   13.57403  13.74575  13.74575  14.05343  14.47093
 Alpha virt. eigenvalues --   15.44519 622.26849 623.08616
          Condensed to atoms (all electrons):
              1          2
     1  Se  33.367531   0.632469
     2  Se   0.632469  33.367531
          Atomic-Atomic Spin Densities.
              1          2
     1  Se   1.132487  -0.132487
     2  Se  -0.132487   1.132487
 Mulliken charges and spin densities:
              1          2
     1  Se   0.000000   1.000000
     2  Se   0.000000   1.000000
 Sum of Mulliken charges =   0.00000 spin densities =   2.000000
 Mulliken charges and spin densities with hydrogens summed into heavy atoms:
              1          2
     1  Se   0.000000   1.000000
     2  Se   0.000000   1.000000
 Sum of Mulliken charges with hydrogens summed into heavy atoms =   0.00000 spin densities =   2.000000
 Electronic spatial extent (au):  <R**2>=            365.5716
 Charge=              0.0000 electrons
 Dipole moment (field-independent basis, Debye):
    X=              0.0000    Y=              0.0000    Z=              0.0000  Tot=              0.0000
 Quadrupole moment (field-independent basis, Debye-Ang):
   XX=            -37.2847   YY=            -37.2847   ZZ=            -34.0502
   XY=              0.0000   XZ=              0.0000   YZ=              0.0000
 Traceless Quadrupole moment (field-independent basis, Debye-Ang):
   XX=             -1.0782   YY=             -1.0782   ZZ=              2.1564
   XY=              0.0000   XZ=              0.0000   YZ=              0.0000
 Octapole moment (field-independent basis, Debye-Ang**2):
  XXX=              0.0000  YYY=              0.0000  ZZZ=              0.0000  XYY=              0.0000
  XXY=              0.0000  XXZ=              0.0000  XZZ=              0.0000  YZZ=              0.0000
  YYZ=              0.0000  XYZ=              0.0000
 Hexadecapole moment (field-independent basis, Debye-Ang**3):
 XXXX=            -51.5146 YYYY=            -51.5146 ZZZZ=           -281.4716 XXXY=              0.0000
 XXXZ=              0.0000 YYYX=              0.0000 YYYZ=              0.0000 ZZZX=              0.0000
 ZZZY=              0.0000 XXYY=            -17.1715 XXZZ=            -59.5482 YYZZ=            -59.5482
 XXYZ=              0.0000 YYXZ=              0.0000 ZZXY=              0.0000
 N-N= 2.824232932272D+02 E-N=-1.804914996969D+04  KE= 7.197322770809D+03
                          Isotropic Fermi Contact Couplings
        Atom                 a.u.       MegaHertz       Gauss      10(-4) cm-1
 --------------------------------------------------------
       Center         ----  Spin Dipole Couplings  ----
                      3XX-RR        3YY-RR        3ZZ-RR
 --------------------------------------------------------
     1   Atom        1.981698      1.981698     -3.963396
     2   Atom        1.981698      1.981698     -3.963396
 --------------------------------------------------------
                        XY            XZ            YZ
 --------------------------------------------------------
     1   Atom        0.000000      0.000000      0.000000
     2   Atom        0.000000      0.000000      0.000000
 --------------------------------------------------------


 ---------------------------------------------------------------------------------
              Anisotropic Spin Dipole Couplings in Principal Axis System
 ---------------------------------------------------------------------------------

       Atom             a.u.   MegaHertz   Gauss  10(-4) cm-1        Axes


 ---------------------------------------------------------------------------------


 Test job not archived.
 1\1\GINC-C28\SP\ROMP2-RW\Gen\Se2(3)\GPETERSSON\01-May-2013\0\\# ROMP2(
 RW) Gen GFinput Int=NoBasisTransform Int(Grid=Ultrafine) IOp(3/32=2,5/
 6=10,8/11=1,9/33=1) Maxdisk=128GB CBSextrapolate(Nmin=20,MinPop)\\Se2\
 \0,3\Se\Se,1,2.166\\Version=EM64L-GDVRevH.12\State=3-SGG\HF=-4799.7901
 278\MP2=-4800.1293122\E2(CBS)=-0.3510692\CBS-Int=-0.3453905\OIii=1.823
 9854\RMSD=8.464e-11\PG=D*H [C*(Se1.Se1)]\\@


 THE MOST INCOMPREHENSIBLE THING ABOUT THE WORLD
 IS THAT IT IS COMPREHENSIBLE. -- A. EINSTEIN
 Job cpu time:  0 days 21 hours 43 minutes 24.1 seconds.
 File lengths (MBytes):  RWF=   3939 Int=      0 D2E=      0 Chk=     12 Scr=      1
 Normal termination of Gaussian DV at Wed May  1 12:01:47 2013.
