 Entering Gaussian System, Link 0=g09
 AtFile(1): 7ZaP-NR.gbs
 Initial command:
 /share/apps/gaussian/g09root/g09/l1.exe /localscratch/736779/Gau-29116.inp -scrdir=/localscratch/736779/
 Entering Link 1 = /share/apps/gaussian/g09root/g09/l1.exe PID=     29117.
  
 Copyright (c) 1988,1990,1992,1993,1995,1998,2003,2009, Gaussian, Inc.
                  All Rights Reserved.
  
 This is part of the Gaussian(R) 09 program.  It is based on
 the Gaussian(R) 03 system (copyright 2003, Gaussian, Inc.),
 the Gaussian(R) 98 system (copyright 1998, Gaussian, Inc.),
 the Gaussian(R) 94 system (copyright 1995, Gaussian, Inc.),
 the Gaussian 92(TM) system (copyright 1992, Gaussian, Inc.),
 the Gaussian 90(TM) system (copyright 1990, Gaussian, Inc.),
 the Gaussian 88(TM) system (copyright 1988, Gaussian, Inc.),
 the Gaussian 86(TM) system (copyright 1986, Carnegie Mellon
 University), and the Gaussian 82(TM) system (copyright 1983,
 Carnegie Mellon University). Gaussian is a federally registered
 trademark of Gaussian, Inc.
  
 This software contains proprietary and confidential information,
 including trade secrets, belonging to Gaussian, Inc.
  
 This software is provided under written license and may be
 used, copied, transmitted, or stored only in accord with that
 written license.
  
 The following legend is applicable only to US Government
 contracts under FAR:
  
                    RESTRICTED RIGHTS LEGEND
  
 Use, reproduction and disclosure by the US Government is
 subject to restrictions as set forth in subparagraphs (a)
 and (c) of the Commercial Computer Software - Restricted
 Rights clause in FAR 52.227-19.
  
 Gaussian, Inc.
 340 Quinnipiac St., Bldg. 40, Wallingford CT 06492
  
  
 ---------------------------------------------------------------
 Warning -- This program may not be used in any manner that
 competes with the business of Gaussian, Inc. or will provide
 assistance to any competitor of Gaussian, Inc.  The licensee
 of this program is prohibited from giving any competitor of
 Gaussian, Inc. access to this program.  By using this program,
 the user acknowledges that Gaussian, Inc. is engaged in the
 business of creating and licensing software in the field of
 computational chemistry and represents and warrants to the
 licensee that it is not a competitor of Gaussian, Inc. and that
 it will not use this program in any manner prohibited above.
 ---------------------------------------------------------------
  

 Cite this work as:
 Gaussian 09, Revision A.02,
 M. J. Frisch, G. W. Trucks, H. B. Schlegel, G. E. Scuseria, 
 M. A. Robb, J. R. Cheeseman, G. Scalmani, V. Barone, B. Mennucci, 
 G. A. Petersson, H. Nakatsuji, M. Caricato, X. Li, H. P. Hratchian, 
 A. F. Izmaylov, J. Bloino, G. Zheng, J. L. Sonnenberg, M. Hada, 
 M. Ehara, K. Toyota, R. Fukuda, J. Hasegawa, M. Ishida, T. Nakajima, 
 Y. Honda, O. Kitao, H. Nakai, T. Vreven, J. A. Montgomery, Jr., 
 J. E. Peralta, F. Ogliaro, M. Bearpark, J. J. Heyd, E. Brothers, 
 K. N. Kudin, V. N. Staroverov, R. Kobayashi, J. Normand, 
 K. Raghavachari, A. Rendell, J. C. Burant, S. S. Iyengar, J. Tomasi, 
 M. Cossi, N. Rega, J. M. Millam, M. Klene, J. E. Knox, J. B. Cross, 
 V. Bakken, C. Adamo, J. Jaramillo, R. Gomperts, R. E. Stratmann, 
 O. Yazyev, A. J. Austin, R. Cammi, C. Pomelli, J. W. Ochterski, 
 R. L. Martin, K. Morokuma, V. G. Zakrzewski, G. A. Voth, 
 P. Salvador, J. J. Dannenberg, S. Dapprich, A. D. Daniels, 
 O. Farkas, J. B. Foresman, J. V. Ortiz, J. Cioslowski, 
 and D. J. Fox, Gaussian, Inc., Wallingford CT, 2009.
 
 ******************************************
 Gaussian 09:  EM64L-G09RevA.02 11-Jun-2009
                16-Aug-2012 
 ******************************************
 % Mem=12GB
 % Nproc=8
 Will use up to    8 processors via shared memory.
 ----------------------------------------------------------------------
 # ROMP2(RW) Gen GFinput Int=NoBasisTransform Int(Grid=Ultrafine) IOp(3
 /32=2,5/6=10,8/11=1,9/33=1) Maxdisk=128GB CBSextrapolate(Nmin=25,MinPo
 p)
 ----------------------------------------------------------------------
 1/38=1/1;
 2/12=2,17=6,18=5,40=1/2;
 3/5=7,11=2,16=1,24=10,25=1,30=1,32=2,60=-1,75=-5,116=101/1,2,3;
 4//1;
 5/5=2,6=10,38=5/2;
 8/5=-1,10=91,11=1/1;
 9/16=-3,33=1,75=2,81=25,83=4/6,4;
 6/7=2,8=2,9=2,10=2/1;
 99/5=1,9=1/99;
 ---
 Se2
 ---
 Symbolic Z-matrix:
 Charge =  0 Multiplicity = 3
 Se
 Se                   1     2.166 
 
                          Input orientation:                          
 ---------------------------------------------------------------------
 Center     Atomic      Atomic             Coordinates (Angstroms)
 Number     Number       Type             X           Y           Z
 ---------------------------------------------------------------------
      1         34           0        0.000000    0.000000    0.000000
      2         34           0        0.000000    0.000000    2.166000
 ---------------------------------------------------------------------
 Stoichiometry    Se2(3)
 Framework group  D*H[C*(Se.Se)]
 Deg. of freedom     1
 Full point group                 D*H     NOp   8
 Largest Abelian subgroup         D2H     NOp   8
 Largest concise Abelian subgroup C2      NOp   2
                         Standard orientation:                         
 ---------------------------------------------------------------------
 Center     Atomic      Atomic             Coordinates (Angstroms)
 Number     Number       Type             X           Y           Z
 ---------------------------------------------------------------------
      1         34           0        0.000000    0.000000    1.083000
      2         34           0        0.000000    0.000000   -1.083000
 ---------------------------------------------------------------------
 Rotational constants (GHZ):      0.0000000      2.6958376      2.6958376
 General basis read from cards:  (5D, 7F)
 AO basis set in the form of general basis input (Overlap normalization):
      1 0
 S  19 1.00       0.000000000000
      0.1131081510D+09  0.2549679752D-06
      0.2113086240D+08  0.1600701102D-05
      0.4815085880D+07  0.9166904806D-05
      0.1296214510D+07  0.4195361270D-04
      0.4008745910D+06  0.1634570450D-03
      0.1390241870D+06  0.5560811165D-03
      0.5295422950D+05  0.1697014155D-02
      0.2176571310D+05  0.4737665008D-02
      0.9511831760D+04  0.1226378126D-01
      0.4365393100D+04  0.2959075611D-01
      0.2082857790D+04  0.6607661606D-01
      0.1024732690D+04  0.1332290414D+00
      0.5164291600D+03  0.2298451032D+00
      0.2651916080D+03  0.3052726570D+00
      0.1381626940D+03  0.2558902645D+00
      0.7276772000D+02  0.9837327240D-01
      0.3861969000D+02  0.1043957331D-01
      0.2058943400D+02  0.9698903983D-03
      0.1098995600D+02  0.1377877387D-04
 S  15 1.00       0.000000000000
      0.2176571310D+05 -0.8329289819D-05
      0.9511831760D+04 -0.4272569736D-04
      0.4365393100D+04 -0.2629158340D-03
      0.2082857790D+04 -0.1221560183D-02
      0.1024732690D+04 -0.5241817150D-02
      0.5164291600D+03 -0.1855847084D-01
      0.2651916080D+03 -0.5250494108D-01
      0.1381626940D+03 -0.8943330535D-01
      0.7276772000D+02 -0.1979107333D-01
      0.3861969000D+02  0.2740387458D+00
      0.2058943400D+02  0.5101567093D+00
      0.1098995600D+02  0.2940189938D+00
      0.5850445000D+01  0.4780572385D-01
      0.3091662000D+01  0.3202718525D-02
      0.1612449000D+01 -0.4125916758D-04
 P  17 1.00       0.000000000000
      0.1376796180D+06  0.2819698799D-05
      0.3672004500D+05  0.2233782837D-04
      0.1171585980D+05  0.1441759950D-03
      0.4322472990D+04  0.7142284167D-03
      0.1790735710D+04  0.2885939507D-02
      0.8123814270D+03  0.9772895371D-02
      0.3950666270D+03  0.2831597588D-01
      0.2023064050D+03  0.7071817966D-01
      0.1074854040D+03  0.1485028645D+00
      0.5853508600D+02  0.2503710452D+00
      0.3235348300D+02  0.3154338857D+00
      0.1800486400D+02  0.2472027918D+00
      0.1002290600D+02  0.9631654826D-01
      0.5551094000D+01  0.1535208923D-01
      0.3044359000D+01  0.1453057579D-02
      0.1646009000D+01  0.3050374972D-03
      0.8734530000D+00  0.2405252307D-04
 S  11 1.00       0.000000000000
      0.2651916080D+03  0.5631557678D-03
      0.1381626940D+03  0.2402134797D-02
      0.7276772000D+02  0.2521026437D-02
      0.3861969000D+02 -0.2889857321D-01
      0.2058943400D+02 -0.1615199820D+00
      0.1098995600D+02 -0.1582342781D+00
      0.5850445000D+01  0.2224666424D+00
      0.3091662000D+01  0.5824389629D+00
      0.1612449000D+01  0.3763904775D+00
      0.8240080000D+00  0.4831425924D-01
      0.4089200000D+00  0.2055191298D-02
 P  14 1.00       0.000000000000
      0.8123814270D+03 -0.3459098950D-04
      0.3950666270D+03 -0.2249424916D-03
      0.2023064050D+03 -0.1204439861D-02
      0.1074854040D+03 -0.4589365079D-02
      0.5853508600D+02 -0.1218850722D-01
      0.3235348300D+02 -0.2256732584D-01
      0.1800486400D+02  0.3587882833D-02
      0.1002290600D+02  0.1368167193D+00
      0.5551094000D+01  0.3162342176D+00
      0.3044359000D+01  0.3807600369D+00
      0.1646009000D+01  0.2283117436D+00
      0.8734530000D+00  0.5007738460D-01
      0.4526530000D+00  0.3625048884D-02
      0.2277620000D+00  0.3859946670D-03
 D  16 1.00       0.000000000000
      0.5004719080D+04  0.4641809482D-05
      0.1561340970D+04  0.4801369600D-04
      0.6006699300D+03  0.3246493886D-03
      0.2672623230D+03  0.1565414722D-02
      0.1310903860D+03  0.5983822790D-02
      0.6848453200D+02  0.1845086893D-01
      0.3722335900D+02  0.4675467719D-01
      0.2073358200D+02  0.1008762645D+00
      0.1172439200D+02  0.1759235896D+00
      0.6688644000D+01  0.2391421629D+00
      0.3827465000D+01  0.2632949207D+00
      0.2179656000D+01  0.2334831638D+00
      0.1219823000D+01  0.1494888806D+00
      0.6576330000D+00  0.5791601540D-01
      0.3314940000D+00  0.1000562617D-01
      0.1497430000D+00  0.7539690853D-03
 S  10 1.00       0.000000000000
      0.3861969000D+02  0.1235192471D-03
      0.2058943400D+02  0.2668606219D-02
      0.1098995600D+02  0.3154706581D-02
      0.5850445000D+01 -0.8146836136D-02
      0.3091662000D+01 -0.6889152290D-01
      0.1612449000D+01 -0.2063720158D+00
      0.8240080000D+00  0.2161243952D-01
      0.4089200000D+00  0.4680065270D+00
      0.1949080000D+00  0.5353588679D+00
      0.8804800000D-01  0.1546707646D+00
 S   1 1.00       0.000000000000
      0.4372178367D-01  0.1000000000D+01
 P  11 1.00       0.000000000000
      0.3235348300D+02  0.1101725399D-03
      0.1800486400D+02 -0.4185474259D-03
      0.1002290600D+02 -0.3301943370D-02
      0.5551094000D+01 -0.8084837795D-02
      0.3044359000D+01 -0.2088267846D-01
      0.1646009000D+01 -0.2464977461D-01
      0.8734530000D+00  0.9482480245D-01
      0.4526530000D+00  0.2969417837D+00
      0.2277620000D+00  0.3997438373D+00
      0.1104890000D+00  0.2901621871D+00
      0.5122600000D-01  0.6932962201D-01
 P   1 1.00       0.000000000000
      0.3156984215D-01  0.1000000000D+01
 S   1 1.00       0.000000000000
      0.4003004000D+01  0.1000000000D+01
 S   1 1.00       0.000000000000
      0.2282327000D+01  0.1000000000D+01
 S   1 1.00       0.000000000000
      0.1301277000D+01  0.1000000000D+01
 S   1 1.00       0.000000000000
      0.7419270000D+00  0.1000000000D+01
 S   1 1.00       0.000000000000
      0.4230120000D+00  0.1000000000D+01
 S   1 1.00       0.000000000000
      0.2411820000D+00  0.1000000000D+01
 P   1 1.00       0.000000000000
      0.2452659000D+01  0.1000000000D+01
 P   1 1.00       0.000000000000
      0.1436103000D+01  0.1000000000D+01
 P   1 1.00       0.000000000000
      0.8408790000D+00  0.1000000000D+01
 P   1 1.00       0.000000000000
      0.4923590000D+00  0.1000000000D+01
 P   1 1.00       0.000000000000
      0.2882910000D+00  0.1000000000D+01
 P   1 1.00       0.000000000000
      0.1688020000D+00  0.1000000000D+01
 D   1 1.00       0.000000000000
      0.2582286000D+01  0.1000000000D+01
 D   1 1.00       0.000000000000
      0.1419984000D+01  0.1000000000D+01
 D   1 1.00       0.000000000000
      0.7808400000D+00  0.1000000000D+01
 D   1 1.00       0.000000000000
      0.4293790000D+00  0.1000000000D+01
 D   1 1.00       0.000000000000
      0.2361130000D+00  0.1000000000D+01
 D   1 1.00       0.000000000000
      0.1298370000D+00  0.1000000000D+01
 F   1 1.00       0.000000000000
      0.2673067000D+01  0.1000000000D+01
 F   1 1.00       0.000000000000
      0.1417972000D+01  0.1000000000D+01
 F   1 1.00       0.000000000000
      0.7521860000D+00  0.1000000000D+01
 F   1 1.00       0.000000000000
      0.3990090000D+00  0.1000000000D+01
 F   1 1.00       0.000000000000
      0.2116610000D+00  0.1000000000D+01
 G   1 1.00       0.000000000000
      0.1338920000D+01  0.1000000000D+01
 G   1 1.00       0.000000000000
      0.8147730000D+00  0.1000000000D+01
 G   1 1.00       0.000000000000
      0.4958140000D+00  0.1000000000D+01
 G   1 1.00       0.000000000000
      0.3017180000D+00  0.1000000000D+01
 H   1 1.00       0.000000000000
      0.1215303000D+01  0.1000000000D+01
 H   1 1.00       0.000000000000
      0.7111940000D+00  0.1000000000D+01
 H   1 1.00       0.000000000000
      0.4161890000D+00  0.1000000000D+01
 I   1 1.00       0.000000000000
      0.1149838000D+01  0.1000000000D+01
 I   1 1.00       0.000000000000
      0.6115140000D+00  0.1000000000D+01
 J   1 1.00       0.000000000000
      0.1002245215D+01  0.1000000000D+01
 ****
      2 0
 S  19 1.00       0.000000000000
      0.1131081510D+09  0.2549679752D-06
      0.2113086240D+08  0.1600701102D-05
      0.4815085880D+07  0.9166904806D-05
      0.1296214510D+07  0.4195361270D-04
      0.4008745910D+06  0.1634570450D-03
      0.1390241870D+06  0.5560811165D-03
      0.5295422950D+05  0.1697014155D-02
      0.2176571310D+05  0.4737665008D-02
      0.9511831760D+04  0.1226378126D-01
      0.4365393100D+04  0.2959075611D-01
      0.2082857790D+04  0.6607661606D-01
      0.1024732690D+04  0.1332290414D+00
      0.5164291600D+03  0.2298451032D+00
      0.2651916080D+03  0.3052726570D+00
      0.1381626940D+03  0.2558902645D+00
      0.7276772000D+02  0.9837327240D-01
      0.3861969000D+02  0.1043957331D-01
      0.2058943400D+02  0.9698903983D-03
      0.1098995600D+02  0.1377877387D-04
 S  15 1.00       0.000000000000
      0.2176571310D+05 -0.8329289819D-05
      0.9511831760D+04 -0.4272569736D-04
      0.4365393100D+04 -0.2629158340D-03
      0.2082857790D+04 -0.1221560183D-02
      0.1024732690D+04 -0.5241817150D-02
      0.5164291600D+03 -0.1855847084D-01
      0.2651916080D+03 -0.5250494108D-01
      0.1381626940D+03 -0.8943330535D-01
      0.7276772000D+02 -0.1979107333D-01
      0.3861969000D+02  0.2740387458D+00
      0.2058943400D+02  0.5101567093D+00
      0.1098995600D+02  0.2940189938D+00
      0.5850445000D+01  0.4780572385D-01
      0.3091662000D+01  0.3202718525D-02
      0.1612449000D+01 -0.4125916758D-04
 P  17 1.00       0.000000000000
      0.1376796180D+06  0.2819698799D-05
      0.3672004500D+05  0.2233782837D-04
      0.1171585980D+05  0.1441759950D-03
      0.4322472990D+04  0.7142284167D-03
      0.1790735710D+04  0.2885939507D-02
      0.8123814270D+03  0.9772895371D-02
      0.3950666270D+03  0.2831597588D-01
      0.2023064050D+03  0.7071817966D-01
      0.1074854040D+03  0.1485028645D+00
      0.5853508600D+02  0.2503710452D+00
      0.3235348300D+02  0.3154338857D+00
      0.1800486400D+02  0.2472027918D+00
      0.1002290600D+02  0.9631654826D-01
      0.5551094000D+01  0.1535208923D-01
      0.3044359000D+01  0.1453057579D-02
      0.1646009000D+01  0.3050374972D-03
      0.8734530000D+00  0.2405252307D-04
 S  11 1.00       0.000000000000
      0.2651916080D+03  0.5631557678D-03
      0.1381626940D+03  0.2402134797D-02
      0.7276772000D+02  0.2521026437D-02
      0.3861969000D+02 -0.2889857321D-01
      0.2058943400D+02 -0.1615199820D+00
      0.1098995600D+02 -0.1582342781D+00
      0.5850445000D+01  0.2224666424D+00
      0.3091662000D+01  0.5824389629D+00
      0.1612449000D+01  0.3763904775D+00
      0.8240080000D+00  0.4831425924D-01
      0.4089200000D+00  0.2055191298D-02
 P  14 1.00       0.000000000000
      0.8123814270D+03 -0.3459098950D-04
      0.3950666270D+03 -0.2249424916D-03
      0.2023064050D+03 -0.1204439861D-02
      0.1074854040D+03 -0.4589365079D-02
      0.5853508600D+02 -0.1218850722D-01
      0.3235348300D+02 -0.2256732584D-01
      0.1800486400D+02  0.3587882833D-02
      0.1002290600D+02  0.1368167193D+00
      0.5551094000D+01  0.3162342176D+00
      0.3044359000D+01  0.3807600369D+00
      0.1646009000D+01  0.2283117436D+00
      0.8734530000D+00  0.5007738460D-01
      0.4526530000D+00  0.3625048884D-02
      0.2277620000D+00  0.3859946670D-03
 D  16 1.00       0.000000000000
      0.5004719080D+04  0.4641809482D-05
      0.1561340970D+04  0.4801369600D-04
      0.6006699300D+03  0.3246493886D-03
      0.2672623230D+03  0.1565414722D-02
      0.1310903860D+03  0.5983822790D-02
      0.6848453200D+02  0.1845086893D-01
      0.3722335900D+02  0.4675467719D-01
      0.2073358200D+02  0.1008762645D+00
      0.1172439200D+02  0.1759235896D+00
      0.6688644000D+01  0.2391421629D+00
      0.3827465000D+01  0.2632949207D+00
      0.2179656000D+01  0.2334831638D+00
      0.1219823000D+01  0.1494888806D+00
      0.6576330000D+00  0.5791601540D-01
      0.3314940000D+00  0.1000562617D-01
      0.1497430000D+00  0.7539690853D-03
 S  10 1.00       0.000000000000
      0.3861969000D+02  0.1235192471D-03
      0.2058943400D+02  0.2668606219D-02
      0.1098995600D+02  0.3154706581D-02
      0.5850445000D+01 -0.8146836136D-02
      0.3091662000D+01 -0.6889152290D-01
      0.1612449000D+01 -0.2063720158D+00
      0.8240080000D+00  0.2161243952D-01
      0.4089200000D+00  0.4680065270D+00
      0.1949080000D+00  0.5353588679D+00
      0.8804800000D-01  0.1546707646D+00
 S   1 1.00       0.000000000000
      0.4372178367D-01  0.1000000000D+01
 P  11 1.00       0.000000000000
      0.3235348300D+02  0.1101725399D-03
      0.1800486400D+02 -0.4185474259D-03
      0.1002290600D+02 -0.3301943370D-02
      0.5551094000D+01 -0.8084837795D-02
      0.3044359000D+01 -0.2088267846D-01
      0.1646009000D+01 -0.2464977461D-01
      0.8734530000D+00  0.9482480245D-01
      0.4526530000D+00  0.2969417837D+00
      0.2277620000D+00  0.3997438373D+00
      0.1104890000D+00  0.2901621871D+00
      0.5122600000D-01  0.6932962201D-01
 P   1 1.00       0.000000000000
      0.3156984215D-01  0.1000000000D+01
 S   1 1.00       0.000000000000
      0.4003004000D+01  0.1000000000D+01
 S   1 1.00       0.000000000000
      0.2282327000D+01  0.1000000000D+01
 S   1 1.00       0.000000000000
      0.1301277000D+01  0.1000000000D+01
 S   1 1.00       0.000000000000
      0.7419270000D+00  0.1000000000D+01
 S   1 1.00       0.000000000000
      0.4230120000D+00  0.1000000000D+01
 S   1 1.00       0.000000000000
      0.2411820000D+00  0.1000000000D+01
 P   1 1.00       0.000000000000
      0.2452659000D+01  0.1000000000D+01
 P   1 1.00       0.000000000000
      0.1436103000D+01  0.1000000000D+01
 P   1 1.00       0.000000000000
      0.8408790000D+00  0.1000000000D+01
 P   1 1.00       0.000000000000
      0.4923590000D+00  0.1000000000D+01
 P   1 1.00       0.000000000000
      0.2882910000D+00  0.1000000000D+01
 P   1 1.00       0.000000000000
      0.1688020000D+00  0.1000000000D+01
 D   1 1.00       0.000000000000
      0.2582286000D+01  0.1000000000D+01
 D   1 1.00       0.000000000000
      0.1419984000D+01  0.1000000000D+01
 D   1 1.00       0.000000000000
      0.7808400000D+00  0.1000000000D+01
 D   1 1.00       0.000000000000
      0.4293790000D+00  0.1000000000D+01
 D   1 1.00       0.000000000000
      0.2361130000D+00  0.1000000000D+01
 D   1 1.00       0.000000000000
      0.1298370000D+00  0.1000000000D+01
 F   1 1.00       0.000000000000
      0.2673067000D+01  0.1000000000D+01
 F   1 1.00       0.000000000000
      0.1417972000D+01  0.1000000000D+01
 F   1 1.00       0.000000000000
      0.7521860000D+00  0.1000000000D+01
 F   1 1.00       0.000000000000
      0.3990090000D+00  0.1000000000D+01
 F   1 1.00       0.000000000000
      0.2116610000D+00  0.1000000000D+01
 G   1 1.00       0.000000000000
      0.1338920000D+01  0.1000000000D+01
 G   1 1.00       0.000000000000
      0.8147730000D+00  0.1000000000D+01
 G   1 1.00       0.000000000000
      0.4958140000D+00  0.1000000000D+01
 G   1 1.00       0.000000000000
      0.3017180000D+00  0.1000000000D+01
 H   1 1.00       0.000000000000
      0.1215303000D+01  0.1000000000D+01
 H   1 1.00       0.000000000000
      0.7111940000D+00  0.1000000000D+01
 H   1 1.00       0.000000000000
      0.4161890000D+00  0.1000000000D+01
 I   1 1.00       0.000000000000
      0.1149838000D+01  0.1000000000D+01
 I   1 1.00       0.000000000000
      0.6115140000D+00  0.1000000000D+01
 J   1 1.00       0.000000000000
      0.1002245215D+01  0.1000000000D+01
 ****

 There are    78 symmetry adapted basis functions of AG  symmetry.
 There are    35 symmetry adapted basis functions of B1G symmetry.
 There are    54 symmetry adapted basis functions of B2G symmetry.
 There are    54 symmetry adapted basis functions of B3G symmetry.
 There are    35 symmetry adapted basis functions of AU  symmetry.
 There are    78 symmetry adapted basis functions of B1U symmetry.
 There are    54 symmetry adapted basis functions of B2U symmetry.
 There are    54 symmetry adapted basis functions of B3U symmetry.
 Integral buffers will be    131072 words long.
 Raffenetti 2 integral format.
 Two-electron integral symmetry is turned on.
   442 basis functions,  1212 primitive gaussians,   696 cartesian basis functions
    35 alpha electrons       33 beta electrons
       nuclear repulsion energy       282.4232932272 Hartrees.
 NAtoms=    2 NActive=    2 NUniq=    1 SFac= 3.00D+00 NAtFMM=   80 NAOKFM=F Big=F
 One-electron integrals computed using PRISM.
 NBasis=   442 RedAO= F  NBF=    78    35    54    54    35    78    54    54
 NBsUse=   442 1.00D-04 NBFU=    78    35    54    54    35    78    54    54
 Harris functional with IExCor=  205 diagonalized for initial guess.
 ExpMin= 3.16D-02 ExpMax= 1.13D+08 ExpMxC= 9.51D+03 IAcc=3 IRadAn=         5 AccDes= 0.00D+00
 HarFok:  IExCor=  205 AccDes= 0.00D+00 IRadAn=         5 IDoV= 1
 ScaDFX=  1.000000  1.000000  1.000000  1.000000
 FoFCou: FMM=F IPFlag=           0 FMFlag=      100000 FMFlg1=           0
         NFxFlg=           0 DoJE=T BraDBF=F KetDBF=T FulRan=T
         Omega=  0.000000  0.000000  1.000000  0.000000  0.000000 ICntrl=     500 IOpCl=  0
         NMat0=    1 NMatS0=    1 NMatT0=    0 NMatD0=    1 NMtDS0=    0 NMtDT0=    0
         I1Cent=           4 NGrid=           0.
 Petite list used in FoFCou.
 Initial guess orbital symmetries:
       Occupied  (SGU) (SGG) (SGU) (SGG) (SGU) (SGG) (PIG) (PIG)
                 (PIU) (PIU) (SGG) (SGU) (SGG) (SGU) (PIU) (PIU)
                 (PIG) (PIG) (SGG) (PIU) (PIU) (PIG) (PIG) (SGU)
                 (DLTG) (DLTG) (DLTU) (DLTU) (SGG) (SGU) (SGG)
                 (PIU) (PIU) (PIG) (PIG)
       Virtual   (SGU) (SGG) (PIU) (PIU) (SGU) (SGG) (PIG) (PIG)
                 (DLTG) (DLTG) (PIU) (PIU) (SGU) (SGG) (DLTU) (DLTU)
                 (PIU) (PIU) (SGU) (PIG) (PIG) (SGG) (SGG) (PIG)
                 (PIG) (SGU) (PIU) (PIU) (DLTG) (DLTG) (PHIU) (PHIU)
                 (SGG) (DLTG) (DLTG) (DLTU) (DLTU) (PHIG) (PHIG)
                 (SGU) (PIG) (PIG) (PIU) (PIU) (PIU) (PIU) (SGG)
                 (SGU) (DLTU) (DLTU) (PIG) (PIG) (SGU) (SGG) (PIG)
                 (PIG) (PHIU) (PHIU) (?A) (?A) (SGG) (DLTG) (DLTG)
                 (?B) (?B) (PIU) (PIU) (SGU) (SGG) (PHIG) (PHIG)
                 (PHIU) (PHIU) (DLTG) (DLTG) (DLTU) (DLTU) (DLTG)
                 (DLTG) (PIG) (PIG) (SGU) (PHIG) (PHIG) (PIU) (PIU)
                 (SGU) (DLTU) (DLTU) (SGG) (PIG) (PIG) (DLTU) (DLTU)
                 (PIU) (PIU) (SGU) (SGG) (PIU) (PIU) (PIG) (PIG)
                 (?A) (?A) (?C) (?C) (PHIU) (PHIU) (?D) (?D) (SGU)
                 (SGG) (PIG) (PIG) (DLTG) (DLTG) (?B) (?B) (SGG)
                 (PIU) (PIU) (PHIU) (PHIU) (?A) (?A) (SGU) (PHIG)
                 (PHIG) (?B) (?B) (PIG) (PIG) (DLTG) (DLTG) (SGG)
                 (DLTU) (DLTU) (PHIG) (PHIG) (SGU) (PIU) (PIU)
                 (DLTU) (DLTU) (PIG) (PIG) (PHIU) (PHIU) (SGU)
                 (DLTG) (DLTG) (PHIG) (PHIG) (PIU) (PIU) (SGG)
                 (DLTG) (DLTG) (SGU) (DLTU) (DLTU) (DLTU) (DLTU)
                 (SGG) (PIU) (PIU) (?A) (?A) (?C) (?C) (PIG) (PIG)
                 (?E) (?E) (PHIU) (PHIU) (?F) (?F) (SGG) (?D) (?D)
                 (PIU) (PIU) (SGU) (PIG) (PIG) (DLTG) (DLTG) (SGU)
                 (SGG) (PIU) (PIU) (?B) (?B) (PIG) (PIG) (?A) (?A)
                 (?C) (?C) (?D) (?D) (PHIU) (PHIU) (PHIG) (PHIG)
                 (?B) (?B) (SGG) (PIG) (PIG) (SGU) (DLTU) (DLTU)
                 (?A) (?A) (PHIU) (PHIU) (?B) (?B) (PHIG) (PHIG)
                 (SGG) (DLTG) (DLTG) (DLTG) (DLTG) (DLTU) (DLTU)
                 (PIU) (PIU) (PHIG) (PHIG) (PIG) (PIG) (SGU) (SGG)
                 (PIU) (PIU) (SGU) (DLTU) (DLTU) (SGU) (PIG) (PIG)
                 (PHIU) (PHIU) (DLTG) (DLTG) (PHIG) (PHIG) (DLTU)
                 (DLTU) (PIU) (PIU) (SGG) (SGU) (PIG) (PIG) (DLTG)
                 (DLTG) (PIU) (PIU) (DLTU) (DLTU) (PHIU) (PHIU)
                 (?A) (?A) (SGG) (DLTG) (DLTG) (?C) (?C) (?E) (?E)
                 (?G) (?G) (?H) (?H) (?F) (?F) (?D) (?D) (PIU)
                 (PIU) (SGG) (?B) (?B) (SGU) (PIG) (PIG) (SGU)
                 (PHIG) (PHIG) (PIU) (PIU) (PIG) (PIG) (SGG) (DLTU)
                 (DLTU) (PIG) (PIG) (?C) (?C) (?A) (?A) (?E) (?E)
                 (?F) (?F) (SGU) (PHIU) (PHIU) (?D) (?D) (DLTG)
                 (DLTG) (SGG) (?A) (?A) (PHIU) (PHIU) (?A) (?A)
                 (?B) (?B) (PIU) (PIU) (?C) (?C) (?D) (?D) (PHIG)
                 (PHIG) (?B) (?B) (SGG) (PHIU) (PHIU) (?B) (?B)
                 (DLTU) (DLTU) (DLTG) (DLTG) (PHIG) (PHIG) (PIG)
                 (PIG) (SGU) (PIG) (PIG) (SGG) (PIU) (PIU) (DLTU)
                 (DLTU) (PHIG) (PHIG) (DLTG) (DLTG) (SGU) (PIU)
                 (PIU) (SGU) (DLTU) (DLTU) (SGG) (SGU) (PIG) (PIG)
                 (PHIU) (PHIU) (PHIG) (PHIG) (DLTG) (DLTG) (DLTU)
                 (DLTU) (PIU) (PIU) (SGG) (PIG) (PIG) (SGU) (DLTG)
                 (DLTG) (DLTU) (DLTU) (PIU) (PIU) (PIG) (PIG) (SGU)
                 (SGG) (SGG) (SGU) (PIU) (PIU) (PIG) (PIG) (SGG)
                 (SGU) (SGG) (SGU)
 The electronic state of the initial guess is 3-SGG.
 Requested convergence on RMS density matrix=1.00D-10 within 128 cycles.
 Requested convergence on MAX density matrix=1.00D-08.
 Requested convergence on             energy=1.00D-08.
 No special actions if energy rises.
 Initial convergence to 1.0D-05 achieved.  Increase integral accuracy.
 SCF Done:  E(ROHF) =  -4799.79018787     A.U. after   18 cycles
             Convg  =    0.1959D-10             -V/T =  2.0000
 <Sx>= 0.0000 <Sy>= 0.0000 <Sz>= 1.0000 <S**2>= 2.0000 S= 1.0000
 <L.S>= 0.000000000000E+00
 Annihilation of the first spin contaminant:
 S**2 before annihilation     2.0000,   after     2.0000
 GenMOA:  NOpAll=  8 NOp2=8 NOpUse=  8 JSym2X=1
 <Sx>= 0.0000 <Sy>= 0.0000 <Sz>= 1.0000 <S**2>= 2.0000 S= 1.0000
 Range of M.O.s used for correlation:    29   442
 NBasis=   442 NAE=    35 NBE=    33 NFC=    28 NFV=     0
 NROrb=    414 NOA=     7 NOB=     5 NVA=   407 NVB=   409

 **** Warning!!: The largest alpha MO coefficient is  0.53629160D+03


 **** Warning!!: The largest beta MO coefficient is  0.53708088D+03

 Singles contribution to E2=   -0.6799321830D-02
 Disk-based method using OVN memory for  7 occupieds at a time.
 Permanent disk used for amplitudes and <ij||ab> integrals=    16791212 words.
 Estimated scratch disk usage=   912262979 words.
 IUseRI=2 ITolRI= 6 IR12RI=0
 Actual    scratch disk usage=   906836173 words.
 GetIJB would need an additional  1712093560 words of memory to use all   8 processors.
 JobTyp=2 Pass  1:  I=   1 to   7 NPSUse=  1 ParTrn=F ParDer=F DoDerP=F.
 (rs|ai) integrals will be sorted in core.
 T,EIJ(AA): I=   1 J=   2      0.1303695E-03     -0.4391441E-03
 T,EIJ(AA): I=   1 J=   3      0.2137123E-03     -0.7007433E-03
 T,EIJ(AA): I=   1 J=   4      0.3417736E-03     -0.1061812E-02
 T,EIJ(AA): I=   1 J=   5      0.3417736E-03     -0.1061812E-02
 T,EIJ(AA): I=   1 J=   6      0.2907165E-03     -0.9162849E-03
 T,EIJ(AA): I=   1 J=   7      0.2907165E-03     -0.9162849E-03
 T,EIJ(AA): I=   2 J=   3      0.6745398E-03     -0.1686093E-02
 T,EIJ(AA): I=   2 J=   4      0.5338350E-03     -0.1333595E-02
 T,EIJ(AA): I=   2 J=   5      0.5338350E-03     -0.1333595E-02
 T,EIJ(AA): I=   2 J=   6      0.4548033E-03     -0.1203867E-02
 T,EIJ(AA): I=   2 J=   7      0.4548033E-03     -0.1203867E-02
 T,EIJ(AA): I=   3 J=   4      0.1523170E-02     -0.3314499E-02
 T,EIJ(AA): I=   3 J=   5      0.1523170E-02     -0.3314499E-02
 T,EIJ(AA): I=   3 J=   6      0.2642755E-02     -0.4747566E-02
 T,EIJ(AA): I=   3 J=   7      0.2642755E-02     -0.4747566E-02
 T,EIJ(AA): I=   4 J=   5      0.1548012E-02     -0.3219777E-02
 T,EIJ(AA): I=   4 J=   6      0.4892717E-03     -0.9351057E-03
 T,EIJ(AA): I=   4 J=   7      0.1407253E-02     -0.2936114E-02
 T,EIJ(AA): I=   5 J=   6      0.1407253E-02     -0.2936114E-02
 T,EIJ(AA): I=   5 J=   7      0.4892717E-03     -0.9351057E-03
 T,EIJ(AA): I=   6 J=   7      0.1981023E-02     -0.3798698E-02
 T,EIJ(AB): I=   1 J=   1      0.1896981E-02     -0.7518403E-02
 T,EIJ(AB): I=   1 J=   2      0.1070584E-02     -0.4142357E-02
 T,EIJ(AB): I=   1 J=   3      0.1374199E-02     -0.5157125E-02
 T,EIJ(AB): I=   1 J=   4      0.1710000E-02     -0.5158120E-02
 T,EIJ(AB): I=   1 J=   5      0.1710000E-02     -0.5158120E-02
 T,EIJ(AB): I=   2 J=   1      0.1032195E-02     -0.3989512E-02
 T,EIJ(AB): I=   2 J=   2      0.2393670E-02     -0.7602165E-02
 T,EIJ(AB): I=   2 J=   3      0.2399691E-02     -0.6966422E-02
 T,EIJ(AB): I=   2 J=   4      0.1928148E-02     -0.5155919E-02
 T,EIJ(AB): I=   2 J=   5      0.1928148E-02     -0.5155919E-02
 T,EIJ(AB): I=   3 J=   1      0.1748583E-02     -0.6217642E-02
 T,EIJ(AB): I=   3 J=   2      0.3512770E-02     -0.8602752E-02
 T,EIJ(AB): I=   3 J=   3      0.8327573E-02     -0.1654590E-01
 T,EIJ(AB): I=   3 J=   4      0.6892146E-02     -0.1009440E-01
 T,EIJ(AB): I=   3 J=   5      0.6892146E-02     -0.1009440E-01
 T,EIJ(AB): I=   4 J=   1      0.1623338E-02     -0.5206141E-02
 T,EIJ(AB): I=   4 J=   2      0.2722190E-02     -0.6462071E-02
 T,EIJ(AB): I=   4 J=   3      0.2146705E-02     -0.5154263E-02
 T,EIJ(AB): I=   4 J=   4      0.5487911E-02     -0.1155101E-01
 T,EIJ(AB): I=   4 J=   5      0.2618284E-02     -0.5397115E-02
 T,EIJ(AB): I=   5 J=   1      0.1623338E-02     -0.5206141E-02
 T,EIJ(AB): I=   5 J=   2      0.2722190E-02     -0.6462071E-02
 T,EIJ(AB): I=   5 J=   3      0.2146705E-02     -0.5154263E-02
 T,EIJ(AB): I=   5 J=   4      0.2618284E-02     -0.5397115E-02
 T,EIJ(AB): I=   5 J=   5      0.5487911E-02     -0.1155101E-01
 T,EIJ(AB): I=   6 J=   1      0.1464360E-02     -0.4368994E-02
 T,EIJ(AB): I=   6 J=   2      0.3249023E-02     -0.7819691E-02
 T,EIJ(AB): I=   6 J=   3      0.3520693E-02     -0.7016355E-02
 T,EIJ(AB): I=   6 J=   4      0.7094235E-02     -0.1275943E-01
 T,EIJ(AB): I=   6 J=   5      0.4054901E-02     -0.6714205E-02
 T,EIJ(AB): I=   7 J=   1      0.1464360E-02     -0.4368994E-02
 T,EIJ(AB): I=   7 J=   2      0.3249023E-02     -0.7819691E-02
 T,EIJ(AB): I=   7 J=   3      0.3520693E-02     -0.7016355E-02
 T,EIJ(AB): I=   7 J=   4      0.4054901E-02     -0.6714205E-02
 T,EIJ(AB): I=   7 J=   5      0.7094235E-02     -0.1275943E-01
 Actual    scratch disk usage=   911292227 words.
 GetIJB would need an additional  1712083816 words of memory to use all   8 processors.
 JobTyp=3 Pass  1:  I=   1 to   5 NPSUse=  1 ParTrn=F ParDer=F DoDerP=F.
 (rs|ai) integrals will be sorted in core.
 T,EIJ(BB): I=   1 J=   2      0.2951079E-03     -0.8244094E-03
 T,EIJ(BB): I=   1 J=   3      0.3013986E-03     -0.9004846E-03
 T,EIJ(BB): I=   1 J=   4      0.7493162E-03     -0.1837622E-02
 T,EIJ(BB): I=   1 J=   5      0.7493162E-03     -0.1837622E-02
 T,EIJ(BB): I=   2 J=   3      0.1060415E-02     -0.2251138E-02
 T,EIJ(BB): I=   2 J=   4      0.1743018E-02     -0.3131815E-02
 T,EIJ(BB): I=   2 J=   5      0.1743018E-02     -0.3131815E-02
 T,EIJ(BB): I=   3 J=   4      0.5790152E-02     -0.7619682E-02
 T,EIJ(BB): I=   3 J=   5      0.5790152E-02     -0.7619682E-02
 T,EIJ(BB): I=   4 J=   5      0.1147347E-01     -0.1067995E-01
 Spin components of T(2) and E(2):
     alpha-alpha T2 =       0.1991481389D-01 E2=     -0.4274214357D-01
     alpha-beta  T2 =       0.1127801143D+00 E2=     -0.2524576880D+00
     beta-beta   T2 =       0.2969536792D-01 E2=     -0.3983421951D-01
 ANorm=    0.1081551913D+01
 E2 =    -0.3418333729D+00 EUMP2 =    -0.48001320212409D+04

 Complete Basis Set (CBS) Extrapolation:
 M. R. Nyden and G. A. Petersson, JCP 75, 1843 (1981)
 G. A. Petersson and M. A. Al-Laham, JCP 94, 6081 (1991)
 G. A. Petersson, T. Tensfeldt, and J. A. Montgomery, JCP 94, 6091 (1991)
 J. A. Montgomery, J. W. Ochterski, and G. A. Petersson, JCP 101, 5900 (1994)
 
 Minimum Number of PNO for Extrapolation =  25
 Absolute Overlaps: IRadAn =         5
 LocTrn: ILocal=3 LocCor=F DoCore=F.
 Entering OneElI...
 Overlap between basis sets.
 Requested accuracy = 0.1000D-12
 PrsmSu:  NPrtUS=   1 ThrOK=F IAlg=1
 PRISM was handed  1609707775 working-precision words and   136 shell-pairs
 IPart=  0 NShTot=         136 NBatch=          15 AvBLen=         9.1
 CnvPC2: ToCart=F DoDens=F IPureD=0 IPureF=0.
 Transformed matrix in CnvPC2: 
                 1             2             3             4             5 
      1   0.100000D+01  0.405100D+00  0.000000D+00  0.000000D+00  0.000000D+00
      2   0.405100D+00  0.100000D+01  0.000000D+00  0.000000D+00  0.000000D+00
      3   0.000000D+00  0.000000D+00  0.100000D+01  0.000000D+00  0.000000D+00
      4   0.000000D+00  0.000000D+00  0.000000D+00  0.100000D+01  0.000000D+00
      5   0.000000D+00  0.000000D+00  0.000000D+00  0.000000D+00  0.100000D+01
      6   0.306349D-01  0.351216D+00  0.000000D+00  0.000000D+00  0.000000D+00
      7   0.000000D+00  0.000000D+00  0.364086D+00  0.000000D+00  0.000000D+00
      8   0.000000D+00  0.000000D+00  0.000000D+00  0.364086D+00  0.000000D+00
      9   0.000000D+00  0.000000D+00  0.000000D+00  0.000000D+00  0.364086D+00
     10   0.000000D+00  0.000000D+00  0.000000D+00  0.000000D+00  0.000000D+00
     11   0.000000D+00  0.000000D+00  0.000000D+00  0.000000D+00  0.000000D+00
     12   0.000000D+00  0.000000D+00  0.000000D+00  0.000000D+00  0.000000D+00
     13   0.000000D+00  0.000000D+00  0.000000D+00  0.000000D+00  0.000000D+00
     14   0.000000D+00  0.000000D+00  0.000000D+00  0.000000D+00  0.000000D+00
     15  -0.386923D-03  0.519359D-02  0.000000D+00  0.000000D+00  0.000000D+00
     16   0.000000D+00  0.000000D+00  0.135458D-01  0.000000D+00  0.000000D+00
     17   0.000000D+00  0.000000D+00  0.000000D+00  0.135458D-01  0.000000D+00
     18   0.000000D+00  0.000000D+00  0.000000D+00  0.000000D+00  0.135458D-01
     19   0.000000D+00  0.000000D+00  0.000000D+00  0.000000D+00  0.000000D+00
     20   0.000000D+00  0.000000D+00  0.000000D+00  0.000000D+00  0.000000D+00
     21   0.000000D+00  0.000000D+00  0.000000D+00  0.000000D+00  0.000000D+00
     22   0.000000D+00  0.000000D+00  0.000000D+00  0.000000D+00  0.000000D+00
     23   0.000000D+00  0.000000D+00  0.000000D+00  0.000000D+00  0.000000D+00
     24   0.000000D+00  0.000000D+00  0.000000D+00  0.000000D+00  0.000000D+00
     25   0.000000D+00  0.000000D+00  0.000000D+00  0.000000D+00  0.000000D+00
     26   0.000000D+00  0.000000D+00  0.000000D+00  0.000000D+00  0.000000D+00
     27   0.000000D+00  0.000000D+00  0.000000D+00  0.000000D+00  0.000000D+00
     28   0.000000D+00  0.000000D+00  0.000000D+00  0.000000D+00  0.000000D+00
     29   0.000000D+00  0.000000D+00  0.000000D+00  0.000000D+00  0.000000D+00
     30   0.000000D+00  0.000000D+00  0.000000D+00  0.000000D+00  0.000000D+00
     31   0.000000D+00  0.000000D+00  0.000000D+00  0.000000D+00  0.000000D+00
     32   0.000000D+00  0.000000D+00  0.000000D+00  0.000000D+00  0.000000D+00
     33   0.000000D+00  0.000000D+00  0.000000D+00  0.000000D+00  0.000000D+00
     34   0.000000D+00  0.000000D+00  0.000000D+00  0.000000D+00  0.000000D+00
     35   0.000000D+00  0.000000D+00  0.000000D+00  0.000000D+00  0.000000D+00
     36   0.000000D+00  0.000000D+00  0.000000D+00  0.000000D+00  0.000000D+00
     37   0.000000D+00  0.000000D+00  0.000000D+00  0.000000D+00  0.000000D+00
     38   0.621316D-03  0.384497D-02  0.000000D+00  0.000000D+00 -0.996175D-03
     39   0.000000D+00  0.000000D+00  0.278475D-03  0.000000D+00  0.000000D+00
     40   0.000000D+00  0.000000D+00  0.000000D+00  0.278475D-03  0.000000D+00
     41   0.114685D-02  0.705860D-02  0.000000D+00  0.000000D+00 -0.165429D-02
     42   0.513214D-02  0.310219D-01  0.000000D+00  0.000000D+00 -0.447085D-02
     43   0.000000D+00  0.000000D+00  0.212344D-02  0.000000D+00  0.000000D+00
     44   0.000000D+00  0.000000D+00  0.000000D+00  0.212344D-02  0.000000D+00
     45   0.000000D+00  0.000000D+00  0.000000D+00  0.000000D+00  0.000000D+00
     46   0.000000D+00  0.000000D+00  0.000000D+00  0.000000D+00  0.000000D+00
                 6             7             8             9            10 
      1   0.306349D-01  0.000000D+00  0.000000D+00  0.000000D+00  0.000000D+00
      2   0.351216D+00  0.000000D+00  0.000000D+00  0.000000D+00  0.000000D+00
      3   0.000000D+00  0.364086D+00  0.000000D+00  0.000000D+00  0.000000D+00
      4   0.000000D+00  0.000000D+00  0.364086D+00  0.000000D+00  0.000000D+00
      5   0.000000D+00  0.000000D+00  0.000000D+00  0.364086D+00  0.000000D+00
      6   0.100000D+01  0.000000D+00  0.000000D+00  0.000000D+00  0.000000D+00
      7   0.000000D+00  0.100000D+01  0.000000D+00  0.000000D+00  0.000000D+00
      8   0.000000D+00  0.000000D+00  0.100000D+01  0.000000D+00  0.000000D+00
      9   0.000000D+00  0.000000D+00  0.000000D+00  0.100000D+01  0.000000D+00
     10   0.000000D+00  0.000000D+00  0.000000D+00  0.000000D+00  0.100000D+01
     11   0.000000D+00  0.000000D+00  0.000000D+00  0.000000D+00  0.000000D+00
     12   0.000000D+00  0.000000D+00  0.000000D+00  0.000000D+00  0.000000D+00
     13   0.000000D+00  0.000000D+00  0.000000D+00  0.000000D+00  0.000000D+00
     14   0.000000D+00  0.000000D+00  0.000000D+00  0.000000D+00  0.000000D+00
     15   0.192427D+00  0.000000D+00  0.000000D+00  0.000000D+00  0.000000D+00
     16   0.000000D+00  0.209028D+00  0.000000D+00  0.000000D+00  0.000000D+00
     17   0.000000D+00  0.000000D+00  0.209028D+00  0.000000D+00  0.000000D+00
     18   0.000000D+00  0.000000D+00  0.000000D+00  0.209028D+00  0.000000D+00
     19   0.000000D+00  0.000000D+00  0.000000D+00  0.000000D+00  0.473157D-01
     20   0.000000D+00  0.000000D+00  0.000000D+00  0.000000D+00  0.000000D+00
     21   0.000000D+00  0.000000D+00  0.000000D+00  0.000000D+00  0.000000D+00
     22   0.000000D+00  0.000000D+00  0.000000D+00  0.000000D+00  0.000000D+00
     23   0.000000D+00  0.000000D+00  0.000000D+00  0.000000D+00  0.000000D+00
     24   0.000000D+00  0.000000D+00  0.000000D+00  0.000000D+00  0.000000D+00
     25   0.000000D+00  0.000000D+00  0.000000D+00  0.000000D+00  0.000000D+00
     26   0.000000D+00  0.000000D+00  0.000000D+00  0.000000D+00  0.000000D+00
     27   0.000000D+00  0.000000D+00  0.000000D+00  0.000000D+00  0.000000D+00
     28   0.000000D+00  0.000000D+00  0.000000D+00  0.000000D+00  0.000000D+00
     29   0.000000D+00  0.000000D+00  0.000000D+00  0.000000D+00  0.000000D+00
     30   0.000000D+00  0.000000D+00  0.000000D+00  0.000000D+00  0.000000D+00
     31   0.000000D+00  0.000000D+00  0.000000D+00  0.000000D+00  0.000000D+00
     32   0.000000D+00  0.000000D+00  0.000000D+00  0.000000D+00  0.000000D+00
     33   0.000000D+00  0.000000D+00  0.000000D+00  0.000000D+00  0.000000D+00
     34   0.000000D+00  0.000000D+00  0.000000D+00  0.000000D+00  0.000000D+00
     35   0.000000D+00  0.000000D+00  0.000000D+00  0.000000D+00  0.000000D+00
     36   0.000000D+00  0.000000D+00  0.000000D+00  0.000000D+00  0.000000D+00
     37   0.000000D+00  0.000000D+00  0.000000D+00  0.000000D+00  0.000000D+00
     38   0.226069D-01  0.000000D+00  0.000000D+00 -0.156212D-01  0.592837D-02
     39   0.000000D+00  0.452225D-02  0.000000D+00  0.000000D+00  0.000000D+00
     40   0.000000D+00  0.000000D+00  0.452225D-02  0.000000D+00  0.000000D+00
     41   0.400246D-01  0.000000D+00  0.000000D+00 -0.256043D-01  0.952279D-02
     42   0.152183D+00  0.000000D+00  0.000000D+00 -0.586863D-01  0.111024D-01
     43   0.000000D+00  0.304739D-01  0.000000D+00  0.000000D+00  0.000000D+00
     44   0.000000D+00  0.000000D+00  0.304739D-01  0.000000D+00  0.000000D+00
     45   0.000000D+00  0.000000D+00  0.000000D+00  0.000000D+00  0.000000D+00
     46   0.000000D+00  0.000000D+00  0.000000D+00  0.000000D+00  0.000000D+00
                11            12            13            14            15 
      1   0.000000D+00  0.000000D+00  0.000000D+00  0.000000D+00 -0.386923D-03
      2   0.000000D+00  0.000000D+00  0.000000D+00  0.000000D+00  0.519359D-02
      3   0.000000D+00  0.000000D+00  0.000000D+00  0.000000D+00  0.000000D+00
      4   0.000000D+00  0.000000D+00  0.000000D+00  0.000000D+00  0.000000D+00
      5   0.000000D+00  0.000000D+00  0.000000D+00  0.000000D+00  0.000000D+00
      6   0.000000D+00  0.000000D+00  0.000000D+00  0.000000D+00  0.192427D+00
      7   0.000000D+00  0.000000D+00  0.000000D+00  0.000000D+00  0.000000D+00
      8   0.000000D+00  0.000000D+00  0.000000D+00  0.000000D+00  0.000000D+00
      9   0.000000D+00  0.000000D+00  0.000000D+00  0.000000D+00  0.000000D+00
     10   0.000000D+00  0.000000D+00  0.000000D+00  0.000000D+00  0.000000D+00
     11   0.100000D+01  0.000000D+00  0.000000D+00  0.000000D+00  0.000000D+00
     12   0.000000D+00  0.100000D+01  0.000000D+00  0.000000D+00  0.000000D+00
     13   0.000000D+00  0.000000D+00  0.100000D+01  0.000000D+00  0.000000D+00
     14   0.000000D+00  0.000000D+00  0.000000D+00  0.100000D+01  0.000000D+00
     15   0.000000D+00  0.000000D+00  0.000000D+00  0.000000D+00  0.100000D+01
     16   0.000000D+00  0.000000D+00  0.000000D+00  0.000000D+00  0.000000D+00
     17   0.000000D+00  0.000000D+00  0.000000D+00  0.000000D+00  0.000000D+00
     18   0.000000D+00  0.000000D+00  0.000000D+00  0.000000D+00  0.000000D+00
     19   0.000000D+00  0.000000D+00  0.000000D+00  0.000000D+00  0.000000D+00
     20   0.473157D-01  0.000000D+00  0.000000D+00  0.000000D+00  0.000000D+00
     21   0.000000D+00  0.473157D-01  0.000000D+00  0.000000D+00  0.000000D+00
     22   0.000000D+00  0.000000D+00  0.473157D-01  0.000000D+00  0.000000D+00
     23   0.000000D+00  0.000000D+00  0.000000D+00  0.473157D-01  0.000000D+00
     24   0.000000D+00  0.000000D+00  0.000000D+00  0.000000D+00  0.621316D-03
     25   0.000000D+00  0.000000D+00  0.000000D+00  0.000000D+00  0.384497D-02
     26   0.000000D+00  0.000000D+00  0.000000D+00  0.000000D+00  0.000000D+00
     27   0.000000D+00  0.000000D+00  0.000000D+00  0.000000D+00  0.000000D+00
     28   0.000000D+00  0.000000D+00  0.000000D+00  0.000000D+00  0.996175D-03
     29   0.000000D+00  0.000000D+00  0.000000D+00  0.000000D+00  0.226069D-01
     30   0.000000D+00  0.000000D+00  0.000000D+00  0.000000D+00  0.000000D+00
     31   0.000000D+00  0.000000D+00  0.000000D+00  0.000000D+00  0.000000D+00
     32   0.000000D+00  0.000000D+00  0.000000D+00  0.000000D+00  0.156212D-01
     33   0.000000D+00  0.000000D+00  0.000000D+00  0.000000D+00  0.592837D-02
     34   0.000000D+00  0.000000D+00  0.000000D+00  0.000000D+00  0.000000D+00
     35   0.000000D+00  0.000000D+00  0.000000D+00  0.000000D+00  0.000000D+00
     36   0.000000D+00  0.000000D+00  0.000000D+00  0.000000D+00  0.000000D+00
     37   0.000000D+00  0.000000D+00  0.000000D+00  0.000000D+00  0.000000D+00
     38   0.000000D+00  0.000000D+00  0.000000D+00  0.000000D+00  0.224208D+00
     39  -0.320840D-02  0.000000D+00  0.000000D+00  0.000000D+00  0.000000D+00
     40   0.000000D+00 -0.320840D-02  0.000000D+00  0.000000D+00  0.000000D+00
     41   0.000000D+00  0.000000D+00  0.000000D+00  0.000000D+00  0.289086D+00
     42   0.000000D+00  0.000000D+00  0.000000D+00  0.000000D+00  0.402090D+00
     43  -0.141610D-01  0.000000D+00  0.000000D+00  0.000000D+00  0.000000D+00
     44   0.000000D+00 -0.141610D-01  0.000000D+00  0.000000D+00  0.000000D+00
     45   0.000000D+00  0.000000D+00  0.325648D-02  0.000000D+00  0.000000D+00
     46   0.000000D+00  0.000000D+00  0.000000D+00  0.325648D-02  0.000000D+00
                16            17            18            19            20 
      1   0.000000D+00  0.000000D+00  0.000000D+00  0.000000D+00  0.000000D+00
      2   0.000000D+00  0.000000D+00  0.000000D+00  0.000000D+00  0.000000D+00
      3   0.135458D-01  0.000000D+00  0.000000D+00  0.000000D+00  0.000000D+00
      4   0.000000D+00  0.135458D-01  0.000000D+00  0.000000D+00  0.000000D+00
      5   0.000000D+00  0.000000D+00  0.135458D-01  0.000000D+00  0.000000D+00
      6   0.000000D+00  0.000000D+00  0.000000D+00  0.000000D+00  0.000000D+00
      7   0.209028D+00  0.000000D+00  0.000000D+00  0.000000D+00  0.000000D+00
      8   0.000000D+00  0.209028D+00  0.000000D+00  0.000000D+00  0.000000D+00
      9   0.000000D+00  0.000000D+00  0.209028D+00  0.000000D+00  0.000000D+00
     10   0.000000D+00  0.000000D+00  0.000000D+00  0.473157D-01  0.000000D+00
     11   0.000000D+00  0.000000D+00  0.000000D+00  0.000000D+00  0.473157D-01
     12   0.000000D+00  0.000000D+00  0.000000D+00  0.000000D+00  0.000000D+00
     13   0.000000D+00  0.000000D+00  0.000000D+00  0.000000D+00  0.000000D+00
     14   0.000000D+00  0.000000D+00  0.000000D+00  0.000000D+00  0.000000D+00
     15   0.000000D+00  0.000000D+00  0.000000D+00  0.000000D+00  0.000000D+00
     16   0.100000D+01  0.000000D+00  0.000000D+00  0.000000D+00  0.000000D+00
     17   0.000000D+00  0.100000D+01  0.000000D+00  0.000000D+00  0.000000D+00
     18   0.000000D+00  0.000000D+00  0.100000D+01  0.000000D+00  0.000000D+00
     19   0.000000D+00  0.000000D+00  0.000000D+00  0.100000D+01  0.000000D+00
     20   0.000000D+00  0.000000D+00  0.000000D+00  0.000000D+00  0.100000D+01
     21   0.000000D+00  0.000000D+00  0.000000D+00  0.000000D+00  0.000000D+00
     22   0.000000D+00  0.000000D+00  0.000000D+00  0.000000D+00  0.000000D+00
     23   0.000000D+00  0.000000D+00  0.000000D+00  0.000000D+00  0.000000D+00
     24   0.000000D+00  0.000000D+00 -0.114685D-02  0.513214D-02  0.000000D+00
     25   0.000000D+00  0.000000D+00 -0.705860D-02  0.310219D-01  0.000000D+00
     26   0.278475D-03  0.000000D+00  0.000000D+00  0.000000D+00 -0.212344D-02
     27   0.000000D+00  0.278475D-03  0.000000D+00  0.000000D+00  0.000000D+00
     28   0.000000D+00  0.000000D+00 -0.165429D-02  0.447085D-02  0.000000D+00
     29   0.000000D+00  0.000000D+00 -0.400246D-01  0.152183D+00  0.000000D+00
     30   0.452225D-02  0.000000D+00  0.000000D+00  0.000000D+00 -0.304739D-01
     31   0.000000D+00  0.452225D-02  0.000000D+00  0.000000D+00  0.000000D+00
     32   0.000000D+00  0.000000D+00 -0.256043D-01  0.586863D-01  0.000000D+00
     33   0.000000D+00  0.000000D+00 -0.952279D-02  0.111024D-01  0.000000D+00
     34   0.320840D-02  0.000000D+00  0.000000D+00  0.000000D+00 -0.141610D-01
     35   0.000000D+00  0.320840D-02  0.000000D+00  0.000000D+00  0.000000D+00
     36   0.000000D+00  0.000000D+00  0.000000D+00  0.000000D+00  0.000000D+00
     37   0.000000D+00  0.000000D+00  0.000000D+00  0.000000D+00  0.000000D+00
     38   0.000000D+00  0.000000D+00 -0.289086D+00  0.402090D+00  0.000000D+00
     39   0.113102D+00  0.000000D+00  0.000000D+00  0.000000D+00 -0.337498D+00
     40   0.000000D+00  0.113102D+00  0.000000D+00  0.000000D+00  0.000000D+00
     41   0.000000D+00  0.000000D+00 -0.349435D+00  0.278141D+00  0.000000D+00
     42   0.000000D+00  0.000000D+00 -0.278141D+00 -0.225190D-01  0.000000D+00
     43   0.337498D+00  0.000000D+00  0.000000D+00  0.000000D+00 -0.444907D+00
     44   0.000000D+00  0.337498D+00  0.000000D+00  0.000000D+00  0.000000D+00
     45   0.000000D+00  0.000000D+00  0.000000D+00  0.000000D+00  0.000000D+00
     46   0.000000D+00  0.000000D+00  0.000000D+00  0.000000D+00  0.000000D+00
                21            22            23            24            25 
      1   0.000000D+00  0.000000D+00  0.000000D+00  0.000000D+00  0.000000D+00
      2   0.000000D+00  0.000000D+00  0.000000D+00  0.000000D+00  0.000000D+00
      3   0.000000D+00  0.000000D+00  0.000000D+00  0.000000D+00  0.000000D+00
      4   0.000000D+00  0.000000D+00  0.000000D+00  0.000000D+00  0.000000D+00
      5   0.000000D+00  0.000000D+00  0.000000D+00  0.000000D+00  0.000000D+00
      6   0.000000D+00  0.000000D+00  0.000000D+00  0.000000D+00  0.000000D+00
      7   0.000000D+00  0.000000D+00  0.000000D+00  0.000000D+00  0.000000D+00
      8   0.000000D+00  0.000000D+00  0.000000D+00  0.000000D+00  0.000000D+00
      9   0.000000D+00  0.000000D+00  0.000000D+00  0.000000D+00  0.000000D+00
     10   0.000000D+00  0.000000D+00  0.000000D+00  0.000000D+00  0.000000D+00
     11   0.000000D+00  0.000000D+00  0.000000D+00  0.000000D+00  0.000000D+00
     12   0.473157D-01  0.000000D+00  0.000000D+00  0.000000D+00  0.000000D+00
     13   0.000000D+00  0.473157D-01  0.000000D+00  0.000000D+00  0.000000D+00
     14   0.000000D+00  0.000000D+00  0.473157D-01  0.000000D+00  0.000000D+00
     15   0.000000D+00  0.000000D+00  0.000000D+00  0.621316D-03  0.384497D-02
     16   0.000000D+00  0.000000D+00  0.000000D+00  0.000000D+00  0.000000D+00
     17   0.000000D+00  0.000000D+00  0.000000D+00  0.000000D+00  0.000000D+00
     18   0.000000D+00  0.000000D+00  0.000000D+00 -0.114685D-02 -0.705860D-02
     19   0.000000D+00  0.000000D+00  0.000000D+00  0.513214D-02  0.310219D-01
     20   0.000000D+00  0.000000D+00  0.000000D+00  0.000000D+00  0.000000D+00
     21   0.100000D+01  0.000000D+00  0.000000D+00  0.000000D+00  0.000000D+00
     22   0.000000D+00  0.100000D+01  0.000000D+00  0.000000D+00  0.000000D+00
     23   0.000000D+00  0.000000D+00  0.100000D+01  0.000000D+00  0.000000D+00
     24   0.000000D+00  0.000000D+00  0.000000D+00  0.100000D+01  0.405100D+00
     25   0.000000D+00  0.000000D+00  0.000000D+00  0.405100D+00  0.100000D+01
     26   0.000000D+00  0.000000D+00  0.000000D+00  0.000000D+00  0.000000D+00
     27  -0.212344D-02  0.000000D+00  0.000000D+00  0.000000D+00  0.000000D+00
     28   0.000000D+00  0.000000D+00  0.000000D+00  0.000000D+00  0.000000D+00
     29   0.000000D+00  0.000000D+00  0.000000D+00  0.306349D-01  0.351216D+00
     30   0.000000D+00  0.000000D+00  0.000000D+00  0.000000D+00  0.000000D+00
     31  -0.304739D-01  0.000000D+00  0.000000D+00  0.000000D+00  0.000000D+00
     32   0.000000D+00  0.000000D+00  0.000000D+00  0.000000D+00  0.000000D+00
     33   0.000000D+00  0.000000D+00  0.000000D+00  0.000000D+00  0.000000D+00
     34   0.000000D+00  0.000000D+00  0.000000D+00  0.000000D+00  0.000000D+00
     35  -0.141610D-01  0.000000D+00  0.000000D+00  0.000000D+00  0.000000D+00
     36   0.000000D+00  0.325648D-02  0.000000D+00  0.000000D+00  0.000000D+00
     37   0.000000D+00  0.000000D+00  0.325648D-02  0.000000D+00  0.000000D+00
     38   0.000000D+00  0.000000D+00  0.000000D+00 -0.386923D-03  0.519359D-02
     39   0.000000D+00  0.000000D+00  0.000000D+00  0.000000D+00  0.000000D+00
     40  -0.337498D+00  0.000000D+00  0.000000D+00  0.000000D+00  0.000000D+00
     41   0.000000D+00  0.000000D+00  0.000000D+00  0.000000D+00  0.000000D+00
     42   0.000000D+00  0.000000D+00  0.000000D+00  0.000000D+00  0.000000D+00
     43   0.000000D+00  0.000000D+00  0.000000D+00  0.000000D+00  0.000000D+00
     44  -0.444907D+00  0.000000D+00  0.000000D+00  0.000000D+00  0.000000D+00
     45   0.000000D+00  0.240730D+00  0.000000D+00  0.000000D+00  0.000000D+00
     46   0.000000D+00  0.000000D+00  0.240730D+00  0.000000D+00  0.000000D+00
                26            27            28            29            30 
      1   0.000000D+00  0.000000D+00  0.000000D+00  0.000000D+00  0.000000D+00
      2   0.000000D+00  0.000000D+00  0.000000D+00  0.000000D+00  0.000000D+00
      3   0.000000D+00  0.000000D+00  0.000000D+00  0.000000D+00  0.000000D+00
      4   0.000000D+00  0.000000D+00  0.000000D+00  0.000000D+00  0.000000D+00
      5   0.000000D+00  0.000000D+00  0.000000D+00  0.000000D+00  0.000000D+00
      6   0.000000D+00  0.000000D+00  0.000000D+00  0.000000D+00  0.000000D+00
      7   0.000000D+00  0.000000D+00  0.000000D+00  0.000000D+00  0.000000D+00
      8   0.000000D+00  0.000000D+00  0.000000D+00  0.000000D+00  0.000000D+00
      9   0.000000D+00  0.000000D+00  0.000000D+00  0.000000D+00  0.000000D+00
     10   0.000000D+00  0.000000D+00  0.000000D+00  0.000000D+00  0.000000D+00
     11   0.000000D+00  0.000000D+00  0.000000D+00  0.000000D+00  0.000000D+00
     12   0.000000D+00  0.000000D+00  0.000000D+00  0.000000D+00  0.000000D+00
     13   0.000000D+00  0.000000D+00  0.000000D+00  0.000000D+00  0.000000D+00
     14   0.000000D+00  0.000000D+00  0.000000D+00  0.000000D+00  0.000000D+00
     15   0.000000D+00  0.000000D+00  0.996175D-03  0.226069D-01  0.000000D+00
     16   0.278475D-03  0.000000D+00  0.000000D+00  0.000000D+00  0.452225D-02
     17   0.000000D+00  0.278475D-03  0.000000D+00  0.000000D+00  0.000000D+00
     18   0.000000D+00  0.000000D+00 -0.165429D-02 -0.400246D-01  0.000000D+00
     19   0.000000D+00  0.000000D+00  0.447085D-02  0.152183D+00  0.000000D+00
     20  -0.212344D-02  0.000000D+00  0.000000D+00  0.000000D+00 -0.304739D-01
     21   0.000000D+00 -0.212344D-02  0.000000D+00  0.000000D+00  0.000000D+00
     22   0.000000D+00  0.000000D+00  0.000000D+00  0.000000D+00  0.000000D+00
     23   0.000000D+00  0.000000D+00  0.000000D+00  0.000000D+00  0.000000D+00
     24   0.000000D+00  0.000000D+00  0.000000D+00  0.306349D-01  0.000000D+00
     25   0.000000D+00  0.000000D+00  0.000000D+00  0.351216D+00  0.000000D+00
     26   0.100000D+01  0.000000D+00  0.000000D+00  0.000000D+00  0.364086D+00
     27   0.000000D+00  0.100000D+01  0.000000D+00  0.000000D+00  0.000000D+00
     28   0.000000D+00  0.000000D+00  0.100000D+01  0.000000D+00  0.000000D+00
     29   0.000000D+00  0.000000D+00  0.000000D+00  0.100000D+01  0.000000D+00
     30   0.364086D+00  0.000000D+00  0.000000D+00  0.000000D+00  0.100000D+01
     31   0.000000D+00  0.364086D+00  0.000000D+00  0.000000D+00  0.000000D+00
     32   0.000000D+00  0.000000D+00  0.364086D+00  0.000000D+00  0.000000D+00
     33   0.000000D+00  0.000000D+00  0.000000D+00  0.000000D+00  0.000000D+00
     34   0.000000D+00  0.000000D+00  0.000000D+00  0.000000D+00  0.000000D+00
     35   0.000000D+00  0.000000D+00  0.000000D+00  0.000000D+00  0.000000D+00
     36   0.000000D+00  0.000000D+00  0.000000D+00  0.000000D+00  0.000000D+00
     37   0.000000D+00  0.000000D+00  0.000000D+00  0.000000D+00  0.000000D+00
     38   0.000000D+00  0.000000D+00  0.000000D+00  0.192427D+00  0.000000D+00
     39   0.135458D-01  0.000000D+00  0.000000D+00  0.000000D+00  0.209028D+00
     40   0.000000D+00  0.135458D-01  0.000000D+00  0.000000D+00  0.000000D+00
     41   0.000000D+00  0.000000D+00  0.135458D-01  0.000000D+00  0.000000D+00
     42   0.000000D+00  0.000000D+00  0.000000D+00  0.000000D+00  0.000000D+00
     43   0.000000D+00  0.000000D+00  0.000000D+00  0.000000D+00  0.000000D+00
     44   0.000000D+00  0.000000D+00  0.000000D+00  0.000000D+00  0.000000D+00
     45   0.000000D+00  0.000000D+00  0.000000D+00  0.000000D+00  0.000000D+00
     46   0.000000D+00  0.000000D+00  0.000000D+00  0.000000D+00  0.000000D+00
                31            32            33            34            35 
      1   0.000000D+00  0.000000D+00  0.000000D+00  0.000000D+00  0.000000D+00
      2   0.000000D+00  0.000000D+00  0.000000D+00  0.000000D+00  0.000000D+00
      3   0.000000D+00  0.000000D+00  0.000000D+00  0.000000D+00  0.000000D+00
      4   0.000000D+00  0.000000D+00  0.000000D+00  0.000000D+00  0.000000D+00
      5   0.000000D+00  0.000000D+00  0.000000D+00  0.000000D+00  0.000000D+00
      6   0.000000D+00  0.000000D+00  0.000000D+00  0.000000D+00  0.000000D+00
      7   0.000000D+00  0.000000D+00  0.000000D+00  0.000000D+00  0.000000D+00
      8   0.000000D+00  0.000000D+00  0.000000D+00  0.000000D+00  0.000000D+00
      9   0.000000D+00  0.000000D+00  0.000000D+00  0.000000D+00  0.000000D+00
     10   0.000000D+00  0.000000D+00  0.000000D+00  0.000000D+00  0.000000D+00
     11   0.000000D+00  0.000000D+00  0.000000D+00  0.000000D+00  0.000000D+00
     12   0.000000D+00  0.000000D+00  0.000000D+00  0.000000D+00  0.000000D+00
     13   0.000000D+00  0.000000D+00  0.000000D+00  0.000000D+00  0.000000D+00
     14   0.000000D+00  0.000000D+00  0.000000D+00  0.000000D+00  0.000000D+00
     15   0.000000D+00  0.156212D-01  0.592837D-02  0.000000D+00  0.000000D+00
     16   0.000000D+00  0.000000D+00  0.000000D+00  0.320840D-02  0.000000D+00
     17   0.452225D-02  0.000000D+00  0.000000D+00  0.000000D+00  0.320840D-02
     18   0.000000D+00 -0.256043D-01 -0.952279D-02  0.000000D+00  0.000000D+00
     19   0.000000D+00  0.586863D-01  0.111024D-01  0.000000D+00  0.000000D+00
     20   0.000000D+00  0.000000D+00  0.000000D+00 -0.141610D-01  0.000000D+00
     21  -0.304739D-01  0.000000D+00  0.000000D+00  0.000000D+00 -0.141610D-01
     22   0.000000D+00  0.000000D+00  0.000000D+00  0.000000D+00  0.000000D+00
     23   0.000000D+00  0.000000D+00  0.000000D+00  0.000000D+00  0.000000D+00
     24   0.000000D+00  0.000000D+00  0.000000D+00  0.000000D+00  0.000000D+00
     25   0.000000D+00  0.000000D+00  0.000000D+00  0.000000D+00  0.000000D+00
     26   0.000000D+00  0.000000D+00  0.000000D+00  0.000000D+00  0.000000D+00
     27   0.364086D+00  0.000000D+00  0.000000D+00  0.000000D+00  0.000000D+00
     28   0.000000D+00  0.364086D+00  0.000000D+00  0.000000D+00  0.000000D+00
     29   0.000000D+00  0.000000D+00  0.000000D+00  0.000000D+00  0.000000D+00
     30   0.000000D+00  0.000000D+00  0.000000D+00  0.000000D+00  0.000000D+00
     31   0.100000D+01  0.000000D+00  0.000000D+00  0.000000D+00  0.000000D+00
     32   0.000000D+00  0.100000D+01  0.000000D+00  0.000000D+00  0.000000D+00
     33   0.000000D+00  0.000000D+00  0.100000D+01  0.000000D+00  0.000000D+00
     34   0.000000D+00  0.000000D+00  0.000000D+00  0.100000D+01  0.000000D+00
     35   0.000000D+00  0.000000D+00  0.000000D+00  0.000000D+00  0.100000D+01
     36   0.000000D+00  0.000000D+00  0.000000D+00  0.000000D+00  0.000000D+00
     37   0.000000D+00  0.000000D+00  0.000000D+00  0.000000D+00  0.000000D+00
     38   0.000000D+00  0.000000D+00  0.000000D+00  0.000000D+00  0.000000D+00
     39   0.000000D+00  0.000000D+00  0.000000D+00  0.000000D+00  0.000000D+00
     40   0.209028D+00  0.000000D+00  0.000000D+00  0.000000D+00  0.000000D+00
     41   0.000000D+00  0.209028D+00  0.000000D+00  0.000000D+00  0.000000D+00
     42   0.000000D+00  0.000000D+00  0.473157D-01  0.000000D+00  0.000000D+00
     43   0.000000D+00  0.000000D+00  0.000000D+00  0.473157D-01  0.000000D+00
     44   0.000000D+00  0.000000D+00  0.000000D+00  0.000000D+00  0.473157D-01
     45   0.000000D+00  0.000000D+00  0.000000D+00  0.000000D+00  0.000000D+00
     46   0.000000D+00  0.000000D+00  0.000000D+00  0.000000D+00  0.000000D+00
                36            37            38            39            40 
      1   0.000000D+00  0.000000D+00  0.621316D-03  0.000000D+00  0.000000D+00
      2   0.000000D+00  0.000000D+00  0.384497D-02  0.000000D+00  0.000000D+00
      3   0.000000D+00  0.000000D+00  0.000000D+00  0.278475D-03  0.000000D+00
      4   0.000000D+00  0.000000D+00  0.000000D+00  0.000000D+00  0.278475D-03
      5   0.000000D+00  0.000000D+00 -0.996175D-03  0.000000D+00  0.000000D+00
      6   0.000000D+00  0.000000D+00  0.226069D-01  0.000000D+00  0.000000D+00
      7   0.000000D+00  0.000000D+00  0.000000D+00  0.452225D-02  0.000000D+00
      8   0.000000D+00  0.000000D+00  0.000000D+00  0.000000D+00  0.452225D-02
      9   0.000000D+00  0.000000D+00 -0.156212D-01  0.000000D+00  0.000000D+00
     10   0.000000D+00  0.000000D+00  0.592837D-02  0.000000D+00  0.000000D+00
     11   0.000000D+00  0.000000D+00  0.000000D+00 -0.320840D-02  0.000000D+00
     12   0.000000D+00  0.000000D+00  0.000000D+00  0.000000D+00 -0.320840D-02
     13   0.000000D+00  0.000000D+00  0.000000D+00  0.000000D+00  0.000000D+00
     14   0.000000D+00  0.000000D+00  0.000000D+00  0.000000D+00  0.000000D+00
     15   0.000000D+00  0.000000D+00  0.224208D+00  0.000000D+00  0.000000D+00
     16   0.000000D+00  0.000000D+00  0.000000D+00  0.113102D+00  0.000000D+00
     17   0.000000D+00  0.000000D+00  0.000000D+00  0.000000D+00  0.113102D+00
     18   0.000000D+00  0.000000D+00 -0.289086D+00  0.000000D+00  0.000000D+00
     19   0.000000D+00  0.000000D+00  0.402090D+00  0.000000D+00  0.000000D+00
     20   0.000000D+00  0.000000D+00  0.000000D+00 -0.337498D+00  0.000000D+00
     21   0.000000D+00  0.000000D+00  0.000000D+00  0.000000D+00 -0.337498D+00
     22   0.325648D-02  0.000000D+00  0.000000D+00  0.000000D+00  0.000000D+00
     23   0.000000D+00  0.325648D-02  0.000000D+00  0.000000D+00  0.000000D+00
     24   0.000000D+00  0.000000D+00 -0.386923D-03  0.000000D+00  0.000000D+00
     25   0.000000D+00  0.000000D+00  0.519359D-02  0.000000D+00  0.000000D+00
     26   0.000000D+00  0.000000D+00  0.000000D+00  0.135458D-01  0.000000D+00
     27   0.000000D+00  0.000000D+00  0.000000D+00  0.000000D+00  0.135458D-01
     28   0.000000D+00  0.000000D+00  0.000000D+00  0.000000D+00  0.000000D+00
     29   0.000000D+00  0.000000D+00  0.192427D+00  0.000000D+00  0.000000D+00
     30   0.000000D+00  0.000000D+00  0.000000D+00  0.209028D+00  0.000000D+00
     31   0.000000D+00  0.000000D+00  0.000000D+00  0.000000D+00  0.209028D+00
     32   0.000000D+00  0.000000D+00  0.000000D+00  0.000000D+00  0.000000D+00
     33   0.000000D+00  0.000000D+00  0.000000D+00  0.000000D+00  0.000000D+00
     34   0.000000D+00  0.000000D+00  0.000000D+00  0.000000D+00  0.000000D+00
     35   0.000000D+00  0.000000D+00  0.000000D+00  0.000000D+00  0.000000D+00
     36   0.100000D+01  0.000000D+00  0.000000D+00  0.000000D+00  0.000000D+00
     37   0.000000D+00  0.100000D+01  0.000000D+00  0.000000D+00  0.000000D+00
     38   0.000000D+00  0.000000D+00  0.100000D+01  0.000000D+00  0.000000D+00
     39   0.000000D+00  0.000000D+00  0.000000D+00  0.100000D+01  0.000000D+00
     40   0.000000D+00  0.000000D+00  0.000000D+00  0.000000D+00  0.100000D+01
     41   0.000000D+00  0.000000D+00  0.000000D+00  0.000000D+00  0.000000D+00
     42   0.000000D+00  0.000000D+00  0.000000D+00  0.000000D+00  0.000000D+00
     43   0.000000D+00  0.000000D+00  0.000000D+00  0.000000D+00  0.000000D+00
     44   0.000000D+00  0.000000D+00  0.000000D+00  0.000000D+00  0.000000D+00
     45   0.473157D-01  0.000000D+00  0.000000D+00  0.000000D+00  0.000000D+00
     46   0.000000D+00  0.473157D-01  0.000000D+00  0.000000D+00  0.000000D+00
                41            42            43            44            45 
      1   0.114685D-02  0.513214D-02  0.000000D+00  0.000000D+00  0.000000D+00
      2   0.705860D-02  0.310219D-01  0.000000D+00  0.000000D+00  0.000000D+00
      3   0.000000D+00  0.000000D+00  0.212344D-02  0.000000D+00  0.000000D+00
      4   0.000000D+00  0.000000D+00  0.000000D+00  0.212344D-02  0.000000D+00
      5  -0.165429D-02 -0.447085D-02  0.000000D+00  0.000000D+00  0.000000D+00
      6   0.400246D-01  0.152183D+00  0.000000D+00  0.000000D+00  0.000000D+00
      7   0.000000D+00  0.000000D+00  0.304739D-01  0.000000D+00  0.000000D+00
      8   0.000000D+00  0.000000D+00  0.000000D+00  0.304739D-01  0.000000D+00
      9  -0.256043D-01 -0.586863D-01  0.000000D+00  0.000000D+00  0.000000D+00
     10   0.952279D-02  0.111024D-01  0.000000D+00  0.000000D+00  0.000000D+00
     11   0.000000D+00  0.000000D+00 -0.141610D-01  0.000000D+00  0.000000D+00
     12   0.000000D+00  0.000000D+00  0.000000D+00 -0.141610D-01  0.000000D+00
     13   0.000000D+00  0.000000D+00  0.000000D+00  0.000000D+00  0.325648D-02
     14   0.000000D+00  0.000000D+00  0.000000D+00  0.000000D+00  0.000000D+00
     15   0.289086D+00  0.402090D+00  0.000000D+00  0.000000D+00  0.000000D+00
     16   0.000000D+00  0.000000D+00  0.337498D+00  0.000000D+00  0.000000D+00
     17   0.000000D+00  0.000000D+00  0.000000D+00  0.337498D+00  0.000000D+00
     18  -0.349435D+00 -0.278141D+00  0.000000D+00  0.000000D+00  0.000000D+00
     19   0.278141D+00 -0.225190D-01  0.000000D+00  0.000000D+00  0.000000D+00
     20   0.000000D+00  0.000000D+00 -0.444907D+00  0.000000D+00  0.000000D+00
     21   0.000000D+00  0.000000D+00  0.000000D+00 -0.444907D+00  0.000000D+00
     22   0.000000D+00  0.000000D+00  0.000000D+00  0.000000D+00  0.240730D+00
     23   0.000000D+00  0.000000D+00  0.000000D+00  0.000000D+00  0.000000D+00
     24   0.000000D+00  0.000000D+00  0.000000D+00  0.000000D+00  0.000000D+00
     25   0.000000D+00  0.000000D+00  0.000000D+00  0.000000D+00  0.000000D+00
     26   0.000000D+00  0.000000D+00  0.000000D+00  0.000000D+00  0.000000D+00
     27   0.000000D+00  0.000000D+00  0.000000D+00  0.000000D+00  0.000000D+00
     28   0.135458D-01  0.000000D+00  0.000000D+00  0.000000D+00  0.000000D+00
     29   0.000000D+00  0.000000D+00  0.000000D+00  0.000000D+00  0.000000D+00
     30   0.000000D+00  0.000000D+00  0.000000D+00  0.000000D+00  0.000000D+00
     31   0.000000D+00  0.000000D+00  0.000000D+00  0.000000D+00  0.000000D+00
     32   0.209028D+00  0.000000D+00  0.000000D+00  0.000000D+00  0.000000D+00
     33   0.000000D+00  0.473157D-01  0.000000D+00  0.000000D+00  0.000000D+00
     34   0.000000D+00  0.000000D+00  0.473157D-01  0.000000D+00  0.000000D+00
     35   0.000000D+00  0.000000D+00  0.000000D+00  0.473157D-01  0.000000D+00
     36   0.000000D+00  0.000000D+00  0.000000D+00  0.000000D+00  0.473157D-01
     37   0.000000D+00  0.000000D+00  0.000000D+00  0.000000D+00  0.000000D+00
     38   0.000000D+00  0.000000D+00  0.000000D+00  0.000000D+00  0.000000D+00
     39   0.000000D+00  0.000000D+00  0.000000D+00  0.000000D+00  0.000000D+00
     40   0.000000D+00  0.000000D+00  0.000000D+00  0.000000D+00  0.000000D+00
     41   0.100000D+01  0.000000D+00  0.000000D+00  0.000000D+00  0.000000D+00
     42   0.000000D+00  0.100000D+01  0.000000D+00  0.000000D+00  0.000000D+00
     43   0.000000D+00  0.000000D+00  0.100000D+01  0.000000D+00  0.000000D+00
     44   0.000000D+00  0.000000D+00  0.000000D+00  0.100000D+01  0.000000D+00
     45   0.000000D+00  0.000000D+00  0.000000D+00  0.000000D+00  0.100000D+01
     46   0.000000D+00  0.000000D+00  0.000000D+00  0.000000D+00  0.000000D+00
                46 
      1   0.000000D+00
      2   0.000000D+00
      3   0.000000D+00
      4   0.000000D+00
      5   0.000000D+00
      6   0.000000D+00
      7   0.000000D+00
      8   0.000000D+00
      9   0.000000D+00
     10   0.000000D+00
     11   0.000000D+00
     12   0.000000D+00
     13   0.000000D+00
     14   0.325648D-02
     15   0.000000D+00
     16   0.000000D+00
     17   0.000000D+00
     18   0.000000D+00
     19   0.000000D+00
     20   0.000000D+00
     21   0.000000D+00
     22   0.000000D+00
     23   0.240730D+00
     24   0.000000D+00
     25   0.000000D+00
     26   0.000000D+00
     27   0.000000D+00
     28   0.000000D+00
     29   0.000000D+00
     30   0.000000D+00
     31   0.000000D+00
     32   0.000000D+00
     33   0.000000D+00
     34   0.000000D+00
     35   0.000000D+00
     36   0.000000D+00
     37   0.473157D-01
     38   0.000000D+00
     39   0.000000D+00
     40   0.000000D+00
     41   0.000000D+00
     42   0.000000D+00
     43   0.000000D+00
     44   0.000000D+00
     45   0.000000D+00
     46   0.100000D+01
 Entering OneElI...
 Overlap between basis sets.
 Requested accuracy = 0.1000D-12
 PrsmSu:  NPrtUS=   1 ThrOK=F IAlg=1
 PRISM was handed  1608942091 working-precision words and  1024 shell-pairs
 IPart=  0 NShTot=        1024 NBatch=          90 AvBLen=        11.4
 CnvPC2: ToCart=F DoDens=F IPureD=0 IPureF=0.
 Transformed matrix in CnvPC2: 
                 1             2             3             4             5 
      1   0.999797D+00  0.412806D+00  0.000000D+00  0.000000D+00  0.000000D+00
      2   0.291005D+00  0.988458D+00  0.000000D+00  0.000000D+00  0.000000D+00
      3   0.000000D+00  0.000000D+00  0.999258D+00  0.000000D+00  0.000000D+00
      4   0.000000D+00  0.000000D+00  0.000000D+00  0.999258D+00  0.000000D+00
      5   0.000000D+00  0.000000D+00  0.000000D+00  0.000000D+00  0.999258D+00
      6   0.137236D-01  0.328598D+00  0.000000D+00  0.000000D+00  0.000000D+00
      7   0.000000D+00  0.000000D+00  0.355085D+00  0.000000D+00  0.000000D+00
      8   0.000000D+00  0.000000D+00  0.000000D+00  0.355085D+00  0.000000D+00
      9   0.000000D+00  0.000000D+00  0.000000D+00  0.000000D+00  0.355085D+00
     10   0.000000D+00  0.000000D+00  0.000000D+00  0.000000D+00  0.000000D+00
     11   0.000000D+00  0.000000D+00  0.000000D+00  0.000000D+00  0.000000D+00
     12   0.000000D+00  0.000000D+00  0.000000D+00  0.000000D+00  0.000000D+00
     13   0.000000D+00  0.000000D+00  0.000000D+00  0.000000D+00  0.000000D+00
     14   0.000000D+00  0.000000D+00  0.000000D+00  0.000000D+00  0.000000D+00
     15   0.147325D-03  0.124700D-01  0.000000D+00  0.000000D+00  0.000000D+00
     16   0.486388D-02  0.294706D-01  0.000000D+00  0.000000D+00  0.000000D+00
     17   0.000000D+00  0.000000D+00  0.968457D-02  0.000000D+00  0.000000D+00
     18   0.000000D+00  0.000000D+00  0.000000D+00  0.968457D-02  0.000000D+00
     19   0.000000D+00  0.000000D+00  0.000000D+00  0.000000D+00  0.968457D-02
     20   0.000000D+00  0.000000D+00  0.132573D-02  0.000000D+00  0.000000D+00
     21   0.000000D+00  0.000000D+00  0.000000D+00  0.132573D-02  0.000000D+00
     22   0.000000D+00  0.000000D+00  0.000000D+00  0.000000D+00  0.132573D-02
     23   0.138873D+00  0.648521D+00  0.000000D+00  0.000000D+00  0.000000D+00
     24   0.925407D-01  0.479916D+00  0.000000D+00  0.000000D+00  0.000000D+00
     25   0.612644D-01  0.339125D+00  0.000000D+00  0.000000D+00  0.000000D+00
     26   0.404046D-01  0.232597D+00  0.000000D+00  0.000000D+00  0.000000D+00
     27   0.265889D-01  0.156635D+00  0.000000D+00  0.000000D+00  0.000000D+00
     28   0.174753D-01  0.104334D+00  0.000000D+00  0.000000D+00  0.000000D+00
     29   0.000000D+00  0.000000D+00  0.229802D+00  0.000000D+00  0.000000D+00
     30   0.000000D+00  0.000000D+00  0.000000D+00  0.229802D+00  0.000000D+00
     31   0.000000D+00  0.000000D+00  0.000000D+00  0.000000D+00  0.229802D+00
     32   0.000000D+00  0.000000D+00  0.131901D+00  0.000000D+00  0.000000D+00
     33   0.000000D+00  0.000000D+00  0.000000D+00  0.131901D+00  0.000000D+00
     34   0.000000D+00  0.000000D+00  0.000000D+00  0.000000D+00  0.131901D+00
     35   0.000000D+00  0.000000D+00  0.725011D-01  0.000000D+00  0.000000D+00
     36   0.000000D+00  0.000000D+00  0.000000D+00  0.725011D-01  0.000000D+00
     37   0.000000D+00  0.000000D+00  0.000000D+00  0.000000D+00  0.725011D-01
     38   0.000000D+00  0.000000D+00  0.387587D-01  0.000000D+00  0.000000D+00
     39   0.000000D+00  0.000000D+00  0.000000D+00  0.387587D-01  0.000000D+00
     40   0.000000D+00  0.000000D+00  0.000000D+00  0.000000D+00  0.387587D-01
     41   0.000000D+00  0.000000D+00  0.203667D-01  0.000000D+00  0.000000D+00
     42   0.000000D+00  0.000000D+00  0.000000D+00  0.203667D-01  0.000000D+00
     43   0.000000D+00  0.000000D+00  0.000000D+00  0.000000D+00  0.203667D-01
     44   0.000000D+00  0.000000D+00  0.105911D-01  0.000000D+00  0.000000D+00
     45   0.000000D+00  0.000000D+00  0.000000D+00  0.105911D-01  0.000000D+00
     46   0.000000D+00  0.000000D+00  0.000000D+00  0.000000D+00  0.105911D-01
     47   0.000000D+00  0.000000D+00  0.000000D+00  0.000000D+00  0.000000D+00
     48   0.000000D+00  0.000000D+00  0.000000D+00  0.000000D+00  0.000000D+00
     49   0.000000D+00  0.000000D+00  0.000000D+00  0.000000D+00  0.000000D+00
     50   0.000000D+00  0.000000D+00  0.000000D+00  0.000000D+00  0.000000D+00
     51   0.000000D+00  0.000000D+00  0.000000D+00  0.000000D+00  0.000000D+00
     52   0.000000D+00  0.000000D+00  0.000000D+00  0.000000D+00  0.000000D+00
     53   0.000000D+00  0.000000D+00  0.000000D+00  0.000000D+00  0.000000D+00
     54   0.000000D+00  0.000000D+00  0.000000D+00  0.000000D+00  0.000000D+00
     55   0.000000D+00  0.000000D+00  0.000000D+00  0.000000D+00  0.000000D+00
     56   0.000000D+00  0.000000D+00  0.000000D+00  0.000000D+00  0.000000D+00
     57   0.000000D+00  0.000000D+00  0.000000D+00  0.000000D+00  0.000000D+00
     58   0.000000D+00  0.000000D+00  0.000000D+00  0.000000D+00  0.000000D+00
     59   0.000000D+00  0.000000D+00  0.000000D+00  0.000000D+00  0.000000D+00
     60   0.000000D+00  0.000000D+00  0.000000D+00  0.000000D+00  0.000000D+00
     61   0.000000D+00  0.000000D+00  0.000000D+00  0.000000D+00  0.000000D+00
     62   0.000000D+00  0.000000D+00  0.000000D+00  0.000000D+00  0.000000D+00
     63   0.000000D+00  0.000000D+00  0.000000D+00  0.000000D+00  0.000000D+00
     64   0.000000D+00  0.000000D+00  0.000000D+00  0.000000D+00  0.000000D+00
     65   0.000000D+00  0.000000D+00  0.000000D+00  0.000000D+00  0.000000D+00
     66   0.000000D+00  0.000000D+00  0.000000D+00  0.000000D+00  0.000000D+00
     67   0.000000D+00  0.000000D+00  0.000000D+00  0.000000D+00  0.000000D+00
     68   0.000000D+00  0.000000D+00  0.000000D+00  0.000000D+00  0.000000D+00
     69   0.000000D+00  0.000000D+00  0.000000D+00  0.000000D+00  0.000000D+00
     70   0.000000D+00  0.000000D+00  0.000000D+00  0.000000D+00  0.000000D+00
     71   0.000000D+00  0.000000D+00  0.000000D+00  0.000000D+00  0.000000D+00
     72   0.000000D+00  0.000000D+00  0.000000D+00  0.000000D+00  0.000000D+00
     73   0.000000D+00  0.000000D+00  0.000000D+00  0.000000D+00  0.000000D+00
     74   0.000000D+00  0.000000D+00  0.000000D+00  0.000000D+00  0.000000D+00
     75   0.000000D+00  0.000000D+00  0.000000D+00  0.000000D+00  0.000000D+00
     76   0.000000D+00  0.000000D+00  0.000000D+00  0.000000D+00  0.000000D+00
     77   0.000000D+00  0.000000D+00  0.000000D+00  0.000000D+00  0.000000D+00
     78   0.000000D+00  0.000000D+00  0.000000D+00  0.000000D+00  0.000000D+00
     79   0.000000D+00  0.000000D+00  0.000000D+00  0.000000D+00  0.000000D+00
     80   0.000000D+00  0.000000D+00  0.000000D+00  0.000000D+00  0.000000D+00
     81   0.000000D+00  0.000000D+00  0.000000D+00  0.000000D+00  0.000000D+00
     82   0.000000D+00  0.000000D+00  0.000000D+00  0.000000D+00  0.000000D+00
     83   0.000000D+00  0.000000D+00  0.000000D+00  0.000000D+00  0.000000D+00
     84   0.000000D+00  0.000000D+00  0.000000D+00  0.000000D+00  0.000000D+00
     85   0.000000D+00  0.000000D+00  0.000000D+00  0.000000D+00  0.000000D+00
     86   0.000000D+00  0.000000D+00  0.000000D+00  0.000000D+00  0.000000D+00
     87   0.000000D+00  0.000000D+00  0.000000D+00  0.000000D+00  0.000000D+00
     88   0.000000D+00  0.000000D+00  0.000000D+00  0.000000D+00  0.000000D+00
     89   0.000000D+00  0.000000D+00  0.000000D+00  0.000000D+00  0.000000D+00
     90   0.000000D+00  0.000000D+00  0.000000D+00  0.000000D+00  0.000000D+00
     91   0.000000D+00  0.000000D+00  0.000000D+00  0.000000D+00  0.000000D+00
     92   0.000000D+00  0.000000D+00  0.000000D+00  0.000000D+00  0.000000D+00
     93   0.000000D+00  0.000000D+00  0.000000D+00  0.000000D+00  0.000000D+00
     94   0.000000D+00  0.000000D+00  0.000000D+00  0.000000D+00  0.000000D+00
     95   0.000000D+00  0.000000D+00  0.000000D+00  0.000000D+00  0.000000D+00
     96   0.000000D+00  0.000000D+00  0.000000D+00  0.000000D+00  0.000000D+00
     97   0.000000D+00  0.000000D+00  0.000000D+00  0.000000D+00  0.000000D+00
     98   0.000000D+00  0.000000D+00  0.000000D+00  0.000000D+00  0.000000D+00
     99   0.000000D+00  0.000000D+00  0.000000D+00  0.000000D+00  0.000000D+00
    100   0.000000D+00  0.000000D+00  0.000000D+00  0.000000D+00  0.000000D+00
    101   0.000000D+00  0.000000D+00  0.000000D+00  0.000000D+00  0.000000D+00
    102   0.000000D+00  0.000000D+00  0.000000D+00  0.000000D+00  0.000000D+00
    103   0.000000D+00  0.000000D+00  0.000000D+00  0.000000D+00  0.000000D+00
    104   0.000000D+00  0.000000D+00  0.000000D+00  0.000000D+00  0.000000D+00
    105   0.000000D+00  0.000000D+00  0.000000D+00  0.000000D+00  0.000000D+00
    106   0.000000D+00  0.000000D+00  0.000000D+00  0.000000D+00  0.000000D+00
    107   0.000000D+00  0.000000D+00  0.000000D+00  0.000000D+00  0.000000D+00
    108   0.000000D+00  0.000000D+00  0.000000D+00  0.000000D+00  0.000000D+00
    109   0.000000D+00  0.000000D+00  0.000000D+00  0.000000D+00  0.000000D+00
    110   0.000000D+00  0.000000D+00  0.000000D+00  0.000000D+00  0.000000D+00
    111   0.000000D+00  0.000000D+00  0.000000D+00  0.000000D+00  0.000000D+00
    112   0.000000D+00  0.000000D+00  0.000000D+00  0.000000D+00  0.000000D+00
    113   0.000000D+00  0.000000D+00  0.000000D+00  0.000000D+00  0.000000D+00
    114   0.000000D+00  0.000000D+00  0.000000D+00  0.000000D+00  0.000000D+00
    115   0.000000D+00  0.000000D+00  0.000000D+00  0.000000D+00  0.000000D+00
    116   0.000000D+00  0.000000D+00  0.000000D+00  0.000000D+00  0.000000D+00
    117   0.000000D+00  0.000000D+00  0.000000D+00  0.000000D+00  0.000000D+00
    118   0.000000D+00  0.000000D+00  0.000000D+00  0.000000D+00  0.000000D+00
    119   0.000000D+00  0.000000D+00  0.000000D+00  0.000000D+00  0.000000D+00
    120   0.000000D+00  0.000000D+00  0.000000D+00  0.000000D+00  0.000000D+00
    121   0.000000D+00  0.000000D+00  0.000000D+00  0.000000D+00  0.000000D+00
    122   0.000000D+00  0.000000D+00  0.000000D+00  0.000000D+00  0.000000D+00
    123   0.000000D+00  0.000000D+00  0.000000D+00  0.000000D+00  0.000000D+00
    124   0.000000D+00  0.000000D+00  0.000000D+00  0.000000D+00  0.000000D+00
    125   0.000000D+00  0.000000D+00  0.000000D+00  0.000000D+00  0.000000D+00
    126   0.000000D+00  0.000000D+00  0.000000D+00  0.000000D+00  0.000000D+00
    127   0.000000D+00  0.000000D+00  0.000000D+00  0.000000D+00  0.000000D+00
    128   0.000000D+00  0.000000D+00  0.000000D+00  0.000000D+00  0.000000D+00
    129   0.000000D+00  0.000000D+00  0.000000D+00  0.000000D+00  0.000000D+00
    130   0.000000D+00  0.000000D+00  0.000000D+00  0.000000D+00  0.000000D+00
    131   0.000000D+00  0.000000D+00  0.000000D+00  0.000000D+00  0.000000D+00
    132   0.000000D+00  0.000000D+00  0.000000D+00  0.000000D+00  0.000000D+00
    133   0.000000D+00  0.000000D+00  0.000000D+00  0.000000D+00  0.000000D+00
    134   0.000000D+00  0.000000D+00  0.000000D+00  0.000000D+00  0.000000D+00
    135   0.000000D+00  0.000000D+00  0.000000D+00  0.000000D+00  0.000000D+00
    136   0.000000D+00  0.000000D+00  0.000000D+00  0.000000D+00  0.000000D+00
    137   0.000000D+00  0.000000D+00  0.000000D+00  0.000000D+00  0.000000D+00
    138   0.000000D+00  0.000000D+00  0.000000D+00  0.000000D+00  0.000000D+00
    139   0.000000D+00  0.000000D+00  0.000000D+00  0.000000D+00  0.000000D+00
    140   0.000000D+00  0.000000D+00  0.000000D+00  0.000000D+00  0.000000D+00
    141   0.000000D+00  0.000000D+00  0.000000D+00  0.000000D+00  0.000000D+00
    142   0.000000D+00  0.000000D+00  0.000000D+00  0.000000D+00  0.000000D+00
    143   0.000000D+00  0.000000D+00  0.000000D+00  0.000000D+00  0.000000D+00
    144   0.000000D+00  0.000000D+00  0.000000D+00  0.000000D+00  0.000000D+00
[...]
         |

 AB - AA |     35
 BA - BB |     35
--------------------
   29    | -0.003554
   29    |  0.000000
         |
   30    | -0.001803
   30    |  0.000000
         |
   31    | -0.003068
   31    |  0.000000
         |
   32    | -0.001234
   32    |  0.000000
         |
   33    | -0.001234
   33    |  0.000000
         |
   34    | -0.003811
   34    |  0.000000
         |
   35    |  0.000000
   35    |  0.000000
         |

                     Sum of ab pair energies =    -0.204187 A.U.
                     Sum of ba pair energies =    -0.055551 A.U.
                     Sum of aa pair energies =    -0.043412 A.U.
                     Sum of bb pair energies =    -0.040198 A.U.

           Sum of intraorbital pair energies =    -0.076117 A.U.
           Sum of interorbital pair energies =    -0.267232 A.U.
                                                  ----------
                         Total pair energies =    -0.343348 A.U.

                         Single Excitations  =    -0.006799 A.U.

                          Total second order =    -0.350148 A.U.



            MP2(CBS) (With Interference Correction) 
            ---------------------------------------

 AB - AA |     29        30        31        32        33        34
 BA - BB |     29        30        31        32        33        34
----------------------------------------------------------------------
   29    | -0.016471 -0.003446 -0.003500 -0.001251 -0.001251 -0.002516
   29    |  0.000000 -0.008781 -0.008297 -0.002297 -0.002297  0.000000
         |
   30    | -0.006537 -0.014250 -0.003427 -0.001183 -0.001183 -0.003173
   30    | -0.007684  0.000000 -0.008944 -0.002405 -0.002405  0.000000
         |
   31    | -0.007170 -0.007417 -0.015952 -0.001234 -0.001234 -0.002731
   31    | -0.007459 -0.006559  0.000000 -0.002324 -0.002324  0.000000
         |
   32    | -0.004493 -0.004575 -0.004513 -0.013894 -0.000039 -0.001228
   32    | -0.005506 -0.005525 -0.005511  0.000000 -0.000045  0.000000
         |
   33    | -0.004493 -0.004575 -0.004513 -0.000079 -0.013894 -0.001228
   33    | -0.005506 -0.005525 -0.005511 -0.000079  0.000000  0.000000
         |
   34    | -0.009456 -0.006721 -0.008613 -0.007151 -0.007151  0.000000
   34    |  0.000000  0.000000  0.000000  0.000000  0.000000  0.000000
         |
   35    | -0.006242 -0.010961 -0.007582 -0.007151 -0.007151  0.000000
   35    |  0.000000  0.000000  0.000000  0.000000  0.000000  0.000000
         |

 AB - AA |     35
 BA - BB |     35
--------------------
   29    | -0.003552
   29    |  0.000000
         |
   30    | -0.001797
   30    |  0.000000
         |
   31    | -0.003063
   31    |  0.000000
         |
   32    | -0.001228
   32    |  0.000000
         |
   33    | -0.001228
   33    |  0.000000
         |
   34    | -0.003807
   34    |  0.000000
         |
   35    |  0.000000
   35    |  0.000000
         |

                     Sum of ab pair energies =    -0.201004 A.U.
                     Sum of ba pair energies =    -0.054865 A.U.
                     Sum of aa pair energies =    -0.043303 A.U.
                     Sum of bb pair energies =    -0.040120 A.U.

           Sum of intraorbital pair energies =    -0.074460 A.U.
           Sum of interorbital pair energies =    -0.264832 A.U.
                                                  ----------
                         Total pair energies =    -0.339292 A.U.

                         Single Excitations  =    -0.006799 A.U.

                          Total second order =    -0.346091 A.U.

                         E2(CBS) - E2(Dir) =      -0.008314 A.U.

 E2(CBS)=      -0.350148 CBS-Int=       0.004057 OIii=       1.750778

 **********************************************************************

            Population analysis using the SCF density.

 **********************************************************************

 Orbital symmetries:
       Occupied  (SGG) (SGU) (SGG) (SGU) (SGG) (SGU) (PIG) (PIG)
                 (PIU) (PIU) (SGG) (SGU) (SGG) (SGU) (PIU) (PIU)
                 (PIG) (PIG) (SGG) (PIU) (PIU) (PIG) (PIG) (SGU)
                 (DLTG) (DLTG) (DLTU) (DLTU) (SGG) (SGU) (SGG)
                 (PIU) (PIU) (PIG) (PIG)
       Virtual   (SGU) (SGG) (PIU) (PIU) (SGG) (PIG) (PIG) (SGU)
                 (SGU) (DLTG) (DLTG) (PIU) (PIU) (SGG) (PIU) (PIU)
                 (DLTU) (DLTU) (SGU) (PIG) (PIG) (SGG) (PIG) (PIG)
                 (SGU) (SGG) (PIU) (PIU) (DLTG) (DLTG) (PHIU) (PHIU)
                 (SGG) (SGU) (DLTG) (DLTG) (DLTU) (DLTU) (PHIG)
                 (PHIG) (PIG) (PIG) (PIU) (PIU) (SGG) (PIU) (PIU)
                 (SGU) (PIG) (PIG) (DLTU) (DLTU) (SGU) (SGG) (PIG)
                 (PIG) (?A) (?A) (PHIU) (PHIU) (SGG) (?B) (?B)
                 (SGU) (DLTG) (DLTG) (PIU) (PIU) (SGG) (PHIG) (PHIG)
                 (PHIU) (PHIU) (DLTG) (DLTG) (DLTU) (DLTU) (SGU)
                 (PIG) (PIG) (DLTG) (DLTG) (PHIG) (PHIG) (PIU)
                 (PIU) (SGU) (DLTU) (DLTU) (SGG) (PIG) (PIG) (DLTU)
                 (DLTU) (PIU) (PIU) (SGU) (PIU) (PIU) (SGG) (PIG)
                 (PIG) (?A) (?A) (?C) (?C) (PHIU) (PHIU) (SGU)
                 (?D) (?D) (SGG) (PIG) (PIG) (?B) (?B) (DLTG) (DLTG)
                 (SGG) (PIU) (PIU) (PHIU) (PHIU) (?A) (?A) (PHIG)
                 (PHIG) (?B) (?B) (SGU) (PIG) (PIG) (DLTG) (DLTG)
                 (PHIG) (PHIG) (SGG) (DLTU) (DLTU) (SGU) (PIU)
                 (PIU) (DLTU) (DLTU) (SGU) (PIG) (PIG) (PHIU) (PHIU)
                 (DLTG) (DLTG) (PHIG) (PHIG) (PIU) (PIU) (SGG)
                 (DLTG) (DLTG) (SGU) (DLTU) (DLTU) (DLTU) (DLTU)
                 (PIU) (PIU) (SGG) (?A) (?A) (?C) (?C) (PIG) (PIG)
                 (?E) (?E) (?F) (?F) (PHIU) (PHIU) (SGG) (?D) (?D)
                 (SGU) (PIU) (PIU) (PIG) (PIG) (DLTG) (DLTG) (SGU)
                 (?B) (?B) (SGG) (PIU) (PIU) (PIG) (PIG) (?A) (?A)
                 (?C) (?C) (?D) (?D) (PHIU) (PHIU) (PHIG) (PHIG)
                 (?B) (?B) (SGG) (PIG) (PIG) (SGU) (DLTU) (DLTU)
                 (?A) (?A) (PHIU) (PHIU) (PHIG) (PHIG) (DLTG) (DLTG)
                 (?B) (?B) (SGG) (DLTU) (DLTU) (DLTG) (DLTG) (PIU)
                 (PIU) (PHIG) (PHIG) (SGU) (PIG) (PIG) (SGG) (PIU)
                 (PIU) (SGU) (DLTU) (DLTU) (SGU) (PIG) (PIG) (PHIU)
                 (PHIU) (DLTG) (DLTG) (PHIG) (PHIG) (DLTU) (DLTU)
                 (PIU) (PIU) (SGG) (SGU) (PIG) (PIG) (DLTG) (DLTG)
                 (PIU) (PIU) (DLTU) (DLTU) (PHIU) (PHIU) (?A) (?A)
                 (?C) (?C) (SGG) (DLTG) (DLTG) (?E) (?E) (?G) (?G)
                 (?H) (?H) (?F) (?F) (?D) (?D) (PIU) (PIU) (?B)
                 (?B) (SGG) (SGU) (PIG) (PIG) (PHIG) (PHIG) (SGU)
                 (PIU) (PIU) (PIG) (PIG) (SGG) (DLTU) (DLTU) (?C)
                 (?C) (?A) (?A) (?E) (?E) (PIG) (PIG) (?F) (?F)
                 (?D) (?D) (SGU) (PHIU) (PHIU) (?A) (?A) (DLTG)
                 (DLTG) (?C) (?C) (?B) (?B) (SGG) (PHIU) (PHIU)
                 (?A) (?A) (?D) (?D) (PIU) (PIU) (?B) (?B) (PHIG)
                 (PHIG) (PHIU) (PHIU) (SGG) (?B) (?B) (DLTG) (DLTG)
                 (DLTU) (DLTU) (PIG) (PIG) (PHIG) (PHIG) (SGG)
                 (PHIG) (PHIG) (DLTU) (DLTU) (SGU) (PIU) (PIU)
                 (PIG) (PIG) (DLTG) (DLTG) (SGU) (SGU) (PIU) (PIU)
                 (DLTU) (DLTU) (SGG) (SGU) (PIG) (PIG) (PHIU) (PHIU)
                 (PHIG) (PHIG) (DLTG) (DLTG) (DLTU) (DLTU) (PIU)
                 (PIU) (PIG) (PIG) (SGG) (SGU) (DLTG) (DLTG) (DLTU)
                 (DLTU) (PIU) (PIU) (PIG) (PIG) (SGU) (SGG) (SGG)
                 (SGU) (PIU) (PIU) (PIG) (PIG) (SGG) (SGU) (SGG)
                 (SGU)
 The electronic state is 3-SGG.
 Alpha  occ. eigenvalues -- -460.87989-460.87989 -60.68041 -60.68041 -54.28237
 Alpha  occ. eigenvalues --  -54.28237 -54.28237 -54.28237 -54.28024 -54.28024
 Alpha  occ. eigenvalues --   -8.94677  -8.94665  -6.67905  -6.67905  -6.67899
 Alpha  occ. eigenvalues --   -6.67899  -6.67604  -6.67549  -2.66913  -2.66587
 Alpha  occ. eigenvalues --   -2.66587  -2.66365  -2.66365  -2.66351  -2.66351
 Alpha  occ. eigenvalues --   -2.66342  -2.66342  -2.66251  -1.02314  -0.82782
 Alpha  occ. eigenvalues --   -0.48462  -0.47724  -0.47724  -0.34826  -0.34826
 Alpha virt. eigenvalues --    0.03977   0.06871   0.07329   0.07329   0.09406
 Alpha virt. eigenvalues --    0.09664   0.09664   0.11371   0.18036   0.22585
 Alpha virt. eigenvalues --    0.22585   0.26421   0.26421   0.28228   0.31816
 Alpha virt. eigenvalues --    0.31816   0.32759   0.32759   0.34392   0.34549
 Alpha virt. eigenvalues --    0.34549   0.38963   0.46774   0.46774   0.47249
 Alpha virt. eigenvalues --    0.48434   0.63430   0.63430   0.65436   0.65436
 Alpha virt. eigenvalues --    0.66237   0.66237   0.69934   0.72877   0.72877
 Alpha virt. eigenvalues --    0.72969   0.76243   0.76243   0.78078   0.78078
 Alpha virt. eigenvalues --    0.85026   0.85026   0.88282   0.88282   0.91308
 Alpha virt. eigenvalues --    0.91973   0.91973   0.93761   0.93993   0.93993
 Alpha virt. eigenvalues --    0.94701   0.94701   1.00751   1.11440   1.12421
 Alpha virt. eigenvalues --    1.12421   1.21037   1.21037   1.21871   1.21871
 Alpha virt. eigenvalues --    1.25678   1.33227   1.33227   1.34481   1.36533
 Alpha virt. eigenvalues --    1.36533   1.42954   1.42954   1.49071   1.52061
 Alpha virt. eigenvalues --    1.52061   1.66028   1.66028   1.67662   1.67662
 Alpha virt. eigenvalues --    1.69068   1.69068   1.69887   1.70342   1.70342
 Alpha virt. eigenvalues --    1.70353   1.70353   1.74116   1.74116   1.77837
 Alpha virt. eigenvalues --    1.77837   1.79042   1.82670   1.82670   1.83307
 Alpha virt. eigenvalues --    1.83836   1.83836   1.88941   1.88941   1.91342
 Alpha virt. eigenvalues --    1.91342   1.91438   2.05588   2.05588   2.06442
 Alpha virt. eigenvalues --    2.10182   2.10182   2.11967   2.11967   2.18577
 Alpha virt. eigenvalues --    2.18577   2.25762   2.25762   2.28070   2.28432
 Alpha virt. eigenvalues --    2.28432   2.35802   2.43901   2.43901   2.47800
 Alpha virt. eigenvalues --    2.47800   2.52030   2.52030   2.70506   2.71059
 Alpha virt. eigenvalues --    2.71059   2.75528   2.75528   2.76412   2.76412
 Alpha virt. eigenvalues --    2.82155   2.82155   2.83872   2.83872   2.85133
 Alpha virt. eigenvalues --    2.93027   2.93027   2.95027   2.95027   2.98584
 Alpha virt. eigenvalues --    2.98584   2.98984   3.01739   3.01739   3.09852
 Alpha virt. eigenvalues --    3.18984   3.18984   3.20906   3.20906   3.27096
 Alpha virt. eigenvalues --    3.29111   3.29111   3.36292   3.36292   3.38792
 Alpha virt. eigenvalues --    3.38792   3.43164   3.43164   3.50691   3.50691
 Alpha virt. eigenvalues --    3.56013   3.65261   3.65261   3.67832   3.72451
 Alpha virt. eigenvalues --    3.72451   3.78647   3.78647   3.85665   3.85665
 Alpha virt. eigenvalues --    3.88390   3.89089   3.89089   3.94134   3.94134
 Alpha virt. eigenvalues --    3.98509   3.98509   4.05436   4.05436   4.09641
 Alpha virt. eigenvalues --    4.09641   4.10164   4.10164   4.19550   4.22855
 Alpha virt. eigenvalues --    4.22855   4.28373   4.30523   4.30523   4.34202
 Alpha virt. eigenvalues --    4.34202   4.38595   4.38595   4.53290   4.57169
 Alpha virt. eigenvalues --    4.57169   4.58770   4.62412   4.62412   4.71483
 Alpha virt. eigenvalues --    4.71483   4.83290   4.83290   4.85738   4.85738
 Alpha virt. eigenvalues --    4.90860   4.90860   4.95534   4.95534   5.02909
 Alpha virt. eigenvalues --    5.02909   5.03113   5.03113   5.11979   5.12531
 Alpha virt. eigenvalues --    5.12531   5.21223   5.28938   5.28938   5.30050
 Alpha virt. eigenvalues --    5.30050   5.31002   5.31002   5.32514   5.32514
 Alpha virt. eigenvalues --    5.36087   5.36087   5.36695   5.36695   5.39619
 Alpha virt. eigenvalues --    5.45739   5.45739   5.46540   5.46540   5.48133
 Alpha virt. eigenvalues --    5.48133   5.56019   5.56019   5.64686   5.65611
 Alpha virt. eigenvalues --    5.65611   5.77251   5.78965   5.78965   5.99028
 Alpha virt. eigenvalues --    6.14181   6.14181   6.48677   6.49793   6.49793
 Alpha virt. eigenvalues --    6.67142   6.67142   6.70271   6.70271   6.73844
 Alpha virt. eigenvalues --    6.73844   7.18981   7.18981   7.20381   7.20381
 Alpha virt. eigenvalues --    7.34864   7.45552   7.51622   7.51622   7.61251
 Alpha virt. eigenvalues --    7.61251   7.66287   7.66287   7.72029   7.72029
 Alpha virt. eigenvalues --    7.75023   7.75023   7.75834   7.75834   7.90272
 Alpha virt. eigenvalues --    7.90272   7.91074   7.94457   7.94457   8.00555
 Alpha virt. eigenvalues --    8.00555   8.03255   8.03255   8.03624   8.03624
 Alpha virt. eigenvalues --    8.05598   8.05598   8.16899   8.16899   8.33214
 Alpha virt. eigenvalues --    8.33214   8.48052   8.48052   8.57527   8.81492
 Alpha virt. eigenvalues --    8.86100   8.86100   8.91479   8.91479   8.91916
 Alpha virt. eigenvalues --    9.04793   9.04793   9.08953   9.08953   9.11500
 Alpha virt. eigenvalues --    9.14730   9.14730   9.14853   9.14853   9.17517
 Alpha virt. eigenvalues --    9.17517   9.19146   9.19146   9.19557   9.19557
 Alpha virt. eigenvalues --    9.21324   9.21324   9.27656   9.27656   9.31540
 Alpha virt. eigenvalues --    9.31700   9.31700   9.36467   9.36467   9.37513
 Alpha virt. eigenvalues --    9.37513   9.38848   9.38848   9.40802   9.40802
 Alpha virt. eigenvalues --    9.42699   9.42699   9.42699   9.42910   9.42910
 Alpha virt. eigenvalues --    9.43312   9.43312   9.45224   9.45224   9.49233
 Alpha virt. eigenvalues --    9.49233   9.50644   9.50644   9.53728   9.53728
 Alpha virt. eigenvalues --    9.56183   9.59708   9.59708   9.75819   9.75819
 Alpha virt. eigenvalues --    9.77156   9.77156   9.84226   9.84226   9.86490
 Alpha virt. eigenvalues --    9.86490   9.97775  10.01663  10.01663  10.02214
 Alpha virt. eigenvalues --   10.02214  10.02311  10.03012  10.03012  10.05930
 Alpha virt. eigenvalues --   10.05930  10.07093  10.07093  10.24288  10.70852
 Alpha virt. eigenvalues --   10.75524  10.75524  11.12806  11.12806  11.37396
 Alpha virt. eigenvalues --   11.59360  12.00165  12.00165  12.42395  12.42395
 Alpha virt. eigenvalues --   12.48060  12.48060  12.49035  12.49035  12.86001
 Alpha virt. eigenvalues --   12.86001  13.28835  13.28835  13.47407  13.47407
 Alpha virt. eigenvalues --   13.47429  14.74543  16.16807  16.16807  16.27932
 Alpha virt. eigenvalues --   16.27932  16.41832  16.41832  17.52005  17.52005
 Alpha virt. eigenvalues --   17.71571  18.26845  20.21573  20.55358  20.80425
 Alpha virt. eigenvalues --   20.80425  20.94789  20.94789  21.38428  22.75023
 Alpha virt. eigenvalues --  549.96532 552.36916
          Condensed to atoms (all electrons):
              1          2
     1  Se  33.620452   0.379548
     2  Se   0.379548  33.620452
 Mulliken atomic charges:
              1
     1  Se   0.000000
     2  Se   0.000000
 Sum of Mulliken atomic charges =   0.00000
 Mulliken charges with hydrogens summed into heavy atoms:
              1
     1  Se   0.000000
     2  Se   0.000000
 Sum of Mulliken charges with hydrogens summed into heavy atoms =   0.00000
          Atomic-Atomic Spin Densities.
              1          2
     1  Se   1.250989  -0.250989
     2  Se  -0.250989   1.250989
 Mulliken atomic spin densities:
              1
     1  Se   1.000000
     2  Se   1.000000
 Sum of Mulliken atomic spin densities =   2.00000
 Electronic spatial extent (au):  <R**2>=            365.5736
 Charge=              0.0000 electrons
 Dipole moment (field-independent basis, Debye):
    X=              0.0000    Y=              0.0000    Z=              0.0000  Tot=              0.0000
 Quadrupole moment (field-independent basis, Debye-Ang):
   XX=            -37.2825   YY=            -37.2825   ZZ=            -34.0575
   XY=              0.0000   XZ=              0.0000   YZ=              0.0000
 Traceless Quadrupole moment (field-independent basis, Debye-Ang):
   XX=             -1.0750   YY=             -1.0750   ZZ=              2.1500
   XY=              0.0000   XZ=              0.0000   YZ=              0.0000
 Octapole moment (field-independent basis, Debye-Ang**2):
  XXX=              0.0000  YYY=              0.0000  ZZZ=              0.0000  XYY=              0.0000
  XXY=              0.0000  XXZ=              0.0000  XZZ=              0.0000  YZZ=              0.0000
  YYZ=              0.0000  XYZ=              0.0000
 Hexadecapole moment (field-independent basis, Debye-Ang**3):
 XXXX=            -51.5016 YYYY=            -51.5016 ZZZZ=           -281.5712 XXXY=              0.0000
 XXXZ=              0.0000 YYYX=              0.0000 YYYZ=              0.0000 ZZZX=              0.0000
 ZZZY=              0.0000 XXYY=            -17.1672 XXZZ=            -59.5707 YYZZ=            -59.5707
 XXYZ=              0.0000 YYXZ=              0.0000 ZZXY=              0.0000
 N-N= 2.824232932272D+02 E-N=-1.804913914045D+04  KE= 7.197312015863D+03
                          Isotropic Fermi Contact Couplings
        Atom                 a.u.       MegaHertz       Gauss      10(-4) cm-1
 --------------------------------------------------------
       Center         ----  Spin Dipole Couplings  ----
                      3XX-RR        3YY-RR        3ZZ-RR
 --------------------------------------------------------
     1   Atom        1.984823      1.984823     -3.969646
     2   Atom        1.984823      1.984823     -3.969646
 --------------------------------------------------------
                        XY            XZ            YZ
 --------------------------------------------------------
     1   Atom        0.000000      0.000000      0.000000
     2   Atom        0.000000      0.000000      0.000000
 --------------------------------------------------------


 ---------------------------------------------------------------------------------
              Anisotropic Spin Dipole Couplings in Principal Axis System
 ---------------------------------------------------------------------------------

       Atom             a.u.   MegaHertz   Gauss  10(-4) cm-1        Axes


 ---------------------------------------------------------------------------------


 Test job not archived.
 1\1\GINC-C32\SP\ROMP2-RW\Gen\Se2(3)\GPETERSSON\16-Aug-2012\0\\# ROMP2(
 RW) Gen GFinput Int=NoBasisTransform Int(Grid=Ultrafine) IOp(3/32=2,5/
 6=10,8/11=1,9/33=1) Maxdisk=128GB CBSextrapolate(Nmin=25,MinPop)\\Se2\
 \0,3\Se\Se,1,2.166\\Version=EM64L-G09RevA.02\State=3-SGG\HF=-4799.7901
 879\MP2=-4800.1320212\E2(CBS)=-0.3501478\CBS-Int=-0.3460911\OIii=1.750
 7782\RMSD=1.959e-11\PG=D*H [C*(Se1.Se1)]\\@


 A ROPE OVER THE TOP OF A FENCE HAS THE SAME LENGTH ON EACH SIDE.
 WEIGHS 1/3 POUND PER FOOT.  ON ONE END HANGS A MONKEY HOLDING A
 BANANA, AND ON THE OTHER END A WEIGHT EQUAL TO THE WEIGHT
 OF THE MONKEY.  THE BANANA WEIGHS TWO OUNCES PER INCH.
 THE ROPE IS AS LONG AS THE AGE OF THE MONKEY, 
 AND THE WEIGHT OF THE MONKEY (IN OUNCES) IS AS MUCH
 AS THE AGE OF THE MONKEY'S MOTHER.  THE COMBINED AGES OF MONKEY
 AND MOTHER ARE THIRTY YEARS.  HALF THE WEIGHT OF THE MONKEY,
  PLUS THE WEIGHT OF THE BANANA, IS ONE FOURTH AS MUCH AS THE WEIGHT
 OF THE WEIGHT AND THE ROPE.
 THE MONKEY'S MOTHER IS HALF AS OLD AS THE MONKEY WILL BE
 WHEN IT IS 3 TIMES AS OLD AS ITS MOTHER WAS WHEN
 SHE WAS HALF AS OLD AS THE MONKEY WILL BE WHEN IT IS
 AS OLD AS ITS MOTHER WILL BE WHEN SHE IS 4 TIMES AS
 OLD AS THE MONKEY WAS WHEN IT WAS TWICE AS OLD AS 
 ITS MOTHER WAS WHEN SHE WAS ONE THIRD AS OLD AS THE
 MONKEY WAS WHEN IT WAS AS OLD AS ITS MOTHER WAS WHEN 
 SHE WAS 3 TIMES AS OLD AS THE MONKEY WAS WHEN IT WAS AS OLD AS ITS
 MOTHER WAS WHEN SHE WAS 3 TIMES AS OLD AS THE MONKEY 
 WAS WHEN IT WAS ONE FOURTH WAS OLD AS IT IS NOW.

 HOW LONG IS THE BANANA?
 Job cpu time:  2 days  6 hours  8 minutes 54.9 seconds.
 File lengths (MBytes):  RWF=   7146 Int=      0 D2E=      0 Chk=     16 Scr=      1
 Normal termination of Gaussian 09 at Thu Aug 16 23:05:37 2012.
