 Entering Gaussian System, Link 0=g09
 AtFile(1): 6ZaP-NR.gbs
 Initial command:
 /share/apps/gaussian/g09root/g09/l1.exe /localscratch/736789/Gau-9070.inp -scrdir=/localscratch/736789/
 Entering Link 1 = /share/apps/gaussian/g09root/g09/l1.exe PID=      9071.
  
 Copyright (c) 1988,1990,1992,1993,1995,1998,2003,2009, Gaussian, Inc.
                  All Rights Reserved.
  
 This is part of the Gaussian(R) 09 program.  It is based on
 the Gaussian(R) 03 system (copyright 2003, Gaussian, Inc.),
 the Gaussian(R) 98 system (copyright 1998, Gaussian, Inc.),
 the Gaussian(R) 94 system (copyright 1995, Gaussian, Inc.),
 the Gaussian 92(TM) system (copyright 1992, Gaussian, Inc.),
 the Gaussian 90(TM) system (copyright 1990, Gaussian, Inc.),
 the Gaussian 88(TM) system (copyright 1988, Gaussian, Inc.),
 the Gaussian 86(TM) system (copyright 1986, Carnegie Mellon
 University), and the Gaussian 82(TM) system (copyright 1983,
 Carnegie Mellon University). Gaussian is a federally registered
 trademark of Gaussian, Inc.
  
 This software contains proprietary and confidential information,
 including trade secrets, belonging to Gaussian, Inc.
  
 This software is provided under written license and may be
 used, copied, transmitted, or stored only in accord with that
 written license.
  
 The following legend is applicable only to US Government
 contracts under FAR:
  
                    RESTRICTED RIGHTS LEGEND
  
 Use, reproduction and disclosure by the US Government is
 subject to restrictions as set forth in subparagraphs (a)
 and (c) of the Commercial Computer Software - Restricted
 Rights clause in FAR 52.227-19.
  
 Gaussian, Inc.
 340 Quinnipiac St., Bldg. 40, Wallingford CT 06492
  
  
 ---------------------------------------------------------------
 Warning -- This program may not be used in any manner that
 competes with the business of Gaussian, Inc. or will provide
 assistance to any competitor of Gaussian, Inc.  The licensee
 of this program is prohibited from giving any competitor of
 Gaussian, Inc. access to this program.  By using this program,
 the user acknowledges that Gaussian, Inc. is engaged in the
 business of creating and licensing software in the field of
 computational chemistry and represents and warrants to the
 licensee that it is not a competitor of Gaussian, Inc. and that
 it will not use this program in any manner prohibited above.
 ---------------------------------------------------------------
  

 Cite this work as:
 Gaussian 09, Revision A.02,
 M. J. Frisch, G. W. Trucks, H. B. Schlegel, G. E. Scuseria, 
 M. A. Robb, J. R. Cheeseman, G. Scalmani, V. Barone, B. Mennucci, 
 G. A. Petersson, H. Nakatsuji, M. Caricato, X. Li, H. P. Hratchian, 
 A. F. Izmaylov, J. Bloino, G. Zheng, J. L. Sonnenberg, M. Hada, 
 M. Ehara, K. Toyota, R. Fukuda, J. Hasegawa, M. Ishida, T. Nakajima, 
 Y. Honda, O. Kitao, H. Nakai, T. Vreven, J. A. Montgomery, Jr., 
 J. E. Peralta, F. Ogliaro, M. Bearpark, J. J. Heyd, E. Brothers, 
 K. N. Kudin, V. N. Staroverov, R. Kobayashi, J. Normand, 
 K. Raghavachari, A. Rendell, J. C. Burant, S. S. Iyengar, J. Tomasi, 
 M. Cossi, N. Rega, J. M. Millam, M. Klene, J. E. Knox, J. B. Cross, 
 V. Bakken, C. Adamo, J. Jaramillo, R. Gomperts, R. E. Stratmann, 
 O. Yazyev, A. J. Austin, R. Cammi, C. Pomelli, J. W. Ochterski, 
 R. L. Martin, K. Morokuma, V. G. Zakrzewski, G. A. Voth, 
 P. Salvador, J. J. Dannenberg, S. Dapprich, A. D. Daniels, 
 O. Farkas, J. B. Foresman, J. V. Ortiz, J. Cioslowski, 
 and D. J. Fox, Gaussian, Inc., Wallingford CT, 2009.
 
 ******************************************
 Gaussian 09:  EM64L-G09RevA.02 11-Jun-2009
                17-Aug-2012 
 ******************************************
 % Mem=12GB
 % Nproc=8
 Will use up to    8 processors via shared memory.
 ----------------------------------------------------------------------
 # ROMP2(RW) Gen GFinput Int=NoBasisTransform Int(Grid=Ultrafine) IOp(3
 /32=2,5/6=10,8/11=1,9/33=1) Maxdisk=128GB CBSextrapolate(Nmin=20,MinPo
 p)
 ----------------------------------------------------------------------
 1/38=1/1;
 2/12=2,17=6,18=5,40=1/2;
 3/5=7,11=2,16=1,24=10,25=1,30=1,32=2,60=-1,75=-5,116=101/1,2,3;
 4//1;
 5/5=2,6=10,38=5/2;
 8/5=-1,10=91,11=1/1;
 9/16=-3,33=1,75=2,81=20,83=4/6,4;
 6/7=2,8=2,9=2,10=2/1;
 99/5=1,9=1/99;
 ---
 Se2
 ---
 Symbolic Z-matrix:
 Charge =  0 Multiplicity = 3
 Se
 Se                   1     2.166 
 
                          Input orientation:                          
 ---------------------------------------------------------------------
 Center     Atomic      Atomic             Coordinates (Angstroms)
 Number     Number       Type             X           Y           Z
 ---------------------------------------------------------------------
      1         34           0        0.000000    0.000000    0.000000
      2         34           0        0.000000    0.000000    2.166000
 ---------------------------------------------------------------------
 Stoichiometry    Se2(3)
 Framework group  D*H[C*(Se.Se)]
 Deg. of freedom     1
 Full point group                 D*H     NOp   8
 Largest Abelian subgroup         D2H     NOp   8
 Largest concise Abelian subgroup C2      NOp   2
                         Standard orientation:                         
 ---------------------------------------------------------------------
 Center     Atomic      Atomic             Coordinates (Angstroms)
 Number     Number       Type             X           Y           Z
 ---------------------------------------------------------------------
      1         34           0        0.000000    0.000000    1.083000
      2         34           0        0.000000    0.000000   -1.083000
 ---------------------------------------------------------------------
 Rotational constants (GHZ):      0.0000000      2.6958376      2.6958376
 General basis read from cards:  (5D, 7F)
 AO basis set in the form of general basis input (Overlap normalization):
      1 0
 S  17 1.00       0.000000000000
      0.4615677520D+08  0.7771927974D-06
      0.8764992200D+07  0.4757319355D-05
      0.2024605530D+07  0.2683243093D-04
      0.5515890190D+06  0.1208737580D-03
      0.1725100740D+06  0.4638657673D-03
      0.6048829310D+05  0.1551983367D-02
      0.2329650380D+05  0.4646152038D-02
      0.9683237530D+04  0.1265007700D-01
      0.4278831490D+04  0.3160357341D-01
      0.1984533980D+04  0.7204018258D-01
      0.9557349210D+03  0.1461861283D+00
      0.4736032690D+03  0.2490174510D+00
      0.2396360400D+03  0.3159329494D+00
      0.1229968380D+03  0.2370453956D+00
      0.6367071600D+02  0.7215129724D-01
      0.3306874400D+02  0.5025395015D-02
      0.1714580200D+02  0.8674177946D-03
 S  16 1.00       0.000000000000
      0.1725100740D+06 -0.1299959407D-06
      0.6048829310D+05 -0.8034787037D-06
      0.2329650380D+05 -0.8327863064D-05
      0.9683237530D+04 -0.4882287486D-04
      0.4278831490D+04 -0.2974048991D-03
      0.1984533980D+04 -0.1422913394D-02
      0.9557349210D+03 -0.6249615881D-02
      0.4736032690D+03 -0.2215804258D-01
      0.2396360400D+03 -0.6121014885D-01
      0.1229968380D+03 -0.9178543877D-01
      0.6367071600D+02  0.2375220112D-01
      0.3306874400D+02  0.3760501356D+00
      0.1714580200D+02  0.5130081613D+00
      0.8830085000D+01  0.1943459299D+00
      0.4492540000D+01  0.1655451916D-01
      0.2244466000D+01  0.1789532947D-02
 P  15 1.00       0.000000000000
      0.7117043210D+05 -0.9050991289D-05
      0.1863067460D+05 -0.7381059761D-04
      0.5908746770D+04 -0.4748503202D-03
      0.2183705110D+04 -0.2300622736D-02
      0.9094374950D+03 -0.8917664536D-02
      0.4147896600D+03 -0.2836711590D-01
      0.2022533400D+03 -0.7547144152D-01
      0.1033347360D+03 -0.1639047435D+00
      0.5440974000D+02 -0.2772300549D+00
      0.2912750200D+02 -0.3324857386D+00
      0.1568034000D+02 -0.2249937949D+00
      0.8413343000D+01 -0.6555125242D-01
      0.4466598000D+01 -0.6919901497D-02
      0.2331881000D+01 -0.8228830976D-03
      0.1190607000D+01 -0.1522413870D-03
 S  11 1.00       0.000000000000
      0.2396360400D+03  0.8619307020D-03
      0.1229968380D+03  0.2572968013D-02
      0.6367071600D+02  0.1633371369D-02
      0.3306874400D+02 -0.5588823257D-01
      0.1714580200D+02 -0.2029169788D+00
      0.8830085000D+01 -0.6774809843D-01
      0.4492540000D+01  0.4493237908D+00
      0.2244466000D+01  0.5936548954D+00
      0.1093445000D+01  0.1637793123D+00
      0.5152040000D+00  0.1706344484D-02
      0.2325080000D+00  0.2247059360D-02
 P  15 1.00       0.000000000000
      0.5908746770D+04 -0.1387059009D-07
      0.2183705110D+04 -0.3777131530D-05
      0.9094374950D+03 -0.3159432784D-04
      0.4147896600D+03 -0.2559554820D-03
      0.2022533400D+03 -0.1344759874D-02
      0.1033347360D+03 -0.5468775906D-02
      0.5440974000D+02 -0.1444184314D-01
      0.2912750200D+02 -0.2479468756D-01
      0.1568034000D+02  0.2613076173D-01
      0.8413343000D+01  0.2038805253D+00
      0.4466598000D+01  0.3879864161D+00
      0.2331881000D+01  0.3620262109D+00
      0.1190607000D+01  0.1316615564D+00
      0.5913610000D+00  0.1170234648D-01
      0.2841310000D+00  0.1154623644D-02
 D  14 1.00       0.000000000000
      0.2680398060D+04  0.1905632967D-04
      0.8266593670D+03  0.1937733218D-03
      0.3202500830D+03  0.1227276056D-02
      0.1437014030D+03  0.5525855204D-02
      0.7057046700D+02  0.1900864087D-01
      0.3654926500D+02  0.5162703527D-01
      0.1952399100D+02  0.1158802612D+00
      0.1062638700D+02  0.2016817830D+00
      0.5851800000D+01  0.2644587342D+00
      0.3239081000D+01  0.2753052082D+00
      0.1782465000D+01  0.2194177191D+00
      0.9557350000D+00  0.1160015690D+00
      0.4825560000D+00  0.3073946841D-01
      0.2176060000D+00  0.2891859923D-02
 S  10 1.00       0.000000000000
      0.6367071600D+02  0.1828978064D-03
      0.3306874400D+02 -0.9280452448D-03
      0.1714580200D+02  0.1742470225D-02
      0.8830085000D+01 -0.2859445913D-02
      0.4492540000D+01 -0.1043708799D-01
      0.2244466000D+01 -0.1527833253D+00
      0.1093445000D+01 -0.1413450962D+00
      0.5152040000D+00  0.3698778459D+00
      0.2325080000D+00  0.6208688866D+00
      0.9934900000D-01  0.2278561835D+00
 S   1 1.00       0.000000000000
      0.4148321407D-01  0.1000000000D+01
 P  10 1.00       0.000000000000
      0.2912750200D+02  0.6511386608D-04
      0.1568034000D+02 -0.7508202497D-03
      0.8413343000D+01 -0.4913337526D-02
      0.4466598000D+01 -0.1087449728D-01
      0.2331881000D+01 -0.3162098219D-01
      0.1190607000D+01  0.1908789264D-01
      0.5913610000D+00  0.2361745924D+00
      0.2841310000D+00  0.4199366390D+00
      0.1312180000D+00  0.3622758107D+00
      0.5780400000D-01  0.1050704090D+00
 P   1 1.00       0.000000000000
      0.2966218604D-01  0.1000000000D+01
 S   1 1.00       0.000000000000
      0.3493984000D+01  0.1000000000D+01
 S   1 1.00       0.000000000000
      0.1821364000D+01  0.1000000000D+01
 S   1 1.00       0.000000000000
      0.9494510000D+00  0.1000000000D+01
 S   1 1.00       0.000000000000
      0.4949350000D+00  0.1000000000D+01
 S   1 1.00       0.000000000000
      0.2580030000D+00  0.1000000000D+01
 P   1 1.00       0.000000000000
      0.1902679000D+01  0.1000000000D+01
 P   1 1.00       0.000000000000
      0.1026440000D+01  0.1000000000D+01
 P   1 1.00       0.000000000000
      0.5537340000D+00  0.1000000000D+01
 P   1 1.00       0.000000000000
      0.2987240000D+00  0.1000000000D+01
 P   1 1.00       0.000000000000
      0.1611530000D+00  0.1000000000D+01
 D   1 1.00       0.000000000000
      0.1970727000D+01  0.1000000000D+01
 D   1 1.00       0.000000000000
      0.1014687000D+01  0.1000000000D+01
 D   1 1.00       0.000000000000
      0.5224410000D+00  0.1000000000D+01
 D   1 1.00       0.000000000000
      0.2689940000D+00  0.1000000000D+01
 D   1 1.00       0.000000000000
      0.1385000000D+00  0.1000000000D+01
 F   1 1.00       0.000000000000
      0.2128161000D+01  0.1000000000D+01
 F   1 1.00       0.000000000000
      0.1018769000D+01  0.1000000000D+01
 F   1 1.00       0.000000000000
      0.4876940000D+00  0.1000000000D+01
 F   1 1.00       0.000000000000
      0.2334630000D+00  0.1000000000D+01
 G   1 1.00       0.000000000000
      0.1058292000D+01  0.1000000000D+01
 G   1 1.00       0.000000000000
      0.5744090000D+00  0.1000000000D+01
 G   1 1.00       0.000000000000
      0.3117710000D+00  0.1000000000D+01
 H   1 1.00       0.000000000000
      0.1081370000D+01  0.1000000000D+01
 H   1 1.00       0.000000000000
      0.5337550000D+00  0.1000000000D+01
 I   1 1.00       0.000000000000
      0.8395964974D+00  0.1000000000D+01
 ****
      2 0
 S  17 1.00       0.000000000000
      0.4615677520D+08  0.7771927974D-06
      0.8764992200D+07  0.4757319355D-05
      0.2024605530D+07  0.2683243093D-04
      0.5515890190D+06  0.1208737580D-03
      0.1725100740D+06  0.4638657673D-03
      0.6048829310D+05  0.1551983367D-02
      0.2329650380D+05  0.4646152038D-02
      0.9683237530D+04  0.1265007700D-01
      0.4278831490D+04  0.3160357341D-01
      0.1984533980D+04  0.7204018258D-01
      0.9557349210D+03  0.1461861283D+00
      0.4736032690D+03  0.2490174510D+00
      0.2396360400D+03  0.3159329494D+00
      0.1229968380D+03  0.2370453956D+00
      0.6367071600D+02  0.7215129724D-01
      0.3306874400D+02  0.5025395015D-02
      0.1714580200D+02  0.8674177946D-03
 S  16 1.00       0.000000000000
      0.1725100740D+06 -0.1299959407D-06
      0.6048829310D+05 -0.8034787037D-06
      0.2329650380D+05 -0.8327863064D-05
      0.9683237530D+04 -0.4882287486D-04
      0.4278831490D+04 -0.2974048991D-03
      0.1984533980D+04 -0.1422913394D-02
      0.9557349210D+03 -0.6249615881D-02
      0.4736032690D+03 -0.2215804258D-01
      0.2396360400D+03 -0.6121014885D-01
      0.1229968380D+03 -0.9178543877D-01
      0.6367071600D+02  0.2375220112D-01
      0.3306874400D+02  0.3760501356D+00
      0.1714580200D+02  0.5130081613D+00
      0.8830085000D+01  0.1943459299D+00
      0.4492540000D+01  0.1655451916D-01
      0.2244466000D+01  0.1789532947D-02
 P  15 1.00       0.000000000000
      0.7117043210D+05 -0.9050991289D-05
      0.1863067460D+05 -0.7381059761D-04
      0.5908746770D+04 -0.4748503202D-03
      0.2183705110D+04 -0.2300622736D-02
      0.9094374950D+03 -0.8917664536D-02
      0.4147896600D+03 -0.2836711590D-01
      0.2022533400D+03 -0.7547144152D-01
      0.1033347360D+03 -0.1639047435D+00
      0.5440974000D+02 -0.2772300549D+00
      0.2912750200D+02 -0.3324857386D+00
      0.1568034000D+02 -0.2249937949D+00
      0.8413343000D+01 -0.6555125242D-01
      0.4466598000D+01 -0.6919901497D-02
      0.2331881000D+01 -0.8228830976D-03
      0.1190607000D+01 -0.1522413870D-03
 S  11 1.00       0.000000000000
      0.2396360400D+03  0.8619307020D-03
      0.1229968380D+03  0.2572968013D-02
      0.6367071600D+02  0.1633371369D-02
      0.3306874400D+02 -0.5588823257D-01
      0.1714580200D+02 -0.2029169788D+00
      0.8830085000D+01 -0.6774809843D-01
      0.4492540000D+01  0.4493237908D+00
      0.2244466000D+01  0.5936548954D+00
      0.1093445000D+01  0.1637793123D+00
      0.5152040000D+00  0.1706344484D-02
      0.2325080000D+00  0.2247059360D-02
 P  15 1.00       0.000000000000
      0.5908746770D+04 -0.1387059009D-07
      0.2183705110D+04 -0.3777131530D-05
      0.9094374950D+03 -0.3159432784D-04
      0.4147896600D+03 -0.2559554820D-03
      0.2022533400D+03 -0.1344759874D-02
      0.1033347360D+03 -0.5468775906D-02
      0.5440974000D+02 -0.1444184314D-01
      0.2912750200D+02 -0.2479468756D-01
      0.1568034000D+02  0.2613076173D-01
      0.8413343000D+01  0.2038805253D+00
      0.4466598000D+01  0.3879864161D+00
      0.2331881000D+01  0.3620262109D+00
      0.1190607000D+01  0.1316615564D+00
      0.5913610000D+00  0.1170234648D-01
      0.2841310000D+00  0.1154623644D-02
 D  14 1.00       0.000000000000
      0.2680398060D+04  0.1905632967D-04
      0.8266593670D+03  0.1937733218D-03
      0.3202500830D+03  0.1227276056D-02
      0.1437014030D+03  0.5525855204D-02
      0.7057046700D+02  0.1900864087D-01
      0.3654926500D+02  0.5162703527D-01
      0.1952399100D+02  0.1158802612D+00
      0.1062638700D+02  0.2016817830D+00
      0.5851800000D+01  0.2644587342D+00
      0.3239081000D+01  0.2753052082D+00
      0.1782465000D+01  0.2194177191D+00
      0.9557350000D+00  0.1160015690D+00
      0.4825560000D+00  0.3073946841D-01
      0.2176060000D+00  0.2891859923D-02
 S  10 1.00       0.000000000000
      0.6367071600D+02  0.1828978064D-03
      0.3306874400D+02 -0.9280452448D-03
      0.1714580200D+02  0.1742470225D-02
      0.8830085000D+01 -0.2859445913D-02
      0.4492540000D+01 -0.1043708799D-01
      0.2244466000D+01 -0.1527833253D+00
      0.1093445000D+01 -0.1413450962D+00
      0.5152040000D+00  0.3698778459D+00
      0.2325080000D+00  0.6208688866D+00
      0.9934900000D-01  0.2278561835D+00
 S   1 1.00       0.000000000000
      0.4148321407D-01  0.1000000000D+01
 P  10 1.00       0.000000000000
      0.2912750200D+02  0.6511386608D-04
      0.1568034000D+02 -0.7508202497D-03
      0.8413343000D+01 -0.4913337526D-02
      0.4466598000D+01 -0.1087449728D-01
      0.2331881000D+01 -0.3162098219D-01
      0.1190607000D+01  0.1908789264D-01
      0.5913610000D+00  0.2361745924D+00
      0.2841310000D+00  0.4199366390D+00
      0.1312180000D+00  0.3622758107D+00
      0.5780400000D-01  0.1050704090D+00
 P   1 1.00       0.000000000000
      0.2966218604D-01  0.1000000000D+01
 S   1 1.00       0.000000000000
      0.3493984000D+01  0.1000000000D+01
 S   1 1.00       0.000000000000
      0.1821364000D+01  0.1000000000D+01
 S   1 1.00       0.000000000000
      0.9494510000D+00  0.1000000000D+01
 S   1 1.00       0.000000000000
      0.4949350000D+00  0.1000000000D+01
 S   1 1.00       0.000000000000
      0.2580030000D+00  0.1000000000D+01
 P   1 1.00       0.000000000000
      0.1902679000D+01  0.1000000000D+01
 P   1 1.00       0.000000000000
      0.1026440000D+01  0.1000000000D+01
 P   1 1.00       0.000000000000
      0.5537340000D+00  0.1000000000D+01
 P   1 1.00       0.000000000000
      0.2987240000D+00  0.1000000000D+01
 P   1 1.00       0.000000000000
      0.1611530000D+00  0.1000000000D+01
 D   1 1.00       0.000000000000
      0.1970727000D+01  0.1000000000D+01
 D   1 1.00       0.000000000000
      0.1014687000D+01  0.1000000000D+01
 D   1 1.00       0.000000000000
      0.5224410000D+00  0.1000000000D+01
 D   1 1.00       0.000000000000
      0.2689940000D+00  0.1000000000D+01
 D   1 1.00       0.000000000000
      0.1385000000D+00  0.1000000000D+01
 F   1 1.00       0.000000000000
      0.2128161000D+01  0.1000000000D+01
 F   1 1.00       0.000000000000
      0.1018769000D+01  0.1000000000D+01
 F   1 1.00       0.000000000000
      0.4876940000D+00  0.1000000000D+01
 F   1 1.00       0.000000000000
      0.2334630000D+00  0.1000000000D+01
 G   1 1.00       0.000000000000
      0.1058292000D+01  0.1000000000D+01
 G   1 1.00       0.000000000000
      0.5744090000D+00  0.1000000000D+01
 G   1 1.00       0.000000000000
      0.3117710000D+00  0.1000000000D+01
 H   1 1.00       0.000000000000
      0.1081370000D+01  0.1000000000D+01
 H   1 1.00       0.000000000000
      0.5337550000D+00  0.1000000000D+01
 I   1 1.00       0.000000000000
      0.8395964974D+00  0.1000000000D+01
 ****

 There are    58 symmetry adapted basis functions of AG  symmetry.
 There are    23 symmetry adapted basis functions of B1G symmetry.
 There are    38 symmetry adapted basis functions of B2G symmetry.
 There are    38 symmetry adapted basis functions of B3G symmetry.
 There are    23 symmetry adapted basis functions of AU  symmetry.
 There are    58 symmetry adapted basis functions of B1U symmetry.
 There are    38 symmetry adapted basis functions of B2U symmetry.
 There are    38 symmetry adapted basis functions of B3U symmetry.
 Integral buffers will be    131072 words long.
 Raffenetti 2 integral format.
 Two-electron integral symmetry is turned on.
   314 basis functions,   934 primitive gaussians,   456 cartesian basis functions
    35 alpha electrons       33 beta electrons
       nuclear repulsion energy       282.4232932272 Hartrees.
 NAtoms=    2 NActive=    2 NUniq=    1 SFac= 3.00D+00 NAtFMM=   80 NAOKFM=F Big=F
 One-electron integrals computed using PRISM.
 NBasis=   314 RedAO= F  NBF=    58    23    38    38    23    58    38    38
 NBsUse=   314 1.00D-04 NBFU=    58    23    38    38    23    58    38    38
 Harris functional with IExCor=  205 diagonalized for initial guess.
 ExpMin= 2.97D-02 ExpMax= 4.62D+07 ExpMxC= 9.68D+03 IAcc=3 IRadAn=         5 AccDes= 0.00D+00
 HarFok:  IExCor=  205 AccDes= 0.00D+00 IRadAn=         5 IDoV= 1
 ScaDFX=  1.000000  1.000000  1.000000  1.000000
 FoFCou: FMM=F IPFlag=           0 FMFlag=      100000 FMFlg1=           0
         NFxFlg=           0 DoJE=T BraDBF=F KetDBF=T FulRan=T
         Omega=  0.000000  0.000000  1.000000  0.000000  0.000000 ICntrl=     500 IOpCl=  0
         NMat0=    1 NMatS0=    1 NMatT0=    0 NMatD0=    1 NMtDS0=    0 NMtDT0=    0
         I1Cent=           4 NGrid=           0.
 Petite list used in FoFCou.
 Initial guess orbital symmetries:
       Occupied  (SGU) (SGG) (SGU) (SGG) (SGU) (SGG) (PIG) (PIG)
                 (PIU) (PIU) (SGG) (SGU) (SGG) (SGU) (PIU) (PIU)
                 (PIG) (PIG) (SGG) (PIU) (PIU) (PIG) (PIG) (SGU)
                 (DLTG) (DLTG) (DLTU) (DLTU) (SGG) (SGU) (SGG)
                 (PIU) (PIU) (PIG) (PIG)
       Virtual   (SGU) (SGG) (PIU) (PIU) (SGU) (SGG) (PIG) (PIG)
                 (DLTG) (DLTG) (SGU) (PIU) (PIU) (SGG) (DLTU) (DLTU)
                 (PIU) (PIU) (PIG) (PIG) (SGU) (SGG) (SGG) (PIG)
                 (PIG) (SGU) (PIU) (PIU) (DLTG) (DLTG) (PHIU) (PHIU)
                 (SGG) (DLTG) (DLTG) (SGU) (DLTU) (DLTU) (PHIG)
                 (PHIG) (PIG) (PIG) (PIU) (PIU) (SGU) (SGG) (PIU)
                 (PIU) (PIG) (PIG) (DLTU) (DLTU) (SGU) (SGG) (PHIU)
                 (PHIU) (?A) (?A) (PIG) (PIG) (SGG) (DLTG) (DLTG)
                 (?B) (?B) (PIU) (PIU) (SGU) (PHIG) (PHIG) (SGG)
                 (PIG) (PIG) (SGU) (DLTU) (DLTU) (PHIU) (PHIU)
                 (DLTG) (DLTG) (PHIG) (PHIG) (DLTG) (DLTG) (SGU)
                 (PIU) (PIU) (DLTU) (DLTU) (SGG) (PIU) (PIU) (DLTU)
                 (DLTU) (PIG) (PIG) (SGU) (SGG) (PIU) (PIU) (PIG)
                 (PIG) (SGU) (SGG) (PIG) (PIG) (PHIU) (PHIU) (?A)
                 (?A) (DLTG) (DLTG) (?C) (?C) (?D) (?D) (PIU) (PIU)
                 (?B) (?B) (?A) (?A) (PHIU) (PHIU) (SGG) (SGU)
                 (?B) (?B) (PHIG) (PHIG) (DLTU) (DLTU) (DLTG) (DLTG)
                 (PIG) (PIG) (PHIG) (PHIG) (SGG) (SGU) (PIG) (PIG)
                 (PIU) (PIU) (SGU) (DLTU) (DLTU) (PHIU) (PHIU)
                 (DLTG) (DLTG) (PHIG) (PHIG) (PIU) (PIU) (SGG)
                 (DLTU) (DLTU) (DLTG) (DLTG) (SGU) (DLTU) (DLTU)
                 (SGG) (PIU) (PIU) (PIG) (PIG) (SGU) (PIU) (PIU)
                 (SGG) (PIG) (PIG) (PHIU) (PHIU) (PIG) (PIG) (?A)
                 (?A) (SGU) (SGG) (DLTG) (DLTG) (?C) (?C) (?E)
                 (?E) (?F) (?F) (PIU) (PIU) (?D) (?D) (?B) (?B)
                 (SGG) (PHIG) (PHIG) (PHIU) (PHIU) (?A) (?A) (DLTU)
                 (DLTU) (?B) (?B) (DLTG) (DLTG) (PIG) (PIG) (SGU)
                 (PHIG) (PHIG) (SGU) (PIU) (PIU) (SGG) (?A) (?A)
                 (?C) (?C) (?D) (?D) (PHIU) (PHIU) (?B) (?B) (DLTU)
                 (DLTU) (PHIG) (PHIG) (DLTG) (DLTG) (PIG) (PIG)
                 (SGG) (SGU) (PIG) (PIG) (DLTU) (DLTU) (PIU) (PIU)
                 (SGU) (PHIU) (PHIU) (DLTG) (DLTG) (PHIG) (PHIG)
                 (PIU) (PIU) (DLTU) (DLTU) (SGU) (SGG) (PIG) (PIG)
                 (DLTG) (DLTG) (DLTU) (DLTU) (PIU) (PIU) (SGG)
                 (PIG) (PIG) (SGU) (SGG) (PIU) (PIU) (PIG) (PIG)
                 (SGU) (SGG) (SGU) (SGG) (SGU)
 The electronic state of the initial guess is 3-SGG.
 Requested convergence on RMS density matrix=1.00D-10 within 128 cycles.
 Requested convergence on MAX density matrix=1.00D-08.
 Requested convergence on             energy=1.00D-08.
 No special actions if energy rises.
 Initial convergence to 1.0D-05 achieved.  Increase integral accuracy.
 SCF Done:  E(ROHF) =  -4799.79011249     A.U. after   18 cycles
             Convg  =    0.7012D-11             -V/T =  2.0000
 <Sx>= 0.0000 <Sy>= 0.0000 <Sz>= 1.0000 <S**2>= 2.0000 S= 1.0000
 <L.S>= 0.000000000000E+00
 Annihilation of the first spin contaminant:
 S**2 before annihilation     2.0000,   after     2.0000
 GenMOA:  NOpAll=  8 NOp2=8 NOpUse=  8 JSym2X=1
 <Sx>= 0.0000 <Sy>= 0.0000 <Sz>= 1.0000 <S**2>= 2.0000 S= 1.0000
 Range of M.O.s used for correlation:    29   314
 NBasis=   314 NAE=    35 NBE=    33 NFC=    28 NFV=     0
 NROrb=    286 NOA=     7 NOB=     5 NVA=   279 NVB=   281

 **** Warning!!: The largest alpha MO coefficient is  0.28117498D+03


 **** Warning!!: The largest beta MO coefficient is  0.28031621D+03

 Singles contribution to E2=   -0.6796089683D-02
 Disk-based method using OVN memory for  7 occupieds at a time.
 Permanent disk used for amplitudes and <ij||ab> integrals=     7903532 words.
 Estimated scratch disk usage=   272883621 words.
 IUseRI=2 ITolRI= 6 IR12RI=0
 Actual    scratch disk usage=   269395659 words.
 GetIJB would need an additional  1388313278 words of memory to use all   8 processors.
 JobTyp=2 Pass  1:  I=   1 to   7 NPSUse=  1 ParTrn=F ParDer=F DoDerP=F.
 (rs|ai) integrals will be sorted in core.
 T,EIJ(AA): I=   1 J=   2      0.1302901E-03     -0.4375073E-03
 T,EIJ(AA): I=   1 J=   3      0.2135280E-03     -0.6979812E-03
 T,EIJ(AA): I=   1 J=   4      0.3412406E-03     -0.1056411E-02
 T,EIJ(AA): I=   1 J=   5      0.3412406E-03     -0.1056411E-02
 T,EIJ(AA): I=   1 J=   6      0.2902074E-03     -0.9116064E-03
 T,EIJ(AA): I=   1 J=   7      0.2902074E-03     -0.9116064E-03
 T,EIJ(AA): I=   2 J=   3      0.6743561E-03     -0.1682779E-02
 T,EIJ(AA): I=   2 J=   4      0.5333775E-03     -0.1329725E-02
 T,EIJ(AA): I=   2 J=   5      0.5333775E-03     -0.1329725E-02
 T,EIJ(AA): I=   2 J=   6      0.4542226E-03     -0.1200040E-02
 T,EIJ(AA): I=   2 J=   7      0.4542226E-03     -0.1200040E-02
 T,EIJ(AA): I=   3 J=   4      0.1522097E-02     -0.3307401E-02
 T,EIJ(AA): I=   3 J=   5      0.1522097E-02     -0.3307401E-02
 T,EIJ(AA): I=   3 J=   6      0.2640807E-02     -0.4740533E-02
 T,EIJ(AA): I=   3 J=   7      0.2640807E-02     -0.4740533E-02
 T,EIJ(AA): I=   4 J=   5      0.1544976E-02     -0.3210287E-02
 T,EIJ(AA): I=   4 J=   6      0.1404738E-02     -0.2928336E-02
 T,EIJ(AA): I=   4 J=   7      0.4867001E-03     -0.9290688E-03
 T,EIJ(AA): I=   5 J=   6      0.4867001E-03     -0.9290688E-03
 T,EIJ(AA): I=   5 J=   7      0.1404738E-02     -0.2928336E-02
 T,EIJ(AA): I=   6 J=   7      0.1976875E-02     -0.3790022E-02
 T,EIJ(AB): I=   1 J=   1      0.1890135E-02     -0.7390699E-02
 T,EIJ(AB): I=   1 J=   2      0.1068011E-02     -0.4086639E-02
 T,EIJ(AB): I=   1 J=   3      0.1367200E-02     -0.5047770E-02
 T,EIJ(AB): I=   1 J=   4      0.1702428E-02     -0.5066770E-02
 T,EIJ(AB): I=   1 J=   5      0.1702428E-02     -0.5066770E-02
 T,EIJ(AB): I=   2 J=   1      0.1029816E-02     -0.3937498E-02
 T,EIJ(AB): I=   2 J=   2      0.2389195E-02     -0.7512436E-02
 T,EIJ(AB): I=   2 J=   3      0.2393940E-02     -0.6877145E-02
 T,EIJ(AB): I=   2 J=   4      0.1923091E-02     -0.5089160E-02
 T,EIJ(AB): I=   2 J=   5      0.1923091E-02     -0.5089160E-02
 T,EIJ(AB): I=   3 J=   1      0.1740637E-02     -0.6093678E-02
 T,EIJ(AB): I=   3 J=   2      0.3507180E-02     -0.8517001E-02
 T,EIJ(AB): I=   3 J=   3      0.8315000E-02     -0.1638139E-01
 T,EIJ(AB): I=   3 J=   4      0.6883972E-02     -0.1002204E-01
 T,EIJ(AB): I=   3 J=   5      0.6883972E-02     -0.1002204E-01
 T,EIJ(AB): I=   4 J=   1      0.1615437E-02     -0.5111834E-02
 T,EIJ(AB): I=   4 J=   2      0.2716960E-02     -0.6395150E-02
 T,EIJ(AB): I=   4 J=   3      0.2139116E-02     -0.5085695E-02
 T,EIJ(AB): I=   4 J=   4      0.2604061E-02     -0.5325171E-02
 T,EIJ(AB): I=   4 J=   5      0.5460994E-02     -0.1138845E-01
 T,EIJ(AB): I=   5 J=   1      0.1615437E-02     -0.5111834E-02
 T,EIJ(AB): I=   5 J=   2      0.2716960E-02     -0.6395150E-02
 T,EIJ(AB): I=   5 J=   3      0.2139116E-02     -0.5085695E-02
 T,EIJ(AB): I=   5 J=   4      0.5460994E-02     -0.1138845E-01
 T,EIJ(AB): I=   5 J=   5      0.2604061E-02     -0.5325171E-02
 T,EIJ(AB): I=   6 J=   1      0.1459959E-02     -0.4307941E-02
 T,EIJ(AB): I=   6 J=   2      0.3241194E-02     -0.7730012E-02
 T,EIJ(AB): I=   6 J=   3      0.3510370E-02     -0.6949432E-02
 T,EIJ(AB): I=   6 J=   4      0.7072866E-02     -0.1263007E-01
 T,EIJ(AB): I=   6 J=   5      0.4043072E-02     -0.6658900E-02
 T,EIJ(AB): I=   7 J=   1      0.1459959E-02     -0.4307941E-02
 T,EIJ(AB): I=   7 J=   2      0.3241194E-02     -0.7730012E-02
 T,EIJ(AB): I=   7 J=   3      0.3510370E-02     -0.6949432E-02
 T,EIJ(AB): I=   7 J=   4      0.4043072E-02     -0.6658900E-02
 T,EIJ(AB): I=   7 J=   5      0.7072866E-02     -0.1263007E-01
 Actual    scratch disk usage=   271330213 words.
 GetIJB would need an additional  1388306894 words of memory to use all   8 processors.
 JobTyp=3 Pass  1:  I=   1 to   5 NPSUse=  1 ParTrn=F ParDer=F DoDerP=F.
 (rs|ai) integrals will be sorted in core.
 T,EIJ(BB): I=   1 J=   2      0.2950412E-03     -0.8225029E-03
 T,EIJ(BB): I=   1 J=   3      0.3012045E-03     -0.8976653E-03
 T,EIJ(BB): I=   1 J=   4      0.7487512E-03     -0.1831813E-02
 T,EIJ(BB): I=   1 J=   5      0.7487512E-03     -0.1831813E-02
 T,EIJ(BB): I=   2 J=   3      0.1060224E-02     -0.2248037E-02
 T,EIJ(BB): I=   2 J=   4      0.1741948E-02     -0.3127650E-02
 T,EIJ(BB): I=   2 J=   5      0.1741948E-02     -0.3127650E-02
 T,EIJ(BB): I=   3 J=   4      0.5789151E-02     -0.7612950E-02
 T,EIJ(BB): I=   3 J=   5      0.5789151E-02     -0.7612950E-02
 T,EIJ(BB): I=   4 J=   5      0.1146823E-01     -0.1066921E-01
 Spin components of T(2) and E(2):
     alpha-alpha T2 =       0.1988680701D-01 E2=     -0.4262482060D-01
     alpha-beta  T2 =       0.1124481536D+00 E2=     -0.2493655033D+00
     beta-beta   T2 =       0.2968440092D-01 E2=     -0.3978224336D-01
 ANorm=    0.1081374402D+01
 E2 =    -0.3385686570D+00 EUMP2 =    -0.48001286811464D+04

 Complete Basis Set (CBS) Extrapolation:
 M. R. Nyden and G. A. Petersson, JCP 75, 1843 (1981)
 G. A. Petersson and M. A. Al-Laham, JCP 94, 6081 (1991)
 G. A. Petersson, T. Tensfeldt, and J. A. Montgomery, JCP 94, 6091 (1991)
 J. A. Montgomery, J. W. Ochterski, and G. A. Petersson, JCP 101, 5900 (1994)
 
 Minimum Number of PNO for Extrapolation =  20
 Absolute Overlaps: IRadAn =         5
 LocTrn: ILocal=3 LocCor=F DoCore=F.
 Entering OneElI...
 Overlap between basis sets.
 Requested accuracy = 0.1000D-12
 PrsmSu:  NPrtUS=   1 ThrOK=F IAlg=1
 PRISM was handed  1610177919 working-precision words and   136 shell-pairs
 IPart=  0 NShTot=         136 NBatch=          15 AvBLen=         9.1
 CnvPC2: ToCart=F DoDens=F IPureD=0 IPureF=0.
 Transformed matrix in CnvPC2: 
                 1             2             3             4             5 
      1   0.100000D+01  0.405100D+00  0.000000D+00  0.000000D+00  0.000000D+00
      2   0.405100D+00  0.100000D+01  0.000000D+00  0.000000D+00  0.000000D+00
      3   0.000000D+00  0.000000D+00  0.100000D+01  0.000000D+00  0.000000D+00
      4   0.000000D+00  0.000000D+00  0.000000D+00  0.100000D+01  0.000000D+00
      5   0.000000D+00  0.000000D+00  0.000000D+00  0.000000D+00  0.100000D+01
      6   0.306349D-01  0.351216D+00  0.000000D+00  0.000000D+00  0.000000D+00
      7   0.000000D+00  0.000000D+00  0.364086D+00  0.000000D+00  0.000000D+00
      8   0.000000D+00  0.000000D+00  0.000000D+00  0.364086D+00  0.000000D+00
      9   0.000000D+00  0.000000D+00  0.000000D+00  0.000000D+00  0.364086D+00
     10   0.000000D+00  0.000000D+00  0.000000D+00  0.000000D+00  0.000000D+00
     11   0.000000D+00  0.000000D+00  0.000000D+00  0.000000D+00  0.000000D+00
     12   0.000000D+00  0.000000D+00  0.000000D+00  0.000000D+00  0.000000D+00
     13   0.000000D+00  0.000000D+00  0.000000D+00  0.000000D+00  0.000000D+00
     14   0.000000D+00  0.000000D+00  0.000000D+00  0.000000D+00  0.000000D+00
     15  -0.386923D-03  0.519359D-02  0.000000D+00  0.000000D+00  0.000000D+00
     16   0.000000D+00  0.000000D+00  0.135458D-01  0.000000D+00  0.000000D+00
     17   0.000000D+00  0.000000D+00  0.000000D+00  0.135458D-01  0.000000D+00
     18   0.000000D+00  0.000000D+00  0.000000D+00  0.000000D+00  0.135458D-01
     19   0.000000D+00  0.000000D+00  0.000000D+00  0.000000D+00  0.000000D+00
     20   0.000000D+00  0.000000D+00  0.000000D+00  0.000000D+00  0.000000D+00
     21   0.000000D+00  0.000000D+00  0.000000D+00  0.000000D+00  0.000000D+00
     22   0.000000D+00  0.000000D+00  0.000000D+00  0.000000D+00  0.000000D+00
     23   0.000000D+00  0.000000D+00  0.000000D+00  0.000000D+00  0.000000D+00
     24   0.000000D+00  0.000000D+00  0.000000D+00  0.000000D+00  0.000000D+00
     25   0.000000D+00  0.000000D+00  0.000000D+00  0.000000D+00  0.000000D+00
     26   0.000000D+00  0.000000D+00  0.000000D+00  0.000000D+00  0.000000D+00
     27   0.000000D+00  0.000000D+00  0.000000D+00  0.000000D+00  0.000000D+00
     28   0.000000D+00  0.000000D+00  0.000000D+00  0.000000D+00  0.000000D+00
     29   0.000000D+00  0.000000D+00  0.000000D+00  0.000000D+00  0.000000D+00
     30   0.000000D+00  0.000000D+00  0.000000D+00  0.000000D+00  0.000000D+00
     31   0.000000D+00  0.000000D+00  0.000000D+00  0.000000D+00  0.000000D+00
     32   0.000000D+00  0.000000D+00  0.000000D+00  0.000000D+00  0.000000D+00
     33   0.000000D+00  0.000000D+00  0.000000D+00  0.000000D+00  0.000000D+00
     34   0.000000D+00  0.000000D+00  0.000000D+00  0.000000D+00  0.000000D+00
     35   0.000000D+00  0.000000D+00  0.000000D+00  0.000000D+00  0.000000D+00
     36   0.000000D+00  0.000000D+00  0.000000D+00  0.000000D+00  0.000000D+00
     37   0.000000D+00  0.000000D+00  0.000000D+00  0.000000D+00  0.000000D+00
     38   0.621316D-03  0.384497D-02  0.000000D+00  0.000000D+00 -0.996175D-03
     39   0.000000D+00  0.000000D+00  0.278475D-03  0.000000D+00  0.000000D+00
     40   0.000000D+00  0.000000D+00  0.000000D+00  0.278475D-03  0.000000D+00
     41   0.114685D-02  0.705860D-02  0.000000D+00  0.000000D+00 -0.165429D-02
     42   0.513214D-02  0.310219D-01  0.000000D+00  0.000000D+00 -0.447085D-02
     43   0.000000D+00  0.000000D+00  0.212344D-02  0.000000D+00  0.000000D+00
     44   0.000000D+00  0.000000D+00  0.000000D+00  0.212344D-02  0.000000D+00
     45   0.000000D+00  0.000000D+00  0.000000D+00  0.000000D+00  0.000000D+00
     46   0.000000D+00  0.000000D+00  0.000000D+00  0.000000D+00  0.000000D+00
                 6             7             8             9            10 
      1   0.306349D-01  0.000000D+00  0.000000D+00  0.000000D+00  0.000000D+00
      2   0.351216D+00  0.000000D+00  0.000000D+00  0.000000D+00  0.000000D+00
      3   0.000000D+00  0.364086D+00  0.000000D+00  0.000000D+00  0.000000D+00
      4   0.000000D+00  0.000000D+00  0.364086D+00  0.000000D+00  0.000000D+00
      5   0.000000D+00  0.000000D+00  0.000000D+00  0.364086D+00  0.000000D+00
      6   0.100000D+01  0.000000D+00  0.000000D+00  0.000000D+00  0.000000D+00
      7   0.000000D+00  0.100000D+01  0.000000D+00  0.000000D+00  0.000000D+00
      8   0.000000D+00  0.000000D+00  0.100000D+01  0.000000D+00  0.000000D+00
      9   0.000000D+00  0.000000D+00  0.000000D+00  0.100000D+01  0.000000D+00
     10   0.000000D+00  0.000000D+00  0.000000D+00  0.000000D+00  0.100000D+01
     11   0.000000D+00  0.000000D+00  0.000000D+00  0.000000D+00  0.000000D+00
     12   0.000000D+00  0.000000D+00  0.000000D+00  0.000000D+00  0.000000D+00
     13   0.000000D+00  0.000000D+00  0.000000D+00  0.000000D+00  0.000000D+00
     14   0.000000D+00  0.000000D+00  0.000000D+00  0.000000D+00  0.000000D+00
     15   0.192427D+00  0.000000D+00  0.000000D+00  0.000000D+00  0.000000D+00
     16   0.000000D+00  0.209028D+00  0.000000D+00  0.000000D+00  0.000000D+00
     17   0.000000D+00  0.000000D+00  0.209028D+00  0.000000D+00  0.000000D+00
     18   0.000000D+00  0.000000D+00  0.000000D+00  0.209028D+00  0.000000D+00
     19   0.000000D+00  0.000000D+00  0.000000D+00  0.000000D+00  0.473157D-01
     20   0.000000D+00  0.000000D+00  0.000000D+00  0.000000D+00  0.000000D+00
     21   0.000000D+00  0.000000D+00  0.000000D+00  0.000000D+00  0.000000D+00
     22   0.000000D+00  0.000000D+00  0.000000D+00  0.000000D+00  0.000000D+00
     23   0.000000D+00  0.000000D+00  0.000000D+00  0.000000D+00  0.000000D+00
     24   0.000000D+00  0.000000D+00  0.000000D+00  0.000000D+00  0.000000D+00
     25   0.000000D+00  0.000000D+00  0.000000D+00  0.000000D+00  0.000000D+00
     26   0.000000D+00  0.000000D+00  0.000000D+00  0.000000D+00  0.000000D+00
     27   0.000000D+00  0.000000D+00  0.000000D+00  0.000000D+00  0.000000D+00
     28   0.000000D+00  0.000000D+00  0.000000D+00  0.000000D+00  0.000000D+00
     29   0.000000D+00  0.000000D+00  0.000000D+00  0.000000D+00  0.000000D+00
     30   0.000000D+00  0.000000D+00  0.000000D+00  0.000000D+00  0.000000D+00
     31   0.000000D+00  0.000000D+00  0.000000D+00  0.000000D+00  0.000000D+00
     32   0.000000D+00  0.000000D+00  0.000000D+00  0.000000D+00  0.000000D+00
     33   0.000000D+00  0.000000D+00  0.000000D+00  0.000000D+00  0.000000D+00
     34   0.000000D+00  0.000000D+00  0.000000D+00  0.000000D+00  0.000000D+00
     35   0.000000D+00  0.000000D+00  0.000000D+00  0.000000D+00  0.000000D+00
     36   0.000000D+00  0.000000D+00  0.000000D+00  0.000000D+00  0.000000D+00
     37   0.000000D+00  0.000000D+00  0.000000D+00  0.000000D+00  0.000000D+00
     38   0.226069D-01  0.000000D+00  0.000000D+00 -0.156212D-01  0.592837D-02
     39   0.000000D+00  0.452225D-02  0.000000D+00  0.000000D+00  0.000000D+00
     40   0.000000D+00  0.000000D+00  0.452225D-02  0.000000D+00  0.000000D+00
     41   0.400246D-01  0.000000D+00  0.000000D+00 -0.256043D-01  0.952279D-02
     42   0.152183D+00  0.000000D+00  0.000000D+00 -0.586863D-01  0.111024D-01
     43   0.000000D+00  0.304739D-01  0.000000D+00  0.000000D+00  0.000000D+00
     44   0.000000D+00  0.000000D+00  0.304739D-01  0.000000D+00  0.000000D+00
     45   0.000000D+00  0.000000D+00  0.000000D+00  0.000000D+00  0.000000D+00
     46   0.000000D+00  0.000000D+00  0.000000D+00  0.000000D+00  0.000000D+00
                11            12            13            14            15 
      1   0.000000D+00  0.000000D+00  0.000000D+00  0.000000D+00 -0.386923D-03
      2   0.000000D+00  0.000000D+00  0.000000D+00  0.000000D+00  0.519359D-02
      3   0.000000D+00  0.000000D+00  0.000000D+00  0.000000D+00  0.000000D+00
      4   0.000000D+00  0.000000D+00  0.000000D+00  0.000000D+00  0.000000D+00
      5   0.000000D+00  0.000000D+00  0.000000D+00  0.000000D+00  0.000000D+00
      6   0.000000D+00  0.000000D+00  0.000000D+00  0.000000D+00  0.192427D+00
      7   0.000000D+00  0.000000D+00  0.000000D+00  0.000000D+00  0.000000D+00
      8   0.000000D+00  0.000000D+00  0.000000D+00  0.000000D+00  0.000000D+00
      9   0.000000D+00  0.000000D+00  0.000000D+00  0.000000D+00  0.000000D+00
     10   0.000000D+00  0.000000D+00  0.000000D+00  0.000000D+00  0.000000D+00
     11   0.100000D+01  0.000000D+00  0.000000D+00  0.000000D+00  0.000000D+00
     12   0.000000D+00  0.100000D+01  0.000000D+00  0.000000D+00  0.000000D+00
     13   0.000000D+00  0.000000D+00  0.100000D+01  0.000000D+00  0.000000D+00
     14   0.000000D+00  0.000000D+00  0.000000D+00  0.100000D+01  0.000000D+00
     15   0.000000D+00  0.000000D+00  0.000000D+00  0.000000D+00  0.100000D+01
     16   0.000000D+00  0.000000D+00  0.000000D+00  0.000000D+00  0.000000D+00
     17   0.000000D+00  0.000000D+00  0.000000D+00  0.000000D+00  0.000000D+00
     18   0.000000D+00  0.000000D+00  0.000000D+00  0.000000D+00  0.000000D+00
     19   0.000000D+00  0.000000D+00  0.000000D+00  0.000000D+00  0.000000D+00
     20   0.473157D-01  0.000000D+00  0.000000D+00  0.000000D+00  0.000000D+00
     21   0.000000D+00  0.473157D-01  0.000000D+00  0.000000D+00  0.000000D+00
     22   0.000000D+00  0.000000D+00  0.473157D-01  0.000000D+00  0.000000D+00
     23   0.000000D+00  0.000000D+00  0.000000D+00  0.473157D-01  0.000000D+00
     24   0.000000D+00  0.000000D+00  0.000000D+00  0.000000D+00  0.621316D-03
     25   0.000000D+00  0.000000D+00  0.000000D+00  0.000000D+00  0.384497D-02
     26   0.000000D+00  0.000000D+00  0.000000D+00  0.000000D+00  0.000000D+00
     27   0.000000D+00  0.000000D+00  0.000000D+00  0.000000D+00  0.000000D+00
     28   0.000000D+00  0.000000D+00  0.000000D+00  0.000000D+00  0.996175D-03
     29   0.000000D+00  0.000000D+00  0.000000D+00  0.000000D+00  0.226069D-01
     30   0.000000D+00  0.000000D+00  0.000000D+00  0.000000D+00  0.000000D+00
     31   0.000000D+00  0.000000D+00  0.000000D+00  0.000000D+00  0.000000D+00
     32   0.000000D+00  0.000000D+00  0.000000D+00  0.000000D+00  0.156212D-01
     33   0.000000D+00  0.000000D+00  0.000000D+00  0.000000D+00  0.592837D-02
     34   0.000000D+00  0.000000D+00  0.000000D+00  0.000000D+00  0.000000D+00
     35   0.000000D+00  0.000000D+00  0.000000D+00  0.000000D+00  0.000000D+00
     36   0.000000D+00  0.000000D+00  0.000000D+00  0.000000D+00  0.000000D+00
     37   0.000000D+00  0.000000D+00  0.000000D+00  0.000000D+00  0.000000D+00
     38   0.000000D+00  0.000000D+00  0.000000D+00  0.000000D+00  0.224208D+00
     39  -0.320840D-02  0.000000D+00  0.000000D+00  0.000000D+00  0.000000D+00
     40   0.000000D+00 -0.320840D-02  0.000000D+00  0.000000D+00  0.000000D+00
     41   0.000000D+00  0.000000D+00  0.000000D+00  0.000000D+00  0.289086D+00
     42   0.000000D+00  0.000000D+00  0.000000D+00  0.000000D+00  0.402090D+00
     43  -0.141610D-01  0.000000D+00  0.000000D+00  0.000000D+00  0.000000D+00
     44   0.000000D+00 -0.141610D-01  0.000000D+00  0.000000D+00  0.000000D+00
     45   0.000000D+00  0.000000D+00  0.325648D-02  0.000000D+00  0.000000D+00
     46   0.000000D+00  0.000000D+00  0.000000D+00  0.325648D-02  0.000000D+00
                16            17            18            19            20 
      1   0.000000D+00  0.000000D+00  0.000000D+00  0.000000D+00  0.000000D+00
      2   0.000000D+00  0.000000D+00  0.000000D+00  0.000000D+00  0.000000D+00
      3   0.135458D-01  0.000000D+00  0.000000D+00  0.000000D+00  0.000000D+00
      4   0.000000D+00  0.135458D-01  0.000000D+00  0.000000D+00  0.000000D+00
      5   0.000000D+00  0.000000D+00  0.135458D-01  0.000000D+00  0.000000D+00
      6   0.000000D+00  0.000000D+00  0.000000D+00  0.000000D+00  0.000000D+00
      7   0.209028D+00  0.000000D+00  0.000000D+00  0.000000D+00  0.000000D+00
      8   0.000000D+00  0.209028D+00  0.000000D+00  0.000000D+00  0.000000D+00
      9   0.000000D+00  0.000000D+00  0.209028D+00  0.000000D+00  0.000000D+00
     10   0.000000D+00  0.000000D+00  0.000000D+00  0.473157D-01  0.000000D+00
     11   0.000000D+00  0.000000D+00  0.000000D+00  0.000000D+00  0.473157D-01
     12   0.000000D+00  0.000000D+00  0.000000D+00  0.000000D+00  0.000000D+00
     13   0.000000D+00  0.000000D+00  0.000000D+00  0.000000D+00  0.000000D+00
     14   0.000000D+00  0.000000D+00  0.000000D+00  0.000000D+00  0.000000D+00
     15   0.000000D+00  0.000000D+00  0.000000D+00  0.000000D+00  0.000000D+00
     16   0.100000D+01  0.000000D+00  0.000000D+00  0.000000D+00  0.000000D+00
     17   0.000000D+00  0.100000D+01  0.000000D+00  0.000000D+00  0.000000D+00
     18   0.000000D+00  0.000000D+00  0.100000D+01  0.000000D+00  0.000000D+00
     19   0.000000D+00  0.000000D+00  0.000000D+00  0.100000D+01  0.000000D+00
     20   0.000000D+00  0.000000D+00  0.000000D+00  0.000000D+00  0.100000D+01
     21   0.000000D+00  0.000000D+00  0.000000D+00  0.000000D+00  0.000000D+00
     22   0.000000D+00  0.000000D+00  0.000000D+00  0.000000D+00  0.000000D+00
     23   0.000000D+00  0.000000D+00  0.000000D+00  0.000000D+00  0.000000D+00
     24   0.000000D+00  0.000000D+00 -0.114685D-02  0.513214D-02  0.000000D+00
     25   0.000000D+00  0.000000D+00 -0.705860D-02  0.310219D-01  0.000000D+00
     26   0.278475D-03  0.000000D+00  0.000000D+00  0.000000D+00 -0.212344D-02
     27   0.000000D+00  0.278475D-03  0.000000D+00  0.000000D+00  0.000000D+00
     28   0.000000D+00  0.000000D+00 -0.165429D-02  0.447085D-02  0.000000D+00
     29   0.000000D+00  0.000000D+00 -0.400246D-01  0.152183D+00  0.000000D+00
     30   0.452225D-02  0.000000D+00  0.000000D+00  0.000000D+00 -0.304739D-01
     31   0.000000D+00  0.452225D-02  0.000000D+00  0.000000D+00  0.000000D+00
     32   0.000000D+00  0.000000D+00 -0.256043D-01  0.586863D-01  0.000000D+00
     33   0.000000D+00  0.000000D+00 -0.952279D-02  0.111024D-01  0.000000D+00
     34   0.320840D-02  0.000000D+00  0.000000D+00  0.000000D+00 -0.141610D-01
     35   0.000000D+00  0.320840D-02  0.000000D+00  0.000000D+00  0.000000D+00
     36   0.000000D+00  0.000000D+00  0.000000D+00  0.000000D+00  0.000000D+00
     37   0.000000D+00  0.000000D+00  0.000000D+00  0.000000D+00  0.000000D+00
     38   0.000000D+00  0.000000D+00 -0.289086D+00  0.402090D+00  0.000000D+00
     39   0.113102D+00  0.000000D+00  0.000000D+00  0.000000D+00 -0.337498D+00
     40   0.000000D+00  0.113102D+00  0.000000D+00  0.000000D+00  0.000000D+00
     41   0.000000D+00  0.000000D+00 -0.349435D+00  0.278141D+00  0.000000D+00
     42   0.000000D+00  0.000000D+00 -0.278141D+00 -0.225190D-01  0.000000D+00
     43   0.337498D+00  0.000000D+00  0.000000D+00  0.000000D+00 -0.444907D+00
     44   0.000000D+00  0.337498D+00  0.000000D+00  0.000000D+00  0.000000D+00
     45   0.000000D+00  0.000000D+00  0.000000D+00  0.000000D+00  0.000000D+00
     46   0.000000D+00  0.000000D+00  0.000000D+00  0.000000D+00  0.000000D+00
                21            22            23            24            25 
      1   0.000000D+00  0.000000D+00  0.000000D+00  0.000000D+00  0.000000D+00
      2   0.000000D+00  0.000000D+00  0.000000D+00  0.000000D+00  0.000000D+00
      3   0.000000D+00  0.000000D+00  0.000000D+00  0.000000D+00  0.000000D+00
      4   0.000000D+00  0.000000D+00  0.000000D+00  0.000000D+00  0.000000D+00
      5   0.000000D+00  0.000000D+00  0.000000D+00  0.000000D+00  0.000000D+00
      6   0.000000D+00  0.000000D+00  0.000000D+00  0.000000D+00  0.000000D+00
      7   0.000000D+00  0.000000D+00  0.000000D+00  0.000000D+00  0.000000D+00
      8   0.000000D+00  0.000000D+00  0.000000D+00  0.000000D+00  0.000000D+00
      9   0.000000D+00  0.000000D+00  0.000000D+00  0.000000D+00  0.000000D+00
     10   0.000000D+00  0.000000D+00  0.000000D+00  0.000000D+00  0.000000D+00
     11   0.000000D+00  0.000000D+00  0.000000D+00  0.000000D+00  0.000000D+00
     12   0.473157D-01  0.000000D+00  0.000000D+00  0.000000D+00  0.000000D+00
     13   0.000000D+00  0.473157D-01  0.000000D+00  0.000000D+00  0.000000D+00
     14   0.000000D+00  0.000000D+00  0.473157D-01  0.000000D+00  0.000000D+00
     15   0.000000D+00  0.000000D+00  0.000000D+00  0.621316D-03  0.384497D-02
     16   0.000000D+00  0.000000D+00  0.000000D+00  0.000000D+00  0.000000D+00
     17   0.000000D+00  0.000000D+00  0.000000D+00  0.000000D+00  0.000000D+00
     18   0.000000D+00  0.000000D+00  0.000000D+00 -0.114685D-02 -0.705860D-02
     19   0.000000D+00  0.000000D+00  0.000000D+00  0.513214D-02  0.310219D-01
     20   0.000000D+00  0.000000D+00  0.000000D+00  0.000000D+00  0.000000D+00
     21   0.100000D+01  0.000000D+00  0.000000D+00  0.000000D+00  0.000000D+00
     22   0.000000D+00  0.100000D+01  0.000000D+00  0.000000D+00  0.000000D+00
     23   0.000000D+00  0.000000D+00  0.100000D+01  0.000000D+00  0.000000D+00
     24   0.000000D+00  0.000000D+00  0.000000D+00  0.100000D+01  0.405100D+00
     25   0.000000D+00  0.000000D+00  0.000000D+00  0.405100D+00  0.100000D+01
     26   0.000000D+00  0.000000D+00  0.000000D+00  0.000000D+00  0.000000D+00
     27  -0.212344D-02  0.000000D+00  0.000000D+00  0.000000D+00  0.000000D+00
     28   0.000000D+00  0.000000D+00  0.000000D+00  0.000000D+00  0.000000D+00
     29   0.000000D+00  0.000000D+00  0.000000D+00  0.306349D-01  0.351216D+00
     30   0.000000D+00  0.000000D+00  0.000000D+00  0.000000D+00  0.000000D+00
     31  -0.304739D-01  0.000000D+00  0.000000D+00  0.000000D+00  0.000000D+00
     32   0.000000D+00  0.000000D+00  0.000000D+00  0.000000D+00  0.000000D+00
     33   0.000000D+00  0.000000D+00  0.000000D+00  0.000000D+00  0.000000D+00
     34   0.000000D+00  0.000000D+00  0.000000D+00  0.000000D+00  0.000000D+00
     35  -0.141610D-01  0.000000D+00  0.000000D+00  0.000000D+00  0.000000D+00
     36   0.000000D+00  0.325648D-02  0.000000D+00  0.000000D+00  0.000000D+00
     37   0.000000D+00  0.000000D+00  0.325648D-02  0.000000D+00  0.000000D+00
     38   0.000000D+00  0.000000D+00  0.000000D+00 -0.386923D-03  0.519359D-02
     39   0.000000D+00  0.000000D+00  0.000000D+00  0.000000D+00  0.000000D+00
     40  -0.337498D+00  0.000000D+00  0.000000D+00  0.000000D+00  0.000000D+00
     41   0.000000D+00  0.000000D+00  0.000000D+00  0.000000D+00  0.000000D+00
     42   0.000000D+00  0.000000D+00  0.000000D+00  0.000000D+00  0.000000D+00
     43   0.000000D+00  0.000000D+00  0.000000D+00  0.000000D+00  0.000000D+00
     44  -0.444907D+00  0.000000D+00  0.000000D+00  0.000000D+00  0.000000D+00
     45   0.000000D+00  0.240730D+00  0.000000D+00  0.000000D+00  0.000000D+00
     46   0.000000D+00  0.000000D+00  0.240730D+00  0.000000D+00  0.000000D+00
                26            27            28            29            30 
      1   0.000000D+00  0.000000D+00  0.000000D+00  0.000000D+00  0.000000D+00
      2   0.000000D+00  0.000000D+00  0.000000D+00  0.000000D+00  0.000000D+00
      3   0.000000D+00  0.000000D+00  0.000000D+00  0.000000D+00  0.000000D+00
      4   0.000000D+00  0.000000D+00  0.000000D+00  0.000000D+00  0.000000D+00
      5   0.000000D+00  0.000000D+00  0.000000D+00  0.000000D+00  0.000000D+00
      6   0.000000D+00  0.000000D+00  0.000000D+00  0.000000D+00  0.000000D+00
      7   0.000000D+00  0.000000D+00  0.000000D+00  0.000000D+00  0.000000D+00
      8   0.000000D+00  0.000000D+00  0.000000D+00  0.000000D+00  0.000000D+00
      9   0.000000D+00  0.000000D+00  0.000000D+00  0.000000D+00  0.000000D+00
     10   0.000000D+00  0.000000D+00  0.000000D+00  0.000000D+00  0.000000D+00
     11   0.000000D+00  0.000000D+00  0.000000D+00  0.000000D+00  0.000000D+00
     12   0.000000D+00  0.000000D+00  0.000000D+00  0.000000D+00  0.000000D+00
     13   0.000000D+00  0.000000D+00  0.000000D+00  0.000000D+00  0.000000D+00
     14   0.000000D+00  0.000000D+00  0.000000D+00  0.000000D+00  0.000000D+00
     15   0.000000D+00  0.000000D+00  0.996175D-03  0.226069D-01  0.000000D+00
     16   0.278475D-03  0.000000D+00  0.000000D+00  0.000000D+00  0.452225D-02
     17   0.000000D+00  0.278475D-03  0.000000D+00  0.000000D+00  0.000000D+00
     18   0.000000D+00  0.000000D+00 -0.165429D-02 -0.400246D-01  0.000000D+00
     19   0.000000D+00  0.000000D+00  0.447085D-02  0.152183D+00  0.000000D+00
     20  -0.212344D-02  0.000000D+00  0.000000D+00  0.000000D+00 -0.304739D-01
     21   0.000000D+00 -0.212344D-02  0.000000D+00  0.000000D+00  0.000000D+00
     22   0.000000D+00  0.000000D+00  0.000000D+00  0.000000D+00  0.000000D+00
     23   0.000000D+00  0.000000D+00  0.000000D+00  0.000000D+00  0.000000D+00
     24   0.000000D+00  0.000000D+00  0.000000D+00  0.306349D-01  0.000000D+00
     25   0.000000D+00  0.000000D+00  0.000000D+00  0.351216D+00  0.000000D+00
     26   0.100000D+01  0.000000D+00  0.000000D+00  0.000000D+00  0.364086D+00
     27   0.000000D+00  0.100000D+01  0.000000D+00  0.000000D+00  0.000000D+00
     28   0.000000D+00  0.000000D+00  0.100000D+01  0.000000D+00  0.000000D+00
     29   0.000000D+00  0.000000D+00  0.000000D+00  0.100000D+01  0.000000D+00
     30   0.364086D+00  0.000000D+00  0.000000D+00  0.000000D+00  0.100000D+01
     31   0.000000D+00  0.364086D+00  0.000000D+00  0.000000D+00  0.000000D+00
     32   0.000000D+00  0.000000D+00  0.364086D+00  0.000000D+00  0.000000D+00
     33   0.000000D+00  0.000000D+00  0.000000D+00  0.000000D+00  0.000000D+00
     34   0.000000D+00  0.000000D+00  0.000000D+00  0.000000D+00  0.000000D+00
     35   0.000000D+00  0.000000D+00  0.000000D+00  0.000000D+00  0.000000D+00
     36   0.000000D+00  0.000000D+00  0.000000D+00  0.000000D+00  0.000000D+00
     37   0.000000D+00  0.000000D+00  0.000000D+00  0.000000D+00  0.000000D+00
     38   0.000000D+00  0.000000D+00  0.000000D+00  0.192427D+00  0.000000D+00
     39   0.135458D-01  0.000000D+00  0.000000D+00  0.000000D+00  0.209028D+00
     40   0.000000D+00  0.135458D-01  0.000000D+00  0.000000D+00  0.000000D+00
     41   0.000000D+00  0.000000D+00  0.135458D-01  0.000000D+00  0.000000D+00
     42   0.000000D+00  0.000000D+00  0.000000D+00  0.000000D+00  0.000000D+00
     43   0.000000D+00  0.000000D+00  0.000000D+00  0.000000D+00  0.000000D+00
     44   0.000000D+00  0.000000D+00  0.000000D+00  0.000000D+00  0.000000D+00
     45   0.000000D+00  0.000000D+00  0.000000D+00  0.000000D+00  0.000000D+00
     46   0.000000D+00  0.000000D+00  0.000000D+00  0.000000D+00  0.000000D+00
                31            32            33            34            35 
      1   0.000000D+00  0.000000D+00  0.000000D+00  0.000000D+00  0.000000D+00
      2   0.000000D+00  0.000000D+00  0.000000D+00  0.000000D+00  0.000000D+00
      3   0.000000D+00  0.000000D+00  0.000000D+00  0.000000D+00  0.000000D+00
      4   0.000000D+00  0.000000D+00  0.000000D+00  0.000000D+00  0.000000D+00
      5   0.000000D+00  0.000000D+00  0.000000D+00  0.000000D+00  0.000000D+00
      6   0.000000D+00  0.000000D+00  0.000000D+00  0.000000D+00  0.000000D+00
      7   0.000000D+00  0.000000D+00  0.000000D+00  0.000000D+00  0.000000D+00
      8   0.000000D+00  0.000000D+00  0.000000D+00  0.000000D+00  0.000000D+00
      9   0.000000D+00  0.000000D+00  0.000000D+00  0.000000D+00  0.000000D+00
     10   0.000000D+00  0.000000D+00  0.000000D+00  0.000000D+00  0.000000D+00
     11   0.000000D+00  0.000000D+00  0.000000D+00  0.000000D+00  0.000000D+00
     12   0.000000D+00  0.000000D+00  0.000000D+00  0.000000D+00  0.000000D+00
     13   0.000000D+00  0.000000D+00  0.000000D+00  0.000000D+00  0.000000D+00
     14   0.000000D+00  0.000000D+00  0.000000D+00  0.000000D+00  0.000000D+00
     15   0.000000D+00  0.156212D-01  0.592837D-02  0.000000D+00  0.000000D+00
     16   0.000000D+00  0.000000D+00  0.000000D+00  0.320840D-02  0.000000D+00
     17   0.452225D-02  0.000000D+00  0.000000D+00  0.000000D+00  0.320840D-02
     18   0.000000D+00 -0.256043D-01 -0.952279D-02  0.000000D+00  0.000000D+00
     19   0.000000D+00  0.586863D-01  0.111024D-01  0.000000D+00  0.000000D+00
     20   0.000000D+00  0.000000D+00  0.000000D+00 -0.141610D-01  0.000000D+00
     21  -0.304739D-01  0.000000D+00  0.000000D+00  0.000000D+00 -0.141610D-01
     22   0.000000D+00  0.000000D+00  0.000000D+00  0.000000D+00  0.000000D+00
     23   0.000000D+00  0.000000D+00  0.000000D+00  0.000000D+00  0.000000D+00
     24   0.000000D+00  0.000000D+00  0.000000D+00  0.000000D+00  0.000000D+00
     25   0.000000D+00  0.000000D+00  0.000000D+00  0.000000D+00  0.000000D+00
     26   0.000000D+00  0.000000D+00  0.000000D+00  0.000000D+00  0.000000D+00
     27   0.364086D+00  0.000000D+00  0.000000D+00  0.000000D+00  0.000000D+00
     28   0.000000D+00  0.364086D+00  0.000000D+00  0.000000D+00  0.000000D+00
     29   0.000000D+00  0.000000D+00  0.000000D+00  0.000000D+00  0.000000D+00
     30   0.000000D+00  0.000000D+00  0.000000D+00  0.000000D+00  0.000000D+00
     31   0.100000D+01  0.000000D+00  0.000000D+00  0.000000D+00  0.000000D+00
     32   0.000000D+00  0.100000D+01  0.000000D+00  0.000000D+00  0.000000D+00
     33   0.000000D+00  0.000000D+00  0.100000D+01  0.000000D+00  0.000000D+00
     34   0.000000D+00  0.000000D+00  0.000000D+00  0.100000D+01  0.000000D+00
     35   0.000000D+00  0.000000D+00  0.000000D+00  0.000000D+00  0.100000D+01
     36   0.000000D+00  0.000000D+00  0.000000D+00  0.000000D+00  0.000000D+00
     37   0.000000D+00  0.000000D+00  0.000000D+00  0.000000D+00  0.000000D+00
     38   0.000000D+00  0.000000D+00  0.000000D+00  0.000000D+00  0.000000D+00
     39   0.000000D+00  0.000000D+00  0.000000D+00  0.000000D+00  0.000000D+00
     40   0.209028D+00  0.000000D+00  0.000000D+00  0.000000D+00  0.000000D+00
     41   0.000000D+00  0.209028D+00  0.000000D+00  0.000000D+00  0.000000D+00
     42   0.000000D+00  0.000000D+00  0.473157D-01  0.000000D+00  0.000000D+00
     43   0.000000D+00  0.000000D+00  0.000000D+00  0.473157D-01  0.000000D+00
     44   0.000000D+00  0.000000D+00  0.000000D+00  0.000000D+00  0.473157D-01
     45   0.000000D+00  0.000000D+00  0.000000D+00  0.000000D+00  0.000000D+00
     46   0.000000D+00  0.000000D+00  0.000000D+00  0.000000D+00  0.000000D+00
                36            37            38            39            40 
      1   0.000000D+00  0.000000D+00  0.621316D-03  0.000000D+00  0.000000D+00
      2   0.000000D+00  0.000000D+00  0.384497D-02  0.000000D+00  0.000000D+00
      3   0.000000D+00  0.000000D+00  0.000000D+00  0.278475D-03  0.000000D+00
      4   0.000000D+00  0.000000D+00  0.000000D+00  0.000000D+00  0.278475D-03
      5   0.000000D+00  0.000000D+00 -0.996175D-03  0.000000D+00  0.000000D+00
      6   0.000000D+00  0.000000D+00  0.226069D-01  0.000000D+00  0.000000D+00
      7   0.000000D+00  0.000000D+00  0.000000D+00  0.452225D-02  0.000000D+00
      8   0.000000D+00  0.000000D+00  0.000000D+00  0.000000D+00  0.452225D-02
      9   0.000000D+00  0.000000D+00 -0.156212D-01  0.000000D+00  0.000000D+00
     10   0.000000D+00  0.000000D+00  0.592837D-02  0.000000D+00  0.000000D+00
     11   0.000000D+00  0.000000D+00  0.000000D+00 -0.320840D-02  0.000000D+00
     12   0.000000D+00  0.000000D+00  0.000000D+00  0.000000D+00 -0.320840D-02
     13   0.000000D+00  0.000000D+00  0.000000D+00  0.000000D+00  0.000000D+00
     14   0.000000D+00  0.000000D+00  0.000000D+00  0.000000D+00  0.000000D+00
     15   0.000000D+00  0.000000D+00  0.224208D+00  0.000000D+00  0.000000D+00
     16   0.000000D+00  0.000000D+00  0.000000D+00  0.113102D+00  0.000000D+00
     17   0.000000D+00  0.000000D+00  0.000000D+00  0.000000D+00  0.113102D+00
     18   0.000000D+00  0.000000D+00 -0.289086D+00  0.000000D+00  0.000000D+00
     19   0.000000D+00  0.000000D+00  0.402090D+00  0.000000D+00  0.000000D+00
     20   0.000000D+00  0.000000D+00  0.000000D+00 -0.337498D+00  0.000000D+00
     21   0.000000D+00  0.000000D+00  0.000000D+00  0.000000D+00 -0.337498D+00
     22   0.325648D-02  0.000000D+00  0.000000D+00  0.000000D+00  0.000000D+00
     23   0.000000D+00  0.325648D-02  0.000000D+00  0.000000D+00  0.000000D+00
     24   0.000000D+00  0.000000D+00 -0.386923D-03  0.000000D+00  0.000000D+00
     25   0.000000D+00  0.000000D+00  0.519359D-02  0.000000D+00  0.000000D+00
     26   0.000000D+00  0.000000D+00  0.000000D+00  0.135458D-01  0.000000D+00
     27   0.000000D+00  0.000000D+00  0.000000D+00  0.000000D+00  0.135458D-01
     28   0.000000D+00  0.000000D+00  0.000000D+00  0.000000D+00  0.000000D+00
     29   0.000000D+00  0.000000D+00  0.192427D+00  0.000000D+00  0.000000D+00
     30   0.000000D+00  0.000000D+00  0.000000D+00  0.209028D+00  0.000000D+00
     31   0.000000D+00  0.000000D+00  0.000000D+00  0.000000D+00  0.209028D+00
     32   0.000000D+00  0.000000D+00  0.000000D+00  0.000000D+00  0.000000D+00
     33   0.000000D+00  0.000000D+00  0.000000D+00  0.000000D+00  0.000000D+00
     34   0.000000D+00  0.000000D+00  0.000000D+00  0.000000D+00  0.000000D+00
     35   0.000000D+00  0.000000D+00  0.000000D+00  0.000000D+00  0.000000D+00
     36   0.100000D+01  0.000000D+00  0.000000D+00  0.000000D+00  0.000000D+00
     37   0.000000D+00  0.100000D+01  0.000000D+00  0.000000D+00  0.000000D+00
     38   0.000000D+00  0.000000D+00  0.100000D+01  0.000000D+00  0.000000D+00
     39   0.000000D+00  0.000000D+00  0.000000D+00  0.100000D+01  0.000000D+00
     40   0.000000D+00  0.000000D+00  0.000000D+00  0.000000D+00  0.100000D+01
     41   0.000000D+00  0.000000D+00  0.000000D+00  0.000000D+00  0.000000D+00
     42   0.000000D+00  0.000000D+00  0.000000D+00  0.000000D+00  0.000000D+00
     43   0.000000D+00  0.000000D+00  0.000000D+00  0.000000D+00  0.000000D+00
     44   0.000000D+00  0.000000D+00  0.000000D+00  0.000000D+00  0.000000D+00
     45   0.473157D-01  0.000000D+00  0.000000D+00  0.000000D+00  0.000000D+00
     46   0.000000D+00  0.473157D-01  0.000000D+00  0.000000D+00  0.000000D+00
                41            42            43            44            45 
      1   0.114685D-02  0.513214D-02  0.000000D+00  0.000000D+00  0.000000D+00
      2   0.705860D-02  0.310219D-01  0.000000D+00  0.000000D+00  0.000000D+00
      3   0.000000D+00  0.000000D+00  0.212344D-02  0.000000D+00  0.000000D+00
      4   0.000000D+00  0.000000D+00  0.000000D+00  0.212344D-02  0.000000D+00
      5  -0.165429D-02 -0.447085D-02  0.000000D+00  0.000000D+00  0.000000D+00
      6   0.400246D-01  0.152183D+00  0.000000D+00  0.000000D+00  0.000000D+00
      7   0.000000D+00  0.000000D+00  0.304739D-01  0.000000D+00  0.000000D+00
      8   0.000000D+00  0.000000D+00  0.000000D+00  0.304739D-01  0.000000D+00
      9  -0.256043D-01 -0.586863D-01  0.000000D+00  0.000000D+00  0.000000D+00
     10   0.952279D-02  0.111024D-01  0.000000D+00  0.000000D+00  0.000000D+00
     11   0.000000D+00  0.000000D+00 -0.141610D-01  0.000000D+00  0.000000D+00
     12   0.000000D+00  0.000000D+00  0.000000D+00 -0.141610D-01  0.000000D+00
     13   0.000000D+00  0.000000D+00  0.000000D+00  0.000000D+00  0.325648D-02
     14   0.000000D+00  0.000000D+00  0.000000D+00  0.000000D+00  0.000000D+00
     15   0.289086D+00  0.402090D+00  0.000000D+00  0.000000D+00  0.000000D+00
     16   0.000000D+00  0.000000D+00  0.337498D+00  0.000000D+00  0.000000D+00
     17   0.000000D+00  0.000000D+00  0.000000D+00  0.337498D+00  0.000000D+00
     18  -0.349435D+00 -0.278141D+00  0.000000D+00  0.000000D+00  0.000000D+00
     19   0.278141D+00 -0.225190D-01  0.000000D+00  0.000000D+00  0.000000D+00
     20   0.000000D+00  0.000000D+00 -0.444907D+00  0.000000D+00  0.000000D+00
     21   0.000000D+00  0.000000D+00  0.000000D+00 -0.444907D+00  0.000000D+00
     22   0.000000D+00  0.000000D+00  0.000000D+00  0.000000D+00  0.240730D+00
     23   0.000000D+00  0.000000D+00  0.000000D+00  0.000000D+00  0.000000D+00
     24   0.000000D+00  0.000000D+00  0.000000D+00  0.000000D+00  0.000000D+00
     25   0.000000D+00  0.000000D+00  0.000000D+00  0.000000D+00  0.000000D+00
     26   0.000000D+00  0.000000D+00  0.000000D+00  0.000000D+00  0.000000D+00
     27   0.000000D+00  0.000000D+00  0.000000D+00  0.000000D+00  0.000000D+00
     28   0.135458D-01  0.000000D+00  0.000000D+00  0.000000D+00  0.000000D+00
     29   0.000000D+00  0.000000D+00  0.000000D+00  0.000000D+00  0.000000D+00
     30   0.000000D+00  0.000000D+00  0.000000D+00  0.000000D+00  0.000000D+00
     31   0.000000D+00  0.000000D+00  0.000000D+00  0.000000D+00  0.000000D+00
     32   0.209028D+00  0.000000D+00  0.000000D+00  0.000000D+00  0.000000D+00
     33   0.000000D+00  0.473157D-01  0.000000D+00  0.000000D+00  0.000000D+00
     34   0.000000D+00  0.000000D+00  0.473157D-01  0.000000D+00  0.000000D+00
     35   0.000000D+00  0.000000D+00  0.000000D+00  0.473157D-01  0.000000D+00
     36   0.000000D+00  0.000000D+00  0.000000D+00  0.000000D+00  0.473157D-01
     37   0.000000D+00  0.000000D+00  0.000000D+00  0.000000D+00  0.000000D+00
     38   0.000000D+00  0.000000D+00  0.000000D+00  0.000000D+00  0.000000D+00
     39   0.000000D+00  0.000000D+00  0.000000D+00  0.000000D+00  0.000000D+00
     40   0.000000D+00  0.000000D+00  0.000000D+00  0.000000D+00  0.000000D+00
     41   0.100000D+01  0.000000D+00  0.000000D+00  0.000000D+00  0.000000D+00
     42   0.000000D+00  0.100000D+01  0.000000D+00  0.000000D+00  0.000000D+00
     43   0.000000D+00  0.000000D+00  0.100000D+01  0.000000D+00  0.000000D+00
     44   0.000000D+00  0.000000D+00  0.000000D+00  0.100000D+01  0.000000D+00
     45   0.000000D+00  0.000000D+00  0.000000D+00  0.000000D+00  0.100000D+01
     46   0.000000D+00  0.000000D+00  0.000000D+00  0.000000D+00  0.000000D+00
                46 
      1   0.000000D+00
      2   0.000000D+00
      3   0.000000D+00
      4   0.000000D+00
      5   0.000000D+00
      6   0.000000D+00
      7   0.000000D+00
      8   0.000000D+00
      9   0.000000D+00
     10   0.000000D+00
     11   0.000000D+00
     12   0.000000D+00
     13   0.000000D+00
     14   0.325648D-02
     15   0.000000D+00
     16   0.000000D+00
     17   0.000000D+00
     18   0.000000D+00
     19   0.000000D+00
     20   0.000000D+00
     21   0.000000D+00
     22   0.000000D+00
     23   0.240730D+00
     24   0.000000D+00
     25   0.000000D+00
     26   0.000000D+00
     27   0.000000D+00
     28   0.000000D+00
     29   0.000000D+00
     30   0.000000D+00
     31   0.000000D+00
     32   0.000000D+00
     33   0.000000D+00
     34   0.000000D+00
     35   0.000000D+00
     36   0.000000D+00
     37   0.473157D-01
     38   0.000000D+00
     39   0.000000D+00
     40   0.000000D+00
     41   0.000000D+00
     42   0.000000D+00
     43   0.000000D+00
     44   0.000000D+00
     45   0.000000D+00
     46   0.100000D+01
 Entering OneElI...
 Overlap between basis sets.
 Requested accuracy = 0.1000D-12
 PrsmSu:  NPrtUS=   1 ThrOK=F IAlg=1
 PRISM was handed  1609763346 working-precision words and   830 shell-pairs
 IPart=  0 NShTot=         830 NBatch=          81 AvBLen=        10.2
 CnvPC2: ToCart=F DoDens=F IPureD=0 IPureF=0.
 Transformed matrix in CnvPC2: 
                 1             2             3             4             5 
      1   0.999795D+00  0.413047D+00  0.000000D+00  0.000000D+00  0.000000D+00
      2   0.290578D+00  0.988353D+00  0.000000D+00  0.000000D+00  0.000000D+00
      3   0.000000D+00  0.000000D+00 -0.999255D+00  0.000000D+00  0.000000D+00
      4   0.000000D+00  0.000000D+00  0.000000D+00 -0.999255D+00  0.000000D+00
      5   0.000000D+00  0.000000D+00  0.000000D+00  0.000000D+00 -0.999255D+00
      6   0.137359D-01  0.328551D+00  0.000000D+00  0.000000D+00  0.000000D+00
      7   0.000000D+00  0.000000D+00  0.354113D+00  0.000000D+00  0.000000D+00
      8   0.000000D+00  0.000000D+00  0.000000D+00  0.354113D+00  0.000000D+00
      9   0.000000D+00  0.000000D+00  0.000000D+00  0.000000D+00  0.354113D+00
     10   0.000000D+00  0.000000D+00  0.000000D+00  0.000000D+00  0.000000D+00
     11   0.000000D+00  0.000000D+00  0.000000D+00  0.000000D+00  0.000000D+00
     12   0.000000D+00  0.000000D+00  0.000000D+00  0.000000D+00  0.000000D+00
     13   0.000000D+00  0.000000D+00  0.000000D+00  0.000000D+00  0.000000D+00
     14   0.000000D+00  0.000000D+00  0.000000D+00  0.000000D+00  0.000000D+00
     15   0.433038D-03  0.180441D-01  0.000000D+00  0.000000D+00  0.000000D+00
     16   0.467598D-02  0.283369D-01  0.000000D+00  0.000000D+00  0.000000D+00
     17   0.000000D+00  0.000000D+00  0.100748D-01  0.000000D+00  0.000000D+00
     18   0.000000D+00  0.000000D+00  0.000000D+00  0.100748D-01  0.000000D+00
     19   0.000000D+00  0.000000D+00  0.000000D+00  0.000000D+00  0.100748D-01
     20   0.000000D+00  0.000000D+00  0.122666D-02  0.000000D+00  0.000000D+00
     21   0.000000D+00  0.000000D+00  0.000000D+00  0.122666D-02  0.000000D+00
     22   0.000000D+00  0.000000D+00  0.000000D+00  0.000000D+00  0.122666D-02
     23   0.125978D+00  0.606131D+00  0.000000D+00  0.000000D+00  0.000000D+00
     24   0.784633D-01  0.419345D+00  0.000000D+00  0.000000D+00  0.000000D+00
     25   0.485217D-01  0.275243D+00  0.000000D+00  0.000000D+00  0.000000D+00
     26   0.298923D-01  0.175173D+00  0.000000D+00  0.000000D+00  0.000000D+00
     27   0.183788D-01  0.109592D+00  0.000000D+00  0.000000D+00  0.000000D+00
     28   0.000000D+00  0.000000D+00  0.177762D+00  0.000000D+00  0.000000D+00
     29   0.000000D+00  0.000000D+00  0.000000D+00  0.177762D+00  0.000000D+00
     30   0.000000D+00  0.000000D+00  0.000000D+00  0.000000D+00  0.177762D+00
     31   0.000000D+00  0.000000D+00  0.909688D-01  0.000000D+00  0.000000D+00
     32   0.000000D+00  0.000000D+00  0.000000D+00  0.909688D-01  0.000000D+00
     33   0.000000D+00  0.000000D+00  0.000000D+00  0.000000D+00  0.909688D-01
     34   0.000000D+00  0.000000D+00  0.445486D-01  0.000000D+00  0.000000D+00
     35   0.000000D+00  0.000000D+00  0.000000D+00  0.445486D-01  0.000000D+00
     36   0.000000D+00  0.000000D+00  0.000000D+00  0.000000D+00  0.445486D-01
     37   0.000000D+00  0.000000D+00  0.212641D-01  0.000000D+00  0.000000D+00
     38   0.000000D+00  0.000000D+00  0.000000D+00  0.212641D-01  0.000000D+00
     39   0.000000D+00  0.000000D+00  0.000000D+00  0.000000D+00  0.212641D-01
     40   0.000000D+00  0.000000D+00  0.100044D-01  0.000000D+00  0.000000D+00
     41   0.000000D+00  0.000000D+00  0.000000D+00  0.100044D-01  0.000000D+00
     42   0.000000D+00  0.000000D+00  0.000000D+00  0.000000D+00  0.100044D-01
     43   0.000000D+00  0.000000D+00  0.000000D+00  0.000000D+00  0.000000D+00
     44   0.000000D+00  0.000000D+00  0.000000D+00  0.000000D+00  0.000000D+00
     45   0.000000D+00  0.000000D+00  0.000000D+00  0.000000D+00  0.000000D+00
     46   0.000000D+00  0.000000D+00  0.000000D+00  0.000000D+00  0.000000D+00
     47   0.000000D+00  0.000000D+00  0.000000D+00  0.000000D+00  0.000000D+00
     48   0.000000D+00  0.000000D+00  0.000000D+00  0.000000D+00  0.000000D+00
     49   0.000000D+00  0.000000D+00  0.000000D+00  0.000000D+00  0.000000D+00
     50   0.000000D+00  0.000000D+00  0.000000D+00  0.000000D+00  0.000000D+00
     51   0.000000D+00  0.000000D+00  0.000000D+00  0.000000D+00  0.000000D+00
     52   0.000000D+00  0.000000D+00  0.000000D+00  0.000000D+00  0.000000D+00
     53   0.000000D+00  0.000000D+00  0.000000D+00  0.000000D+00  0.000000D+00
     54   0.000000D+00  0.000000D+00  0.000000D+00  0.000000D+00  0.000000D+00
     55   0.000000D+00  0.000000D+00  0.000000D+00  0.000000D+00  0.000000D+00
     56   0.000000D+00  0.000000D+00  0.000000D+00  0.000000D+00  0.000000D+00
     57   0.000000D+00  0.000000D+00  0.000000D+00  0.000000D+00  0.000000D+00
     58   0.000000D+00  0.000000D+00  0.000000D+00  0.000000D+00  0.000000D+00
     59   0.000000D+00  0.000000D+00  0.000000D+00  0.000000D+00  0.000000D+00
     60   0.000000D+00  0.000000D+00  0.000000D+00  0.000000D+00  0.000000D+00
     61   0.000000D+00  0.000000D+00  0.000000D+00  0.000000D+00  0.000000D+00
     62   0.000000D+00  0.000000D+00  0.000000D+00  0.000000D+00  0.000000D+00
     63   0.000000D+00  0.000000D+00  0.000000D+00  0.000000D+00  0.000000D+00
     64   0.000000D+00  0.000000D+00  0.000000D+00  0.000000D+00  0.000000D+00
     65   0.000000D+00  0.000000D+00  0.000000D+00  0.000000D+00  0.000000D+00
     66   0.000000D+00  0.000000D+00  0.000000D+00  0.000000D+00  0.000000D+00
     67   0.000000D+00  0.000000D+00  0.000000D+00  0.000000D+00  0.000000D+00
     68   0.000000D+00  0.000000D+00  0.000000D+00  0.000000D+00  0.000000D+00
     69   0.000000D+00  0.000000D+00  0.000000D+00  0.000000D+00  0.000000D+00
     70   0.000000D+00  0.000000D+00  0.000000D+00  0.000000D+00  0.000000D+00
     71   0.000000D+00  0.000000D+00  0.000000D+00  0.000000D+00  0.000000D+00
     72   0.000000D+00  0.000000D+00  0.000000D+00  0.000000D+00  0.000000D+00
     73   0.000000D+00  0.000000D+00  0.000000D+00  0.000000D+00  0.000000D+00
     74   0.000000D+00  0.000000D+00  0.000000D+00  0.000000D+00  0.000000D+00
     75   0.000000D+00  0.000000D+00  0.000000D+00  0.000000D+00  0.000000D+00
     76   0.000000D+00  0.000000D+00  0.000000D+00  0.000000D+00  0.000000D+00
     77   0.000000D+00  0.000000D+00  0.000000D+00  0.000000D+00  0.000000D+00
     78   0.000000D+00  0.000000D+00  0.000000D+00  0.000000D+00  0.000000D+00
     79   0.000000D+00  0.000000D+00  0.000000D+00  0.000000D+00  0.000000D+00
     80   0.000000D+00  0.000000D+00  0.000000D+00  0.000000D+00  0.000000D+00
     81   0.000000D+00  0.000000D+00  0.000000D+00  0.000000D+00  0.000000D+00
     82   0.000000D+00  0.000000D+00  0.000000D+00  0.000000D+00  0.000000D+00
     83   0.000000D+00  0.000000D+00  0.000000D+00  0.000000D+00  0.000000D+00
     84   0.000000D+00  0.000000D+00  0.000000D+00  0.000000D+00  0.000000D+00
     85   0.000000D+00  0.000000D+00  0.000000D+00  0.000000D+00  0.000000D+00
     86   0.000000D+00  0.000000D+00  0.000000D+00  0.000000D+00  0.000000D+00
     87   0.000000D+00  0.000000D+00  0.000000D+00  0.000000D+00  0.000000D+00
     88   0.000000D+00  0.000000D+00  0.000000D+00  0.000000D+00  0.000000D+00
     89   0.000000D+00  0.000000D+00  0.000000D+00  0.000000D+00  0.000000D+00
     90   0.000000D+00  0.000000D+00  0.000000D+00  0.000000D+00  0.000000D+00
     91   0.000000D+00  0.000000D+00  0.000000D+00  0.000000D+00  0.000000D+00
     92   0.000000D+00  0.000000D+00  0.000000D+00  0.000000D+00  0.000000D+00
     93   0.000000D+00  0.000000D+00  0.000000D+00  0.000000D+00  0.000000D+00
     94   0.000000D+00  0.000000D+00  0.000000D+00  0.000000D+00  0.000000D+00
     95   0.000000D+00  0.000000D+00  0.000000D+00  0.000000D+00  0.000000D+00
     96   0.000000D+00  0.000000D+00  0.000000D+00  0.000000D+00  0.000000D+00
     97   0.000000D+00  0.000000D+00  0.000000D+00  0.000000D+00  0.000000D+00
     98   0.000000D+00  0.000000D+00  0.000000D+00  0.000000D+00  0.000000D+00
     99   0.000000D+00  0.000000D+00  0.000000D+00  0.000000D+00  0.000000D+00
    100   0.000000D+00  0.000000D+00  0.000000D+00  0.000000D+00  0.000000D+00
    101   0.000000D+00  0.000000D+00  0.000000D+00  0.000000D+00  0.000000D+00
    102   0.000000D+00  0.000000D+00  0.000000D+00  0.000000D+00  0.000000D+00
    103   0.000000D+00  0.000000D+00  0.000000D+00  0.000000D+00  0.000000D+00
    104   0.000000D+00  0.000000D+00  0.000000D+00  0.000000D+00  0.000000D+00
    105   0.000000D+00  0.000000D+00  0.000000D+00  0.000000D+00  0.000000D+00
    106   0.000000D+00  0.000000D+00  0.000000D+00  0.000000D+00  0.000000D+00
    107   0.000000D+00  0.000000D+00  0.000000D+00  0.000000D+00  0.000000D+00
    108   0.000000D+00  0.000000D+00  0.000000D+00  0.000000D+00  0.000000D+00
    109   0.000000D+00  0.000000D+00  0.000000D+00  0.000000D+00  0.000000D+00
    110   0.000000D+00  0.000000D+00  0.000000D+00  0.000000D+00  0.000000D+00
    111   0.000000D+00  0.000000D+00  0.000000D+00  0.000000D+00  0.000000D+00
    112   0.000000D+00  0.000000D+00  0.000000D+00  0.000000D+00  0.000000D+00
    113   0.000000D+00  0.000000D+00  0.000000D+00  0.000000D+00  0.000000D+00
    114   0.000000D+00  0.000000D+00  0.000000D+00  0.000000D+00  0.000000D+00
    115   0.000000D+00  0.000000D+00  0.000000D+00  0.000000D+00  0.000000D+00
    116   0.000000D+00  0.000000D+00  0.000000D+00  0.000000D+00  0.000000D+00
    117   0.000000D+00  0.000000D+00  0.000000D+00  0.000000D+00  0.000000D+00
    118   0.000000D+00  0.000000D+00  0.000000D+00  0.000000D+00  0.000000D+00
    119   0.000000D+00  0.000000D+00  0.000000D+00  0.000000D+00  0.000000D+00
    120   0.000000D+00  0.000000D+00  0.000000D+00  0.000000D+00  0.000000D+00
    121   0.000000D+00  0.000000D+00  0.000000D+00  0.000000D+00  0.000000D+00
    122   0.000000D+00  0.000000D+00  0.000000D+00  0.000000D+00  0.000000D+00
    123   0.000000D+00  0.000000D+00  0.000000D+00  0.000000D+00  0.000000D+00
    124   0.000000D+00  0.000000D+00  0.000000D+00  0.000000D+00  0.000000D+00
    125   0.000000D+00  0.000000D+00  0.000000D+00  0.000000D+00  0.000000D+00
    126   0.000000D+00  0.000000D+00  0.000000D+00  0.000000D+00  0.000000D+00
    127   0.000000D+00  0.000000D+00  0.000000D+00  0.000000D+00  0.000000D+00
    128   0.000000D+00  0.000000D+00  0.000000D+00  0.000000D+00  0.000000D+00
    129   0.000000D+00  0.000000D+00  0.000000D+00  0.000000D+00  0.000000D+00
    130   0.000000D+00  0.000000D+00  0.000000D+00  0.000000D+00  0.000000D+00
    131   0.000000D+00  0.000000D+00  0.000000D+00  0.000000D+00  0.000000D+00
    132   0.000000D+00  0.000000D+00  0.000000D+00  0.000000D+00  0.000000D+00
    133   0.000000D+00  0.000000D+00  0.000000D+00  0.000000D+00  0.000000D+00
    134   0.000000D+00  0.000000D+00  0.000000D+00  0.000000D+00  0.000000D+00
    135   0.000000D+00  0.000000D+00  0.000000D+00  0.000000D+00  0.000000D+00
    136   0.000000D+00  0.000000D+00  0.000000D+00  0.000000D+00  0.000000D+00
    137   0.000000D+00  0.000000D+00  0.000000D+00  0.000000D+00  0.000000D+00
    138   0.000000D+00  0.000000D+00  0.000000D+00  0.000000D+00  0.000000D+00
    139   0.000000D+00  0.000000D+00  0.000000D+00  0.000000D+00  0.000000D+00
    140   0.000000D+00  0.000000D+00  0.000000D+00  0.000000D+00  0.000000D+00
    141   0.000000D+00  0.000000D+00  0.000000D+00  0.000000D+00  0.000000D+00
    142   0.000000D+00  0.000000D+00  0.000000D+00  0.000000D+00  0.000000D+00
    143   0.000000D+00  0.000000D+00  0.000000D+00  0.000000D+00  0.000000D+00
    144   0.000000D+00  0.000000D+00  0.000000D+00  0.000000D+00  0.000000D+00
    145   0.000000D+00  0.000000D+00  0.000000D+00  0.000000D+00  0.000000D+00
    146   0.000000D+00  0.000000D+00  0.000000D+00  0.000000D+00  0.000000D+00
    147   0.000000D+00  0.000000D+00  0.000000D+00  0.000000D+00  0.000000D+00
    148   0.000000D+00  0.000000D+00  0.000000D+00  0.000000D+00  0.000000D+00
    149   0.000000D+00  0.000000D+00  0.000000D+00  0.000000D+00  0.000000D+00
    150   0.000000D+00  0.000000D+00  0.000000D+00  0.000000D+00  0.000000D+00
    151   0.000000D+00  0.000000D+00  0.000000D+00  0.000000D+00  0.000000D+00
    152   0.000000D+00  0.000000D+00  0.000000D+00  0.000000D+00  0.000000D+00
    153   0.000000D+00  0.000000D+00  0.000000D+00  0.000000D+00  0.000000D+00
    154   0.000000D+00  0.000000D+00  0.000000D+00  0.000000D+00  0.000000D+00
    155   0.000000D+00  0.000000D+00  0.000000D+00  0.000000D+00  0.000000D+00
    156   0.000000D+00  0.000000D+00  0.000000D+00  0.000000D+00  0.000000D+00
    157   0.000000D+00  0.000000D+00  0.000000D+00  0.000000D+00  0.000000D+00
    158   0.000000D+00  0.000000D+00  0.000000D+00  0.000000D+00  0.000000D+00
    159   0.000000D+00  0.000000D+00  0.000000D+00  0.000000D+00  0.000000D+00
    160   0.000000D+00  0.000000D+00  0.000000D+00  0.000000D+00  0.000000D+00
    161   0.000000D+00  0.000000D+00  0.000000D+00  0.000000D+00  0.000000D+00
    162   0.000000D+00  0.000000D+00  0.000000D+00  0.000000D+00  0.000000D+00
    163   0.000000D+00  0.495365D-05  0.000000D+00  0.000000D+00 -0.152844D-05
    164   0.000000D+00  0.000000D+00  0.000000D+00  0.000000D+00  0.000000D+00
    165   0.000000D+00  0.000000D+00  0.000000D+00  0.000000D+00  0.000000D+00
    166   0.000000D+00  0.635660D-05  0.000000D+00  0.000000D+00 -0.246678D-05
    167   0.156154D-04  0.987545D-04  0.000000D+00  0.000000D+00 -0.324573D-04
    168   0.000000D+00  0.000000D+00  0.673100D-05  0.000000D+00  0.000000D+00
    169   0.000000D+00  0.000000D+00  0.000000D+00  0.673100D-05  0.000000D+00
    170   0.000000D+00  0.000000D+00  0.000000D+00  0.000000D+00  0.000000D+00
    171   0.000000D+00  0.000000D+00  0.000000D+00  0.000000D+00  0.000000D+00
    172   0.606416D-03  0.372738D-02  0.000000D+00  0.000000D+00 -0.728140D-03
    173   0.233407D-02  0.141651D-01  0.000000D+00  0.000000D+00 -0.776163D-03
    174   0.000000D+00  0.000000D+00  0.507383D-03  0.000000D+00  0.000000D+00
    175   0.000000D+00  0.000000D+00  0.000000D+00  0.507383D-03  0.000000D+00
    176   0.210788D-02  0.128491D-01  0.000000D+00  0.000000D+00 -0.183205D-02
    177   0.000000D+00  0.000000D+00  0.746845D-03  0.000000D+00  0.000000D+00
[...]
         |
   32    | -0.003866 -0.003936 -0.003884 -0.012127 -0.000037 -0.001165
   32    | -0.004876 -0.004884 -0.004878  0.000000 -0.000043  0.000000
         |
   33    | -0.003866 -0.003936 -0.003884 -0.000068 -0.012127 -0.001165
   33    | -0.004876 -0.004884 -0.004878 -0.000068  0.000000  0.000000
         |
   34    | -0.005824 -0.009669 -0.006774 -0.006416 -0.006416  0.000000
   34    |  0.000000  0.000000  0.000000  0.000000  0.000000  0.000000
         |
   35    | -0.008382 -0.006259 -0.007672 -0.006416 -0.006416  0.000000
   35    |  0.000000  0.000000  0.000000  0.000000  0.000000  0.000000
         |

 AB - AA |     35
 BA - BB |     35
--------------------
   29    | -0.002442
   29    |  0.000000
         |
   30    | -0.003078
   30    |  0.000000
         |
   31    | -0.002648
   31    |  0.000000
         |
   32    | -0.001165
   32    |  0.000000
         |
   33    | -0.001165
   33    |  0.000000
         |
   34    | -0.003733
   34    |  0.000000
         |
   35    |  0.000000
   35    |  0.000000
         |

                     Delta Factors
                     -------------

 AB - AA |     29        30        31        32        33        34
 BA - BB |     29        30        31        32        33        34
----------------------------------------------------------------------
   29    |  1.893976  1.578899  1.553844  3.571873  3.571873  1.478484
   29    |  0.000000  0.471719  0.522120  2.186102  2.186102  0.000000
         |
   30    |  1.954847  2.338983  1.587168  3.743359  3.743359  2.260619
   30    |  1.515176  0.000000  0.455667  2.111701  2.111701  0.000000
         |
   31    |  1.667617  1.607394  1.986451  3.613510  3.613510  1.766205
   31    |  1.564618  1.947490  0.000000  2.166815  2.166815  0.000000
         |
   32    |  2.383157  2.391269  2.384151  2.435912  3.581869  3.717094
   32    |  1.758702  1.806280  1.769875  0.000000  3.217192  0.000000
         |
   33    |  2.383157  2.391269  2.384151  2.171581  2.435912  3.717094
   33    |  1.758702  1.806280  1.769875  2.171581  0.000000  0.000000
         |
   34    |  1.501470  1.924064  1.566448  1.458517  1.458517  0.000000
   34    |  0.000000  0.000000  0.000000  0.000000  0.000000  0.000000
         |
   35    |  1.787281  1.488171  1.664250  1.458517  1.458517  0.000000
   35    |  0.000000  0.000000  0.000000  0.000000  0.000000  0.000000
         |

 AB - AA |     35
 BA - BB |     35
--------------------
   29    |  1.978688
   29    |  0.000000
         |
   30    |  1.679089
   30    |  0.000000
         |
   31    |  1.933110
   31    |  0.000000
         |
   32    |  3.717094
   32    |  0.000000
         |
   33    |  3.717094
   33    |  0.000000
         |
   34    |  1.431335
   34    |  0.000000
         |
   35    |  0.000000
   35    |  0.000000
         |

                   MP2(CBS) Pair Energies
                   ----------------------

 AB - AA |     29        30        31        32        33        34
 BA - BB |     29        30        31        32        33        34
----------------------------------------------------------------------
   29    | -0.016872 -0.003453 -0.003507 -0.001273 -0.001273 -0.003554
   29    |  0.000000 -0.008793 -0.008309 -0.002324 -0.002324  0.000000
         |
   30    | -0.006638 -0.014624 -0.003434 -0.001204 -0.001204 -0.001811
   30    | -0.007799  0.000000 -0.008956 -0.002432 -0.002432  0.000000
         |
   31    | -0.007277 -0.007528 -0.016350 -0.001256 -0.001256 -0.003072
   31    | -0.007569 -0.006660  0.000000 -0.002351 -0.002351  0.000000
         |
   32    | -0.004555 -0.004638 -0.004576 -0.014211 -0.000039 -0.001250
   32    | -0.005584 -0.005605 -0.005589  0.000000 -0.000045  0.000000
         |
   33    | -0.004555 -0.004638 -0.004576 -0.000079 -0.014211 -0.001250
   33    | -0.005584 -0.005605 -0.005589 -0.000079  0.000000  0.000000
         |
   34    | -0.006294 -0.011157 -0.007689 -0.007246 -0.007246  0.000000
   34    |  0.000000  0.000000  0.000000  0.000000  0.000000  0.000000
         |
   35    | -0.009611 -0.006778 -0.008748 -0.007246 -0.007246  0.000000
   35    |  0.000000  0.000000  0.000000  0.000000  0.000000  0.000000
         |

 AB - AA |     35
 BA - BB |     35
--------------------
   29    | -0.002532
   29    |  0.000000
         |
   30    | -0.003176
   30    |  0.000000
         |
   31    | -0.002744
   31    |  0.000000
         |
   32    | -0.001250
   32    |  0.000000
         |
   33    | -0.001250
   33    |  0.000000
         |
   34    | -0.003809
   34    |  0.000000
         |
   35    |  0.000000
   35    |  0.000000
         |

                     Sum of ab pair energies =    -0.204590 A.U.
                     Sum of ba pair energies =    -0.055662 A.U.
                     Sum of aa pair energies =    -0.043597 A.U.
                     Sum of bb pair energies =    -0.040317 A.U.

           Sum of intraorbital pair energies =    -0.076267 A.U.
           Sum of interorbital pair energies =    -0.267899 A.U.
                                                  ----------
                         Total pair energies =    -0.344166 A.U.

                         Single Excitations  =    -0.006796 A.U.

                          Total second order =    -0.350962 A.U.



            MP2(CBS) (With Interference Correction) 
            ---------------------------------------

 AB - AA |     29        30        31        32        33        34
 BA - BB |     29        30        31        32        33        34
----------------------------------------------------------------------
   29    | -0.016338 -0.003445 -0.003500 -0.001265 -0.001265 -0.003550
   29    |  0.000000 -0.008781 -0.008297 -0.002311 -0.002311  0.000000
         |
   30    | -0.006507 -0.014140 -0.003427 -0.001196 -0.001196 -0.001802
   30    | -0.007655  0.000000 -0.008943 -0.002419 -0.002419  0.000000
         |
   31    | -0.007140 -0.007388 -0.015825 -0.001248 -0.001248 -0.003065
   31    | -0.007429 -0.006529  0.000000 -0.002338 -0.002338  0.000000
         |
   32    | -0.004474 -0.004555 -0.004494 -0.013829 -0.000039 -0.001241
   32    | -0.005490 -0.005509 -0.005495  0.000000 -0.000045  0.000000
         |
   33    | -0.004474 -0.004555 -0.004494 -0.000079 -0.013829 -0.001241
   33    | -0.005490 -0.005509 -0.005495 -0.000079  0.000000  0.000000
         |
   34    | -0.006217 -0.010917 -0.007565 -0.007122 -0.007122  0.000000
   34    |  0.000000  0.000000  0.000000  0.000000  0.000000  0.000000
         |
   35    | -0.009424 -0.006693 -0.008590 -0.007122 -0.007122  0.000000
   35    |  0.000000  0.000000  0.000000  0.000000  0.000000  0.000000
         |

 AB - AA |     35
 BA - BB |     35
--------------------
   29    | -0.002522
   29    |  0.000000
         |
   30    | -0.003171
   30    |  0.000000
         |
   31    | -0.002735
   31    |  0.000000
         |
   32    | -0.001241
   32    |  0.000000
         |
   33    | -0.001241
   33    |  0.000000
         |
   34    | -0.003804
   34    |  0.000000
         |
   35    |  0.000000
   35    |  0.000000
         |

                     Sum of ab pair energies =    -0.200018 A.U.
                     Sum of ba pair energies =    -0.054678 A.U.
                     Sum of aa pair energies =    -0.043441 A.U.
                     Sum of bb pair energies =    -0.040203 A.U.

           Sum of intraorbital pair energies =    -0.073962 A.U.
           Sum of interorbital pair energies =    -0.264378 A.U.
                                                  ----------
                         Total pair energies =    -0.338340 A.U.

                         Single Excitations  =    -0.006796 A.U.

                          Total second order =    -0.345136 A.U.

                         E2(CBS) - E2(Dir) =      -0.012393 A.U.

 E2(CBS)=      -0.350962 CBS-Int=       0.005826 OIii=       1.873700

 **********************************************************************

            Population analysis using the SCF density.

 **********************************************************************

 Orbital symmetries:
       Occupied  (SGG) (SGU) (SGG) (SGU) (SGG) (SGU) (PIG) (PIG)
                 (PIU) (PIU) (SGG) (SGU) (SGG) (SGU) (PIU) (PIU)
                 (PIG) (PIG) (SGG) (PIU) (PIU) (PIG) (PIG) (SGU)
                 (DLTG) (DLTG) (DLTU) (DLTU) (SGG) (SGU) (SGG)
                 (PIU) (PIU) (PIG) (PIG)
       Virtual   (SGU) (SGG) (PIU) (PIU) (SGG) (PIG) (PIG) (SGU)
                 (SGU) (DLTG) (DLTG) (SGG) (PIU) (PIU) (PIU) (PIU)
                 (PIG) (PIG) (SGU) (DLTU) (DLTU) (SGG) (PIG) (PIG)
                 (SGU) (SGG) (PIU) (PIU) (SGG) (DLTG) (DLTG) (PHIU)
                 (PHIU) (SGU) (DLTG) (DLTG) (DLTU) (DLTU) (PHIG)
                 (PHIG) (PIG) (PIG) (PIU) (PIU) (SGU) (SGG) (PIG)
                 (PIG) (PIU) (PIU) (DLTU) (DLTU) (SGU) (SGG) (PHIU)
                 (PHIU) (PIG) (PIG) (?A) (?A) (SGG) (?B) (?B) (DLTG)
                 (DLTG) (SGU) (PIU) (PIU) (PHIG) (PHIG) (SGG) (PIG)
                 (PIG) (SGU) (DLTU) (DLTU) (PHIU) (PHIU) (DLTG)
                 (DLTG) (SGU) (DLTG) (DLTG) (PHIG) (PHIG) (PIU)
                 (PIU) (DLTU) (DLTU) (SGG) (DLTU) (DLTU) (PIU)
                 (PIU) (PIG) (PIG) (SGU) (PIU) (PIU) (SGG) (PIG)
                 (PIG) (SGU) (SGG) (PIG) (PIG) (PHIU) (PHIU) (?A)
                 (?A) (DLTG) (DLTG) (?C) (?C) (?D) (?D) (PIU) (PIU)
                 (?B) (?B) (?A) (?A) (PHIU) (PHIU) (?B) (?B) (SGG)
                 (SGU) (PHIG) (PHIG) (DLTG) (DLTG) (DLTU) (DLTU)
                 (PHIG) (PHIG) (PIG) (PIG) (SGG) (SGU) (PIG) (PIG)
                 (PIU) (PIU) (SGU) (DLTU) (DLTU) (PHIU) (PHIU)
                 (DLTG) (DLTG) (PHIG) (PHIG) (PIU) (PIU) (SGG)
                 (DLTU) (DLTU) (SGU) (DLTG) (DLTG) (DLTU) (DLTU)
                 (SGG) (PIU) (PIU) (PIG) (PIG) (SGU) (SGG) (PIU)
                 (PIU) (PIG) (PIG) (PHIU) (PHIU) (?A) (?A) (PIG)
                 (PIG) (DLTG) (DLTG) (SGG) (?C) (?C) (SGU) (?E)
                 (?E) (?F) (?F) (?D) (?D) (PIU) (PIU) (?B) (?B)
                 (SGG) (PHIG) (PHIG) (PHIU) (PHIU) (?A) (?A) (DLTU)
                 (DLTU) (?B) (?B) (DLTG) (DLTG) (PIG) (PIG) (SGU)
                 (PHIG) (PHIG) (SGU) (PIU) (PIU) (SGG) (?A) (?A)
                 (?C) (?C) (?D) (?D) (PHIU) (PHIU) (?B) (?B) (DLTU)
                 (DLTU) (PHIG) (PHIG) (DLTG) (DLTG) (PIG) (PIG)
                 (SGU) (SGG) (DLTU) (DLTU) (PIG) (PIG) (PIU) (PIU)
                 (SGU) (PHIU) (PHIU) (DLTG) (DLTG) (PHIG) (PHIG)
                 (DLTU) (DLTU) (PIU) (PIU) (SGU) (SGG) (PIG) (PIG)
                 (DLTG) (DLTG) (DLTU) (DLTU) (PIU) (PIU) (SGG)
                 (PIG) (PIG) (SGU) (SGG) (PIU) (PIU) (PIG) (PIG)
                 (SGU) (SGG) (SGU) (SGG) (SGU)
 The electronic state is 3-SGG.
 Alpha  occ. eigenvalues -- -460.87980-460.87980 -60.68039 -60.68039 -54.28233
 Alpha  occ. eigenvalues --  -54.28233 -54.28233 -54.28233 -54.28022 -54.28022
 Alpha  occ. eigenvalues --   -8.94679  -8.94667  -6.67905  -6.67905  -6.67899
 Alpha  occ. eigenvalues --   -6.67899  -6.67609  -6.67553  -2.66916  -2.66590
 Alpha  occ. eigenvalues --   -2.66590  -2.66364  -2.66364  -2.66353  -2.66353
 Alpha  occ. eigenvalues --   -2.66342  -2.66342  -2.66254  -1.02317  -0.82781
 Alpha  occ. eigenvalues --   -0.48462  -0.47725  -0.47725  -0.34826  -0.34826
 Alpha virt. eigenvalues --    0.03869   0.06776   0.06984   0.06984   0.09217
 Alpha virt. eigenvalues --    0.09223   0.09223   0.11293   0.18151   0.24297
 Alpha virt. eigenvalues --    0.24297   0.27416   0.27416   0.27721   0.31511
 Alpha virt. eigenvalues --    0.31511   0.34031   0.34031   0.34970   0.34970
 Alpha virt. eigenvalues --    0.35669   0.41858   0.49799   0.49799   0.50652
 Alpha virt. eigenvalues --    0.51954   0.71170   0.71170   0.72227   0.73997
 Alpha virt. eigenvalues --    0.73997   0.75317   0.75317   0.79878   0.81575
 Alpha virt. eigenvalues --    0.81575   0.85682   0.85682   0.87326   0.87326
 Alpha virt. eigenvalues --    0.88785   0.88785   0.90022   0.90022   0.97006
 Alpha virt. eigenvalues --    0.98611   1.00269   1.00269   1.02334   1.02334
 Alpha virt. eigenvalues --    1.06053   1.06053   1.10928   1.31230   1.33234
 Alpha virt. eigenvalues --    1.33234   1.33242   1.33242   1.34103   1.34103
 Alpha virt. eigenvalues --    1.39266   1.46094   1.46094   1.49021   1.49021
 Alpha virt. eigenvalues --    1.54108   1.59159   1.59159   1.65421   1.65421
 Alpha virt. eigenvalues --    1.70989   1.79770   1.79770   1.85219   1.87902
 Alpha virt. eigenvalues --    1.87902   1.95280   1.95280   1.97615   1.97615
 Alpha virt. eigenvalues --    2.01192   2.02520   2.02520   2.02607   2.02607
 Alpha virt. eigenvalues --    2.10180   2.10180   2.14341   2.14341   2.16063
 Alpha virt. eigenvalues --    2.18507   2.18507   2.20162   2.20162   2.24635
 Alpha virt. eigenvalues --    2.24635   2.25635   2.26472   2.26472   2.27972
 Alpha virt. eigenvalues --    2.32954   2.32954   2.46102   2.69653   2.78866
 Alpha virt. eigenvalues --    2.78866   2.85827   2.85827   2.87814   2.87814
 Alpha virt. eigenvalues --    2.96468   2.96468   2.99450   2.99450   3.05326
 Alpha virt. eigenvalues --    3.05326   3.13845   3.13845   3.19774   3.19774
 Alpha virt. eigenvalues --    3.22785   3.22785   3.24597   3.24597   3.30402
 Alpha virt. eigenvalues --    3.30402   3.32909   3.33056   3.37057   3.37057
 Alpha virt. eigenvalues --    3.53653   3.53653   3.55007   3.55007   3.62298
 Alpha virt. eigenvalues --    3.62298   3.63454   3.63454   3.68900   3.74378
 Alpha virt. eigenvalues --    3.93712   3.93712   3.97082   3.97082   4.01490
 Alpha virt. eigenvalues --    4.05533   4.05533   4.30203   4.30203   4.32380
 Alpha virt. eigenvalues --    4.32380   4.36377   4.36377   4.44896   4.44896
 Alpha virt. eigenvalues --    4.55938   4.61550   4.61550   4.69281   4.69592
 Alpha virt. eigenvalues --    4.69592   4.77970   4.77970   4.79785   4.85837
 Alpha virt. eigenvalues --    4.85837   5.11473   5.11473   5.14962   5.18998
 Alpha virt. eigenvalues --    5.18998   5.19258   5.25771   5.25771   5.56892
 Alpha virt. eigenvalues --    5.56892   5.63267   5.63267   5.63294   5.63294
 Alpha virt. eigenvalues --    5.75251   5.75251   5.76975   5.76975   5.77067
 Alpha virt. eigenvalues --    5.78725   5.82294   5.82294   5.83295   5.83295
 Alpha virt. eigenvalues --    5.87985   5.87985   5.90394   5.90394   6.07630
 Alpha virt. eigenvalues --    6.07630   6.15527   6.41443   6.41443   6.49839
 Alpha virt. eigenvalues --    6.49839   6.50151   6.50151   6.51949   6.51949
 Alpha virt. eigenvalues --    6.54835   6.54835   6.56848   6.56848   6.60707
 Alpha virt. eigenvalues --    6.60707   6.61968   6.73442   6.73442   6.78136
 Alpha virt. eigenvalues --    6.81396   6.81396   7.10939   7.16334   7.16334
 Alpha virt. eigenvalues --    7.19861   7.19861   7.22889   7.22889   7.23950
 Alpha virt. eigenvalues --    7.23950   7.32225   7.32225   7.38663   7.38663
 Alpha virt. eigenvalues --    7.59079   7.59079   7.60308   7.60308   7.65932
 Alpha virt. eigenvalues --    7.65932   7.83787   7.87410   7.94503   7.94503
 Alpha virt. eigenvalues --    7.95927   7.95927   8.15284   8.15284   8.28604
 Alpha virt. eigenvalues --    8.77219   8.77219   8.79313   8.79313   8.82489
 Alpha virt. eigenvalues --    8.82489   9.16622   9.16622   9.16796   9.16796
 Alpha virt. eigenvalues --    9.59501  10.19123  10.19688  10.19688  10.78024
 Alpha virt. eigenvalues --   10.78024  10.85282  10.85282  10.87768  10.87768
 Alpha virt. eigenvalues --   11.47144  11.65487  11.65487  12.65759  13.25972
 Alpha virt. eigenvalues --   13.38812  13.38812  13.50370  13.50370  13.59520
 Alpha virt. eigenvalues --   14.28777  15.07847 621.53685 622.46556
          Condensed to atoms (all electrons):
              1          2
     1  Se  33.532579   0.467421
     2  Se   0.467421  33.532579
 Mulliken atomic charges:
              1
     1  Se   0.000000
     2  Se   0.000000
 Sum of Mulliken atomic charges =   0.00000
 Mulliken charges with hydrogens summed into heavy atoms:
              1
     1  Se   0.000000
     2  Se   0.000000
 Sum of Mulliken charges with hydrogens summed into heavy atoms =   0.00000
          Atomic-Atomic Spin Densities.
              1          2
     1  Se   1.245185  -0.245185
     2  Se  -0.245185   1.245185
 Mulliken atomic spin densities:
              1
     1  Se   1.000000
     2  Se   1.000000
 Sum of Mulliken atomic spin densities =   2.00000
 Electronic spatial extent (au):  <R**2>=            365.5777
 Charge=              0.0000 electrons
 Dipole moment (field-independent basis, Debye):
    X=              0.0000    Y=              0.0000    Z=              0.0000  Tot=              0.0000
 Quadrupole moment (field-independent basis, Debye-Ang):
   XX=            -37.2835   YY=            -37.2835   ZZ=            -34.0610
   XY=              0.0000   XZ=              0.0000   YZ=              0.0000
 Traceless Quadrupole moment (field-independent basis, Debye-Ang):
   XX=             -1.0742   YY=             -1.0742   ZZ=              2.1483
   XY=              0.0000   XZ=              0.0000   YZ=              0.0000
 Octapole moment (field-independent basis, Debye-Ang**2):
  XXX=              0.0000  YYY=              0.0000  ZZZ=              0.0000  XYY=              0.0000
  XXY=              0.0000  XXZ=              0.0000  XZZ=              0.0000  YZZ=              0.0000
  YYZ=              0.0000  XYZ=              0.0000
 Hexadecapole moment (field-independent basis, Debye-Ang**3):
 XXXX=            -51.5059 YYYY=            -51.5059 ZZZZ=           -281.5925 XXXY=              0.0000
 XXXZ=              0.0000 YYYX=              0.0000 YYYZ=              0.0000 ZZZX=              0.0000
 ZZZY=              0.0000 XXYY=            -17.1686 XXZZ=            -59.5848 YYZZ=            -59.5848
 XXYZ=              0.0000 YYXZ=              0.0000 ZZXY=              0.0000
 N-N= 2.824232932272D+02 E-N=-1.804914891049D+04  KE= 7.197321875706D+03
                          Isotropic Fermi Contact Couplings
        Atom                 a.u.       MegaHertz       Gauss      10(-4) cm-1
 --------------------------------------------------------
       Center         ----  Spin Dipole Couplings  ----
                      3XX-RR        3YY-RR        3ZZ-RR
 --------------------------------------------------------
     1   Atom        1.983465      1.983465     -3.966930
     2   Atom        1.983465      1.983465     -3.966930
 --------------------------------------------------------
                        XY            XZ            YZ
 --------------------------------------------------------
     1   Atom        0.000000      0.000000      0.000000
     2   Atom        0.000000      0.000000      0.000000
 --------------------------------------------------------


 ---------------------------------------------------------------------------------
              Anisotropic Spin Dipole Couplings in Principal Axis System
 ---------------------------------------------------------------------------------

       Atom             a.u.   MegaHertz   Gauss  10(-4) cm-1        Axes


 ---------------------------------------------------------------------------------


 Test job not archived.
 1\1\GINC-C32\SP\ROMP2-RW\Gen\Se2(3)\GPETERSSON\17-Aug-2012\0\\# ROMP2(
 RW) Gen GFinput Int=NoBasisTransform Int(Grid=Ultrafine) IOp(3/32=2,5/
 6=10,8/11=1,9/33=1) Maxdisk=128GB CBSextrapolate(Nmin=20,MinPop)\\Se2\
 \0,3\Se\Se,1,2.166\\Version=EM64L-G09RevA.02\State=3-SGG\HF=-4799.7901
 125\MP2=-4800.1286811\E2(CBS)=-0.3509621\CBS-Int=-0.3451359\OIii=1.873
 7\RMSD=7.012e-12\PG=D*H [C*(Se1.Se1)]\\@


 BRING ME INTO THE COMPANY OF THOSE WHO SEEK TRUTH,
 AND DELIVER ME FROM THOSE WHO HAVE FOUND IT.
 Job cpu time:  0 days 11 hours  6 minutes 21.9 seconds.
 File lengths (MBytes):  RWF=   2169 Int=      0 D2E=      0 Chk=      8 Scr=      1
 Normal termination of Gaussian 09 at Fri Aug 17 09:48:39 2012.
