 Entering Gaussian System, Link 0=gdv
 AtFile(1): 7ZaPa-NR.gbs
 Initial command:
 /share/apps/gaussian/gdvh12/gdv/l1.exe /localscratch/933454/Gau-14022.inp -scrdir=/localscratch/933454/
 Entering Link 1 = /share/apps/gaussian/gdvh12/gdv/l1.exe PID=     14023.
  
 Copyright (c) 1988,1990,1992,1993,1995,1998,2003,2009,2011,
            Gaussian, Inc.  All Rights Reserved.
  
 This is the private, development version of
 the Gaussian(R) DV system of programs. It is based on
 the Gaussian(R) 09 system (copyright 2009, Gaussian, Inc.),
 the Gaussian(R) 03 system (copyright 2003, Gaussian, Inc.),
 the Gaussian(R) 98 system (copyright 1998, Gaussian, Inc.),
 the Gaussian(R) 94 system (copyright 1995, Gaussian, Inc.),
 the Gaussian 92(TM) system (copyright 1992, Gaussian, Inc.),
 the Gaussian 90(TM) system (copyright 1990, Gaussian, Inc.),
 the Gaussian 88(TM) system (copyright 1988, Gaussian, Inc.),
 the Gaussian 86(TM) system (copyright 1986, Carnegie Mellon
 University), and the Gaussian 82(TM) system (copyright 1983,
 Carnegie Mellon University). Gaussian is a federally registered
 trademark of Gaussian, Inc.
  
 This software contains proprietary and confidential information,
 including trade secrets, belonging to Gaussian, Inc.
  
 This software is provided under written license and may be
 used, copied, transmitted, or stored only in accord with that
 written license.
  
 The following legend is applicable only to US Government
 contracts under FAR:
  
                    RESTRICTED RIGHTS LEGEND
  
 Use, reproduction and disclosure by the US Government is
 subject to restrictions as set forth in subparagraphs (a)
 and (c) of the Commercial Computer Software - Restricted
 Rights clause in FAR 52.227-19.
  
 Gaussian, Inc.
 340 Quinnipiac St., Bldg. 40, Wallingford CT 06492
  
  
 ---------------------------------------------------------------
 Warning -- This program may not be used in any manner that
 competes with the business of Gaussian, Inc. or will provide
 assistance to any competitor of Gaussian, Inc.  The licensee
 of this program is prohibited from giving any competitor of
 Gaussian, Inc. access to this program.  By using this program,
 the user acknowledges that Gaussian, Inc. is engaged in the
 business of creating and licensing software in the field of
 computational chemistry and represents and warrants to the
 licensee that it is not a competitor of Gaussian, Inc. and that
 it will not use this program in any manner prohibited above.
 ---------------------------------------------------------------
  

 Cite this work as:
 Gaussian Development Version, Revision H.12,
 M. J. Frisch, G. W. Trucks, H. B. Schlegel, G. E. Scuseria, 
 M. A. Robb, J. R. Cheeseman, G. Scalmani, V. Barone, B. Mennucci, 
 G. A. Petersson, H. Nakatsuji, M. Caricato, X. Li, H. P. Hratchian, 
 A. F. Izmaylov, J. Bloino, G. Zheng, J. L. Sonnenberg, M. Hada, 
 M. Ehara, K. Toyota, R. Fukuda, J. Hasegawa, M. Ishida, T. Nakajima, 
 Y. Honda, O. Kitao, H. Nakai, T. Vreven, J. A. Montgomery, Jr., 
 J. E. Peralta, F. Ogliaro, M. Bearpark, J. J. Heyd, E. Brothers, 
 K. N. Kudin, V. N. Staroverov, T. Keith, R. Kobayashi, J. Normand, 
 K. Raghavachari, A. Rendell, J. C. Burant, S. S. Iyengar, J. Tomasi, 
 M. Cossi, N. Rega, J. M. Millam, M. Klene, J. E. Knox, J. B. Cross, 
 V. Bakken, C. Adamo, J. Jaramillo, R. Gomperts, R. E. Stratmann, 
 O. Yazyev, A. J. Austin, R. Cammi, C. Pomelli, J. W. Ochterski, 
 R. L. Martin, K. Morokuma, V. G. Zakrzewski, G. A. Voth, 
 P. Salvador, J. J. Dannenberg, S. Dapprich, P. V. Parandekar, 
 N. J. Mayhall, A. D. Daniels, O. Farkas, J. B. Foresman, 
 J. V. Ortiz, J. Cioslowski, and D. J. Fox, 
 Gaussian, Inc., Wallingford CT, 2010.
 
 ******************************************
 Gaussian DV:  EM64L-GDVRevH.12  9-Jun-2011
                 1-May-2013 
 ******************************************
 % Mem=12GB
 % Nproc=8
 Will use up to    8 processors via shared memory.
 ----------------------------------------------------------------------
 # ROMP2(RW) Gen GFinput Int=NoBasisTransform Int(Grid=Ultrafine) IOp(3
 /32=2,5/6=10,8/11=1,9/33=1) Maxdisk=128GB CBSextrapolate(Nmin=25,MinPo
 p)
 ----------------------------------------------------------------------
 1/38=1/1;
 2/12=2,17=6,18=5,40=1/2;
 3/5=7,11=2,16=1,24=10,25=1,30=1,32=2,60=-1,75=-5,116=101/1,2,3;
 4//1;
 5/5=2,6=10,38=5/2;
 8/5=-1,10=91,11=1/1;
 9/16=-3,33=1,75=2,81=25,83=4/6,4;
 6/7=2,8=2,9=2,10=2/1;
 99/5=1,9=1/99;
 ---
 Se2
 ---
 Charge =  0 Multiplicity = 3
 Symbolic Z-Matrix:
 Se
 Se                   1     2.166 
 
                          Input orientation:                          
 ---------------------------------------------------------------------
 Center     Atomic      Atomic             Coordinates (Angstroms)
 Number     Number       Type             X           Y           Z
 ---------------------------------------------------------------------
      1         34           0        0.000000    0.000000    0.000000
      2         34           0        0.000000    0.000000    2.166000
 ---------------------------------------------------------------------
 Stoichiometry    Se2(3)
 Framework group  D*H[C*(Se.Se)]
 Deg. of freedom     1
 Full point group                 D*H     NOp   8
 Largest Abelian subgroup         D2H     NOp   8
 Largest concise Abelian subgroup C2      NOp   2
                         Standard orientation:                         
 ---------------------------------------------------------------------
 Center     Atomic      Atomic             Coordinates (Angstroms)
 Number     Number       Type             X           Y           Z
 ---------------------------------------------------------------------
      1         34           0        0.000000    0.000000    1.083000
      2         34           0        0.000000    0.000000   -1.083000
 ---------------------------------------------------------------------
 Rotational constants (GHZ):      0.0000000      2.6958376      2.6958376
 General basis read from cards:  (5D, 7F)
 AO basis set in the form of general basis input (Overlap normalization):
      1 0
 S  19 1.00       0.000000000000
      0.1131081510D+09  0.2549679752D-06
      0.2113086240D+08  0.1600701102D-05
      0.4815085880D+07  0.9166904806D-05
      0.1296214510D+07  0.4195361270D-04
      0.4008745910D+06  0.1634570450D-03
      0.1390241870D+06  0.5560811165D-03
      0.5295422950D+05  0.1697014155D-02
      0.2176571310D+05  0.4737665008D-02
      0.9511831760D+04  0.1226378126D-01
      0.4365393100D+04  0.2959075611D-01
      0.2082857790D+04  0.6607661606D-01
      0.1024732690D+04  0.1332290414D+00
      0.5164291600D+03  0.2298451032D+00
      0.2651916080D+03  0.3052726570D+00
      0.1381626940D+03  0.2558902645D+00
      0.7276772000D+02  0.9837327240D-01
      0.3861969000D+02  0.1043957331D-01
      0.2058943400D+02  0.9698903983D-03
      0.1098995600D+02  0.1377877387D-04
 S  15 1.00       0.000000000000
      0.2176571310D+05 -0.8329289819D-05
      0.9511831760D+04 -0.4272569736D-04
      0.4365393100D+04 -0.2629158340D-03
      0.2082857790D+04 -0.1221560183D-02
      0.1024732690D+04 -0.5241817150D-02
      0.5164291600D+03 -0.1855847084D-01
      0.2651916080D+03 -0.5250494108D-01
      0.1381626940D+03 -0.8943330535D-01
      0.7276772000D+02 -0.1979107333D-01
      0.3861969000D+02  0.2740387458D+00
      0.2058943400D+02  0.5101567093D+00
      0.1098995600D+02  0.2940189938D+00
      0.5850445000D+01  0.4780572385D-01
      0.3091662000D+01  0.3202718525D-02
      0.1612449000D+01 -0.4125916758D-04
 P  17 1.00       0.000000000000
      0.1376796180D+06  0.2819698799D-05
      0.3672004500D+05  0.2233782837D-04
      0.1171585980D+05  0.1441759950D-03
      0.4322472990D+04  0.7142284167D-03
      0.1790735710D+04  0.2885939507D-02
      0.8123814270D+03  0.9772895371D-02
      0.3950666270D+03  0.2831597588D-01
      0.2023064050D+03  0.7071817966D-01
      0.1074854040D+03  0.1485028645D+00
      0.5853508600D+02  0.2503710452D+00
      0.3235348300D+02  0.3154338857D+00
      0.1800486400D+02  0.2472027918D+00
      0.1002290600D+02  0.9631654826D-01
      0.5551094000D+01  0.1535208923D-01
      0.3044359000D+01  0.1453057579D-02
      0.1646009000D+01  0.3050374972D-03
      0.8734530000D+00  0.2405252307D-04
 S  11 1.00       0.000000000000
      0.2651916080D+03  0.5631557678D-03
      0.1381626940D+03  0.2402134797D-02
      0.7276772000D+02  0.2521026437D-02
      0.3861969000D+02 -0.2889857321D-01
      0.2058943400D+02 -0.1615199820D+00
      0.1098995600D+02 -0.1582342781D+00
      0.5850445000D+01  0.2224666424D+00
      0.3091662000D+01  0.5824389629D+00
      0.1612449000D+01  0.3763904775D+00
      0.8240080000D+00  0.4831425924D-01
      0.4089200000D+00  0.2055191298D-02
 P  14 1.00       0.000000000000
      0.8123814270D+03 -0.3459098950D-04
      0.3950666270D+03 -0.2249424916D-03
      0.2023064050D+03 -0.1204439861D-02
      0.1074854040D+03 -0.4589365079D-02
      0.5853508600D+02 -0.1218850722D-01
      0.3235348300D+02 -0.2256732584D-01
      0.1800486400D+02  0.3587882833D-02
      0.1002290600D+02  0.1368167193D+00
      0.5551094000D+01  0.3162342176D+00
      0.3044359000D+01  0.3807600369D+00
      0.1646009000D+01  0.2283117436D+00
      0.8734530000D+00  0.5007738460D-01
      0.4526530000D+00  0.3625048884D-02
      0.2277620000D+00  0.3859946670D-03
 D  16 1.00       0.000000000000
      0.5004719080D+04  0.4641809482D-05
      0.1561340970D+04  0.4801369600D-04
      0.6006699300D+03  0.3246493886D-03
      0.2672623230D+03  0.1565414722D-02
      0.1310903860D+03  0.5983822790D-02
      0.6848453200D+02  0.1845086893D-01
      0.3722335900D+02  0.4675467719D-01
      0.2073358200D+02  0.1008762645D+00
      0.1172439200D+02  0.1759235896D+00
      0.6688644000D+01  0.2391421629D+00
      0.3827465000D+01  0.2632949207D+00
      0.2179656000D+01  0.2334831638D+00
      0.1219823000D+01  0.1494888806D+00
      0.6576330000D+00  0.5791601540D-01
      0.3314940000D+00  0.1000562617D-01
      0.1497430000D+00  0.7539690853D-03
 S  10 1.00       0.000000000000
      0.3861969000D+02  0.1235192471D-03
      0.2058943400D+02  0.2668606219D-02
      0.1098995600D+02  0.3154706581D-02
      0.5850445000D+01 -0.8146836136D-02
      0.3091662000D+01 -0.6889152290D-01
      0.1612449000D+01 -0.2063720158D+00
      0.8240080000D+00  0.2161243952D-01
      0.4089200000D+00  0.4680065270D+00
      0.1949080000D+00  0.5353588679D+00
      0.8804800000D-01  0.1546707646D+00
 S   1 1.00       0.000000000000
      0.4372178367D-01  0.1000000000D+01
 P  11 1.00       0.000000000000
      0.3235348300D+02  0.1101725399D-03
      0.1800486400D+02 -0.4185474259D-03
      0.1002290600D+02 -0.3301943370D-02
      0.5551094000D+01 -0.8084837795D-02
      0.3044359000D+01 -0.2088267846D-01
      0.1646009000D+01 -0.2464977461D-01
      0.8734530000D+00  0.9482480245D-01
      0.4526530000D+00  0.2969417837D+00
      0.2277620000D+00  0.3997438373D+00
      0.1104890000D+00  0.2901621871D+00
      0.5122600000D-01  0.6932962201D-01
 P   1 1.00       0.000000000000
      0.3156984215D-01  0.1000000000D+01
 S   1 1.00       0.000000000000
      0.4003004000D+01  0.1000000000D+01
 S   1 1.00       0.000000000000
      0.2282327000D+01  0.1000000000D+01
 S   1 1.00       0.000000000000
      0.1301277000D+01  0.1000000000D+01
 S   1 1.00       0.000000000000
      0.7419270000D+00  0.1000000000D+01
 S   1 1.00       0.000000000000
      0.4230120000D+00  0.1000000000D+01
 S   1 1.00       0.000000000000
      0.2411820000D+00  0.1000000000D+01
 P   1 1.00       0.000000000000
      0.2452659000D+01  0.1000000000D+01
 P   1 1.00       0.000000000000
      0.1436103000D+01  0.1000000000D+01
 P   1 1.00       0.000000000000
      0.8408790000D+00  0.1000000000D+01
 P   1 1.00       0.000000000000
      0.4923590000D+00  0.1000000000D+01
 P   1 1.00       0.000000000000
      0.2882910000D+00  0.1000000000D+01
 P   1 1.00       0.000000000000
      0.1688020000D+00  0.1000000000D+01
 D   1 1.00       0.000000000000
      0.2582286000D+01  0.1000000000D+01
 D   1 1.00       0.000000000000
      0.1419984000D+01  0.1000000000D+01
 D   1 1.00       0.000000000000
      0.7808400000D+00  0.1000000000D+01
 D   1 1.00       0.000000000000
      0.4293790000D+00  0.1000000000D+01
 D   1 1.00       0.000000000000
      0.2361130000D+00  0.1000000000D+01
 D   1 1.00       0.000000000000
      0.1298370000D+00  0.1000000000D+01
 D   1 1.00       0.000000000000
      0.7139650000D-01  0.1000000000D+01
 F   1 1.00       0.000000000000
      0.2673067000D+01  0.1000000000D+01
 F   1 1.00       0.000000000000
      0.1417972000D+01  0.1000000000D+01
 F   1 1.00       0.000000000000
      0.7521860000D+00  0.1000000000D+01
 F   1 1.00       0.000000000000
      0.3990090000D+00  0.1000000000D+01
 F   1 1.00       0.000000000000
      0.2116610000D+00  0.1000000000D+01
 F   1 1.00       0.000000000000
      0.1122790000D+00  0.1000000000D+01
 G   1 1.00       0.000000000000
      0.1338920000D+01  0.1000000000D+01
 G   1 1.00       0.000000000000
      0.8147730000D+00  0.1000000000D+01
 G   1 1.00       0.000000000000
      0.4958140000D+00  0.1000000000D+01
 G   1 1.00       0.000000000000
      0.3017180000D+00  0.1000000000D+01
 G   1 1.00       0.000000000000
      0.1836050000D+00  0.1000000000D+01
 H   1 1.00       0.000000000000
      0.1215303000D+01  0.1000000000D+01
 H   1 1.00       0.000000000000
      0.7111940000D+00  0.1000000000D+01
 H   1 1.00       0.000000000000
      0.4161890000D+00  0.1000000000D+01
 H   1 1.00       0.000000000000
      0.2435530000D+00  0.1000000000D+01
 I   1 1.00       0.000000000000
      0.1149838000D+01  0.1000000000D+01
 I   1 1.00       0.000000000000
      0.6115140000D+00  0.1000000000D+01
 I   1 1.00       0.000000000000
      0.3252190000D+00  0.1000000000D+01
 J   1 1.00       0.000000000000
      0.1002245215D+01  0.1000000000D+01
 ****
      2 0
 S  19 1.00       0.000000000000
      0.1131081510D+09  0.2549679752D-06
      0.2113086240D+08  0.1600701102D-05
      0.4815085880D+07  0.9166904806D-05
      0.1296214510D+07  0.4195361270D-04
      0.4008745910D+06  0.1634570450D-03
      0.1390241870D+06  0.5560811165D-03
      0.5295422950D+05  0.1697014155D-02
      0.2176571310D+05  0.4737665008D-02
      0.9511831760D+04  0.1226378126D-01
      0.4365393100D+04  0.2959075611D-01
      0.2082857790D+04  0.6607661606D-01
      0.1024732690D+04  0.1332290414D+00
      0.5164291600D+03  0.2298451032D+00
      0.2651916080D+03  0.3052726570D+00
      0.1381626940D+03  0.2558902645D+00
      0.7276772000D+02  0.9837327240D-01
      0.3861969000D+02  0.1043957331D-01
      0.2058943400D+02  0.9698903983D-03
      0.1098995600D+02  0.1377877387D-04
 S  15 1.00       0.000000000000
      0.2176571310D+05 -0.8329289819D-05
      0.9511831760D+04 -0.4272569736D-04
      0.4365393100D+04 -0.2629158340D-03
      0.2082857790D+04 -0.1221560183D-02
      0.1024732690D+04 -0.5241817150D-02
      0.5164291600D+03 -0.1855847084D-01
      0.2651916080D+03 -0.5250494108D-01
      0.1381626940D+03 -0.8943330535D-01
      0.7276772000D+02 -0.1979107333D-01
      0.3861969000D+02  0.2740387458D+00
      0.2058943400D+02  0.5101567093D+00
      0.1098995600D+02  0.2940189938D+00
      0.5850445000D+01  0.4780572385D-01
      0.3091662000D+01  0.3202718525D-02
      0.1612449000D+01 -0.4125916758D-04
 P  17 1.00       0.000000000000
      0.1376796180D+06  0.2819698799D-05
      0.3672004500D+05  0.2233782837D-04
      0.1171585980D+05  0.1441759950D-03
      0.4322472990D+04  0.7142284167D-03
      0.1790735710D+04  0.2885939507D-02
      0.8123814270D+03  0.9772895371D-02
      0.3950666270D+03  0.2831597588D-01
      0.2023064050D+03  0.7071817966D-01
      0.1074854040D+03  0.1485028645D+00
      0.5853508600D+02  0.2503710452D+00
      0.3235348300D+02  0.3154338857D+00
      0.1800486400D+02  0.2472027918D+00
      0.1002290600D+02  0.9631654826D-01
      0.5551094000D+01  0.1535208923D-01
      0.3044359000D+01  0.1453057579D-02
      0.1646009000D+01  0.3050374972D-03
      0.8734530000D+00  0.2405252307D-04
 S  11 1.00       0.000000000000
      0.2651916080D+03  0.5631557678D-03
      0.1381626940D+03  0.2402134797D-02
      0.7276772000D+02  0.2521026437D-02
      0.3861969000D+02 -0.2889857321D-01
      0.2058943400D+02 -0.1615199820D+00
      0.1098995600D+02 -0.1582342781D+00
      0.5850445000D+01  0.2224666424D+00
      0.3091662000D+01  0.5824389629D+00
      0.1612449000D+01  0.3763904775D+00
      0.8240080000D+00  0.4831425924D-01
      0.4089200000D+00  0.2055191298D-02
 P  14 1.00       0.000000000000
      0.8123814270D+03 -0.3459098950D-04
      0.3950666270D+03 -0.2249424916D-03
      0.2023064050D+03 -0.1204439861D-02
      0.1074854040D+03 -0.4589365079D-02
      0.5853508600D+02 -0.1218850722D-01
      0.3235348300D+02 -0.2256732584D-01
      0.1800486400D+02  0.3587882833D-02
      0.1002290600D+02  0.1368167193D+00
      0.5551094000D+01  0.3162342176D+00
      0.3044359000D+01  0.3807600369D+00
      0.1646009000D+01  0.2283117436D+00
      0.8734530000D+00  0.5007738460D-01
      0.4526530000D+00  0.3625048884D-02
      0.2277620000D+00  0.3859946670D-03
 D  16 1.00       0.000000000000
      0.5004719080D+04  0.4641809482D-05
      0.1561340970D+04  0.4801369600D-04
      0.6006699300D+03  0.3246493886D-03
      0.2672623230D+03  0.1565414722D-02
      0.1310903860D+03  0.5983822790D-02
      0.6848453200D+02  0.1845086893D-01
      0.3722335900D+02  0.4675467719D-01
      0.2073358200D+02  0.1008762645D+00
      0.1172439200D+02  0.1759235896D+00
      0.6688644000D+01  0.2391421629D+00
      0.3827465000D+01  0.2632949207D+00
      0.2179656000D+01  0.2334831638D+00
      0.1219823000D+01  0.1494888806D+00
      0.6576330000D+00  0.5791601540D-01
      0.3314940000D+00  0.1000562617D-01
      0.1497430000D+00  0.7539690853D-03
 S  10 1.00       0.000000000000
      0.3861969000D+02  0.1235192471D-03
      0.2058943400D+02  0.2668606219D-02
      0.1098995600D+02  0.3154706581D-02
      0.5850445000D+01 -0.8146836136D-02
      0.3091662000D+01 -0.6889152290D-01
      0.1612449000D+01 -0.2063720158D+00
      0.8240080000D+00  0.2161243952D-01
      0.4089200000D+00  0.4680065270D+00
      0.1949080000D+00  0.5353588679D+00
      0.8804800000D-01  0.1546707646D+00
 S   1 1.00       0.000000000000
      0.4372178367D-01  0.1000000000D+01
 P  11 1.00       0.000000000000
      0.3235348300D+02  0.1101725399D-03
      0.1800486400D+02 -0.4185474259D-03
      0.1002290600D+02 -0.3301943370D-02
      0.5551094000D+01 -0.8084837795D-02
      0.3044359000D+01 -0.2088267846D-01
      0.1646009000D+01 -0.2464977461D-01
      0.8734530000D+00  0.9482480245D-01
      0.4526530000D+00  0.2969417837D+00
      0.2277620000D+00  0.3997438373D+00
      0.1104890000D+00  0.2901621871D+00
      0.5122600000D-01  0.6932962201D-01
 P   1 1.00       0.000000000000
      0.3156984215D-01  0.1000000000D+01
 S   1 1.00       0.000000000000
      0.4003004000D+01  0.1000000000D+01
 S   1 1.00       0.000000000000
      0.2282327000D+01  0.1000000000D+01
 S   1 1.00       0.000000000000
      0.1301277000D+01  0.1000000000D+01
 S   1 1.00       0.000000000000
      0.7419270000D+00  0.1000000000D+01
 S   1 1.00       0.000000000000
      0.4230120000D+00  0.1000000000D+01
 S   1 1.00       0.000000000000
      0.2411820000D+00  0.1000000000D+01
 P   1 1.00       0.000000000000
      0.2452659000D+01  0.1000000000D+01
 P   1 1.00       0.000000000000
      0.1436103000D+01  0.1000000000D+01
 P   1 1.00       0.000000000000
      0.8408790000D+00  0.1000000000D+01
 P   1 1.00       0.000000000000
      0.4923590000D+00  0.1000000000D+01
 P   1 1.00       0.000000000000
      0.2882910000D+00  0.1000000000D+01
 P   1 1.00       0.000000000000
      0.1688020000D+00  0.1000000000D+01
 D   1 1.00       0.000000000000
      0.2582286000D+01  0.1000000000D+01
 D   1 1.00       0.000000000000
      0.1419984000D+01  0.1000000000D+01
 D   1 1.00       0.000000000000
      0.7808400000D+00  0.1000000000D+01
 D   1 1.00       0.000000000000
      0.4293790000D+00  0.1000000000D+01
 D   1 1.00       0.000000000000
      0.2361130000D+00  0.1000000000D+01
 D   1 1.00       0.000000000000
      0.1298370000D+00  0.1000000000D+01
 D   1 1.00       0.000000000000
      0.7139650000D-01  0.1000000000D+01
 F   1 1.00       0.000000000000
      0.2673067000D+01  0.1000000000D+01
 F   1 1.00       0.000000000000
      0.1417972000D+01  0.1000000000D+01
 F   1 1.00       0.000000000000
      0.7521860000D+00  0.1000000000D+01
 F   1 1.00       0.000000000000
      0.3990090000D+00  0.1000000000D+01
 F   1 1.00       0.000000000000
      0.2116610000D+00  0.1000000000D+01
 F   1 1.00       0.000000000000
      0.1122790000D+00  0.1000000000D+01
 G   1 1.00       0.000000000000
      0.1338920000D+01  0.1000000000D+01
 G   1 1.00       0.000000000000
      0.8147730000D+00  0.1000000000D+01
 G   1 1.00       0.000000000000
      0.4958140000D+00  0.1000000000D+01
 G   1 1.00       0.000000000000
      0.3017180000D+00  0.1000000000D+01
 G   1 1.00       0.000000000000
      0.1836050000D+00  0.1000000000D+01
 H   1 1.00       0.000000000000
      0.1215303000D+01  0.1000000000D+01
 H   1 1.00       0.000000000000
      0.7111940000D+00  0.1000000000D+01
 H   1 1.00       0.000000000000
      0.4161890000D+00  0.1000000000D+01
 H   1 1.00       0.000000000000
      0.2435530000D+00  0.1000000000D+01
 I   1 1.00       0.000000000000
      0.1149838000D+01  0.1000000000D+01
 I   1 1.00       0.000000000000
      0.6115140000D+00  0.1000000000D+01
 I   1 1.00       0.000000000000
      0.3252190000D+00  0.1000000000D+01
 J   1 1.00       0.000000000000
      0.1002245215D+01  0.1000000000D+01
 ****

 There are   157 symmetry adapted cartesian basis functions of AG  symmetry.
 There are    65 symmetry adapted cartesian basis functions of B1G symmetry.
 There are   103 symmetry adapted cartesian basis functions of B2G symmetry.
 There are   103 symmetry adapted cartesian basis functions of B3G symmetry.
 There are    65 symmetry adapted cartesian basis functions of AU  symmetry.
 There are   157 symmetry adapted cartesian basis functions of B1U symmetry.
 There are   103 symmetry adapted cartesian basis functions of B2U symmetry.
 There are   103 symmetry adapted cartesian basis functions of B3U symmetry.
 There are    92 symmetry adapted basis functions of AG  symmetry.
 There are    44 symmetry adapted basis functions of B1G symmetry.
 There are    65 symmetry adapted basis functions of B2G symmetry.
 There are    65 symmetry adapted basis functions of B3G symmetry.
 There are    44 symmetry adapted basis functions of AU  symmetry.
 There are    92 symmetry adapted basis functions of B1U symmetry.
 There are    65 symmetry adapted basis functions of B2U symmetry.
 There are    65 symmetry adapted basis functions of B3U symmetry.
   532 basis functions,  1372 primitive gaussians,   856 cartesian basis functions
    35 alpha electrons       33 beta electrons
       nuclear repulsion energy       282.4232932272 Hartrees.
 NAtoms=    2 NActive=    2 NUniq=    1 SFac= 4.00D+00 NAtFMM=   60 NAOKFM=F Big=F
 Integral buffers will be    131072 words long.
 Raffenetti 2 integral format.
 Two-electron integral symmetry is turned on.
 One-electron integrals computed using PRISM.
 PrsmSu:  requested number of processors reduced to:   2 ShMem   1 Linda.
 NBasis=   532 RedAO= F EigKep=  0.00D+00  NBF=    92    44    65    65    44    92    65    65
 NBsUse=   532 1.00D-04 EigRej=  0.00D+00 NBFU=    92    44    65    65    44    92    65    65
 ExpMin= 3.16D-02 ExpMax= 1.13D+08 ExpMxC= 9.51D+03 IAcc=3 IRadAn=         5 AccDes= 0.00D+00
 Harris functional with IExCor=  205 and IRadAn=       5 diagonalized for initial guess.
 HarFok:  IExCor=  205 AccDes= 0.00D+00 IRadAn=         5 IDoV= 1 UseB2=F ITyADJ=14
 ICtDFT=  3500011 ScaDFX=  1.000000  1.000000  1.000000  1.000000
 FoFCou: FMM=F IPFlag=           0 FMFlag=      100000 FMFlg1=           0
         NFxFlg=           0 DoJE=T BraDBF=F KetDBF=T FulRan=T
         wScrn=  0.000000 ICntrl=     500 IOpCl=  0 I1Cent=   200000004 NGrid=           0
         NMat0=    1 NMatS0=      1 NMatT0=    0 NMatD0=    1 NMtDS0=    0 NMtDT0=    0
 Petite list used in FoFCou.
 DSYEVD returned Info=        1065 IAlg= 4 N=   532 NDim=   532 NE2=     3024643 trying DSYEV.
 Initial guess orbital symmetries:
       Occupied  (SGU) (SGG) (SGU) (SGG) (SGU) (SGG) (PIG) (PIG)
                 (PIU) (PIU) (SGG) (SGU) (SGG) (SGU) (PIU) (PIU)
                 (PIG) (PIG) (SGG) (PIU) (PIU) (PIG) (PIG) (DLTG)
                 (DLTG) (SGU) (DLTU) (DLTU) (SGG) (SGU) (SGG) (PIU)
                 (PIU) (PIG) (PIG)
       Virtual   (SGU) (SGG) (PIU) (PIU) (SGU) (SGG) (PIG) (PIG)
                 (DLTG) (DLTG) (PIU) (PIU) (SGU) (DLTU) (DLTU)
                 (SGG) (SGU) (PIG) (PIG) (SGG) (PIU) (PIU) (DLTG)
                 (DLTG) (PHIU) (PHIU) (PIU) (PIU) (SGG) (PIG) (PIG)
                 (DLTG) (DLTG) (SGU) (DLTU) (DLTU) (PHIG) (PHIG)
                 (SGG) (PIG) (PIG) (SGU) (PIU) (PIU) (DLTU) (DLTU)
                 (SGU) (?A) (?A) (SGG) (PIU) (PIU) (PHIU) (PHIU)
                 (SGG) (DLTG) (DLTG) (PIG) (PIG) (PIU) (PIU) (SGG)
                 (?B) (?B) (DLTU) (DLTU) (PIG) (PIG) (DLTG) (DLTG)
                 (PHIU) (PHIU) (SGU) (PHIG) (PHIG) (PIG) (PIG)
                 (SGU) (DLTG) (DLTG) (PIU) (PIU) (SGG) (DLTU) (DLTU)
                 (PHIG) (PHIG) (SGU) (PIU) (PIU) (?C) (?C) (SGU)
                 (?A) (?A) (DLTU) (DLTU) (PIG) (PIG) (SGG) (?D)
                 (?D) (PIU) (PIU) (PHIU) (PHIU) (SGG) (?B) (?B)
                 (DLTG) (DLTG) (DLTU) (DLTU) (PIG) (PIG) (?A) (?A)
                 (PHIU) (PHIU) (SGU) (SGG) (SGU) (PHIG) (PHIG)
                 (PIG) (PIG) (?B) (?B) (PIU) (PIU) (DLTG) (DLTG)
                 (DLTG) (DLTG) (PHIU) (PHIU) (DLTU) (DLTU) (SGG)
                 (PHIG) (PHIG) (SGG) (PIU) (PIU) (PIG) (PIG) (DLTG)
                 (DLTG) (PHIG) (PHIG) (SGU) (PIG) (PIG) (PIU) (PIU)
                 (?C) (?C) (?E) (?E) (DLTU) (DLTU) (SGU) (?F) (?F)
                 (SGG) (?A) (?A) (SGU) (?D) (?D) (PIU) (PIU) (DLTU)
                 (DLTU) (PIG) (PIG) (PHIU) (PHIU) (SGG) (SGU) (?A)
                 (?A) (?B) (?B) (?C) (?C) (PIU) (PIU) (DLTG) (DLTG)
                 (PIG) (PIG) (DLTU) (DLTU) (?D) (?D) (PHIU) (PHIU)
                 (DLTG) (DLTG) (SGG) (PHIG) (PHIG) (?B) (?B) (PIG)
                 (PIG) (PIU) (PIU) (SGU) (?A) (?A) (SGG) (PHIU)
                 (PHIU) (?B) (?B) (PIG) (PIG) (PHIG) (PHIG) (DLTU)
                 (DLTU) (PIU) (PIU) (SGU) (SGG) (DLTG) (DLTG) (PHIU)
                 (PHIU) (DLTU) (DLTU) (SGU) (PHIG) (PHIG) (PIG)
                 (PIG) (PHIG) (PHIG) (DLTG) (DLTG) (SGG) (PIU)
                 (PIU) (DLTG) (DLTG) (SGG) (SGU) (DLTU) (DLTU)
                 (SGU) (PIU) (PIU) (PIG) (PIG) (DLTU) (DLTU) (PIG)
                 (PIG) (SGG) (?A) (?A) (PHIU) (PHIU) (PIU) (PIU)
                 (?C) (?C) (SGU) (?E) (?E) (DLTG) (DLTG) (?F) (?F)
                 (?D) (?D) (SGG) (PIU) (PIU) (PIG) (PIG) (?B) (?B)
                 (SGG) (?C) (?C) (?A) (?A) (?D) (?D) (PHIG) (PHIG)
                 (PHIU) (PHIU) (?B) (?B) (DLTU) (DLTU) (SGU) (SGU)
                 (PIG) (PIG) (PIU) (PIU) (?A) (?A) (SGG) (PHIU)
                 (PHIU) (DLTU) (DLTU) (?B) (?B) (PHIG) (PHIG) (DLTG)
                 (DLTG) (DLTG) (DLTG) (PIG) (PIG) (PHIG) (PHIG)
                 (SGU) (PIU) (PIU) (SGG) (SGU) (DLTU) (DLTU) (PHIU)
                 (PHIU) (PHIG) (PHIG) (PIG) (PIG) (DLTG) (DLTG)
                 (PIU) (PIU) (DLTU) (DLTU) (DLTG) (DLTG) (SGU)
                 (?A) (?A) (SGG) (PHIU) (PHIU) (?C) (?C) (?E) (?E)
                 (PIG) (PIG) (?G) (?G) (?H) (?H) (?F) (?F) (DLTU)
                 (DLTU) (?D) (?D) (SGG) (DLTG) (DLTG) (SGU) (PIU)
                 (PIU) (?B) (?B) (PIU) (PIU) (SGG) (PIG) (PIG)
                 (SGU) (PIU) (PIU) (PIG) (PIG) (PHIG) (PHIG) (SGG)
                 (SGU) (DLTU) (DLTU) (PIG) (PIG) (SGG) (?A) (?A)
                 (?C) (?C) (PHIU) (PHIU) (?E) (?E) (DLTG) (DLTG)
                 (?A) (?A) (?B) (?B) (SGG) (?F) (?F) (PIU) (PIU)
                 (PHIU) (PHIU) (?C) (?C) (?A) (?A) (PHIG) (PHIG)
                 (?D) (?D) (SGU) (?D) (?D) (?B) (?B) (DLTU) (DLTU)
                 (PHIU) (PHIU) (?B) (?B) (DLTG) (DLTG) (PIG) (PIG)
                 (PIU) (PIU) (PHIG) (PHIG) (DLTU) (DLTU) (PIG)
                 (PIG) (SGG) (DLTG) (DLTG) (SGU) (PHIG) (PHIG)
                 (SGU) (SGU) (PIU) (PIU) (DLTU) (DLTU) (SGG) (PHIU)
                 (PHIU) (PIG) (PIG) (SGU) (PHIG) (PHIG) (DLTG)
                 (DLTG) (DLTU) (DLTU) (PIU) (PIU) (PIG) (PIG) (SGG)
                 (SGU) (DLTG) (DLTG) (DLTU) (DLTU) (PIU) (PIU)
                 (PIG) (PIG) (SGU) (SGG) (SGG) (SGU) (PIU) (PIU)
                 (PIG) (PIG) (SGG) (SGU) (SGG) (SGU)
 The electronic state of the initial guess is 3-SGG.
 Requested convergence on RMS density matrix=1.00D-10 within 128 cycles.
 Requested convergence on MAX density matrix=1.00D-08.
 Requested convergence on             energy=1.00D-08.
 No special actions if energy rises.
 Initial convergence to 1.0D-05 achieved.  Increase integral accuracy.
 SCF Done:  E(ROHF) =  -4799.79019412     A.U. after   17 cycles
            NFock= 17  Conv=0.46D-10     -V/T= 2.0000
 <Sx>= 0.0000 <Sy>= 0.0000 <Sz>= 1.0000 <S**2>= 2.0000 S= 1.0000
 <L.S>= 0.000000000000E+00
 Annihilation of the first spin contaminant:
 S**2 before annihilation     2.0000,   after     2.0000
 GenMOA:  NOpAll=  8 NOp2=8 NOpUse=  8 JSym2X=1
 <Sx>= 0.0000 <Sy>= 0.0000 <Sz>= 1.0000 <S**2>= 2.0000 S= 1.0000
 Range of M.O.s used for correlation:    29   532
 NBasis=   532 NAE=    35 NBE=    33 NFC=    28 NFV=     0
 NROrb=    504 NOA=     7 NOB=     5 NVA=   497 NVB=   499

 **** Warning!!: The largest alpha MO coefficient is  0.11909531D+04


 **** Warning!!: The largest beta MO coefficient is  0.11932149D+04

 Singles contribution to E2=   -0.6803596491D-02
 Disk-based method using OVN memory for  7 occupieds at a time.
 Permanent disk used for amplitudes and <ij||ab> integrals=    25021982 words.
 Estimated scratch disk usage=  1669821115 words.
 IUseRI=2 ITolRI= 6 IR12RI=0
 Actual    scratch disk usage=  1662403209 words.
 GetIJB would need an additional  1735180431 words of memory to use all   8 processors.
 JobTyp=2 Pass  1:  I=   1 to   7 NPSUse=  1 ParTrn=F ParDer=F DoDerP=F.
 (rs|ai) integrals will be sorted in core.
 T,EIJ(AA): I=   1 J=   2      0.1303831E-03     -0.4392803E-03
 T,EIJ(AA): I=   1 J=   3      0.2137496E-03     -0.7009159E-03
 T,EIJ(AA): I=   1 J=   4      0.3419995E-03     -0.1062445E-02
 T,EIJ(AA): I=   1 J=   5      0.3419995E-03     -0.1062445E-02
 T,EIJ(AA): I=   1 J=   6      0.2909515E-03     -0.9169104E-03
 T,EIJ(AA): I=   1 J=   7      0.2909515E-03     -0.9169104E-03
 T,EIJ(AA): I=   2 J=   3      0.6746004E-03     -0.1686362E-02
 T,EIJ(AA): I=   2 J=   4      0.5340777E-03     -0.1334172E-02
 T,EIJ(AA): I=   2 J=   5      0.5340777E-03     -0.1334172E-02
 T,EIJ(AA): I=   2 J=   6      0.4552658E-03     -0.1204617E-02
 T,EIJ(AA): I=   2 J=   7      0.4552658E-03     -0.1204617E-02
 T,EIJ(AA): I=   3 J=   4      0.1523836E-02     -0.3315514E-02
 T,EIJ(AA): I=   3 J=   5      0.1523836E-02     -0.3315514E-02
 T,EIJ(AA): I=   3 J=   6      0.2645077E-02     -0.4749591E-02
 T,EIJ(AA): I=   3 J=   7      0.2645077E-02     -0.4749591E-02
 T,EIJ(AA): I=   4 J=   5      0.1550809E-02     -0.3222793E-02
 T,EIJ(AA): I=   4 J=   6      0.4916193E-03     -0.9381084E-03
 T,EIJ(AA): I=   4 J=   7      0.1409712E-02     -0.2938735E-02
 T,EIJ(AA): I=   5 J=   6      0.1409712E-02     -0.2938735E-02
 T,EIJ(AA): I=   5 J=   7      0.4916193E-03     -0.9381084E-03
 T,EIJ(AA): I=   6 J=   7      0.1986193E-02     -0.3802849E-02
 T,EIJ(AB): I=   1 J=   1      0.1897416E-02     -0.7526521E-02
 T,EIJ(AB): I=   1 J=   2      0.1070717E-02     -0.4144933E-02
 T,EIJ(AB): I=   1 J=   3      0.1374856E-02     -0.5164806E-02
 T,EIJ(AB): I=   1 J=   4      0.1711405E-02     -0.5167020E-02
 T,EIJ(AB): I=   1 J=   5      0.1711405E-02     -0.5167020E-02
 T,EIJ(AB): I=   2 J=   1      0.1032304E-02     -0.3991893E-02
 T,EIJ(AB): I=   2 J=   2      0.2394052E-02     -0.7606779E-02
 T,EIJ(AB): I=   2 J=   3      0.2400814E-02     -0.6973225E-02
 T,EIJ(AB): I=   2 J=   4      0.1929241E-02     -0.5161341E-02
 T,EIJ(AB): I=   2 J=   5      0.1929241E-02     -0.5161341E-02
 T,EIJ(AB): I=   3 J=   1      0.1749252E-02     -0.6226269E-02
 T,EIJ(AB): I=   3 J=   2      0.3513964E-02     -0.8609430E-02
 T,EIJ(AB): I=   3 J=   3      0.8331216E-02     -0.1656143E-01
 T,EIJ(AB): I=   3 J=   4      0.6894603E-02     -0.1010302E-01
 T,EIJ(AB): I=   3 J=   5      0.6894603E-02     -0.1010302E-01
 T,EIJ(AB): I=   4 J=   1      0.1624726E-02     -0.5215356E-02
 T,EIJ(AB): I=   4 J=   2      0.2723650E-02     -0.6467692E-02
 T,EIJ(AB): I=   4 J=   3      0.2149214E-02     -0.5162595E-02
 T,EIJ(AB): I=   4 J=   4      0.2627488E-02     -0.5413541E-02
 T,EIJ(AB): I=   4 J=   5      0.5504413E-02     -0.1158716E-01
 T,EIJ(AB): I=   5 J=   1      0.1624726E-02     -0.5215356E-02
 T,EIJ(AB): I=   5 J=   2      0.2723650E-02     -0.6467692E-02
 T,EIJ(AB): I=   5 J=   3      0.2149214E-02     -0.5162595E-02
 T,EIJ(AB): I=   5 J=   4      0.5504413E-02     -0.1158716E-01
 T,EIJ(AB): I=   5 J=   5      0.2627488E-02     -0.5413541E-02
 T,EIJ(AB): I=   6 J=   1      0.1465196E-02     -0.4373460E-02
 T,EIJ(AB): I=   6 J=   2      0.3251811E-02     -0.7828314E-02
 T,EIJ(AB): I=   6 J=   3      0.3528750E-02     -0.7028701E-02
 T,EIJ(AB): I=   6 J=   4      0.4064899E-02     -0.6725663E-02
 T,EIJ(AB): I=   6 J=   5      0.7109863E-02     -0.1278298E-01
 T,EIJ(AB): I=   7 J=   1      0.1465196E-02     -0.4373460E-02
 T,EIJ(AB): I=   7 J=   2      0.3251811E-02     -0.7828314E-02
 T,EIJ(AB): I=   7 J=   3      0.3528750E-02     -0.7028701E-02
 T,EIJ(AB): I=   7 J=   4      0.7109863E-02     -0.1278298E-01
 T,EIJ(AB): I=   7 J=   5      0.4064899E-02     -0.6725663E-02
 Actual    scratch disk usage=  1669093051 words.
 GetIJB would need an additional  1735168447 words of memory to use all   8 processors.
 JobTyp=3 Pass  1:  I=   1 to   5 NPSUse=  1 ParTrn=F ParDer=F DoDerP=F.
 (rs|ai) integrals will be sorted in core.
 T,EIJ(BB): I=   1 J=   2      0.2951200E-03     -0.8245635E-03
 T,EIJ(BB): I=   1 J=   3      0.3014380E-03     -0.9006592E-03
 T,EIJ(BB): I=   1 J=   4      0.7495889E-03     -0.1838313E-02
 T,EIJ(BB): I=   1 J=   5      0.7495889E-03     -0.1838313E-02
 T,EIJ(BB): I=   2 J=   3      0.1060487E-02     -0.2251385E-02
 T,EIJ(BB): I=   2 J=   4      0.1743905E-02     -0.3132688E-02
 T,EIJ(BB): I=   2 J=   5      0.1743905E-02     -0.3132688E-02
 T,EIJ(BB): I=   3 J=   4      0.5790741E-02     -0.7620516E-02
 T,EIJ(BB): I=   3 J=   5      0.5790741E-02     -0.7620516E-02
 T,EIJ(BB): I=   4 J=   5      0.1147701E-01     -0.1068318E-01
 Spin components of T(2) and E(2):
     alpha-alpha T2 =       0.1994081113D-01 E2=     -0.4277238278D-01
     alpha-beta  T2 =       0.1129351084D+00 E2=     -0.2528389763D+00
     beta-beta   T2 =       0.2970252556D-01 E2=     -0.3984282680D-01
 ANorm=    0.1081648217D+01
 E2 =    -0.3422577823D+00 EUMP2 =    -0.48001324519063D+04

 Complete Basis Set (CBS) Extrapolation:
 M. R. Nyden and G. A. Petersson, JCP 75, 1843 (1981)
 G. A. Petersson and M. A. Al-Laham, JCP 94, 6081 (1991)
 G. A. Petersson, T. Tensfeldt, and J. A. Montgomery, JCP 94, 6091 (1991)
 J. A. Montgomery, J. W. Ochterski, and G. A. Petersson, JCP 101, 5900 (1994)
 
 Minimum Number of PNO for Extrapolation =  25
 Absolute Overlaps: IRadAn =         5
 LocTrn: ILocal=3 LocCor=F DoCore=F.
 Entering OneElI...
 Overlap between basis sets.
 Requested accuracy = 0.1000D-12
 PrsmSu:  NPrtUS=   1 ThrOK=F IAlg=1 NPAlg=1 LenDen=           0.
 Prism:   IPart=     0 DynPar=F LinDyn=F Incr=           1.
 PRISM was handed  1609284045 working-precision words and   136 shell-pairs
 IPart=  0 NShTot=         136 NBatch=          15 AvBLen=         9.1
 PrSmSu:  NxtVal=              2.
 CnvPC2: ToCart=F DoDens=F IPureD=0 IPureF=0.
 Transformed matrix in CnvPC2: 
                 1             2             3             4             5 
      1   0.100000D+01  0.405100D+00  0.000000D+00  0.000000D+00  0.000000D+00
      2   0.405100D+00  0.100000D+01  0.000000D+00  0.000000D+00  0.000000D+00
      3   0.000000D+00  0.000000D+00  0.100000D+01  0.000000D+00  0.000000D+00
      4   0.000000D+00  0.000000D+00  0.000000D+00  0.100000D+01  0.000000D+00
      5   0.000000D+00  0.000000D+00  0.000000D+00  0.000000D+00  0.100000D+01
      6   0.306349D-01  0.351216D+00  0.000000D+00  0.000000D+00  0.000000D+00
      7   0.000000D+00  0.000000D+00  0.364086D+00  0.000000D+00  0.000000D+00
      8   0.000000D+00  0.000000D+00  0.000000D+00  0.364086D+00  0.000000D+00
      9   0.000000D+00  0.000000D+00  0.000000D+00  0.000000D+00  0.364086D+00
     10   0.000000D+00  0.000000D+00  0.000000D+00  0.000000D+00  0.000000D+00
     11   0.000000D+00  0.000000D+00  0.000000D+00  0.000000D+00  0.000000D+00
     12   0.000000D+00  0.000000D+00  0.000000D+00  0.000000D+00  0.000000D+00
     13   0.000000D+00  0.000000D+00  0.000000D+00  0.000000D+00  0.000000D+00
     14   0.000000D+00  0.000000D+00  0.000000D+00  0.000000D+00  0.000000D+00
     15  -0.386923D-03  0.519359D-02  0.000000D+00  0.000000D+00  0.000000D+00
     16   0.000000D+00  0.000000D+00  0.135458D-01  0.000000D+00  0.000000D+00
     17   0.000000D+00  0.000000D+00  0.000000D+00  0.135458D-01  0.000000D+00
     18   0.000000D+00  0.000000D+00  0.000000D+00  0.000000D+00  0.135458D-01
     19   0.000000D+00  0.000000D+00  0.000000D+00  0.000000D+00  0.000000D+00
     20   0.000000D+00  0.000000D+00  0.000000D+00  0.000000D+00  0.000000D+00
     21   0.000000D+00  0.000000D+00  0.000000D+00  0.000000D+00  0.000000D+00
     22   0.000000D+00  0.000000D+00  0.000000D+00  0.000000D+00  0.000000D+00
     23   0.000000D+00  0.000000D+00  0.000000D+00  0.000000D+00  0.000000D+00
     24   0.000000D+00  0.000000D+00  0.000000D+00  0.000000D+00  0.000000D+00
     25   0.000000D+00  0.000000D+00  0.000000D+00  0.000000D+00  0.000000D+00
     26   0.000000D+00  0.000000D+00  0.000000D+00  0.000000D+00  0.000000D+00
     27   0.000000D+00  0.000000D+00  0.000000D+00  0.000000D+00  0.000000D+00
     28   0.000000D+00  0.000000D+00  0.000000D+00  0.000000D+00  0.000000D+00
     29   0.000000D+00  0.000000D+00  0.000000D+00  0.000000D+00  0.000000D+00
     30   0.000000D+00  0.000000D+00  0.000000D+00  0.000000D+00  0.000000D+00
     31   0.000000D+00  0.000000D+00  0.000000D+00  0.000000D+00  0.000000D+00
     32   0.000000D+00  0.000000D+00  0.000000D+00  0.000000D+00  0.000000D+00
     33   0.000000D+00  0.000000D+00  0.000000D+00  0.000000D+00  0.000000D+00
     34   0.000000D+00  0.000000D+00  0.000000D+00  0.000000D+00  0.000000D+00
     35   0.000000D+00  0.000000D+00  0.000000D+00  0.000000D+00  0.000000D+00
     36   0.000000D+00  0.000000D+00  0.000000D+00  0.000000D+00  0.000000D+00
     37   0.000000D+00  0.000000D+00  0.000000D+00  0.000000D+00  0.000000D+00
     38   0.621316D-03  0.384497D-02  0.000000D+00  0.000000D+00 -0.996175D-03
     39   0.000000D+00  0.000000D+00  0.278475D-03  0.000000D+00  0.000000D+00
     40   0.000000D+00  0.000000D+00  0.000000D+00  0.278475D-03  0.000000D+00
     41   0.114685D-02  0.705860D-02  0.000000D+00  0.000000D+00 -0.165429D-02
     42   0.513214D-02  0.310219D-01  0.000000D+00  0.000000D+00 -0.447085D-02
     43   0.000000D+00  0.000000D+00  0.212344D-02  0.000000D+00  0.000000D+00
     44   0.000000D+00  0.000000D+00  0.000000D+00  0.212344D-02  0.000000D+00
     45   0.000000D+00  0.000000D+00  0.000000D+00  0.000000D+00  0.000000D+00
     46   0.000000D+00  0.000000D+00  0.000000D+00  0.000000D+00  0.000000D+00
                 6             7             8             9            10 
      1   0.306349D-01  0.000000D+00  0.000000D+00  0.000000D+00  0.000000D+00
      2   0.351216D+00  0.000000D+00  0.000000D+00  0.000000D+00  0.000000D+00
      3   0.000000D+00  0.364086D+00  0.000000D+00  0.000000D+00  0.000000D+00
      4   0.000000D+00  0.000000D+00  0.364086D+00  0.000000D+00  0.000000D+00
      5   0.000000D+00  0.000000D+00  0.000000D+00  0.364086D+00  0.000000D+00
      6   0.100000D+01  0.000000D+00  0.000000D+00  0.000000D+00  0.000000D+00
      7   0.000000D+00  0.100000D+01  0.000000D+00  0.000000D+00  0.000000D+00
      8   0.000000D+00  0.000000D+00  0.100000D+01  0.000000D+00  0.000000D+00
      9   0.000000D+00  0.000000D+00  0.000000D+00  0.100000D+01  0.000000D+00
     10   0.000000D+00  0.000000D+00  0.000000D+00  0.000000D+00  0.100000D+01
     11   0.000000D+00  0.000000D+00  0.000000D+00  0.000000D+00  0.000000D+00
     12   0.000000D+00  0.000000D+00  0.000000D+00  0.000000D+00  0.000000D+00
     13   0.000000D+00  0.000000D+00  0.000000D+00  0.000000D+00  0.000000D+00
     14   0.000000D+00  0.000000D+00  0.000000D+00  0.000000D+00  0.000000D+00
     15   0.192427D+00  0.000000D+00  0.000000D+00  0.000000D+00  0.000000D+00
     16   0.000000D+00  0.209028D+00  0.000000D+00  0.000000D+00  0.000000D+00
     17   0.000000D+00  0.000000D+00  0.209028D+00  0.000000D+00  0.000000D+00
     18   0.000000D+00  0.000000D+00  0.000000D+00  0.209028D+00  0.000000D+00
     19   0.000000D+00  0.000000D+00  0.000000D+00  0.000000D+00  0.473157D-01
     20   0.000000D+00  0.000000D+00  0.000000D+00  0.000000D+00  0.000000D+00
     21   0.000000D+00  0.000000D+00  0.000000D+00  0.000000D+00  0.000000D+00
     22   0.000000D+00  0.000000D+00  0.000000D+00  0.000000D+00  0.000000D+00
     23   0.000000D+00  0.000000D+00  0.000000D+00  0.000000D+00  0.000000D+00
     24   0.000000D+00  0.000000D+00  0.000000D+00  0.000000D+00  0.000000D+00
     25   0.000000D+00  0.000000D+00  0.000000D+00  0.000000D+00  0.000000D+00
     26   0.000000D+00  0.000000D+00  0.000000D+00  0.000000D+00  0.000000D+00
     27   0.000000D+00  0.000000D+00  0.000000D+00  0.000000D+00  0.000000D+00
     28   0.000000D+00  0.000000D+00  0.000000D+00  0.000000D+00  0.000000D+00
     29   0.000000D+00  0.000000D+00  0.000000D+00  0.000000D+00  0.000000D+00
     30   0.000000D+00  0.000000D+00  0.000000D+00  0.000000D+00  0.000000D+00
     31   0.000000D+00  0.000000D+00  0.000000D+00  0.000000D+00  0.000000D+00
     32   0.000000D+00  0.000000D+00  0.000000D+00  0.000000D+00  0.000000D+00
     33   0.000000D+00  0.000000D+00  0.000000D+00  0.000000D+00  0.000000D+00
     34   0.000000D+00  0.000000D+00  0.000000D+00  0.000000D+00  0.000000D+00
     35   0.000000D+00  0.000000D+00  0.000000D+00  0.000000D+00  0.000000D+00
     36   0.000000D+00  0.000000D+00  0.000000D+00  0.000000D+00  0.000000D+00
     37   0.000000D+00  0.000000D+00  0.000000D+00  0.000000D+00  0.000000D+00
     38   0.226069D-01  0.000000D+00  0.000000D+00 -0.156212D-01  0.592837D-02
     39   0.000000D+00  0.452225D-02  0.000000D+00  0.000000D+00  0.000000D+00
     40   0.000000D+00  0.000000D+00  0.452225D-02  0.000000D+00  0.000000D+00
     41   0.400246D-01  0.000000D+00  0.000000D+00 -0.256043D-01  0.952279D-02
     42   0.152183D+00  0.000000D+00  0.000000D+00 -0.586863D-01  0.111024D-01
     43   0.000000D+00  0.304739D-01  0.000000D+00  0.000000D+00  0.000000D+00
     44   0.000000D+00  0.000000D+00  0.304739D-01  0.000000D+00  0.000000D+00
     45   0.000000D+00  0.000000D+00  0.000000D+00  0.000000D+00  0.000000D+00
     46   0.000000D+00  0.000000D+00  0.000000D+00  0.000000D+00  0.000000D+00
                11            12            13            14            15 
      1   0.000000D+00  0.000000D+00  0.000000D+00  0.000000D+00 -0.386923D-03
      2   0.000000D+00  0.000000D+00  0.000000D+00  0.000000D+00  0.519359D-02
      3   0.000000D+00  0.000000D+00  0.000000D+00  0.000000D+00  0.000000D+00
      4   0.000000D+00  0.000000D+00  0.000000D+00  0.000000D+00  0.000000D+00
      5   0.000000D+00  0.000000D+00  0.000000D+00  0.000000D+00  0.000000D+00
      6   0.000000D+00  0.000000D+00  0.000000D+00  0.000000D+00  0.192427D+00
      7   0.000000D+00  0.000000D+00  0.000000D+00  0.000000D+00  0.000000D+00
      8   0.000000D+00  0.000000D+00  0.000000D+00  0.000000D+00  0.000000D+00
      9   0.000000D+00  0.000000D+00  0.000000D+00  0.000000D+00  0.000000D+00
     10   0.000000D+00  0.000000D+00  0.000000D+00  0.000000D+00  0.000000D+00
     11   0.100000D+01  0.000000D+00  0.000000D+00  0.000000D+00  0.000000D+00
     12   0.000000D+00  0.100000D+01  0.000000D+00  0.000000D+00  0.000000D+00
     13   0.000000D+00  0.000000D+00  0.100000D+01  0.000000D+00  0.000000D+00
     14   0.000000D+00  0.000000D+00  0.000000D+00  0.100000D+01  0.000000D+00
     15   0.000000D+00  0.000000D+00  0.000000D+00  0.000000D+00  0.100000D+01
     16   0.000000D+00  0.000000D+00  0.000000D+00  0.000000D+00  0.000000D+00
     17   0.000000D+00  0.000000D+00  0.000000D+00  0.000000D+00  0.000000D+00
     18   0.000000D+00  0.000000D+00  0.000000D+00  0.000000D+00  0.000000D+00
     19   0.000000D+00  0.000000D+00  0.000000D+00  0.000000D+00  0.000000D+00
     20   0.473157D-01  0.000000D+00  0.000000D+00  0.000000D+00  0.000000D+00
     21   0.000000D+00  0.473157D-01  0.000000D+00  0.000000D+00  0.000000D+00
     22   0.000000D+00  0.000000D+00  0.473157D-01  0.000000D+00  0.000000D+00
     23   0.000000D+00  0.000000D+00  0.000000D+00  0.473157D-01  0.000000D+00
     24   0.000000D+00  0.000000D+00  0.000000D+00  0.000000D+00  0.621316D-03
     25   0.000000D+00  0.000000D+00  0.000000D+00  0.000000D+00  0.384497D-02
     26   0.000000D+00  0.000000D+00  0.000000D+00  0.000000D+00  0.000000D+00
     27   0.000000D+00  0.000000D+00  0.000000D+00  0.000000D+00  0.000000D+00
     28   0.000000D+00  0.000000D+00  0.000000D+00  0.000000D+00  0.996175D-03
     29   0.000000D+00  0.000000D+00  0.000000D+00  0.000000D+00  0.226069D-01
     30   0.000000D+00  0.000000D+00  0.000000D+00  0.000000D+00  0.000000D+00
     31   0.000000D+00  0.000000D+00  0.000000D+00  0.000000D+00  0.000000D+00
     32   0.000000D+00  0.000000D+00  0.000000D+00  0.000000D+00  0.156212D-01
     33   0.000000D+00  0.000000D+00  0.000000D+00  0.000000D+00  0.592837D-02
     34   0.000000D+00  0.000000D+00  0.000000D+00  0.000000D+00  0.000000D+00
     35   0.000000D+00  0.000000D+00  0.000000D+00  0.000000D+00  0.000000D+00
     36   0.000000D+00  0.000000D+00  0.000000D+00  0.000000D+00  0.000000D+00
     37   0.000000D+00  0.000000D+00  0.000000D+00  0.000000D+00  0.000000D+00
     38   0.000000D+00  0.000000D+00  0.000000D+00  0.000000D+00  0.224208D+00
     39  -0.320840D-02  0.000000D+00  0.000000D+00  0.000000D+00  0.000000D+00
     40   0.000000D+00 -0.320840D-02  0.000000D+00  0.000000D+00  0.000000D+00
     41   0.000000D+00  0.000000D+00  0.000000D+00  0.000000D+00  0.289086D+00
     42   0.000000D+00  0.000000D+00  0.000000D+00  0.000000D+00  0.402090D+00
     43  -0.141610D-01  0.000000D+00  0.000000D+00  0.000000D+00  0.000000D+00
     44   0.000000D+00 -0.141610D-01  0.000000D+00  0.000000D+00  0.000000D+00
     45   0.000000D+00  0.000000D+00  0.325648D-02  0.000000D+00  0.000000D+00
     46   0.000000D+00  0.000000D+00  0.000000D+00  0.325648D-02  0.000000D+00
                16            17            18            19            20 
      1   0.000000D+00  0.000000D+00  0.000000D+00  0.000000D+00  0.000000D+00
      2   0.000000D+00  0.000000D+00  0.000000D+00  0.000000D+00  0.000000D+00
      3   0.135458D-01  0.000000D+00  0.000000D+00  0.000000D+00  0.000000D+00
      4   0.000000D+00  0.135458D-01  0.000000D+00  0.000000D+00  0.000000D+00
      5   0.000000D+00  0.000000D+00  0.135458D-01  0.000000D+00  0.000000D+00
      6   0.000000D+00  0.000000D+00  0.000000D+00  0.000000D+00  0.000000D+00
      7   0.209028D+00  0.000000D+00  0.000000D+00  0.000000D+00  0.000000D+00
      8   0.000000D+00  0.209028D+00  0.000000D+00  0.000000D+00  0.000000D+00
      9   0.000000D+00  0.000000D+00  0.209028D+00  0.000000D+00  0.000000D+00
     10   0.000000D+00  0.000000D+00  0.000000D+00  0.473157D-01  0.000000D+00
     11   0.000000D+00  0.000000D+00  0.000000D+00  0.000000D+00  0.473157D-01
     12   0.000000D+00  0.000000D+00  0.000000D+00  0.000000D+00  0.000000D+00
     13   0.000000D+00  0.000000D+00  0.000000D+00  0.000000D+00  0.000000D+00
     14   0.000000D+00  0.000000D+00  0.000000D+00  0.000000D+00  0.000000D+00
     15   0.000000D+00  0.000000D+00  0.000000D+00  0.000000D+00  0.000000D+00
     16   0.100000D+01  0.000000D+00  0.000000D+00  0.000000D+00  0.000000D+00
     17   0.000000D+00  0.100000D+01  0.000000D+00  0.000000D+00  0.000000D+00
     18   0.000000D+00  0.000000D+00  0.100000D+01  0.000000D+00  0.000000D+00
     19   0.000000D+00  0.000000D+00  0.000000D+00  0.100000D+01  0.000000D+00
     20   0.000000D+00  0.000000D+00  0.000000D+00  0.000000D+00  0.100000D+01
     21   0.000000D+00  0.000000D+00  0.000000D+00  0.000000D+00  0.000000D+00
     22   0.000000D+00  0.000000D+00  0.000000D+00  0.000000D+00  0.000000D+00
     23   0.000000D+00  0.000000D+00  0.000000D+00  0.000000D+00  0.000000D+00
     24   0.000000D+00  0.000000D+00 -0.114685D-02  0.513214D-02  0.000000D+00
     25   0.000000D+00  0.000000D+00 -0.705860D-02  0.310219D-01  0.000000D+00
     26   0.278475D-03  0.000000D+00  0.000000D+00  0.000000D+00 -0.212344D-02
     27   0.000000D+00  0.278475D-03  0.000000D+00  0.000000D+00  0.000000D+00
     28   0.000000D+00  0.000000D+00 -0.165429D-02  0.447085D-02  0.000000D+00
     29   0.000000D+00  0.000000D+00 -0.400246D-01  0.152183D+00  0.000000D+00
     30   0.452225D-02  0.000000D+00  0.000000D+00  0.000000D+00 -0.304739D-01
     31   0.000000D+00  0.452225D-02  0.000000D+00  0.000000D+00  0.000000D+00
     32   0.000000D+00  0.000000D+00 -0.256043D-01  0.586863D-01  0.000000D+00
     33   0.000000D+00  0.000000D+00 -0.952279D-02  0.111024D-01  0.000000D+00
     34   0.320840D-02  0.000000D+00  0.000000D+00  0.000000D+00 -0.141610D-01
     35   0.000000D+00  0.320840D-02  0.000000D+00  0.000000D+00  0.000000D+00
     36   0.000000D+00  0.000000D+00  0.000000D+00  0.000000D+00  0.000000D+00
     37   0.000000D+00  0.000000D+00  0.000000D+00  0.000000D+00  0.000000D+00
     38   0.000000D+00  0.000000D+00 -0.289086D+00  0.402090D+00  0.000000D+00
     39   0.113102D+00  0.000000D+00  0.000000D+00  0.000000D+00 -0.337498D+00
     40   0.000000D+00  0.113102D+00  0.000000D+00  0.000000D+00  0.000000D+00
     41   0.000000D+00  0.000000D+00 -0.349435D+00  0.278141D+00  0.000000D+00
     42   0.000000D+00  0.000000D+00 -0.278141D+00 -0.225190D-01  0.000000D+00
     43   0.337498D+00  0.000000D+00  0.000000D+00  0.000000D+00 -0.444907D+00
     44   0.000000D+00  0.337498D+00  0.000000D+00  0.000000D+00  0.000000D+00
     45   0.000000D+00  0.000000D+00  0.000000D+00  0.000000D+00  0.000000D+00
     46   0.000000D+00  0.000000D+00  0.000000D+00  0.000000D+00  0.000000D+00
                21            22            23            24            25 
      1   0.000000D+00  0.000000D+00  0.000000D+00  0.000000D+00  0.000000D+00
      2   0.000000D+00  0.000000D+00  0.000000D+00  0.000000D+00  0.000000D+00
      3   0.000000D+00  0.000000D+00  0.000000D+00  0.000000D+00  0.000000D+00
      4   0.000000D+00  0.000000D+00  0.000000D+00  0.000000D+00  0.000000D+00
      5   0.000000D+00  0.000000D+00  0.000000D+00  0.000000D+00  0.000000D+00
      6   0.000000D+00  0.000000D+00  0.000000D+00  0.000000D+00  0.000000D+00
      7   0.000000D+00  0.000000D+00  0.000000D+00  0.000000D+00  0.000000D+00
      8   0.000000D+00  0.000000D+00  0.000000D+00  0.000000D+00  0.000000D+00
      9   0.000000D+00  0.000000D+00  0.000000D+00  0.000000D+00  0.000000D+00
     10   0.000000D+00  0.000000D+00  0.000000D+00  0.000000D+00  0.000000D+00
     11   0.000000D+00  0.000000D+00  0.000000D+00  0.000000D+00  0.000000D+00
     12   0.473157D-01  0.000000D+00  0.000000D+00  0.000000D+00  0.000000D+00
     13   0.000000D+00  0.473157D-01  0.000000D+00  0.000000D+00  0.000000D+00
     14   0.000000D+00  0.000000D+00  0.473157D-01  0.000000D+00  0.000000D+00
     15   0.000000D+00  0.000000D+00  0.000000D+00  0.621316D-03  0.384497D-02
     16   0.000000D+00  0.000000D+00  0.000000D+00  0.000000D+00  0.000000D+00
     17   0.000000D+00  0.000000D+00  0.000000D+00  0.000000D+00  0.000000D+00
     18   0.000000D+00  0.000000D+00  0.000000D+00 -0.114685D-02 -0.705860D-02
     19   0.000000D+00  0.000000D+00  0.000000D+00  0.513214D-02  0.310219D-01
     20   0.000000D+00  0.000000D+00  0.000000D+00  0.000000D+00  0.000000D+00
     21   0.100000D+01  0.000000D+00  0.000000D+00  0.000000D+00  0.000000D+00
     22   0.000000D+00  0.100000D+01  0.000000D+00  0.000000D+00  0.000000D+00
     23   0.000000D+00  0.000000D+00  0.100000D+01  0.000000D+00  0.000000D+00
     24   0.000000D+00  0.000000D+00  0.000000D+00  0.100000D+01  0.405100D+00
     25   0.000000D+00  0.000000D+00  0.000000D+00  0.405100D+00  0.100000D+01
     26   0.000000D+00  0.000000D+00  0.000000D+00  0.000000D+00  0.000000D+00
     27  -0.212344D-02  0.000000D+00  0.000000D+00  0.000000D+00  0.000000D+00
     28   0.000000D+00  0.000000D+00  0.000000D+00  0.000000D+00  0.000000D+00
     29   0.000000D+00  0.000000D+00  0.000000D+00  0.306349D-01  0.351216D+00
     30   0.000000D+00  0.000000D+00  0.000000D+00  0.000000D+00  0.000000D+00
     31  -0.304739D-01  0.000000D+00  0.000000D+00  0.000000D+00  0.000000D+00
     32   0.000000D+00  0.000000D+00  0.000000D+00  0.000000D+00  0.000000D+00
     33   0.000000D+00  0.000000D+00  0.000000D+00  0.000000D+00  0.000000D+00
     34   0.000000D+00  0.000000D+00  0.000000D+00  0.000000D+00  0.000000D+00
     35  -0.141610D-01  0.000000D+00  0.000000D+00  0.000000D+00  0.000000D+00
     36   0.000000D+00  0.325648D-02  0.000000D+00  0.000000D+00  0.000000D+00
     37   0.000000D+00  0.000000D+00  0.325648D-02  0.000000D+00  0.000000D+00
     38   0.000000D+00  0.000000D+00  0.000000D+00 -0.386923D-03  0.519359D-02
     39   0.000000D+00  0.000000D+00  0.000000D+00  0.000000D+00  0.000000D+00
     40  -0.337498D+00  0.000000D+00  0.000000D+00  0.000000D+00  0.000000D+00
     41   0.000000D+00  0.000000D+00  0.000000D+00  0.000000D+00  0.000000D+00
     42   0.000000D+00  0.000000D+00  0.000000D+00  0.000000D+00  0.000000D+00
     43   0.000000D+00  0.000000D+00  0.000000D+00  0.000000D+00  0.000000D+00
     44  -0.444907D+00  0.000000D+00  0.000000D+00  0.000000D+00  0.000000D+00
     45   0.000000D+00  0.240730D+00  0.000000D+00  0.000000D+00  0.000000D+00
     46   0.000000D+00  0.000000D+00  0.240730D+00  0.000000D+00  0.000000D+00
                26            27            28            29            30 
      1   0.000000D+00  0.000000D+00  0.000000D+00  0.000000D+00  0.000000D+00
      2   0.000000D+00  0.000000D+00  0.000000D+00  0.000000D+00  0.000000D+00
      3   0.000000D+00  0.000000D+00  0.000000D+00  0.000000D+00  0.000000D+00
      4   0.000000D+00  0.000000D+00  0.000000D+00  0.000000D+00  0.000000D+00
      5   0.000000D+00  0.000000D+00  0.000000D+00  0.000000D+00  0.000000D+00
      6   0.000000D+00  0.000000D+00  0.000000D+00  0.000000D+00  0.000000D+00
      7   0.000000D+00  0.000000D+00  0.000000D+00  0.000000D+00  0.000000D+00
      8   0.000000D+00  0.000000D+00  0.000000D+00  0.000000D+00  0.000000D+00
      9   0.000000D+00  0.000000D+00  0.000000D+00  0.000000D+00  0.000000D+00
     10   0.000000D+00  0.000000D+00  0.000000D+00  0.000000D+00  0.000000D+00
     11   0.000000D+00  0.000000D+00  0.000000D+00  0.000000D+00  0.000000D+00
     12   0.000000D+00  0.000000D+00  0.000000D+00  0.000000D+00  0.000000D+00
     13   0.000000D+00  0.000000D+00  0.000000D+00  0.000000D+00  0.000000D+00
     14   0.000000D+00  0.000000D+00  0.000000D+00  0.000000D+00  0.000000D+00
     15   0.000000D+00  0.000000D+00  0.996175D-03  0.226069D-01  0.000000D+00
     16   0.278475D-03  0.000000D+00  0.000000D+00  0.000000D+00  0.452225D-02
     17   0.000000D+00  0.278475D-03  0.000000D+00  0.000000D+00  0.000000D+00
     18   0.000000D+00  0.000000D+00 -0.165429D-02 -0.400246D-01  0.000000D+00
     19   0.000000D+00  0.000000D+00  0.447085D-02  0.152183D+00  0.000000D+00
     20  -0.212344D-02  0.000000D+00  0.000000D+00  0.000000D+00 -0.304739D-01
     21   0.000000D+00 -0.212344D-02  0.000000D+00  0.000000D+00  0.000000D+00
     22   0.000000D+00  0.000000D+00  0.000000D+00  0.000000D+00  0.000000D+00
     23   0.000000D+00  0.000000D+00  0.000000D+00  0.000000D+00  0.000000D+00
     24   0.000000D+00  0.000000D+00  0.000000D+00  0.306349D-01  0.000000D+00
     25   0.000000D+00  0.000000D+00  0.000000D+00  0.351216D+00  0.000000D+00
     26   0.100000D+01  0.000000D+00  0.000000D+00  0.000000D+00  0.364086D+00
     27   0.000000D+00  0.100000D+01  0.000000D+00  0.000000D+00  0.000000D+00
     28   0.000000D+00  0.000000D+00  0.100000D+01  0.000000D+00  0.000000D+00
     29   0.000000D+00  0.000000D+00  0.000000D+00  0.100000D+01  0.000000D+00
     30   0.364086D+00  0.000000D+00  0.000000D+00  0.000000D+00  0.100000D+01
     31   0.000000D+00  0.364086D+00  0.000000D+00  0.000000D+00  0.000000D+00
     32   0.000000D+00  0.000000D+00  0.364086D+00  0.000000D+00  0.000000D+00
     33   0.000000D+00  0.000000D+00  0.000000D+00  0.000000D+00  0.000000D+00
     34   0.000000D+00  0.000000D+00  0.000000D+00  0.000000D+00  0.000000D+00
     35   0.000000D+00  0.000000D+00  0.000000D+00  0.000000D+00  0.000000D+00
     36   0.000000D+00  0.000000D+00  0.000000D+00  0.000000D+00  0.000000D+00
     37   0.000000D+00  0.000000D+00  0.000000D+00  0.000000D+00  0.000000D+00
     38   0.000000D+00  0.000000D+00  0.000000D+00  0.192427D+00  0.000000D+00
     39   0.135458D-01  0.000000D+00  0.000000D+00  0.000000D+00  0.209028D+00
     40   0.000000D+00  0.135458D-01  0.000000D+00  0.000000D+00  0.000000D+00
     41   0.000000D+00  0.000000D+00  0.135458D-01  0.000000D+00  0.000000D+00
     42   0.000000D+00  0.000000D+00  0.000000D+00  0.000000D+00  0.000000D+00
     43   0.000000D+00  0.000000D+00  0.000000D+00  0.000000D+00  0.000000D+00
     44   0.000000D+00  0.000000D+00  0.000000D+00  0.000000D+00  0.000000D+00
     45   0.000000D+00  0.000000D+00  0.000000D+00  0.000000D+00  0.000000D+00
     46   0.000000D+00  0.000000D+00  0.000000D+00  0.000000D+00  0.000000D+00
                31            32            33            34            35 
      1   0.000000D+00  0.000000D+00  0.000000D+00  0.000000D+00  0.000000D+00
      2   0.000000D+00  0.000000D+00  0.000000D+00  0.000000D+00  0.000000D+00
      3   0.000000D+00  0.000000D+00  0.000000D+00  0.000000D+00  0.000000D+00
      4   0.000000D+00  0.000000D+00  0.000000D+00  0.000000D+00  0.000000D+00
      5   0.000000D+00  0.000000D+00  0.000000D+00  0.000000D+00  0.000000D+00
      6   0.000000D+00  0.000000D+00  0.000000D+00  0.000000D+00  0.000000D+00
      7   0.000000D+00  0.000000D+00  0.000000D+00  0.000000D+00  0.000000D+00
      8   0.000000D+00  0.000000D+00  0.000000D+00  0.000000D+00  0.000000D+00
      9   0.000000D+00  0.000000D+00  0.000000D+00  0.000000D+00  0.000000D+00
     10   0.000000D+00  0.000000D+00  0.000000D+00  0.000000D+00  0.000000D+00
     11   0.000000D+00  0.000000D+00  0.000000D+00  0.000000D+00  0.000000D+00
     12   0.000000D+00  0.000000D+00  0.000000D+00  0.000000D+00  0.000000D+00
     13   0.000000D+00  0.000000D+00  0.000000D+00  0.000000D+00  0.000000D+00
     14   0.000000D+00  0.000000D+00  0.000000D+00  0.000000D+00  0.000000D+00
     15   0.000000D+00  0.156212D-01  0.592837D-02  0.000000D+00  0.000000D+00
     16   0.000000D+00  0.000000D+00  0.000000D+00  0.320840D-02  0.000000D+00
     17   0.452225D-02  0.000000D+00  0.000000D+00  0.000000D+00  0.320840D-02
     18   0.000000D+00 -0.256043D-01 -0.952279D-02  0.000000D+00  0.000000D+00
     19   0.000000D+00  0.586863D-01  0.111024D-01  0.000000D+00  0.000000D+00
     20   0.000000D+00  0.000000D+00  0.000000D+00 -0.141610D-01  0.000000D+00
     21  -0.304739D-01  0.000000D+00  0.000000D+00  0.000000D+00 -0.141610D-01
     22   0.000000D+00  0.000000D+00  0.000000D+00  0.000000D+00  0.000000D+00
     23   0.000000D+00  0.000000D+00  0.000000D+00  0.000000D+00  0.000000D+00
     24   0.000000D+00  0.000000D+00  0.000000D+00  0.000000D+00  0.000000D+00
     25   0.000000D+00  0.000000D+00  0.000000D+00  0.000000D+00  0.000000D+00
     26   0.000000D+00  0.000000D+00  0.000000D+00  0.000000D+00  0.000000D+00
     27   0.364086D+00  0.000000D+00  0.000000D+00  0.000000D+00  0.000000D+00
     28   0.000000D+00  0.364086D+00  0.000000D+00  0.000000D+00  0.000000D+00
     29   0.000000D+00  0.000000D+00  0.000000D+00  0.000000D+00  0.000000D+00
     30   0.000000D+00  0.000000D+00  0.000000D+00  0.000000D+00  0.000000D+00
     31   0.100000D+01  0.000000D+00  0.000000D+00  0.000000D+00  0.000000D+00
     32   0.000000D+00  0.100000D+01  0.000000D+00  0.000000D+00  0.000000D+00
     33   0.000000D+00  0.000000D+00  0.100000D+01  0.000000D+00  0.000000D+00
     34   0.000000D+00  0.000000D+00  0.000000D+00  0.100000D+01  0.000000D+00
     35   0.000000D+00  0.000000D+00  0.000000D+00  0.000000D+00  0.100000D+01
     36   0.000000D+00  0.000000D+00  0.000000D+00  0.000000D+00  0.000000D+00
     37   0.000000D+00  0.000000D+00  0.000000D+00  0.000000D+00  0.000000D+00
     38   0.000000D+00  0.000000D+00  0.000000D+00  0.000000D+00  0.000000D+00
     39   0.000000D+00  0.000000D+00  0.000000D+00  0.000000D+00  0.000000D+00
     40   0.209028D+00  0.000000D+00  0.000000D+00  0.000000D+00  0.000000D+00
     41   0.000000D+00  0.209028D+00  0.000000D+00  0.000000D+00  0.000000D+00
     42   0.000000D+00  0.000000D+00  0.473157D-01  0.000000D+00  0.000000D+00
     43   0.000000D+00  0.000000D+00  0.000000D+00  0.473157D-01  0.000000D+00
     44   0.000000D+00  0.000000D+00  0.000000D+00  0.000000D+00  0.473157D-01
     45   0.000000D+00  0.000000D+00  0.000000D+00  0.000000D+00  0.000000D+00
     46   0.000000D+00  0.000000D+00  0.000000D+00  0.000000D+00  0.000000D+00
                36            37            38            39            40 
      1   0.000000D+00  0.000000D+00  0.621316D-03  0.000000D+00  0.000000D+00
      2   0.000000D+00  0.000000D+00  0.384497D-02  0.000000D+00  0.000000D+00
      3   0.000000D+00  0.000000D+00  0.000000D+00  0.278475D-03  0.000000D+00
      4   0.000000D+00  0.000000D+00  0.000000D+00  0.000000D+00  0.278475D-03
      5   0.000000D+00  0.000000D+00 -0.996175D-03  0.000000D+00  0.000000D+00
      6   0.000000D+00  0.000000D+00  0.226069D-01  0.000000D+00  0.000000D+00
      7   0.000000D+00  0.000000D+00  0.000000D+00  0.452225D-02  0.000000D+00
      8   0.000000D+00  0.000000D+00  0.000000D+00  0.000000D+00  0.452225D-02
      9   0.000000D+00  0.000000D+00 -0.156212D-01  0.000000D+00  0.000000D+00
     10   0.000000D+00  0.000000D+00  0.592837D-02  0.000000D+00  0.000000D+00
     11   0.000000D+00  0.000000D+00  0.000000D+00 -0.320840D-02  0.000000D+00
     12   0.000000D+00  0.000000D+00  0.000000D+00  0.000000D+00 -0.320840D-02
     13   0.000000D+00  0.000000D+00  0.000000D+00  0.000000D+00  0.000000D+00
     14   0.000000D+00  0.000000D+00  0.000000D+00  0.000000D+00  0.000000D+00
     15   0.000000D+00  0.000000D+00  0.224208D+00  0.000000D+00  0.000000D+00
     16   0.000000D+00  0.000000D+00  0.000000D+00  0.113102D+00  0.000000D+00
     17   0.000000D+00  0.000000D+00  0.000000D+00  0.000000D+00  0.113102D+00
     18   0.000000D+00  0.000000D+00 -0.289086D+00  0.000000D+00  0.000000D+00
     19   0.000000D+00  0.000000D+00  0.402090D+00  0.000000D+00  0.000000D+00
     20   0.000000D+00  0.000000D+00  0.000000D+00 -0.337498D+00  0.000000D+00
     21   0.000000D+00  0.000000D+00  0.000000D+00  0.000000D+00 -0.337498D+00
     22   0.325648D-02  0.000000D+00  0.000000D+00  0.000000D+00  0.000000D+00
     23   0.000000D+00  0.325648D-02  0.000000D+00  0.000000D+00  0.000000D+00
     24   0.000000D+00  0.000000D+00 -0.386923D-03  0.000000D+00  0.000000D+00
     25   0.000000D+00  0.000000D+00  0.519359D-02  0.000000D+00  0.000000D+00
     26   0.000000D+00  0.000000D+00  0.000000D+00  0.135458D-01  0.000000D+00
     27   0.000000D+00  0.000000D+00  0.000000D+00  0.000000D+00  0.135458D-01
     28   0.000000D+00  0.000000D+00  0.000000D+00  0.000000D+00  0.000000D+00
     29   0.000000D+00  0.000000D+00  0.192427D+00  0.000000D+00  0.000000D+00
     30   0.000000D+00  0.000000D+00  0.000000D+00  0.209028D+00  0.000000D+00
     31   0.000000D+00  0.000000D+00  0.000000D+00  0.000000D+00  0.209028D+00
     32   0.000000D+00  0.000000D+00  0.000000D+00  0.000000D+00  0.000000D+00
     33   0.000000D+00  0.000000D+00  0.000000D+00  0.000000D+00  0.000000D+00
     34   0.000000D+00  0.000000D+00  0.000000D+00  0.000000D+00  0.000000D+00
     35   0.000000D+00  0.000000D+00  0.000000D+00  0.000000D+00  0.000000D+00
     36   0.100000D+01  0.000000D+00  0.000000D+00  0.000000D+00  0.000000D+00
     37   0.000000D+00  0.100000D+01  0.000000D+00  0.000000D+00  0.000000D+00
     38   0.000000D+00  0.000000D+00  0.100000D+01  0.000000D+00  0.000000D+00
     39   0.000000D+00  0.000000D+00  0.000000D+00  0.100000D+01  0.000000D+00
     40   0.000000D+00  0.000000D+00  0.000000D+00  0.000000D+00  0.100000D+01
     41   0.000000D+00  0.000000D+00  0.000000D+00  0.000000D+00  0.000000D+00
     42   0.000000D+00  0.000000D+00  0.000000D+00  0.000000D+00  0.000000D+00
     43   0.000000D+00  0.000000D+00  0.000000D+00  0.000000D+00  0.000000D+00
     44   0.000000D+00  0.000000D+00  0.000000D+00  0.000000D+00  0.000000D+00
     45   0.473157D-01  0.000000D+00  0.000000D+00  0.000000D+00  0.000000D+00
     46   0.000000D+00  0.473157D-01  0.000000D+00  0.000000D+00  0.000000D+00
                41            42            43            44            45 
      1   0.114685D-02  0.513214D-02  0.000000D+00  0.000000D+00  0.000000D+00
      2   0.705860D-02  0.310219D-01  0.000000D+00  0.000000D+00  0.000000D+00
      3   0.000000D+00  0.000000D+00  0.212344D-02  0.000000D+00  0.000000D+00
      4   0.000000D+00  0.000000D+00  0.000000D+00  0.212344D-02  0.000000D+00
      5  -0.165429D-02 -0.447085D-02  0.000000D+00  0.000000D+00  0.000000D+00
      6   0.400246D-01  0.152183D+00  0.000000D+00  0.000000D+00  0.000000D+00
      7   0.000000D+00  0.000000D+00  0.304739D-01  0.000000D+00  0.000000D+00
      8   0.000000D+00  0.000000D+00  0.000000D+00  0.304739D-01  0.000000D+00
      9  -0.256043D-01 -0.586863D-01  0.000000D+00  0.000000D+00  0.000000D+00
     10   0.952279D-02  0.111024D-01  0.000000D+00  0.000000D+00  0.000000D+00
     11   0.000000D+00  0.000000D+00 -0.141610D-01  0.000000D+00  0.000000D+00
     12   0.000000D+00  0.000000D+00  0.000000D+00 -0.141610D-01  0.000000D+00
     13   0.000000D+00  0.000000D+00  0.000000D+00  0.000000D+00  0.325648D-02
     14   0.000000D+00  0.000000D+00  0.000000D+00  0.000000D+00  0.000000D+00
     15   0.289086D+00  0.402090D+00  0.000000D+00  0.000000D+00  0.000000D+00
     16   0.000000D+00  0.000000D+00  0.337498D+00  0.000000D+00  0.000000D+00
     17   0.000000D+00  0.000000D+00  0.000000D+00  0.337498D+00  0.000000D+00
     18  -0.349435D+00 -0.278141D+00  0.000000D+00  0.000000D+00  0.000000D+00
     19   0.278141D+00 -0.225190D-01  0.000000D+00  0.000000D+00  0.000000D+00
     20   0.000000D+00  0.000000D+00 -0.444907D+00  0.000000D+00  0.000000D+00
     21   0.000000D+00  0.000000D+00  0.000000D+00 -0.444907D+00  0.000000D+00
     22   0.000000D+00  0.000000D+00  0.000000D+00  0.000000D+00  0.240730D+00
     23   0.000000D+00  0.000000D+00  0.000000D+00  0.000000D+00  0.000000D+00
     24   0.000000D+00  0.000000D+00  0.000000D+00  0.000000D+00  0.000000D+00
     25   0.000000D+00  0.000000D+00  0.000000D+00  0.000000D+00  0.000000D+00
     26   0.000000D+00  0.000000D+00  0.000000D+00  0.000000D+00  0.000000D+00
     27   0.000000D+00  0.000000D+00  0.000000D+00  0.000000D+00  0.000000D+00
     28   0.135458D-01  0.000000D+00  0.000000D+00  0.000000D+00  0.000000D+00
     29   0.000000D+00  0.000000D+00  0.000000D+00  0.000000D+00  0.000000D+00
     30   0.000000D+00  0.000000D+00  0.000000D+00  0.000000D+00  0.000000D+00
     31   0.000000D+00  0.000000D+00  0.000000D+00  0.000000D+00  0.000000D+00
     32   0.209028D+00  0.000000D+00  0.000000D+00  0.000000D+00  0.000000D+00
     33   0.000000D+00  0.473157D-01  0.000000D+00  0.000000D+00  0.000000D+00
     34   0.000000D+00  0.000000D+00  0.473157D-01  0.000000D+00  0.000000D+00
     35   0.000000D+00  0.000000D+00  0.000000D+00  0.473157D-01  0.000000D+00
     36   0.000000D+00  0.000000D+00  0.000000D+00  0.000000D+00  0.473157D-01
     37   0.000000D+00  0.000000D+00  0.000000D+00  0.000000D+00  0.000000D+00
     38   0.000000D+00  0.000000D+00  0.000000D+00  0.000000D+00  0.000000D+00
     39   0.000000D+00  0.000000D+00  0.000000D+00  0.000000D+00  0.000000D+00
     40   0.000000D+00  0.000000D+00  0.000000D+00  0.000000D+00  0.000000D+00
     41   0.100000D+01  0.000000D+00  0.000000D+00  0.000000D+00  0.000000D+00
     42   0.000000D+00  0.100000D+01  0.000000D+00  0.000000D+00  0.000000D+00
     43   0.000000D+00  0.000000D+00  0.100000D+01  0.000000D+00  0.000000D+00
     44   0.000000D+00  0.000000D+00  0.000000D+00  0.100000D+01  0.000000D+00
     45   0.000000D+00  0.000000D+00  0.000000D+00  0.000000D+00  0.100000D+01
     46   0.000000D+00  0.000000D+00  0.000000D+00  0.000000D+00  0.000000D+00
                46 
      1   0.000000D+00
      2   0.000000D+00
      3   0.000000D+00
      4   0.000000D+00
      5   0.000000D+00
      6   0.000000D+00
      7   0.000000D+00
      8   0.000000D+00
      9   0.000000D+00
     10   0.000000D+00
     11   0.000000D+00
     12   0.000000D+00
     13   0.000000D+00
     14   0.325648D-02
     15   0.000000D+00
     16   0.000000D+00
     17   0.000000D+00
     18   0.000000D+00
     19   0.000000D+00
     20   0.000000D+00
     21   0.000000D+00
     22   0.000000D+00
     23   0.240730D+00
     24   0.000000D+00
     25   0.000000D+00
     26   0.000000D+00
     27   0.000000D+00
     28   0.000000D+00
     29   0.000000D+00
     30   0.000000D+00
     31   0.000000D+00
     32   0.000000D+00
     33   0.000000D+00
     34   0.000000D+00
     35   0.000000D+00
     36   0.000000D+00
     37   0.473157D-01
     38   0.000000D+00
     39   0.000000D+00
     40   0.000000D+00
     41   0.000000D+00
     42   0.000000D+00
     43   0.000000D+00
     44   0.000000D+00
     45   0.000000D+00
     46   0.100000D+01
 Entering OneElI...
 Overlap between basis sets.
 Requested accuracy = 0.1000D-12
 PrsmSu:  NPrtUS=   1 ThrOK=F IAlg=1 NPAlg=1 LenDen=           0.
 Prism:   IPart=     0 DynPar=F LinDyn=F Incr=          11.
 PRISM was handed  1608262716 working-precision words and  1144 shell-pairs
 IPart=  0 NShTot=        1144 NBatch=          90 AvBLen=        12.7
 PrSmSu:  NxtVal=             12.
 CnvPC2: ToCart=F DoDens=F IPureD=0 IPureF=0.
 Transformed matrix in CnvPC2: 
                 1             2             3             4             5 
      1   0.999797D+00  0.412806D+00  0.000000D+00  0.000000D+00  0.000000D+00
      2   0.291005D+00  0.988458D+00  0.000000D+00  0.000000D+00  0.000000D+00
      3   0.000000D+00  0.000000D+00  0.999258D+00  0.000000D+00  0.000000D+00
      4   0.000000D+00  0.000000D+00  0.000000D+00  0.999258D+00  0.000000D+00
      5   0.000000D+00  0.000000D+00  0.000000D+00  0.000000D+00  0.999258D+00
      6   0.137236D-01  0.328598D+00  0.000000D+00  0.000000D+00  0.000000D+00
      7   0.000000D+00  0.000000D+00  0.355085D+00  0.000000D+00  0.000000D+00
      8   0.000000D+00  0.000000D+00  0.000000D+00  0.355085D+00  0.000000D+00
      9   0.000000D+00  0.000000D+00  0.000000D+00  0.000000D+00  0.355085D+00
     10   0.000000D+00  0.000000D+00  0.000000D+00  0.000000D+00  0.000000D+00
     11   0.000000D+00  0.000000D+00  0.000000D+00  0.000000D+00  0.000000D+00
     12   0.000000D+00  0.000000D+00  0.000000D+00  0.000000D+00  0.000000D+00
     13   0.000000D+00  0.000000D+00  0.000000D+00  0.000000D+00  0.000000D+00
     14   0.000000D+00  0.000000D+00  0.000000D+00  0.000000D+00  0.000000D+00
     15   0.147325D-03  0.124700D-01  0.000000D+00  0.000000D+00  0.000000D+00
     16   0.486388D-02  0.294706D-01  0.000000D+00  0.000000D+00  0.000000D+00
     17   0.000000D+00  0.000000D+00  0.968457D-02  0.000000D+00  0.000000D+00
     18   0.000000D+00  0.000000D+00  0.000000D+00  0.968457D-02  0.000000D+00
     19   0.000000D+00  0.000000D+00  0.000000D+00  0.000000D+00  0.968457D-02
     20   0.000000D+00  0.000000D+00  0.132573D-02  0.000000D+00  0.000000D+00
     21   0.000000D+00  0.000000D+00  0.000000D+00  0.132573D-02  0.000000D+00
     22   0.000000D+00  0.000000D+00  0.000000D+00  0.000000D+00  0.132573D-02
     23   0.138873D+00  0.648521D+00  0.000000D+00  0.000000D+00  0.000000D+00
     24   0.925407D-01  0.479916D+00  0.000000D+00  0.000000D+00  0.000000D+00
     25   0.612644D-01  0.339125D+00  0.000000D+00  0.000000D+00  0.000000D+00
     26   0.404046D-01  0.232597D+00  0.000000D+00  0.000000D+00  0.000000D+00
     27   0.265889D-01  0.156635D+00  0.000000D+00  0.000000D+00  0.000000D+00
     28   0.174753D-01  0.104334D+00  0.000000D+00  0.000000D+00  0.000000D+00
     29   0.000000D+00  0.000000D+00  0.229802D+00  0.000000D+00  0.000000D+00
     30   0.000000D+00  0.000000D+00  0.000000D+00  0.229802D+00  0.000000D+00
     31   0.000000D+00  0.000000D+00  0.000000D+00  0.000000D+00  0.229802D+00
     32   0.000000D+00  0.000000D+00  0.131901D+00  0.000000D+00  0.000000D+00
     33   0.000000D+00  0.000000D+00  0.000000D+00  0.131901D+00  0.000000D+00
     34   0.000000D+00  0.000000D+00  0.000000D+00  0.000000D+00  0.131901D+00
     35   0.000000D+00  0.000000D+00  0.725011D-01  0.000000D+00  0.000000D+00
     36   0.000000D+00  0.000000D+00  0.000000D+00  0.725011D-01  0.000000D+00
     37   0.000000D+00  0.000000D+00  0.000000D+00  0.000000D+00  0.725011D-01
     38   0.000000D+00  0.000000D+00  0.387587D-01  0.000000D+00  0.000000D+00
     39   0.000000D+00  0.000000D+00  0.000000D+00  0.387587D-01  0.000000D+00
     40   0.000000D+00  0.000000D+00  0.000000D+00  0.000000D+00  0.387587D-01
     41   0.000000D+00  0.000000D+00  0.203667D-01  0.000000D+00  0.000000D+00
     42   0.000000D+00  0.000000D+00  0.000000D+00  0.203667D-01  0.000000D+00
     43   0.000000D+00  0.000000D+00  0.000000D+00  0.000000D+00  0.203667D-01
     44   0.000000D+00  0.000000D+00  0.105911D-01  0.000000D+00  0.000000D+00
     45   0.000000D+00  0.000000D+00  0.000000D+00  0.105911D-01  0.000000D+00
     46   0.000000D+00  0.000000D+00  0.000000D+00  0.000000D+00  0.105911D-01
     47   0.000000D+00  0.000000D+00  0.000000D+00  0.000000D+00  0.000000D+00
     48   0.000000D+00  0.000000D+00  0.000000D+00  0.000000D+00  0.000000D+00
     49   0.000000D+00  0.000000D+00  0.000000D+00  0.000000D+00  0.000000D+00
     50   0.000000D+00  0.000000D+00  0.000000D+00  0.000000D+00  0.000000D+00
     51   0.000000D+00  0.000000D+00  0.000000D+00  0.000000D+00  0.000000D+00
     52   0.000000D+00  0.000000D+00  0.000000D+00  0.000000D+00  0.000000D+00
     53   0.000000D+00  0.000000D+00  0.000000D+00  0.000000D+00  0.000000D+00
     54   0.000000D+00  0.000000D+00  0.000000D+00  0.000000D+00  0.000000D+00
     55   0.000000D+00  0.000000D+00  0.000000D+00  0.000000D+00  0.000000D+00
     56   0.000000D+00  0.000000D+00  0.000000D+00  0.000000D+00  0.000000D+00
     57   0.000000D+00  0.000000D+00  0.000000D+00  0.000000D+00  0.000000D+00
     58   0.000000D+00  0.000000D+00  0.000000D+00  0.000000D+00  0.000000D+00
     59   0.000000D+00  0.000000D+00  0.000000D+00  0.000000D+00  0.000000D+00
     60   0.000000D+00  0.000000D+00  0.000000D+00  0.000000D+00  0.000000D+00
     61   0.000000D+00  0.000000D+00  0.000000D+00  0.000000D+00  0.000000D+00
     62   0.000000D+00  0.000000D+00  0.000000D+00  0.000000D+00  0.000000D+00
     63   0.000000D+00  0.000000D+00  0.000000D+00  0.000000D+00  0.000000D+00
     64   0.000000D+00  0.000000D+00  0.000000D+00  0.000000D+00  0.000000D+00
     65   0.000000D+00  0.000000D+00  0.000000D+00  0.000000D+00  0.000000D+00
     66   0.000000D+00  0.000000D+00  0.000000D+00  0.000000D+00  0.000000D+00
     67   0.000000D+00  0.000000D+00  0.000000D+00  0.000000D+00  0.000000D+00
     68   0.000000D+00  0.000000D+00  0.000000D+00  0.000000D+00  0.000000D+00
     69   0.000000D+00  0.000000D+00  0.000000D+00  0.000000D+00  0.000000D+00
     70   0.000000D+00  0.000000D+00  0.000000D+00  0.000000D+00  0.000000D+00
     71   0.000000D+00  0.000000D+00  0.000000D+00  0.000000D+00  0.000000D+00
     72   0.000000D+00  0.000000D+00  0.000000D+00  0.000000D+00  0.000000D+00
     73   0.000000D+00  0.000000D+00  0.000000D+00  0.000000D+00  0.000000D+00
     74   0.000000D+00  0.000000D+00  0.000000D+00  0.000000D+00  0.000000D+00
     75   0.000000D+00  0.000000D+00  0.000000D+00  0.000000D+00  0.000000D+00
     76   0.000000D+00  0.000000D+00  0.000000D+00  0.000000D+00  0.000000D+00
     77   0.000000D+00  0.000000D+00  0.000000D+00  0.000000D+00  0.000000D+00
     78   0.000000D+00  0.000000D+00  0.000000D+00  0.000000D+00  0.000000D+00
     79   0.000000D+00  0.000000D+00  0.000000D+00  0.000000D+00  0.000000D+00
     80   0.000000D+00  0.000000D+00  0.000000D+00  0.000000D+00  0.000000D+00
     81   0.000000D+00  0.000000D+00  0.000000D+00  0.000000D+00  0.000000D+00
     82   0.000000D+00  0.000000D+00  0.000000D+00  0.000000D+00  0.000000D+00
     83   0.000000D+00  0.000000D+00  0.000000D+00  0.000000D+00  0.000000D+00
     84   0.000000D+00  0.000000D+00  0.000000D+00  0.000000D+00  0.000000D+00
     85   0.000000D+00  0.000000D+00  0.000000D+00  0.000000D+00  0.000000D+00
     86   0.000000D+00  0.000000D+00  0.000000D+00  0.000000D+00  0.000000D+00
     87   0.000000D+00  0.000000D+00  0.000000D+00  0.000000D+00  0.000000D+00
     88   0.000000D+00  0.000000D+00  0.000000D+00  0.000000D+00  0.000000D+00
     89   0.000000D+00  0.000000D+00  0.000000D+00  0.000000D+00  0.000000D+00
     90   0.000000D+00  0.000000D+00  0.000000D+00  0.000000D+00  0.000000D+00
     91   0.000000D+00  0.000000D+00  0.000000D+00  0.000000D+00  0.000000D+00
     92   0.000000D+00  0.000000D+00  0.000000D+00  0.000000D+00  0.000000D+00
     93   0.000000D+00  0.000000D+00  0.000000D+00  0.000000D+00  0.000000D+00
     94   0.000000D+00  0.000000D+00  0.000000D+00  0.000000D+00  0.000000D+00
     95   0.000000D+00  0.000000D+00  0.000000D+00  0.000000D+00  0.000000D+00
     96   0.000000D+00  0.000000D+00  0.000000D+00  0.000000D+00  0.000000D+00
     97   0.000000D+00  0.000000D+00  0.000000D+00  0.000000D+00  0.000000D+00
     98   0.000000D+00  0.000000D+00  0.000000D+00  0.000000D+00  0.000000D+00
     99   0.000000D+00  0.000000D+00  0.000000D+00  0.000000D+00  0.000000D+00
    100   0.000000D+00  0.000000D+00  0.000000D+00  0.000000D+00  0.000000D+00
    101   0.000000D+00  0.000000D+00  0.000000D+00  0.000000D+00  0.000000D+00
    102   0.000000D+00  0.000000D+00  0.000000D+00  0.000000D+00  0.000000D+00
    103   0.000000D+00  0.000000D+00  0.000000D+00  0.000000D+00  0.000000D+00
    104   0.000000D+00  0.000000D+00  0.000000D+00  0.000000D+00  0.000000D+00
    105   0.000000D+00  0.000000D+00  0.000000D+00  0.000000D+00  0.000000D+00
    106   0.000000D+00  0.000000D+00  0.000000D+00  0.000000D+00  0.000000D+00
    107   0.000000D+00  0.000000D+00  0.000000D+00  0.000000D+00  0.000000D+00
    108   0.000000D+00  0.000000D+00  0.000000D+00  0.000000D+00  0.000000D+00
    109   0.000000D+00  0.000000D+00  0.000000D+00  0.000000D+00  0.000000D+00
    110   0.000000D+00  0.000000D+00  0.000000D+00  0.000000D+00  0.000000D+00
[...]



            MP2(CBS) (With Interference Correction) 
            ---------------------------------------

 AB - AA |     29        30        31        32        33        34
 BA - BB |     29        30        31        32        33        34
----------------------------------------------------------------------
   29    | -0.016486 -0.003447 -0.003500 -0.001252 -0.001252 -0.002518
   29    |  0.000000 -0.008782 -0.008297 -0.002297 -0.002297  0.000000
         |
   30    | -0.006542 -0.014267 -0.003428 -0.001183 -0.001183 -0.003174
   30    | -0.007689  0.000000 -0.008945 -0.002405 -0.002405  0.000000
         |
   31    | -0.007175 -0.007422 -0.015968 -0.001234 -0.001234 -0.002732
   31    | -0.007464 -0.006565  0.000000 -0.002324 -0.002324  0.000000
         |
   32    | -0.004494 -0.004576 -0.004514 -0.013897 -0.000039 -0.001228
   32    | -0.005508 -0.005526 -0.005512  0.000000 -0.000045  0.000000
         |
   33    | -0.004494 -0.004576 -0.004514 -0.000079 -0.013897 -0.001228
   33    | -0.005508 -0.005526 -0.005512 -0.000079  0.000000  0.000000
         |
   34    | -0.009464 -0.006727 -0.008621 -0.007154 -0.007154  0.000000
   34    |  0.000000  0.000000  0.000000  0.000000  0.000000  0.000000
         |
   35    | -0.006247 -0.010972 -0.007588 -0.007154 -0.007154  0.000000
   35    |  0.000000  0.000000  0.000000  0.000000  0.000000  0.000000
         |

 AB - AA |     35
 BA - BB |     35
--------------------
   29    | -0.003553
   29    |  0.000000
         |
   30    | -0.001799
   30    |  0.000000
         |
   31    | -0.003065
   31    |  0.000000
         |
   32    | -0.001228
   32    |  0.000000
         |
   33    | -0.001228
   33    |  0.000000
         |
   34    | -0.003810
   34    |  0.000000
         |
   35    |  0.000000
   35    |  0.000000
         |

                     Sum of ab pair energies =    -0.201138 A.U.
                     Sum of ba pair energies =    -0.054890 A.U.
                     Sum of aa pair energies =    -0.043317 A.U.
                     Sum of bb pair energies =    -0.040124 A.U.

           Sum of intraorbital pair energies =    -0.074516 A.U.
           Sum of interorbital pair energies =    -0.264953 A.U.
                                                  ----------
                         Total pair energies =    -0.339468 A.U.

                         Single Excitations  =    -0.006804 A.U.

                          Total second order =    -0.346272 A.U.

                         E2(CBS) - E2(Dir) =      -0.007932 A.U.

 E2(CBS)=      -0.350190 CBS-Int=       0.003918 OIii=       1.706608

 **********************************************************************

            Population analysis using the SCF density.

 **********************************************************************

 Orbital symmetries:
       Occupied  (SGG) (SGU) (SGG) (SGU) (SGG) (SGU) (PIG) (PIG)
                 (PIU) (PIU) (SGG) (SGU) (SGG) (SGU) (PIU) (PIU)
                 (PIG) (PIG) (SGG) (PIU) (PIU) (PIG) (PIG) (SGU)
                 (DLTG) (DLTG) (DLTU) (DLTU) (SGG) (SGU) (SGG)
                 (PIU) (PIU) (PIG) (PIG)
       Virtual   (SGU) (SGG) (PIU) (PIU) (SGG) (PIG) (PIG) (SGU)
                 (DLTG) (DLTG) (SGU) (PIU) (PIU) (DLTU) (DLTU)
                 (SGG) (PIG) (PIG) (SGU) (SGG) (PIU) (PIU) (SGG)
                 (DLTG) (DLTG) (PHIU) (PHIU) (PIU) (PIU) (PIG)
                 (PIG) (SGU) (DLTG) (DLTG) (DLTU) (DLTU) (PHIG)
                 (PHIG) (SGG) (SGU) (PIU) (PIU) (DLTU) (DLTU) (PIG)
                 (PIG) (SGU) (?A) (?A) (SGG) (PIU) (PIU) (PHIU)
                 (PHIU) (PIG) (PIG) (SGG) (?B) (?B) (DLTG) (DLTG)
                 (PIU) (PIU) (SGG) (DLTU) (DLTU) (PIG) (PIG) (PHIU)
                 (PHIU) (DLTG) (DLTG) (SGU) (PHIG) (PHIG) (DLTG)
                 (DLTG) (SGU) (PIU) (PIU) (PIG) (PIG) (SGG) (DLTU)
                 (DLTU) (PHIG) (PHIG) (SGU) (PIU) (PIU) (?C) (?C)
                 (SGU) (?A) (?A) (DLTU) (DLTU) (PIG) (PIG) (?D)
                 (?D) (SGG) (PHIU) (PHIU) (PIU) (PIU) (SGG) (?B)
                 (?B) (PIG) (PIG) (DLTU) (DLTU) (DLTG) (DLTG) (?A)
                 (?A) (PHIU) (PHIU) (SGU) (SGG) (PHIG) (PHIG) (SGU)
                 (PIG) (PIG) (?B) (?B) (DLTG) (DLTG) (PIU) (PIU)
                 (DLTG) (DLTG) (PHIU) (PHIU) (DLTU) (DLTU) (SGG)
                 (PHIG) (PHIG) (SGG) (PIU) (PIU) (PIG) (PIG) (DLTG)
                 (DLTG) (PHIG) (PHIG) (SGU) (PIG) (PIG) (?C) (?C)
                 (PIU) (PIU) (?E) (?E) (DLTU) (DLTU) (?F) (?F)
                 (SGU) (?A) (?A) (SGG) (SGU) (?D) (?D) (PIU) (PIU)
                 (DLTU) (DLTU) (PIG) (PIG) (PHIU) (PHIU) (?B) (?B)
                 (SGU) (SGG) (?A) (?A) (?C) (?C) (PIU) (PIU) (DLTU)
                 (DLTU) (DLTG) (DLTG) (?D) (?D) (PIG) (PIG) (PHIU)
                 (PHIU) (DLTG) (DLTG) (PHIG) (PHIG) (SGG) (?B)
                 (?B) (PIG) (PIG) (SGU) (PIU) (PIU) (?A) (?A) (SGG)
                 (PHIU) (PHIU) (PIG) (PIG) (?B) (?B) (PHIG) (PHIG)
                 (DLTU) (DLTU) (PIU) (PIU) (SGG) (SGU) (DLTG) (DLTG)
                 (DLTU) (DLTU) (SGU) (PHIG) (PHIG) (PHIU) (PHIU)
                 (PIG) (PIG) (PHIG) (PHIG) (DLTG) (DLTG) (SGG)
                 (PIU) (PIU) (DLTG) (DLTG) (SGG) (SGU) (DLTU) (DLTU)
                 (SGU) (PIU) (PIU) (PIG) (PIG) (DLTU) (DLTU) (PIG)
                 (PIG) (?A) (?A) (PHIU) (PHIU) (SGG) (?C) (?C)
                 (?E) (?E) (PIU) (PIU) (SGU) (DLTG) (DLTG) (?F)
                 (?F) (?D) (?D) (PIU) (PIU) (SGG) (PIG) (PIG) (?B)
                 (?B) (?C) (?C) (?A) (?A) (SGG) (?D) (?D) (PHIG)
                 (PHIG) (PHIU) (PHIU) (?B) (?B) (DLTU) (DLTU) (PIG)
                 (PIG) (SGU) (SGU) (PIU) (PIU) (SGG) (?A) (?A)
                 (DLTU) (DLTU) (PHIU) (PHIU) (PHIG) (PHIG) (DLTG)
                 (DLTG) (?B) (?B) (DLTG) (DLTG) (PIG) (PIG) (PHIG)
                 (PHIG) (SGU) (PIU) (PIU) (SGG) (SGU) (DLTU) (DLTU)
                 (PHIU) (PHIU) (PIG) (PIG) (PHIG) (PHIG) (DLTG)
                 (DLTG) (PIU) (PIU) (DLTU) (DLTU) (?A) (?A) (DLTG)
                 (DLTG) (SGU) (?C) (?C) (SGG) (PHIU) (PHIU) (?E)
                 (?E) (?G) (?G) (?H) (?H) (?F) (?F) (PIG) (PIG)
                 (?D) (?D) (DLTU) (DLTU) (DLTG) (DLTG) (SGG) (SGU)
                 (PIU) (PIU) (?B) (?B) (PIU) (PIU) (SGG) (PIG)
                 (PIG) (SGU) (PIU) (PIU) (PHIG) (PHIG) (PIG) (PIG)
                 (SGU) (SGG) (DLTU) (DLTU) (PIG) (PIG) (SGG) (?C)
                 (?C) (?A) (?A) (?E) (?E) (?F) (?F) (PHIU) (PHIU)
                 (DLTG) (DLTG) (?A) (?A) (?D) (?D) (?B) (?B) (SGG)
                 (?C) (?C) (PHIU) (PHIU) (?A) (?A) (SGU) (PIU)
                 (PIU) (PHIG) (PHIG) (?D) (?D) (?B) (?B) (PHIU)
                 (PHIU) (?B) (?B) (DLTU) (DLTU) (DLTG) (DLTG) (PIG)
                 (PIG) (PIU) (PIU) (PHIG) (PHIG) (DLTU) (DLTU)
                 (SGG) (PIG) (PIG) (DLTG) (DLTG) (PHIG) (PHIG)
                 (SGU) (SGU) (SGU) (PIU) (PIU) (DLTU) (DLTU) (SGG)
                 (PIG) (PIG) (SGU) (PHIU) (PHIU) (PHIG) (PHIG)
                 (DLTG) (DLTG) (DLTU) (DLTU) (PIU) (PIU) (PIG)
                 (PIG) (SGG) (SGU) (DLTG) (DLTG) (DLTU) (DLTU)
                 (PIU) (PIU) (PIG) (PIG) (SGU) (SGG) (SGG) (SGU)
                 (PIU) (PIU) (PIG) (PIG) (SGG) (SGU) (SGG) (SGU)
 The electronic state is 3-SGG.
 Alpha  occ. eigenvalues -- -460.87988-460.87988 -60.68041 -60.68041 -54.28237
 Alpha  occ. eigenvalues --  -54.28237 -54.28237 -54.28237 -54.28024 -54.28024
 Alpha  occ. eigenvalues --   -8.94677  -8.94665  -6.67905  -6.67905  -6.67899
 Alpha  occ. eigenvalues --   -6.67899  -6.67604  -6.67549  -2.66913  -2.66587
 Alpha  occ. eigenvalues --   -2.66587  -2.66365  -2.66365  -2.66351  -2.66351
 Alpha  occ. eigenvalues --   -2.66343  -2.66343  -2.66251  -1.02314  -0.82782
 Alpha  occ. eigenvalues --   -0.48462  -0.47724  -0.47724  -0.34825  -0.34825
 Alpha virt. eigenvalues --    0.03714   0.05993   0.07282   0.07282   0.08751
 Alpha virt. eigenvalues --    0.09101   0.09101   0.10085   0.14955   0.14955
 Alpha virt. eigenvalues --    0.17519   0.19715   0.19715   0.21336   0.21336
 Alpha virt. eigenvalues --    0.22425   0.25437   0.25437   0.26088   0.30268
 Alpha virt. eigenvalues --    0.30528   0.30528   0.36954   0.36954   0.37400
 Alpha virt. eigenvalues --    0.37648   0.37648   0.38234   0.38234   0.39501
 Alpha virt. eigenvalues --    0.39501   0.43563   0.44555   0.44555   0.45126
 Alpha virt. eigenvalues --    0.45126   0.46274   0.46274   0.49020   0.52429
 Alpha virt. eigenvalues --    0.53010   0.53010   0.53137   0.53137   0.53687
 Alpha virt. eigenvalues --    0.53687   0.59462   0.74139   0.74139   0.77093
 Alpha virt. eigenvalues --    0.78070   0.78070   0.79629   0.79629   0.81711
 Alpha virt. eigenvalues --    0.81711   0.82406   0.85374   0.85374   0.85441
 Alpha virt. eigenvalues --    0.85441   0.87528   0.87528   0.88575   0.89225
 Alpha virt. eigenvalues --    0.89225   0.90488   0.90488   0.93845   0.93845
 Alpha virt. eigenvalues --    0.94250   0.94250   0.97224   0.98202   0.98202
 Alpha virt. eigenvalues --    0.99185   0.99185   0.99558   1.00838   1.00838
 Alpha virt. eigenvalues --    1.00904   1.00904   1.01428   1.01945   1.01945
 Alpha virt. eigenvalues --    1.04113   1.04113   1.09642   1.26169   1.26169
 Alpha virt. eigenvalues --    1.26578   1.26578   1.28640   1.30198   1.30198
 Alpha virt. eigenvalues --    1.32096   1.32096   1.35318   1.35318   1.38971
 Alpha virt. eigenvalues --    1.38971   1.43299   1.49087   1.49087   1.49128
 Alpha virt. eigenvalues --    1.49128   1.56490   1.57521   1.57521   1.60860
 Alpha virt. eigenvalues --    1.60860   1.61760   1.61760   1.63017   1.63017
 Alpha virt. eigenvalues --    1.69594   1.69594   1.71315   1.71315   1.74130
 Alpha virt. eigenvalues --    1.74996   1.75591   1.75591   1.76740   1.77245
 Alpha virt. eigenvalues --    1.77245   1.79362   1.79362   1.84271   1.84271
 Alpha virt. eigenvalues --    1.85917   1.85917   1.88406   1.88406   1.91175
 Alpha virt. eigenvalues --    1.91175   1.92273   1.92273   1.94129   1.95016
 Alpha virt. eigenvalues --    1.95016   1.95864   2.01094   2.01094   2.01333
 Alpha virt. eigenvalues --    2.01333   2.02832   2.02832   2.04810   2.04810
 Alpha virt. eigenvalues --    2.06354   2.07750   2.07750   2.10508   2.10508
 Alpha virt. eigenvalues --    2.10861   2.10861   2.12739   2.12739   2.21175
 Alpha virt. eigenvalues --    2.21175   2.24452   2.24452   2.26750   2.31426
 Alpha virt. eigenvalues --    2.31426   2.34198   2.38454   2.44953   2.44953
 Alpha virt. eigenvalues --    2.52670   2.52670   2.54480   2.54480   2.57311
 Alpha virt. eigenvalues --    2.57311   2.63510   2.63510   2.77577   2.77577
 Alpha virt. eigenvalues --    2.79180   2.79923   2.80809   2.80809   2.82413
 Alpha virt. eigenvalues --    2.82413   2.82902   2.82902   2.88411   2.88411
 Alpha virt. eigenvalues --    2.89662   2.89662   2.90894   2.90894   2.91288
 Alpha virt. eigenvalues --    2.91288   2.92949   2.92949   3.00380   3.00380
 Alpha virt. eigenvalues --    3.02172   3.02172   3.03335   3.06208   3.06208
 Alpha virt. eigenvalues --    3.06767   3.06767   3.15613   3.20665   3.20665
 Alpha virt. eigenvalues --    3.20726   3.20726   3.23166   3.24572   3.24572
 Alpha virt. eigenvalues --    3.28627   3.28627   3.28631   3.28631   3.30499
 Alpha virt. eigenvalues --    3.30499   3.39791   3.39791   3.43100   3.43100
 Alpha virt. eigenvalues --    3.43552   3.44525   3.49733   3.49733   3.56894
 Alpha virt. eigenvalues --    3.56894   3.57265   3.57522   3.57522   3.59779
 Alpha virt. eigenvalues --    3.59779   3.67456   3.67456   3.71162   3.71162
 Alpha virt. eigenvalues --    3.79296   3.79296   3.90964   3.96386   3.96386
 Alpha virt. eigenvalues --    3.96759   3.96759   4.13808   4.17768   4.28237
 Alpha virt. eigenvalues --    4.28237   4.34926   4.48661   4.48661   4.54230
 Alpha virt. eigenvalues --    4.54230   4.56459   4.56459   4.67076   4.67076
 Alpha virt. eigenvalues --    4.69799   4.69799   4.72696   4.72696   4.74323
 Alpha virt. eigenvalues --    4.75716   4.75716   4.80316   4.80316   4.81774
 Alpha virt. eigenvalues --    4.81774   4.84979   4.85721   4.85721   4.85750
 Alpha virt. eigenvalues --    4.85750   4.96927   4.96927   5.04727   5.04727
 Alpha virt. eigenvalues --    5.06001   5.13983   5.13983   5.23043   5.23043
 Alpha virt. eigenvalues --    5.38313   5.38313   5.39449   5.39449   5.41424
 Alpha virt. eigenvalues --    5.44559   5.44559   5.52425   5.52425   5.55488
 Alpha virt. eigenvalues --    5.55488   5.57251   5.57251   5.57485   5.57485
 Alpha virt. eigenvalues --    5.59444   5.59444   5.60240   5.64976   5.66853
 Alpha virt. eigenvalues --    5.66853   5.70897   5.70897   5.70910   5.73613
 Alpha virt. eigenvalues --    5.73613   5.73691   5.73691   5.75059   5.75059
 Alpha virt. eigenvalues --    5.76822   5.76822   5.77828   5.77828   5.89090
 Alpha virt. eigenvalues --    5.89090   5.90235   5.90235   6.08562   6.08562
 Alpha virt. eigenvalues --    6.14076   6.16591   6.16591   6.22886   6.48264
 Alpha virt. eigenvalues --    6.55470   6.55470   6.88087   6.88087   6.95488
 Alpha virt. eigenvalues --    6.95488   6.97343   6.97343   7.10863   7.10863
 Alpha virt. eigenvalues --    7.36402   7.36402   7.42908   7.42908   7.77977
 Alpha virt. eigenvalues --    7.77977   7.80731   7.80731   7.82109   7.90432
 Alpha virt. eigenvalues --    7.90432   7.90547   7.90774   7.90774   8.00602
 Alpha virt. eigenvalues --    8.00602   8.03255   8.03255   8.03624   8.03624
 Alpha virt. eigenvalues --    8.05699   8.05699   8.13454   8.13454   8.18337
 Alpha virt. eigenvalues --    8.18337   8.27795   8.27795   8.31121   8.31121
 Alpha virt. eigenvalues --    8.31984   8.35703   8.52758   8.52758   8.54915
 Alpha virt. eigenvalues --    8.54915   8.71237   8.71237   8.94212   8.97010
 Alpha virt. eigenvalues --    8.97010   9.01279   9.13192   9.13192   9.16049
 Alpha virt. eigenvalues --    9.16049   9.21584   9.21584   9.39218   9.44340
 Alpha virt. eigenvalues --    9.56242   9.56242   9.62618   9.62618   9.66567
 Alpha virt. eigenvalues --    9.68045   9.68045   9.70434   9.70434   9.70530
 Alpha virt. eigenvalues --    9.70530   9.74007   9.74007   9.75223   9.75223
 Alpha virt. eigenvalues --    9.76906   9.76906   9.78325   9.78325   9.79451
 Alpha virt. eigenvalues --    9.79451   9.80522   9.80522   9.81344   9.81344
 Alpha virt. eigenvalues --    9.81544   9.82253   9.82253   9.82786   9.82786
 Alpha virt. eigenvalues --    9.83240   9.83520   9.83520   9.86507   9.86507
 Alpha virt. eigenvalues --    9.87865   9.87865   9.91522   9.91522  10.03365
 Alpha virt. eigenvalues --   10.03365  10.05119  10.05119  10.07173  10.07173
 Alpha virt. eigenvalues --   10.11037  10.11037  10.13077  10.13077  10.15147
 Alpha virt. eigenvalues --   10.15147  10.16352  10.16352  10.19701  10.19701
 Alpha virt. eigenvalues --   10.34836  10.35652  10.35652  10.36089  10.36089
 Alpha virt. eigenvalues --   10.41346  10.41346  10.44653  10.55290  10.99089
 Alpha virt. eigenvalues --   11.03940  11.03940  11.27724  11.27724  11.63289
 Alpha virt. eigenvalues --   12.51953  12.51953  12.57965  12.60534  12.60534
 Alpha virt. eigenvalues --   12.68103  12.68103  12.80964  12.80964  13.09378
 Alpha virt. eigenvalues --   13.09378  13.40728  13.40728  13.80291  13.80291
 Alpha virt. eigenvalues --   14.15551  14.94872  16.33852  16.33852  16.75857
 Alpha virt. eigenvalues --   16.75857  17.03937  17.03937  17.68436  17.68436
 Alpha virt. eigenvalues --   18.25731  18.34687  20.50686  20.69449  20.85429
 Alpha virt. eigenvalues --   20.85429  21.12544  21.12544  21.65069  23.23184
 Alpha virt. eigenvalues --  551.42918 555.70671
          Condensed to atoms (all electrons):
              1          2
     1  Se  33.493087   0.506913
     2  Se   0.506913  33.493087
          Atomic-Atomic Spin Densities.
              1          2
     1  Se   1.218873  -0.218873
     2  Se  -0.218873   1.218873
 Mulliken charges and spin densities:
              1          2
     1  Se   0.000000   1.000000
     2  Se   0.000000   1.000000
 Sum of Mulliken charges =   0.00000 spin densities =   2.000000
 Mulliken charges and spin densities with hydrogens summed into heavy atoms:
              1          2
     1  Se   0.000000   1.000000
     2  Se   0.000000   1.000000
 Sum of Mulliken charges with hydrogens summed into heavy atoms =   0.00000 spin densities =   2.000000
 Electronic spatial extent (au):  <R**2>=            365.5699
 Charge=              0.0000 electrons
 Dipole moment (field-independent basis, Debye):
    X=              0.0000    Y=              0.0000    Z=              0.0000  Tot=              0.0000
 Quadrupole moment (field-independent basis, Debye-Ang):
   XX=            -37.2836   YY=            -37.2836   ZZ=            -34.0503
   XY=              0.0000   XZ=              0.0000   YZ=              0.0000
 Traceless Quadrupole moment (field-independent basis, Debye-Ang):
   XX=             -1.0778   YY=             -1.0778   ZZ=              2.1556
   XY=              0.0000   XZ=              0.0000   YZ=              0.0000
 Octapole moment (field-independent basis, Debye-Ang**2):
  XXX=              0.0000  YYY=              0.0000  ZZZ=              0.0000  XYY=              0.0000
  XXY=              0.0000  XXZ=              0.0000  XZZ=              0.0000  YZZ=              0.0000
  YYZ=              0.0000  XYZ=              0.0000
 Hexadecapole moment (field-independent basis, Debye-Ang**3):
 XXXX=            -51.5096 YYYY=            -51.5096 ZZZZ=           -281.4881 XXXY=              0.0000
 XXXZ=              0.0000 YYYX=              0.0000 YYYZ=              0.0000 ZZZX=              0.0000
 ZZZY=              0.0000 XXYY=            -17.1699 XXZZ=            -59.5446 YYZZ=            -59.5446
 XXYZ=              0.0000 YYXZ=              0.0000 ZZXY=              0.0000
 N-N= 2.824232932272D+02 E-N=-1.804914063600D+04  KE= 7.197313386347D+03
                          Isotropic Fermi Contact Couplings
        Atom                 a.u.       MegaHertz       Gauss      10(-4) cm-1
 --------------------------------------------------------
       Center         ----  Spin Dipole Couplings  ----
                      3XX-RR        3YY-RR        3ZZ-RR
 --------------------------------------------------------
     1   Atom        1.983319      1.983319     -3.966639
     2   Atom        1.983319      1.983319     -3.966639
 --------------------------------------------------------
                        XY            XZ            YZ
 --------------------------------------------------------
     1   Atom        0.000000      0.000000      0.000000
     2   Atom        0.000000      0.000000      0.000000
 --------------------------------------------------------


 ---------------------------------------------------------------------------------
              Anisotropic Spin Dipole Couplings in Principal Axis System
 ---------------------------------------------------------------------------------

       Atom             a.u.   MegaHertz   Gauss  10(-4) cm-1        Axes


 ---------------------------------------------------------------------------------


 Test job not archived.
 1\1\GINC-C28\SP\ROMP2-RW\Gen\Se2(3)\GPETERSSON\02-May-2013\0\\# ROMP2(
 RW) Gen GFinput Int=NoBasisTransform Int(Grid=Ultrafine) IOp(3/32=2,5/
 6=10,8/11=1,9/33=1) Maxdisk=128GB CBSextrapolate(Nmin=25,MinPop)\\Se2\
 \0,3\Se\Se,1,2.166\\Version=EM64L-GDVRevH.12\State=3-SGG\HF=-4799.7901
 941\MP2=-4800.1324519\E2(CBS)=-0.3501903\CBS-Int=-0.3462719\OIii=1.706
 6079\RMSD=4.571e-11\PG=D*H [C*(Se1.Se1)]\\@


 Sometimes the fool who rushes in gets the job done.
                                    -- Al Bernstein
 Job cpu time:  4 days  8 hours 22 minutes 44.0 seconds.
 File lengths (MBytes):  RWF=  13013 Int=      0 D2E=      0 Chk=     23 Scr=      1
 Normal termination of Gaussian DV at Thu May  2 02:13:51 2013.
