 Entering Gaussian System, Link 0=gdv
 AtFile(1): 7ZaPa-NR.gbs
 Initial command:
 /share/apps/gaussian/gdvh12/gdv/l1.exe /localscratch/935727/Gau-1744.inp -scrdir=/localscratch/935727/
 Entering Link 1 = /share/apps/gaussian/gdvh12/gdv/l1.exe PID=      1745.
  
 Copyright (c) 1988,1990,1992,1993,1995,1998,2003,2009,2011,
            Gaussian, Inc.  All Rights Reserved.
  
 This is the private, development version of
 the Gaussian(R) DV system of programs. It is based on
 the Gaussian(R) 09 system (copyright 2009, Gaussian, Inc.),
 the Gaussian(R) 03 system (copyright 2003, Gaussian, Inc.),
 the Gaussian(R) 98 system (copyright 1998, Gaussian, Inc.),
 the Gaussian(R) 94 system (copyright 1995, Gaussian, Inc.),
 the Gaussian 92(TM) system (copyright 1992, Gaussian, Inc.),
 the Gaussian 90(TM) system (copyright 1990, Gaussian, Inc.),
 the Gaussian 88(TM) system (copyright 1988, Gaussian, Inc.),
 the Gaussian 86(TM) system (copyright 1986, Carnegie Mellon
 University), and the Gaussian 82(TM) system (copyright 1983,
 Carnegie Mellon University). Gaussian is a federally registered
 trademark of Gaussian, Inc.
  
 This software contains proprietary and confidential information,
 including trade secrets, belonging to Gaussian, Inc.
  
 This software is provided under written license and may be
 used, copied, transmitted, or stored only in accord with that
 written license.
  
 The following legend is applicable only to US Government
 contracts under FAR:
  
                    RESTRICTED RIGHTS LEGEND
  
 Use, reproduction and disclosure by the US Government is
 subject to restrictions as set forth in subparagraphs (a)
 and (c) of the Commercial Computer Software - Restricted
 Rights clause in FAR 52.227-19.
  
 Gaussian, Inc.
 340 Quinnipiac St., Bldg. 40, Wallingford CT 06492
  
  
 ---------------------------------------------------------------
 Warning -- This program may not be used in any manner that
 competes with the business of Gaussian, Inc. or will provide
 assistance to any competitor of Gaussian, Inc.  The licensee
 of this program is prohibited from giving any competitor of
 Gaussian, Inc. access to this program.  By using this program,
 the user acknowledges that Gaussian, Inc. is engaged in the
 business of creating and licensing software in the field of
 computational chemistry and represents and warrants to the
 licensee that it is not a competitor of Gaussian, Inc. and that
 it will not use this program in any manner prohibited above.
 ---------------------------------------------------------------
  

 Cite this work as:
 Gaussian Development Version, Revision H.12,
 M. J. Frisch, G. W. Trucks, H. B. Schlegel, G. E. Scuseria, 
 M. A. Robb, J. R. Cheeseman, G. Scalmani, V. Barone, B. Mennucci, 
 G. A. Petersson, H. Nakatsuji, M. Caricato, X. Li, H. P. Hratchian, 
 A. F. Izmaylov, J. Bloino, G. Zheng, J. L. Sonnenberg, M. Hada, 
 M. Ehara, K. Toyota, R. Fukuda, J. Hasegawa, M. Ishida, T. Nakajima, 
 Y. Honda, O. Kitao, H. Nakai, T. Vreven, J. A. Montgomery, Jr., 
 J. E. Peralta, F. Ogliaro, M. Bearpark, J. J. Heyd, E. Brothers, 
 K. N. Kudin, V. N. Staroverov, T. Keith, R. Kobayashi, J. Normand, 
 K. Raghavachari, A. Rendell, J. C. Burant, S. S. Iyengar, J. Tomasi, 
 M. Cossi, N. Rega, J. M. Millam, M. Klene, J. E. Knox, J. B. Cross, 
 V. Bakken, C. Adamo, J. Jaramillo, R. Gomperts, R. E. Stratmann, 
 O. Yazyev, A. J. Austin, R. Cammi, C. Pomelli, J. W. Ochterski, 
 R. L. Martin, K. Morokuma, V. G. Zakrzewski, G. A. Voth, 
 P. Salvador, J. J. Dannenberg, S. Dapprich, P. V. Parandekar, 
 N. J. Mayhall, A. D. Daniels, O. Farkas, J. B. Foresman, 
 J. V. Ortiz, J. Cioslowski, and D. J. Fox, 
 Gaussian, Inc., Wallingford CT, 2010.
 
 ******************************************
 Gaussian DV:  EM64L-GDVRevH.12  9-Jun-2011
                31-May-2013 
 ******************************************
 % Mem=12GB
 % Nproc=8
 Will use up to    8 processors via shared memory.
 ----------------------------------------------------------------------
 # ROMP2(RW) Gen GFinput Int=NoBasisTransform Int(Grid=Ultrafine) IOp(3
 /32=2,5/6=10,8/11=1,9/33=1) Maxdisk=128GB CBSextrapolate(Nmin=25,MinPo
 p)
 ----------------------------------------------------------------------
 1/38=1/1;
 2/12=2,17=6,18=5,40=1/2;
 3/5=7,11=2,16=1,24=10,25=1,30=1,32=2,60=-1,75=-5,116=101/1,2,3;
 4//1;
 5/5=2,6=10,38=5/2;
 8/5=-1,10=91,11=1/1;
 9/16=-3,33=1,75=2,81=25,83=4/6,4;
 6/7=2,8=2,9=2,10=2/1;
 99/5=1,9=1/99;
 -------
 SeO 3Sg
 -------
 Charge =  0 Multiplicity = 3
 Symbolic Z-Matrix:
 Se
 O                    1     1.6484 
 
                          Input orientation:                          
 ---------------------------------------------------------------------
 Center     Atomic      Atomic             Coordinates (Angstroms)
 Number     Number       Type             X           Y           Z
 ---------------------------------------------------------------------
      1         34           0        0.000000    0.000000    0.000000
      2          8           0        0.000000    0.000000    1.648400
 ---------------------------------------------------------------------
 Stoichiometry    OSe(3)
 Framework group  C*V[C*(OSe)]
 Deg. of freedom     1
 Full point group                 C*V     NOp   4
 Largest Abelian subgroup         C2V     NOp   4
 Largest concise Abelian subgroup C1      NOp   1
                         Standard orientation:                         
 ---------------------------------------------------------------------
 Center     Atomic      Atomic             Coordinates (Angstroms)
 Number     Number       Type             X           Y           Z
 ---------------------------------------------------------------------
      1         34           0        0.000000    0.000000    0.313981
      2          8           0        0.000000    0.000000   -1.334419
 ---------------------------------------------------------------------
 Rotational constants (GHZ):      0.0000000     13.9554511     13.9554511
 General basis read from cards:  (5D, 7F)
 AO basis set in the form of general basis input (Overlap normalization):
      1 0
 S  19 1.00       0.000000000000
      0.1131081510D+09  0.2549679752D-06
      0.2113086240D+08  0.1600701102D-05
      0.4815085880D+07  0.9166904806D-05
      0.1296214510D+07  0.4195361270D-04
      0.4008745910D+06  0.1634570450D-03
      0.1390241870D+06  0.5560811165D-03
      0.5295422950D+05  0.1697014155D-02
      0.2176571310D+05  0.4737665008D-02
      0.9511831760D+04  0.1226378126D-01
      0.4365393100D+04  0.2959075611D-01
      0.2082857790D+04  0.6607661606D-01
      0.1024732690D+04  0.1332290414D+00
      0.5164291600D+03  0.2298451032D+00
      0.2651916080D+03  0.3052726570D+00
      0.1381626940D+03  0.2558902645D+00
      0.7276772000D+02  0.9837327240D-01
      0.3861969000D+02  0.1043957331D-01
      0.2058943400D+02  0.9698903983D-03
      0.1098995600D+02  0.1377877387D-04
 S  15 1.00       0.000000000000
      0.2176571310D+05 -0.8329289819D-05
      0.9511831760D+04 -0.4272569736D-04
      0.4365393100D+04 -0.2629158340D-03
      0.2082857790D+04 -0.1221560183D-02
      0.1024732690D+04 -0.5241817150D-02
      0.5164291600D+03 -0.1855847084D-01
      0.2651916080D+03 -0.5250494108D-01
      0.1381626940D+03 -0.8943330535D-01
      0.7276772000D+02 -0.1979107333D-01
      0.3861969000D+02  0.2740387458D+00
      0.2058943400D+02  0.5101567093D+00
      0.1098995600D+02  0.2940189938D+00
      0.5850445000D+01  0.4780572385D-01
      0.3091662000D+01  0.3202718525D-02
      0.1612449000D+01 -0.4125916758D-04
 P  17 1.00       0.000000000000
      0.1376796180D+06  0.2819698799D-05
      0.3672004500D+05  0.2233782837D-04
      0.1171585980D+05  0.1441759950D-03
      0.4322472990D+04  0.7142284167D-03
      0.1790735710D+04  0.2885939507D-02
      0.8123814270D+03  0.9772895371D-02
      0.3950666270D+03  0.2831597588D-01
      0.2023064050D+03  0.7071817966D-01
      0.1074854040D+03  0.1485028645D+00
      0.5853508600D+02  0.2503710452D+00
      0.3235348300D+02  0.3154338857D+00
      0.1800486400D+02  0.2472027918D+00
      0.1002290600D+02  0.9631654826D-01
      0.5551094000D+01  0.1535208923D-01
      0.3044359000D+01  0.1453057579D-02
      0.1646009000D+01  0.3050374972D-03
      0.8734530000D+00  0.2405252307D-04
 S  11 1.00       0.000000000000
      0.2651916080D+03  0.5631557678D-03
      0.1381626940D+03  0.2402134797D-02
      0.7276772000D+02  0.2521026437D-02
      0.3861969000D+02 -0.2889857321D-01
      0.2058943400D+02 -0.1615199820D+00
      0.1098995600D+02 -0.1582342781D+00
      0.5850445000D+01  0.2224666424D+00
      0.3091662000D+01  0.5824389629D+00
      0.1612449000D+01  0.3763904775D+00
      0.8240080000D+00  0.4831425924D-01
      0.4089200000D+00  0.2055191298D-02
 P  14 1.00       0.000000000000
      0.8123814270D+03 -0.3459098950D-04
      0.3950666270D+03 -0.2249424916D-03
      0.2023064050D+03 -0.1204439861D-02
      0.1074854040D+03 -0.4589365079D-02
      0.5853508600D+02 -0.1218850722D-01
      0.3235348300D+02 -0.2256732584D-01
      0.1800486400D+02  0.3587882833D-02
      0.1002290600D+02  0.1368167193D+00
      0.5551094000D+01  0.3162342176D+00
      0.3044359000D+01  0.3807600369D+00
      0.1646009000D+01  0.2283117436D+00
      0.8734530000D+00  0.5007738460D-01
      0.4526530000D+00  0.3625048884D-02
      0.2277620000D+00  0.3859946670D-03
 D  16 1.00       0.000000000000
      0.5004719080D+04  0.4641809482D-05
      0.1561340970D+04  0.4801369600D-04
      0.6006699300D+03  0.3246493886D-03
      0.2672623230D+03  0.1565414722D-02
      0.1310903860D+03  0.5983822790D-02
      0.6848453200D+02  0.1845086893D-01
      0.3722335900D+02  0.4675467719D-01
      0.2073358200D+02  0.1008762645D+00
      0.1172439200D+02  0.1759235896D+00
      0.6688644000D+01  0.2391421629D+00
      0.3827465000D+01  0.2632949207D+00
      0.2179656000D+01  0.2334831638D+00
      0.1219823000D+01  0.1494888806D+00
      0.6576330000D+00  0.5791601540D-01
      0.3314940000D+00  0.1000562617D-01
      0.1497430000D+00  0.7539690853D-03
 S  10 1.00       0.000000000000
      0.3861969000D+02  0.1235192471D-03
      0.2058943400D+02  0.2668606219D-02
      0.1098995600D+02  0.3154706581D-02
      0.5850445000D+01 -0.8146836136D-02
      0.3091662000D+01 -0.6889152290D-01
      0.1612449000D+01 -0.2063720158D+00
      0.8240080000D+00  0.2161243952D-01
      0.4089200000D+00  0.4680065270D+00
      0.1949080000D+00  0.5353588679D+00
      0.8804800000D-01  0.1546707646D+00
 S   1 1.00       0.000000000000
      0.4372178367D-01  0.1000000000D+01
 P  11 1.00       0.000000000000
      0.3235348300D+02  0.1101725399D-03
      0.1800486400D+02 -0.4185474259D-03
      0.1002290600D+02 -0.3301943370D-02
      0.5551094000D+01 -0.8084837795D-02
      0.3044359000D+01 -0.2088267846D-01
      0.1646009000D+01 -0.2464977461D-01
      0.8734530000D+00  0.9482480245D-01
      0.4526530000D+00  0.2969417837D+00
      0.2277620000D+00  0.3997438373D+00
      0.1104890000D+00  0.2901621871D+00
      0.5122600000D-01  0.6932962201D-01
 P   1 1.00       0.000000000000
      0.3156984215D-01  0.1000000000D+01
 S   1 1.00       0.000000000000
      0.4003004000D+01  0.1000000000D+01
 S   1 1.00       0.000000000000
      0.2282327000D+01  0.1000000000D+01
 S   1 1.00       0.000000000000
      0.1301277000D+01  0.1000000000D+01
 S   1 1.00       0.000000000000
      0.7419270000D+00  0.1000000000D+01
 S   1 1.00       0.000000000000
      0.4230120000D+00  0.1000000000D+01
 S   1 1.00       0.000000000000
      0.2411820000D+00  0.1000000000D+01
 P   1 1.00       0.000000000000
      0.2452659000D+01  0.1000000000D+01
 P   1 1.00       0.000000000000
      0.1436103000D+01  0.1000000000D+01
 P   1 1.00       0.000000000000
      0.8408790000D+00  0.1000000000D+01
 P   1 1.00       0.000000000000
      0.4923590000D+00  0.1000000000D+01
 P   1 1.00       0.000000000000
      0.2882910000D+00  0.1000000000D+01
 P   1 1.00       0.000000000000
      0.1688020000D+00  0.1000000000D+01
 D   1 1.00       0.000000000000
      0.2582286000D+01  0.1000000000D+01
 D   1 1.00       0.000000000000
      0.1419984000D+01  0.1000000000D+01
 D   1 1.00       0.000000000000
      0.7808400000D+00  0.1000000000D+01
 D   1 1.00       0.000000000000
      0.4293790000D+00  0.1000000000D+01
 D   1 1.00       0.000000000000
      0.2361130000D+00  0.1000000000D+01
 D   1 1.00       0.000000000000
      0.1298370000D+00  0.1000000000D+01
 D   1 1.00       0.000000000000
      0.7139650000D-01  0.1000000000D+01
 F   1 1.00       0.000000000000
      0.2673067000D+01  0.1000000000D+01
 F   1 1.00       0.000000000000
      0.1417972000D+01  0.1000000000D+01
 F   1 1.00       0.000000000000
      0.7521860000D+00  0.1000000000D+01
 F   1 1.00       0.000000000000
      0.3990090000D+00  0.1000000000D+01
 F   1 1.00       0.000000000000
      0.2116610000D+00  0.1000000000D+01
 F   1 1.00       0.000000000000
      0.1122790000D+00  0.1000000000D+01
 G   1 1.00       0.000000000000
      0.1338920000D+01  0.1000000000D+01
 G   1 1.00       0.000000000000
      0.8147730000D+00  0.1000000000D+01
 G   1 1.00       0.000000000000
      0.4958140000D+00  0.1000000000D+01
 G   1 1.00       0.000000000000
      0.3017180000D+00  0.1000000000D+01
 G   1 1.00       0.000000000000
      0.1836050000D+00  0.1000000000D+01
 H   1 1.00       0.000000000000
      0.1215303000D+01  0.1000000000D+01
 H   1 1.00       0.000000000000
      0.7111940000D+00  0.1000000000D+01
 H   1 1.00       0.000000000000
      0.4161890000D+00  0.1000000000D+01
 H   1 1.00       0.000000000000
      0.2435530000D+00  0.1000000000D+01
 I   1 1.00       0.000000000000
      0.1149838000D+01  0.1000000000D+01
 I   1 1.00       0.000000000000
      0.6115140000D+00  0.1000000000D+01
 I   1 1.00       0.000000000000
      0.3252190000D+00  0.1000000000D+01
 J   1 1.00       0.000000000000
      0.1002245215D+01  0.1000000000D+01
 ****
      2 0
 S  16 1.00       0.000000000000
      0.1411246410D+07  0.1627429822D-05
      0.2499102240D+06  0.1092621996D-04
      0.5603410580D+05  0.6238741867D-04
      0.1521153640D+05  0.2783303491D-03
      0.4812287750D+04  0.1040541872D-02
      0.1717755460D+04  0.3380392793D-02
      0.6733958240D+03  0.9828484765D-02
      0.2835101840D+03  0.2605310129D-01
      0.1258620070D+03  0.6280818057D-01
      0.5804472200D+02  0.1348202075D+00
      0.2747198500D+02  0.2435563460D+00
      0.1321062900D+02  0.3323287378D+00
      0.6399806000D+01  0.2607930483D+00
      0.3099614000D+01  0.7430834326D-01
      0.1489856000D+01  0.4189538074D-02
      0.7052010000D+00  0.8706455725D-03
 S  11 1.00       0.000000000000
      0.2835101840D+03 -0.1122588094D-03
      0.1258620070D+03 -0.5559335617D-03
      0.5804472200D+02 -0.2851687904D-02
      0.2747198500D+02 -0.1133494995D-01
      0.1321062900D+02 -0.3657977704D-01
      0.6399806000D+01 -0.7288994197D-01
      0.3099614000D+01 -0.1062032356D-01
      0.1489856000D+01  0.2196705572D+00
      0.7052010000D+00  0.4294832072D+00
      0.3258480000D+00  0.3775832849D+00
      0.1454600000D+00  0.9640261255D-01
 S   1 1.00       0.000000000000
      0.5814297870D-01  0.1000000000D+01
 P  13 1.00       0.000000000000
      0.2085279200D+04  0.1447911740D-04
      0.5101470830D+03  0.1283233588D-03
      0.1616811510D+03  0.7792790007D-03
      0.6114945200D+02  0.3400506049D-02
      0.2597660200D+02  0.1157685214D-01
      0.1187542600D+02  0.3269740339D-01
      0.5677133000D+01  0.8011404242D-01
      0.2786475000D+01  0.1605265057D+00
      0.1387844000D+01  0.2460495026D+00
      0.6952810000D+00  0.2898982926D+00
      0.3470020000D+00  0.2606799382D+00
      0.1700990000D+00  0.1479363112D+00
      0.8008000000D-01  0.2980261453D-01
 P   1 1.00       0.000000000000
      0.4261436033D-01  0.1000000000D+01
 S   1 1.00       0.000000000000
      0.4249866000D+01  0.1000000000D+01
 S   1 1.00       0.000000000000
      0.2167470000D+01  0.1000000000D+01
 S   1 1.00       0.000000000000
      0.1105429000D+01  0.1000000000D+01
 S   1 1.00       0.000000000000
      0.5637790000D+00  0.1000000000D+01
 S   1 1.00       0.000000000000
      0.2875320000D+00  0.1000000000D+01
 S   1 1.00       0.000000000000
      0.1466440000D+00  0.1000000000D+01
 P   1 1.00       0.000000000000
      0.5659724000D+01  0.1000000000D+01
 P   1 1.00       0.000000000000
      0.2575878000D+01  0.1000000000D+01
 P   1 1.00       0.000000000000
      0.1172344000D+01  0.1000000000D+01
 P   1 1.00       0.000000000000
      0.5335620000D+00  0.1000000000D+01
 P   1 1.00       0.000000000000
      0.2428370000D+00  0.1000000000D+01
 P   1 1.00       0.000000000000
      0.1105210000D+00  0.1000000000D+01
 D   1 1.00       0.000000000000
      0.9464211000D+01  0.1000000000D+01
 D   1 1.00       0.000000000000
      0.4752286000D+01  0.1000000000D+01
 D   1 1.00       0.000000000000
      0.2386276000D+01  0.1000000000D+01
 D   1 1.00       0.000000000000
      0.1198226000D+01  0.1000000000D+01
 D   1 1.00       0.000000000000
      0.6016680000D+00  0.1000000000D+01
 D   1 1.00       0.000000000000
      0.3021170000D+00  0.1000000000D+01
 D   1 1.00       0.000000000000
      0.1517020000D+00  0.1000000000D+01
 F   1 1.00       0.000000000000
      0.7001836000D+01  0.1000000000D+01
 F   1 1.00       0.000000000000
      0.3552509000D+01  0.1000000000D+01
 F   1 1.00       0.000000000000
      0.1802430000D+01  0.1000000000D+01
 F   1 1.00       0.000000000000
      0.9144960000D+00  0.1000000000D+01
 F   1 1.00       0.000000000000
      0.4639860000D+00  0.1000000000D+01
 F   1 1.00       0.000000000000
      0.2354110000D+00  0.1000000000D+01
 G   1 1.00       0.000000000000
      0.6472481000D+01  0.1000000000D+01
 G   1 1.00       0.000000000000
      0.3119071000D+01  0.1000000000D+01
 G   1 1.00       0.000000000000
      0.1503072000D+01  0.1000000000D+01
 G   1 1.00       0.000000000000
      0.7243260000D+00  0.1000000000D+01
 G   1 1.00       0.000000000000
      0.3490500000D+00  0.1000000000D+01
 H   1 1.00       0.000000000000
      0.5355083000D+01  0.1000000000D+01
 H   1 1.00       0.000000000000
      0.2414696000D+01  0.1000000000D+01
 H   1 1.00       0.000000000000
      0.1088827000D+01  0.1000000000D+01
 H   1 1.00       0.000000000000
      0.4909703000D+00  0.1000000000D+01
 I   1 1.00       0.000000000000
      0.4322113000D+01  0.1000000000D+01
 I   1 1.00       0.000000000000
      0.1716263000D+01  0.1000000000D+01
 I   1 1.00       0.000000000000
      0.6815089000D+00  0.1000000000D+01
 J   1 1.00       0.000000000000
      0.3060973723D+01  0.1000000000D+01
 ****

 There are   307 symmetry adapted cartesian basis functions of A1  symmetry.
 There are   129 symmetry adapted cartesian basis functions of A2  symmetry.
 There are   203 symmetry adapted cartesian basis functions of B1  symmetry.
 There are   203 symmetry adapted cartesian basis functions of B2  symmetry.
 There are   178 symmetry adapted basis functions of A1  symmetry.
 There are    87 symmetry adapted basis functions of A2  symmetry.
 There are   127 symmetry adapted basis functions of B1  symmetry.
 There are   127 symmetry adapted basis functions of B2  symmetry.
   519 basis functions,  1161 primitive gaussians,   842 cartesian basis functions
    22 alpha electrons       20 beta electrons
       nuclear repulsion energy        87.3187337639 Hartrees.
 NAtoms=    2 NActive=    2 NUniq=    2 SFac= 1.00D+00 NAtFMM=   60 NAOKFM=F Big=F
 Integral buffers will be    131072 words long.
 Raffenetti 2 integral format.
 Two-electron integral symmetry is turned on.
 One-electron integrals computed using PRISM.
 PrsmSu:  requested number of processors reduced to:   2 ShMem   1 Linda.
 NBasis=   519 RedAO= F EigKep=  0.00D+00  NBF=   178    87   127   127
 NBsUse=   519 1.00D-04 EigRej=  0.00D+00 NBFU=   178    87   127   127
 ExpMin= 3.16D-02 ExpMax= 1.13D+08 ExpMxC= 9.51D+03 IAcc=3 IRadAn=         5 AccDes= 0.00D+00
 Harris functional with IExCor=  205 and IRadAn=       5 diagonalized for initial guess.
 HarFok:  IExCor=  205 AccDes= 0.00D+00 IRadAn=         5 IDoV= 1 UseB2=F ITyADJ=14
 ICtDFT=  3500011 ScaDFX=  1.000000  1.000000  1.000000  1.000000
 FoFCou: FMM=F IPFlag=           0 FMFlag=      100000 FMFlg1=           0
         NFxFlg=           0 DoJE=T BraDBF=F KetDBF=T FulRan=T
         wScrn=  0.000000 ICntrl=     500 IOpCl=  0 I1Cent=   200000004 NGrid=           0
         NMat0=    1 NMatS0=      1 NMatT0=    0 NMatD0=    1 NMtDS0=    0 NMtDT0=    0
 Petite list used in FoFCou.
 DSYEVD returned Info=      135719 IAlg= 4 N=   519 NDim=   519 NE2=     3100496 trying DSYEV.
 Initial guess orbital symmetries:
       Occupied  (SG) (SG) (SG) (PI) (PI) (SG) (SG) (SG) (PI) (PI)
                 (SG) (PI) (PI) (DLTA) (DLTA) (SG) (SG) (SG) (PI)
                 (PI) (PI) (PI)
       Virtual   (SG) (SG) (PI) (PI) (SG) (PI) (PI) (SG) (DLTA)
                 (DLTA) (SG) (PI) (PI) (SG) (SG) (PI) (PI) (SG)
                 (DLTA) (DLTA) (PI) (PI) (DLTA) (DLTA) (PHI) (PHI)
                 (PI) (PI) (SG) (PI) (PI) (DLTA) (DLTA) (SG) (SG)
                 (PI) (PI) (SG) (PHI) (PHI) (?A) (?A) (PI) (PI)
                 (DLTA) (DLTA) (SG) (PI) (PI) (DLTA) (DLTA) (SG)
                 (DLTA) (DLTA) (PHI) (PHI) (SG) (PI) (PI) (PI)
                 (PI) (SG) (PHI) (PHI) (DLTA) (DLTA) (SG) (PI)
                 (PI) (SG) (?A) (?A) (?B) (?B) (DLTA) (DLTA) (PI)
                 (PI) (PHI) (PHI) (SG) (PI) (PI) (SG) (PI) (PI)
                 (DLTA) (DLTA) (PHI) (PHI) (?C) (?C) (?C) (DLTA)
                 (DLTA) (SG) (DLTA) (DLTA) (PI) (PI) (PHI) (PHI)
                 (?A) (?A) (SG) (DLTA) (DLTA) (PI) (PI) (SG) (PI)
                 (PI) (PI) (PI) (?B) (?B) (SG) (SG) (SG) (DLTA)
                 (DLTA) (PHI) (PHI) (PHI) (PHI) (SG) (?A) (?A)
                 (DLTA) (DLTA) (SG) (PI) (PI) (PI) (PI) (SG) (DLTA)
                 (DLTA) (PHI) (PHI) (PI) (PI) (?A) (?A) (?B) (?B)
                 (SG) (PI) (PI) (PHI) (PHI) (SG) (?B) (?B) (DLTA)
                 (DLTA) (SG) (?A) (?A) (PHI) (PHI) (PI) (PI) (DLTA)
                 (DLTA) (DLTA) (DLTA) (SG) (PI) (PI) (PHI) (PHI)
                 (?A) (?A) (PI) (PI) (SG) (DLTA) (DLTA) (SG) (DLTA)
                 (DLTA) (SG) (PHI) (PHI) (DLTA) (DLTA) (PI) (PI)
                 (SG) (PI) (PI) (?A) (?A) (PI) (PI) (SG) (PHI)
                 (PHI) (DLTA) (DLTA) (SG) (PI) (PI) (?B) (?B) (SG)
                 (SG) (SG) (PI) (PI) (?A) (?A) (SG) (SG) (PHI)
                 (PHI) (?B) (?B) (DLTA) (DLTA) (SG) (PHI) (PHI)
                 (PI) (PI) (?A) (?A) (?B) (?B) (SG) (PHI) (PHI)
                 (DLTA) (DLTA) (SG) (DLTA) (DLTA) (?A) (?A) (PI)
                 (PI) (PHI) (PHI) (?A) (?A) (SG) (PI) (PI) (DLTA)
                 (DLTA) (PI) (PI) (SG) (SG) (PI) (PI) (DLTA) (DLTA)
                 (PHI) (PHI) (DLTA) (DLTA) (PHI) (PHI) (SG) (PI)
                 (PI) (SG) (DLTA) (DLTA) (?B) (?B) (DLTA) (DLTA)
                 (?A) (?A) (PI) (PI) (PHI) (PHI) (PI) (PI) (?D)
                 (?D) (SG) (SG) (SG) (DLTA) (DLTA) (SG) (?B) (?B)
                 (PI) (PI) (SG) (?A) (?A) (PI) (PI) (SG) (PI) (PI)
                 (PHI) (PHI) (?A) (?A) (SG) (DLTA) (DLTA) (PI)
                 (PI) (PHI) (PHI) (?A) (?A) (PHI) (PHI) (SG) (SG)
                 (?B) (?B) (?B) (?B) (SG) (?A) (?A) (?A) (?A) (DLTA)
                 (DLTA) (SG) (PI) (PI) (PHI) (PHI) (DLTA) (DLTA)
                 (SG) (PHI) (PHI) (PI) (PI) (SG) (DLTA) (DLTA)
                 (PHI) (PHI) (PI) (PI) (SG) (DLTA) (DLTA) (PI)
                 (PI) (DLTA) (DLTA) (SG) (DLTA) (DLTA) (SG) (PI)
                 (PI) (PHI) (PHI) (SG) (PI) (PI) (DLTA) (DLTA)
                 (SG) (SG) (?B) (?B) (SG) (?A) (?A) (PHI) (PHI)
                 (PI) (PI) (DLTA) (DLTA) (SG) (PI) (PI) (SG) (DLTA)
                 (DLTA) (?B) (?B) (PI) (PI) (?A) (?A) (PHI) (PHI)
                 (SG) (DLTA) (DLTA) (PI) (PI) (SG) (PI) (PI) (?A)
                 (?A) (PHI) (PHI) (PHI) (PHI) (SG) (SG) (DLTA)
                 (DLTA) (PI) (PI) (SG) (PI) (PI) (DLTA) (DLTA)
                 (SG) (PI) (PI) (DLTA) (DLTA) (PI) (PI) (SG) (SG)
                 (?B) (?B) (SG) (SG) (?D) (?D) (?A) (?A) (PHI)
                 (PHI) (DLTA) (DLTA) (SG) (PI) (PI) (SG) (SG) (SG)
                 (?B) (?B) (?A) (?A) (PHI) (PHI) (DLTA) (DLTA)
                 (PI) (PI) (SG) (?B) (?B) (?A) (?A) (PHI) (PHI)
                 (DLTA) (DLTA) (PI) (PI) (SG) (PHI) (PHI) (DLTA)
                 (DLTA) (PI) (PI) (SG) (?A) (?A) (PHI) (PHI) (DLTA)
                 (DLTA) (SG) (PI) (PI) (DLTA) (DLTA) (PI) (PI)
                 (SG) (PI) (PI) (SG) (SG) (SG)
 The electronic state of the initial guess is 3-SG.
 Requested convergence on RMS density matrix=1.00D-10 within 128 cycles.
 Requested convergence on MAX density matrix=1.00D-08.
 Requested convergence on             energy=1.00D-08.
 No special actions if energy rises.
 Initial convergence to 1.0D-05 achieved.  Increase integral accuracy.
 DSYEVD returned Info=         357 IAlg= 4 N=   178 NDim=   519 NE2=     3099173 trying DSYEV.
 SCF Done:  E(ROHF) =  -2474.72629157     A.U. after   25 cycles
            NFock= 25  Conv=0.14D-10     -V/T= 2.0001
 <Sx>= 0.0000 <Sy>= 0.0000 <Sz>= 1.0000 <S**2>= 2.0000 S= 1.0000
 <L.S>= 0.000000000000E+00
 Annihilation of the first spin contaminant:
 S**2 before annihilation     2.0000,   after     2.0000
 GenMOA:  NOpAll=  4 NOp2=4 NOpUse=  4 JSym2X=1
 <Sx>= 0.0000 <Sy>= 0.0000 <Sz>= 1.0000 <S**2>= 2.0000 S= 1.0000
 Range of M.O.s used for correlation:    16   519
 NBasis=   519 NAE=    22 NBE=    20 NFC=    15 NFV=     0
 NROrb=    504 NOA=     7 NOB=     5 NVA=   497 NVB=   499

 **** Warning!!: The largest alpha MO coefficient is  0.77073464D+03


 **** Warning!!: The largest beta MO coefficient is  0.76610197D+03

 Singles contribution to E2=   -0.7218452426D-02
 Disk-based method using OVN memory for  7 occupieds at a time.
 Permanent disk used for amplitudes and <ij||ab> integrals=    25021982 words.
 Estimated scratch disk usage=  3169799542 words.
 IUseRI=2 ITolRI= 6 IR12RI=0
 Actual    scratch disk usage=  3155189010 words.
 GetIJB would need an additional  1732239352 words of memory to use all   8 processors.
 JobTyp=2 Pass  1:  I=   1 to   7 NPSUse=  1 ParTrn=F ParDer=F DoDerP=F.
 T,EIJ(AA): I=   1 J=   2      0.1237436E-03     -0.6173923E-03
 T,EIJ(AA): I=   1 J=   3      0.3870369E-03     -0.2032332E-02
 T,EIJ(AA): I=   1 J=   4      0.3870369E-03     -0.2032332E-02
 T,EIJ(AA): I=   1 J=   5      0.4100554E-03     -0.2005530E-02
 T,EIJ(AA): I=   1 J=   6      0.2843142E-03     -0.1295847E-02
 T,EIJ(AA): I=   1 J=   7      0.2843142E-03     -0.1295847E-02
 T,EIJ(AA): I=   2 J=   3      0.4139316E-03     -0.1547997E-02
 T,EIJ(AA): I=   2 J=   4      0.4139316E-03     -0.1547997E-02
 T,EIJ(AA): I=   2 J=   5      0.4194526E-03     -0.1370060E-02
 T,EIJ(AA): I=   2 J=   6      0.4529061E-03     -0.1508387E-02
 T,EIJ(AA): I=   2 J=   7      0.4529061E-03     -0.1508387E-02
 T,EIJ(AA): I=   3 J=   4      0.1289249E-02     -0.4962494E-02
 T,EIJ(AA): I=   3 J=   5      0.1495006E-02     -0.5427905E-02
 T,EIJ(AA): I=   3 J=   6      0.2899751E-03     -0.7885989E-03
 T,EIJ(AA): I=   3 J=   7      0.1037199E-02     -0.3284833E-02
 T,EIJ(AA): I=   4 J=   5      0.1495006E-02     -0.5427905E-02
 T,EIJ(AA): I=   4 J=   6      0.1037199E-02     -0.3284833E-02
 T,EIJ(AA): I=   4 J=   7      0.2899751E-03     -0.7885989E-03
 T,EIJ(AA): I=   5 J=   6      0.2192884E-02     -0.5469437E-02
 T,EIJ(AA): I=   5 J=   7      0.2192884E-02     -0.5469437E-02
 T,EIJ(AA): I=   6 J=   7      0.2169655E-02     -0.4886034E-02
 T,EIJ(AB): I=   1 J=   1      0.1877092E-02     -0.1206672E-01
 T,EIJ(AB): I=   1 J=   2      0.5918301E-03     -0.3549781E-02
 T,EIJ(AB): I=   1 J=   3      0.1345826E-02     -0.7329301E-02
 T,EIJ(AB): I=   1 J=   4      0.2109213E-02     -0.9905037E-02
 T,EIJ(AB): I=   1 J=   5      0.2109213E-02     -0.9905037E-02
 T,EIJ(AB): I=   2 J=   1      0.4644137E-03     -0.2717878E-02
 T,EIJ(AB): I=   2 J=   2      0.2512191E-02     -0.9251625E-02
 T,EIJ(AB): I=   2 J=   3      0.2114990E-02     -0.7883725E-02
 T,EIJ(AB): I=   2 J=   4      0.1402714E-02     -0.4848073E-02
 T,EIJ(AB): I=   2 J=   5      0.1402714E-02     -0.4848073E-02
 T,EIJ(AB): I=   3 J=   1      0.1489209E-02     -0.8412637E-02
 T,EIJ(AB): I=   3 J=   2      0.1962742E-02     -0.6463857E-02
 T,EIJ(AB): I=   3 J=   3      0.1932834E-02     -0.7162111E-02
 T,EIJ(AB): I=   3 J=   4      0.5423669E-02     -0.1807340E-01
 T,EIJ(AB): I=   3 J=   5      0.2990970E-02     -0.9496945E-02
 T,EIJ(AB): I=   4 J=   1      0.1489209E-02     -0.8412637E-02
 T,EIJ(AB): I=   4 J=   2      0.1962742E-02     -0.6463857E-02
 T,EIJ(AB): I=   4 J=   3      0.1932834E-02     -0.7162111E-02
 T,EIJ(AB): I=   4 J=   4      0.2990970E-02     -0.9496945E-02
 T,EIJ(AB): I=   4 J=   5      0.5423669E-02     -0.1807340E-01
 T,EIJ(AB): I=   5 J=   1      0.1714857E-02     -0.9080256E-02
 T,EIJ(AB): I=   5 J=   2      0.2779581E-02     -0.9979151E-02
 T,EIJ(AB): I=   5 J=   3      0.7668281E-02     -0.2108462E-01
 T,EIJ(AB): I=   5 J=   4      0.7050554E-02     -0.1519214E-01
 T,EIJ(AB): I=   5 J=   5      0.7050554E-02     -0.1519214E-01
 T,EIJ(AB): I=   6 J=   1      0.8470496E-03     -0.4302096E-02
 T,EIJ(AB): I=   6 J=   2      0.3482400E-02     -0.9405203E-02
 T,EIJ(AB): I=   6 J=   3      0.3607022E-02     -0.8888547E-02
 T,EIJ(AB): I=   6 J=   4      0.4965263E-02     -0.1274919E-01
 T,EIJ(AB): I=   6 J=   5      0.3159752E-02     -0.7407177E-02
 T,EIJ(AB): I=   7 J=   1      0.8470496E-03     -0.4302096E-02
 T,EIJ(AB): I=   7 J=   2      0.3482400E-02     -0.9405203E-02
 T,EIJ(AB): I=   7 J=   3      0.3607022E-02     -0.8888547E-02
 T,EIJ(AB): I=   7 J=   4      0.3159752E-02     -0.7407177E-02
 T,EIJ(AB): I=   7 J=   5      0.4965263E-02     -0.1274919E-01
 Actual    scratch disk usage=  3167885686 words.
 GetIJB would need an additional  1732227564 words of memory to use all   8 processors.
 JobTyp=3 Pass  1:  I=   1 to   5 NPSUse=  1 ParTrn=F ParDer=F DoDerP=F.
 (rs|ai) integrals will be sorted in core.
 T,EIJ(BB): I=   1 J=   2      0.2794599E-03     -0.1228782E-02
 T,EIJ(BB): I=   1 J=   3      0.4068248E-03     -0.1934811E-02
 T,EIJ(BB): I=   1 J=   4      0.9778725E-03     -0.3685764E-02
 T,EIJ(BB): I=   1 J=   5      0.9778725E-03     -0.3685764E-02
 T,EIJ(BB): I=   2 J=   3      0.6731134E-03     -0.1865270E-02
 T,EIJ(BB): I=   2 J=   4      0.1417252E-02     -0.3835886E-02
 T,EIJ(BB): I=   2 J=   5      0.1417252E-02     -0.3835886E-02
 T,EIJ(BB): I=   3 J=   4      0.5789314E-02     -0.1115874E-01
 T,EIJ(BB): I=   3 J=   5      0.5789314E-02     -0.1115874E-01
 T,EIJ(BB): I=   4 J=   5      0.1088632E-01     -0.1634698E-01
 Spin components of T(2) and E(2):
     alpha-alpha T2 =       0.1751866021D-01 E2=     -0.5655218235D-01
     alpha-beta  T2 =       0.1019158507D+00 E2=     -0.3275558753D+00
     beta-beta   T2 =       0.2861459710D-01 E2=     -0.5873662279D-01
 ANorm=    0.1074228506D+01
 E2 =    -0.4500631329D+00 EUMP2 =    -0.24751763547012D+04

 Complete Basis Set (CBS) Extrapolation:
 M. R. Nyden and G. A. Petersson, JCP 75, 1843 (1981)
 G. A. Petersson and M. A. Al-Laham, JCP 94, 6081 (1991)
 G. A. Petersson, T. Tensfeldt, and J. A. Montgomery, JCP 94, 6091 (1991)
 J. A. Montgomery, J. W. Ochterski, and G. A. Petersson, JCP 101, 5900 (1994)
 
 Minimum Number of PNO for Extrapolation =  25
 Absolute Overlaps: IRadAn =         5
 LocTrn: ILocal=3 LocCor=F DoCore=F.
 Entering OneElI...
 Overlap between basis sets.
 Requested accuracy = 0.1000D-12
 PrsmSu:  NPrtUS=   1 ThrOK=F IAlg=1 NPAlg=1 LenDen=           0.
 Prism:   IPart=     0 DynPar=F LinDyn=F Incr=           1.
 PRISM was handed  1609350732 working-precision words and    60 shell-pairs
 IPart=  0 NShTot=          60 NBatch=          14 AvBLen=         4.3
 PrSmSu:  NxtVal=              2.
 CnvPC2: ToCart=F DoDens=F IPureD=0 IPureF=0.
 Transformed matrix in CnvPC2: 
                 1             2             3             4             5 
      1   0.100000D+01  0.405100D+00  0.000000D+00  0.000000D+00  0.000000D+00
      2   0.405100D+00  0.100000D+01  0.000000D+00  0.000000D+00  0.000000D+00
      3   0.000000D+00  0.000000D+00  0.100000D+01  0.000000D+00  0.000000D+00
      4   0.000000D+00  0.000000D+00  0.000000D+00  0.100000D+01  0.000000D+00
      5   0.000000D+00  0.000000D+00  0.000000D+00  0.000000D+00  0.100000D+01
      6   0.306349D-01  0.351216D+00  0.000000D+00  0.000000D+00  0.000000D+00
      7   0.000000D+00  0.000000D+00  0.364086D+00  0.000000D+00  0.000000D+00
      8   0.000000D+00  0.000000D+00  0.000000D+00  0.364086D+00  0.000000D+00
      9   0.000000D+00  0.000000D+00  0.000000D+00  0.000000D+00  0.364086D+00
     10   0.000000D+00  0.000000D+00  0.000000D+00  0.000000D+00  0.000000D+00
     11   0.000000D+00  0.000000D+00  0.000000D+00  0.000000D+00  0.000000D+00
     12   0.000000D+00  0.000000D+00  0.000000D+00  0.000000D+00  0.000000D+00
     13   0.000000D+00  0.000000D+00  0.000000D+00  0.000000D+00  0.000000D+00
     14   0.000000D+00  0.000000D+00  0.000000D+00  0.000000D+00  0.000000D+00
     15  -0.386923D-03  0.519359D-02  0.000000D+00  0.000000D+00  0.000000D+00
     16   0.000000D+00  0.000000D+00  0.135458D-01  0.000000D+00  0.000000D+00
     17   0.000000D+00  0.000000D+00  0.000000D+00  0.135458D-01  0.000000D+00
     18   0.000000D+00  0.000000D+00  0.000000D+00  0.000000D+00  0.135458D-01
     19   0.000000D+00  0.000000D+00  0.000000D+00  0.000000D+00  0.000000D+00
     20   0.000000D+00  0.000000D+00  0.000000D+00  0.000000D+00  0.000000D+00
     21   0.000000D+00  0.000000D+00  0.000000D+00  0.000000D+00  0.000000D+00
     22   0.000000D+00  0.000000D+00  0.000000D+00  0.000000D+00  0.000000D+00
     23   0.000000D+00  0.000000D+00  0.000000D+00  0.000000D+00  0.000000D+00
     24   0.000000D+00  0.000000D+00  0.000000D+00  0.000000D+00  0.000000D+00
     25   0.433000D-03  0.274252D-02  0.000000D+00  0.000000D+00 -0.102861D-02
     26   0.000000D+00  0.000000D+00  0.300255D-03  0.000000D+00  0.000000D+00
     27   0.000000D+00  0.000000D+00  0.000000D+00  0.300255D-03  0.000000D+00
     28   0.931594D-03  0.579799D-02  0.000000D+00  0.000000D+00 -0.189397D-02
                 6             7             8             9            10 
      1   0.306349D-01  0.000000D+00  0.000000D+00  0.000000D+00  0.000000D+00
      2   0.351216D+00  0.000000D+00  0.000000D+00  0.000000D+00  0.000000D+00
      3   0.000000D+00  0.364086D+00  0.000000D+00  0.000000D+00  0.000000D+00
      4   0.000000D+00  0.000000D+00  0.364086D+00  0.000000D+00  0.000000D+00
      5   0.000000D+00  0.000000D+00  0.000000D+00  0.364086D+00  0.000000D+00
      6   0.100000D+01  0.000000D+00  0.000000D+00  0.000000D+00  0.000000D+00
      7   0.000000D+00  0.100000D+01  0.000000D+00  0.000000D+00  0.000000D+00
      8   0.000000D+00  0.000000D+00  0.100000D+01  0.000000D+00  0.000000D+00
      9   0.000000D+00  0.000000D+00  0.000000D+00  0.100000D+01  0.000000D+00
     10   0.000000D+00  0.000000D+00  0.000000D+00  0.000000D+00  0.100000D+01
     11   0.000000D+00  0.000000D+00  0.000000D+00  0.000000D+00  0.000000D+00
     12   0.000000D+00  0.000000D+00  0.000000D+00  0.000000D+00  0.000000D+00
     13   0.000000D+00  0.000000D+00  0.000000D+00  0.000000D+00  0.000000D+00
     14   0.000000D+00  0.000000D+00  0.000000D+00  0.000000D+00  0.000000D+00
     15   0.192427D+00  0.000000D+00  0.000000D+00  0.000000D+00  0.000000D+00
     16   0.000000D+00  0.209028D+00  0.000000D+00  0.000000D+00  0.000000D+00
     17   0.000000D+00  0.000000D+00  0.209028D+00  0.000000D+00  0.000000D+00
     18   0.000000D+00  0.000000D+00  0.000000D+00  0.209028D+00  0.000000D+00
     19   0.000000D+00  0.000000D+00  0.000000D+00  0.000000D+00  0.473157D-01
     20   0.000000D+00  0.000000D+00  0.000000D+00  0.000000D+00  0.000000D+00
     21   0.000000D+00  0.000000D+00  0.000000D+00  0.000000D+00  0.000000D+00
     22   0.000000D+00  0.000000D+00  0.000000D+00  0.000000D+00  0.000000D+00
     23   0.000000D+00  0.000000D+00  0.000000D+00  0.000000D+00  0.000000D+00
     24   0.000000D+00  0.000000D+00  0.000000D+00  0.000000D+00  0.000000D+00
     25   0.187308D-01  0.000000D+00  0.000000D+00 -0.175825D-01  0.940513D-02
     26   0.000000D+00  0.519577D-02  0.000000D+00  0.000000D+00  0.000000D+00
     27   0.000000D+00  0.000000D+00  0.519577D-02  0.000000D+00  0.000000D+00
     28   0.353647D-01  0.000000D+00  0.000000D+00 -0.297954D-01  0.145757D-01
                11            12            13            14            15 
      1   0.000000D+00  0.000000D+00  0.000000D+00  0.000000D+00 -0.386923D-03
      2   0.000000D+00  0.000000D+00  0.000000D+00  0.000000D+00  0.519359D-02
      3   0.000000D+00  0.000000D+00  0.000000D+00  0.000000D+00  0.000000D+00
      4   0.000000D+00  0.000000D+00  0.000000D+00  0.000000D+00  0.000000D+00
      5   0.000000D+00  0.000000D+00  0.000000D+00  0.000000D+00  0.000000D+00
      6   0.000000D+00  0.000000D+00  0.000000D+00  0.000000D+00  0.192427D+00
      7   0.000000D+00  0.000000D+00  0.000000D+00  0.000000D+00  0.000000D+00
      8   0.000000D+00  0.000000D+00  0.000000D+00  0.000000D+00  0.000000D+00
      9   0.000000D+00  0.000000D+00  0.000000D+00  0.000000D+00  0.000000D+00
     10   0.000000D+00  0.000000D+00  0.000000D+00  0.000000D+00  0.000000D+00
     11   0.100000D+01  0.000000D+00  0.000000D+00  0.000000D+00  0.000000D+00
     12   0.000000D+00  0.100000D+01  0.000000D+00  0.000000D+00  0.000000D+00
     13   0.000000D+00  0.000000D+00  0.100000D+01  0.000000D+00  0.000000D+00
     14   0.000000D+00  0.000000D+00  0.000000D+00  0.100000D+01  0.000000D+00
     15   0.000000D+00  0.000000D+00  0.000000D+00  0.000000D+00  0.100000D+01
     16   0.000000D+00  0.000000D+00  0.000000D+00  0.000000D+00  0.000000D+00
     17   0.000000D+00  0.000000D+00  0.000000D+00  0.000000D+00  0.000000D+00
     18   0.000000D+00  0.000000D+00  0.000000D+00  0.000000D+00  0.000000D+00
     19   0.000000D+00  0.000000D+00  0.000000D+00  0.000000D+00  0.000000D+00
     20   0.473157D-01  0.000000D+00  0.000000D+00  0.000000D+00  0.000000D+00
     21   0.000000D+00  0.473157D-01  0.000000D+00  0.000000D+00  0.000000D+00
     22   0.000000D+00  0.000000D+00  0.473157D-01  0.000000D+00  0.000000D+00
     23   0.000000D+00  0.000000D+00  0.000000D+00  0.473157D-01  0.000000D+00
     24   0.000000D+00  0.000000D+00  0.000000D+00  0.000000D+00  0.230261D-01
     25   0.000000D+00  0.000000D+00  0.000000D+00  0.000000D+00  0.245836D+00
     26  -0.489134D-02  0.000000D+00  0.000000D+00  0.000000D+00  0.000000D+00
     27   0.000000D+00 -0.489134D-02  0.000000D+00  0.000000D+00  0.000000D+00
     28   0.000000D+00  0.000000D+00  0.000000D+00  0.000000D+00  0.216610D+00
                16            17            18            19            20 
      1   0.000000D+00  0.000000D+00  0.000000D+00  0.000000D+00  0.000000D+00
      2   0.000000D+00  0.000000D+00  0.000000D+00  0.000000D+00  0.000000D+00
      3   0.135458D-01  0.000000D+00  0.000000D+00  0.000000D+00  0.000000D+00
      4   0.000000D+00  0.135458D-01  0.000000D+00  0.000000D+00  0.000000D+00
      5   0.000000D+00  0.000000D+00  0.135458D-01  0.000000D+00  0.000000D+00
      6   0.000000D+00  0.000000D+00  0.000000D+00  0.000000D+00  0.000000D+00
      7   0.209028D+00  0.000000D+00  0.000000D+00  0.000000D+00  0.000000D+00
      8   0.000000D+00  0.209028D+00  0.000000D+00  0.000000D+00  0.000000D+00
      9   0.000000D+00  0.000000D+00  0.209028D+00  0.000000D+00  0.000000D+00
     10   0.000000D+00  0.000000D+00  0.000000D+00  0.473157D-01  0.000000D+00
     11   0.000000D+00  0.000000D+00  0.000000D+00  0.000000D+00  0.473157D-01
     12   0.000000D+00  0.000000D+00  0.000000D+00  0.000000D+00  0.000000D+00
     13   0.000000D+00  0.000000D+00  0.000000D+00  0.000000D+00  0.000000D+00
     14   0.000000D+00  0.000000D+00  0.000000D+00  0.000000D+00  0.000000D+00
     15   0.000000D+00  0.000000D+00  0.000000D+00  0.000000D+00  0.000000D+00
     16   0.100000D+01  0.000000D+00  0.000000D+00  0.000000D+00  0.000000D+00
     17   0.000000D+00  0.100000D+01  0.000000D+00  0.000000D+00  0.000000D+00
     18   0.000000D+00  0.000000D+00  0.100000D+01  0.000000D+00  0.000000D+00
     19   0.000000D+00  0.000000D+00  0.000000D+00  0.100000D+01  0.000000D+00
     20   0.000000D+00  0.000000D+00  0.000000D+00  0.000000D+00  0.100000D+01
     21   0.000000D+00  0.000000D+00  0.000000D+00  0.000000D+00  0.000000D+00
     22   0.000000D+00  0.000000D+00  0.000000D+00  0.000000D+00  0.000000D+00
     23   0.000000D+00  0.000000D+00  0.000000D+00  0.000000D+00  0.000000D+00
     24   0.000000D+00  0.000000D+00 -0.387499D-01  0.864381D-01  0.000000D+00
     25   0.000000D+00  0.000000D+00 -0.357336D+00  0.495849D+00  0.000000D+00
     26   0.121233D+00  0.000000D+00  0.000000D+00  0.000000D+00 -0.305317D+00
     27   0.000000D+00  0.121233D+00  0.000000D+00  0.000000D+00  0.000000D+00
     28   0.000000D+00  0.000000D+00 -0.287788D+00  0.929583D-01  0.000000D+00
                21            22            23            24            25 
      1   0.000000D+00  0.000000D+00  0.000000D+00  0.000000D+00  0.433000D-03
      2   0.000000D+00  0.000000D+00  0.000000D+00  0.000000D+00  0.274252D-02
      3   0.000000D+00  0.000000D+00  0.000000D+00  0.000000D+00  0.000000D+00
      4   0.000000D+00  0.000000D+00  0.000000D+00  0.000000D+00  0.000000D+00
      5   0.000000D+00  0.000000D+00  0.000000D+00  0.000000D+00 -0.102861D-02
      6   0.000000D+00  0.000000D+00  0.000000D+00  0.000000D+00  0.187308D-01
      7   0.000000D+00  0.000000D+00  0.000000D+00  0.000000D+00  0.000000D+00
      8   0.000000D+00  0.000000D+00  0.000000D+00  0.000000D+00  0.000000D+00
      9   0.000000D+00  0.000000D+00  0.000000D+00  0.000000D+00 -0.175825D-01
     10   0.000000D+00  0.000000D+00  0.000000D+00  0.000000D+00  0.940513D-02
     11   0.000000D+00  0.000000D+00  0.000000D+00  0.000000D+00  0.000000D+00
     12   0.473157D-01  0.000000D+00  0.000000D+00  0.000000D+00  0.000000D+00
     13   0.000000D+00  0.473157D-01  0.000000D+00  0.000000D+00  0.000000D+00
     14   0.000000D+00  0.000000D+00  0.473157D-01  0.000000D+00  0.000000D+00
     15   0.000000D+00  0.000000D+00  0.000000D+00  0.230261D-01  0.245836D+00
     16   0.000000D+00  0.000000D+00  0.000000D+00  0.000000D+00  0.000000D+00
     17   0.000000D+00  0.000000D+00  0.000000D+00  0.000000D+00  0.000000D+00
     18   0.000000D+00  0.000000D+00  0.000000D+00 -0.387499D-01 -0.357336D+00
     19   0.000000D+00  0.000000D+00  0.000000D+00  0.864381D-01  0.495849D+00
     20   0.000000D+00  0.000000D+00  0.000000D+00  0.000000D+00  0.000000D+00
     21   0.100000D+01  0.000000D+00  0.000000D+00  0.000000D+00  0.000000D+00
     22   0.000000D+00  0.100000D+01  0.000000D+00  0.000000D+00  0.000000D+00
     23   0.000000D+00  0.000000D+00  0.100000D+01  0.000000D+00  0.000000D+00
     24   0.000000D+00  0.000000D+00  0.000000D+00  0.100000D+01  0.236704D+00
     25   0.000000D+00  0.000000D+00  0.000000D+00  0.236704D+00  0.100000D+01
     26   0.000000D+00  0.000000D+00  0.000000D+00  0.000000D+00  0.000000D+00
     27  -0.305317D+00  0.000000D+00  0.000000D+00  0.000000D+00  0.000000D+00
     28   0.000000D+00  0.000000D+00  0.000000D+00  0.000000D+00  0.000000D+00
                26            27            28 
      1   0.000000D+00  0.000000D+00  0.931594D-03
      2   0.000000D+00  0.000000D+00  0.579799D-02
      3   0.300255D-03  0.000000D+00  0.000000D+00
      4   0.000000D+00  0.300255D-03  0.000000D+00
      5   0.000000D+00  0.000000D+00 -0.189397D-02
      6   0.000000D+00  0.000000D+00  0.353647D-01
      7   0.519577D-02  0.000000D+00  0.000000D+00
      8   0.000000D+00  0.519577D-02  0.000000D+00
      9   0.000000D+00  0.000000D+00 -0.297954D-01
     10   0.000000D+00  0.000000D+00  0.145757D-01
     11  -0.489134D-02  0.000000D+00  0.000000D+00
     12   0.000000D+00 -0.489134D-02  0.000000D+00
     13   0.000000D+00  0.000000D+00  0.000000D+00
     14   0.000000D+00  0.000000D+00  0.000000D+00
     15   0.000000D+00  0.000000D+00  0.216610D+00
     16   0.121233D+00  0.000000D+00  0.000000D+00
     17   0.000000D+00  0.121233D+00  0.000000D+00
     18   0.000000D+00  0.000000D+00 -0.287788D+00
     19   0.000000D+00  0.000000D+00  0.929583D-01
     20  -0.305317D+00  0.000000D+00  0.000000D+00
     21   0.000000D+00 -0.305317D+00  0.000000D+00
     22   0.000000D+00  0.000000D+00  0.000000D+00
     23   0.000000D+00  0.000000D+00  0.000000D+00
     24   0.000000D+00  0.000000D+00  0.000000D+00
     25   0.000000D+00  0.000000D+00  0.000000D+00
     26   0.100000D+01  0.000000D+00  0.000000D+00
     27   0.000000D+00  0.100000D+01  0.000000D+00
     28   0.000000D+00  0.000000D+00  0.100000D+01
 Entering OneElI...
 Overlap between basis sets.
 Requested accuracy = 0.1000D-12
 PrsmSu:  NPrtUS=   1 ThrOK=F IAlg=1 NPAlg=1 LenDen=           0.
 Prism:   IPart=     0 DynPar=F LinDyn=F Incr=           7.
 PRISM was handed  1608400733 working-precision words and   722 shell-pairs
 IPart=  0 NShTot=         722 NBatch=         100 AvBLen=         7.2
 PrSmSu:  NxtVal=              8.
 CnvPC2: ToCart=F DoDens=F IPureD=0 IPureF=0.
 Transformed matrix in CnvPC2: 
                 1             2             3             4             5 
      1   0.999797D+00  0.412806D+00  0.000000D+00  0.000000D+00  0.000000D+00
      2   0.291005D+00  0.988458D+00  0.000000D+00  0.000000D+00  0.000000D+00
      3   0.000000D+00  0.000000D+00  0.999258D+00  0.000000D+00  0.000000D+00
      4   0.000000D+00  0.000000D+00  0.000000D+00  0.999258D+00  0.000000D+00
      5   0.000000D+00  0.000000D+00  0.000000D+00  0.000000D+00  0.999258D+00
      6   0.137236D-01  0.328598D+00  0.000000D+00  0.000000D+00  0.000000D+00
      7   0.000000D+00  0.000000D+00  0.355085D+00  0.000000D+00  0.000000D+00
      8   0.000000D+00  0.000000D+00  0.000000D+00  0.355085D+00  0.000000D+00
      9   0.000000D+00  0.000000D+00  0.000000D+00  0.000000D+00  0.355085D+00
     10   0.000000D+00  0.000000D+00  0.000000D+00  0.000000D+00  0.000000D+00
     11   0.000000D+00  0.000000D+00  0.000000D+00  0.000000D+00  0.000000D+00
     12   0.000000D+00  0.000000D+00  0.000000D+00  0.000000D+00  0.000000D+00
     13   0.000000D+00  0.000000D+00  0.000000D+00  0.000000D+00  0.000000D+00
     14   0.000000D+00  0.000000D+00  0.000000D+00  0.000000D+00  0.000000D+00
     15   0.147325D-03  0.124700D-01  0.000000D+00  0.000000D+00  0.000000D+00
     16   0.486388D-02  0.294706D-01  0.000000D+00  0.000000D+00  0.000000D+00
     17   0.000000D+00  0.000000D+00  0.968457D-02  0.000000D+00  0.000000D+00
     18   0.000000D+00  0.000000D+00  0.000000D+00  0.968457D-02  0.000000D+00
     19   0.000000D+00  0.000000D+00  0.000000D+00  0.000000D+00  0.968457D-02
     20   0.000000D+00  0.000000D+00  0.132573D-02  0.000000D+00  0.000000D+00
     21   0.000000D+00  0.000000D+00  0.000000D+00  0.132573D-02  0.000000D+00
     22   0.000000D+00  0.000000D+00  0.000000D+00  0.000000D+00  0.132573D-02
     23   0.138873D+00  0.648521D+00  0.000000D+00  0.000000D+00  0.000000D+00
     24   0.925407D-01  0.479916D+00  0.000000D+00  0.000000D+00  0.000000D+00
     25   0.612644D-01  0.339125D+00  0.000000D+00  0.000000D+00  0.000000D+00
     26   0.404046D-01  0.232597D+00  0.000000D+00  0.000000D+00  0.000000D+00
     27   0.265889D-01  0.156635D+00  0.000000D+00  0.000000D+00  0.000000D+00
     28   0.174753D-01  0.104334D+00  0.000000D+00  0.000000D+00  0.000000D+00
     29   0.000000D+00  0.000000D+00  0.229802D+00  0.000000D+00  0.000000D+00
     30   0.000000D+00  0.000000D+00  0.000000D+00  0.229802D+00  0.000000D+00
     31   0.000000D+00  0.000000D+00  0.000000D+00  0.000000D+00  0.229802D+00
     32   0.000000D+00  0.000000D+00  0.131901D+00  0.000000D+00  0.000000D+00
     33   0.000000D+00  0.000000D+00  0.000000D+00  0.131901D+00  0.000000D+00
     34   0.000000D+00  0.000000D+00  0.000000D+00  0.000000D+00  0.131901D+00
     35   0.000000D+00  0.000000D+00  0.725011D-01  0.000000D+00  0.000000D+00
     36   0.000000D+00  0.000000D+00  0.000000D+00  0.725011D-01  0.000000D+00
     37   0.000000D+00  0.000000D+00  0.000000D+00  0.000000D+00  0.725011D-01
     38   0.000000D+00  0.000000D+00  0.387587D-01  0.000000D+00  0.000000D+00
     39   0.000000D+00  0.000000D+00  0.000000D+00  0.387587D-01  0.000000D+00
     40   0.000000D+00  0.000000D+00  0.000000D+00  0.000000D+00  0.387587D-01
     41   0.000000D+00  0.000000D+00  0.203667D-01  0.000000D+00  0.000000D+00
     42   0.000000D+00  0.000000D+00  0.000000D+00  0.203667D-01  0.000000D+00
     43   0.000000D+00  0.000000D+00  0.000000D+00  0.000000D+00  0.203667D-01
     44   0.000000D+00  0.000000D+00  0.105911D-01  0.000000D+00  0.000000D+00
     45   0.000000D+00  0.000000D+00  0.000000D+00  0.105911D-01  0.000000D+00
     46   0.000000D+00  0.000000D+00  0.000000D+00  0.000000D+00  0.105911D-01
     47   0.000000D+00  0.000000D+00  0.000000D+00  0.000000D+00  0.000000D+00
     48   0.000000D+00  0.000000D+00  0.000000D+00  0.000000D+00  0.000000D+00
     49   0.000000D+00  0.000000D+00  0.000000D+00  0.000000D+00  0.000000D+00
     50   0.000000D+00  0.000000D+00  0.000000D+00  0.000000D+00  0.000000D+00
     51   0.000000D+00  0.000000D+00  0.000000D+00  0.000000D+00  0.000000D+00
     52   0.000000D+00  0.000000D+00  0.000000D+00  0.000000D+00  0.000000D+00
     53   0.000000D+00  0.000000D+00  0.000000D+00  0.000000D+00  0.000000D+00
     54   0.000000D+00  0.000000D+00  0.000000D+00  0.000000D+00  0.000000D+00
     55   0.000000D+00  0.000000D+00  0.000000D+00  0.000000D+00  0.000000D+00
     56   0.000000D+00  0.000000D+00  0.000000D+00  0.000000D+00  0.000000D+00
     57   0.000000D+00  0.000000D+00  0.000000D+00  0.000000D+00  0.000000D+00
     58   0.000000D+00  0.000000D+00  0.000000D+00  0.000000D+00  0.000000D+00
     59   0.000000D+00  0.000000D+00  0.000000D+00  0.000000D+00  0.000000D+00
     60   0.000000D+00  0.000000D+00  0.000000D+00  0.000000D+00  0.000000D+00
     61   0.000000D+00  0.000000D+00  0.000000D+00  0.000000D+00  0.000000D+00
     62   0.000000D+00  0.000000D+00  0.000000D+00  0.000000D+00  0.000000D+00
     63   0.000000D+00  0.000000D+00  0.000000D+00  0.000000D+00  0.000000D+00
     64   0.000000D+00  0.000000D+00  0.000000D+00  0.000000D+00  0.000000D+00
     65   0.000000D+00  0.000000D+00  0.000000D+00  0.000000D+00  0.000000D+00
     66   0.000000D+00  0.000000D+00  0.000000D+00  0.000000D+00  0.000000D+00
     67   0.000000D+00  0.000000D+00  0.000000D+00  0.000000D+00  0.000000D+00
     68   0.000000D+00  0.000000D+00  0.000000D+00  0.000000D+00  0.000000D+00
     69   0.000000D+00  0.000000D+00  0.000000D+00  0.000000D+00  0.000000D+00
     70   0.000000D+00  0.000000D+00  0.000000D+00  0.000000D+00  0.000000D+00
     71   0.000000D+00  0.000000D+00  0.000000D+00  0.000000D+00  0.000000D+00
     72   0.000000D+00  0.000000D+00  0.000000D+00  0.000000D+00  0.000000D+00
     73   0.000000D+00  0.000000D+00  0.000000D+00  0.000000D+00  0.000000D+00
     74   0.000000D+00  0.000000D+00  0.000000D+00  0.000000D+00  0.000000D+00
     75   0.000000D+00  0.000000D+00  0.000000D+00  0.000000D+00  0.000000D+00
     76   0.000000D+00  0.000000D+00  0.000000D+00  0.000000D+00  0.000000D+00
     77   0.000000D+00  0.000000D+00  0.000000D+00  0.000000D+00  0.000000D+00
     78   0.000000D+00  0.000000D+00  0.000000D+00  0.000000D+00  0.000000D+00
     79   0.000000D+00  0.000000D+00  0.000000D+00  0.000000D+00  0.000000D+00
     80   0.000000D+00  0.000000D+00  0.000000D+00  0.000000D+00  0.000000D+00
     81   0.000000D+00  0.000000D+00  0.000000D+00  0.000000D+00  0.000000D+00
     82   0.000000D+00  0.000000D+00  0.000000D+00  0.000000D+00  0.000000D+00
     83   0.000000D+00  0.000000D+00  0.000000D+00  0.000000D+00  0.000000D+00
     84   0.000000D+00  0.000000D+00  0.000000D+00  0.000000D+00  0.000000D+00
     85   0.000000D+00  0.000000D+00  0.000000D+00  0.000000D+00  0.000000D+00
     86   0.000000D+00  0.000000D+00  0.000000D+00  0.000000D+00  0.000000D+00
     87   0.000000D+00  0.000000D+00  0.000000D+00  0.000000D+00  0.000000D+00
     88   0.000000D+00  0.000000D+00  0.000000D+00  0.000000D+00  0.000000D+00
     89   0.000000D+00  0.000000D+00  0.000000D+00  0.000000D+00  0.000000D+00
     90   0.000000D+00  0.000000D+00  0.000000D+00  0.000000D+00  0.000000D+00
     91   0.000000D+00  0.000000D+00  0.000000D+00  0.000000D+00  0.000000D+00
     92   0.000000D+00  0.000000D+00  0.000000D+00  0.000000D+00  0.000000D+00
     93   0.000000D+00  0.000000D+00  0.000000D+00  0.000000D+00  0.000000D+00
     94   0.000000D+00  0.000000D+00  0.000000D+00  0.000000D+00  0.000000D+00
     95   0.000000D+00  0.000000D+00  0.000000D+00  0.000000D+00  0.000000D+00
     96   0.000000D+00  0.000000D+00  0.000000D+00  0.000000D+00  0.000000D+00
     97   0.000000D+00  0.000000D+00  0.000000D+00  0.000000D+00  0.000000D+00
     98   0.000000D+00  0.000000D+00  0.000000D+00  0.000000D+00  0.000000D+00
     99   0.000000D+00  0.000000D+00  0.000000D+00  0.000000D+00  0.000000D+00
    100   0.000000D+00  0.000000D+00  0.000000D+00  0.000000D+00  0.000000D+00
    101   0.000000D+00  0.000000D+00  0.000000D+00  0.000000D+00  0.000000D+00
    102   0.000000D+00  0.000000D+00  0.000000D+00  0.000000D+00  0.000000D+00
    103   0.000000D+00  0.000000D+00  0.000000D+00  0.000000D+00  0.000000D+00
    104   0.000000D+00  0.000000D+00  0.000000D+00  0.000000D+00  0.000000D+00
    105   0.000000D+00  0.000000D+00  0.000000D+00  0.000000D+00  0.000000D+00
    106   0.000000D+00  0.000000D+00  0.000000D+00  0.000000D+00  0.000000D+00
    107   0.000000D+00  0.000000D+00  0.000000D+00  0.000000D+00  0.000000D+00
    108   0.000000D+00  0.000000D+00  0.000000D+00  0.000000D+00  0.000000D+00
    109   0.000000D+00  0.000000D+00  0.000000D+00  0.000000D+00  0.000000D+00
    110   0.000000D+00  0.000000D+00  0.000000D+00  0.000000D+00  0.000000D+00
    111   0.000000D+00  0.000000D+00  0.000000D+00  0.000000D+00  0.000000D+00
    112   0.000000D+00  0.000000D+00  0.000000D+00  0.000000D+00  0.000000D+00
    113   0.000000D+00  0.000000D+00  0.000000D+00  0.000000D+00  0.000000D+00
    114   0.000000D+00  0.000000D+00  0.000000D+00  0.000000D+00  0.000000D+00
    115   0.000000D+00  0.000000D+00  0.000000D+00  0.000000D+00  0.000000D+00
    116   0.000000D+00  0.000000D+00  0.000000D+00  0.000000D+00  0.000000D+00
    117   0.000000D+00  0.000000D+00  0.000000D+00  0.000000D+00  0.000000D+00
    118   0.000000D+00  0.000000D+00  0.000000D+00  0.000000D+00  0.000000D+00
    119   0.000000D+00  0.000000D+00  0.000000D+00  0.000000D+00  0.000000D+00
    120   0.000000D+00  0.000000D+00  0.000000D+00  0.000000D+00  0.000000D+00
    121   0.000000D+00  0.000000D+00  0.000000D+00  0.000000D+00  0.000000D+00
    122   0.000000D+00  0.000000D+00  0.000000D+00  0.000000D+00  0.000000D+00
    123   0.000000D+00  0.000000D+00  0.000000D+00  0.000000D+00  0.000000D+00
    124   0.000000D+00  0.000000D+00  0.000000D+00  0.000000D+00  0.000000D+00
    125   0.000000D+00  0.000000D+00  0.000000D+00  0.000000D+00  0.000000D+00
    126   0.000000D+00  0.000000D+00  0.000000D+00  0.000000D+00  0.000000D+00
    127   0.000000D+00  0.000000D+00  0.000000D+00  0.000000D+00  0.000000D+00
    128   0.000000D+00  0.000000D+00  0.000000D+00  0.000000D+00  0.000000D+00
    129   0.000000D+00  0.000000D+00  0.000000D+00  0.000000D+00  0.000000D+00
    130   0.000000D+00  0.000000D+00  0.000000D+00  0.000000D+00  0.000000D+00
    131   0.000000D+00  0.000000D+00  0.000000D+00  0.000000D+00  0.000000D+00
    132   0.000000D+00  0.000000D+00  0.000000D+00  0.000000D+00  0.000000D+00
    133   0.000000D+00  0.000000D+00  0.000000D+00  0.000000D+00  0.000000D+00
    134   0.000000D+00  0.000000D+00  0.000000D+00  0.000000D+00  0.000000D+00
    135   0.000000D+00  0.000000D+00  0.000000D+00  0.000000D+00  0.000000D+00
    136   0.000000D+00  0.000000D+00  0.000000D+00  0.000000D+00  0.000000D+00
    137   0.000000D+00  0.000000D+00  0.000000D+00  0.000000D+00  0.000000D+00
    138   0.000000D+00  0.000000D+00  0.000000D+00  0.000000D+00  0.000000D+00
    139   0.000000D+00  0.000000D+00  0.000000D+00  0.000000D+00  0.000000D+00
    140   0.000000D+00  0.000000D+00  0.000000D+00  0.000000D+00  0.000000D+00
    141   0.000000D+00  0.000000D+00  0.000000D+00  0.000000D+00  0.000000D+00
    142   0.000000D+00  0.000000D+00  0.000000D+00  0.000000D+00  0.000000D+00
    143   0.000000D+00  0.000000D+00  0.000000D+00  0.000000D+00  0.000000D+00
    144   0.000000D+00  0.000000D+00  0.000000D+00  0.000000D+00  0.000000D+00
    145   0.000000D+00  0.000000D+00  0.000000D+00  0.000000D+00  0.000000D+00
    146   0.000000D+00  0.000000D+00  0.000000D+00  0.000000D+00  0.000000D+00
    147   0.000000D+00  0.000000D+00  0.000000D+00  0.000000D+00  0.000000D+00
    148   0.000000D+00  0.000000D+00  0.000000D+00  0.000000D+00  0.000000D+00
    149   0.000000D+00  0.000000D+00  0.000000D+00  0.000000D+00  0.000000D+00
    150   0.000000D+00  0.000000D+00  0.000000D+00  0.000000D+00  0.000000D+00
    151   0.000000D+00  0.000000D+00  0.000000D+00  0.000000D+00  0.000000D+00
    152   0.000000D+00  0.000000D+00  0.000000D+00  0.000000D+00  0.000000D+00
    153   0.000000D+00  0.000000D+00  0.000000D+00  0.000000D+00  0.000000D+00
    154   0.000000D+00  0.000000D+00  0.000000D+00  0.000000D+00  0.000000D+00
    155   0.000000D+00  0.000000D+00  0.000000D+00  0.000000D+00  0.000000D+00
    156   0.000000D+00  0.000000D+00  0.000000D+00  0.000000D+00  0.000000D+00
    157   0.000000D+00  0.000000D+00  0.000000D+00  0.000000D+00  0.000000D+00
    158   0.000000D+00  0.000000D+00  0.000000D+00  0.000000D+00  0.000000D+00
    159   0.000000D+00  0.000000D+00  0.000000D+00  0.000000D+00  0.000000D+00
    160   0.000000D+00  0.000000D+00  0.000000D+00  0.000000D+00  0.000000D+00
    161   0.000000D+00  0.000000D+00  0.000000D+00  0.000000D+00  0.000000D+00
    162   0.000000D+00  0.000000D+00  0.000000D+00  0.000000D+00  0.000000D+00
    163   0.000000D+00  0.000000D+00  0.000000D+00  0.000000D+00  0.000000D+00
    164   0.000000D+00  0.000000D+00  0.000000D+00  0.000000D+00  0.000000D+00
    165   0.000000D+00  0.000000D+00  0.000000D+00  0.000000D+00  0.000000D+00
    166   0.000000D+00  0.000000D+00  0.000000D+00  0.000000D+00  0.000000D+00
    167   0.000000D+00  0.000000D+00  0.000000D+00  0.000000D+00  0.000000D+00
    168   0.000000D+00  0.000000D+00  0.000000D+00  0.000000D+00  0.000000D+00
    169   0.000000D+00  0.000000D+00  0.000000D+00  0.000000D+00  0.000000D+00
    170   0.000000D+00  0.000000D+00  0.000000D+00  0.000000D+00  0.000000D+00
    171   0.000000D+00  0.000000D+00  0.000000D+00  0.000000D+00  0.000000D+00
    172   0.000000D+00  0.000000D+00  0.000000D+00  0.000000D+00  0.000000D+00
    173   0.000000D+00  0.000000D+00  0.000000D+00  0.000000D+00  0.000000D+00
    174   0.000000D+00  0.000000D+00  0.000000D+00  0.000000D+00  0.000000D+00
    175   0.000000D+00  0.000000D+00  0.000000D+00  0.000000D+00  0.000000D+00
    176   0.000000D+00  0.000000D+00  0.000000D+00  0.000000D+00  0.000000D+00
    177   0.000000D+00  0.000000D+00  0.000000D+00  0.000000D+00  0.000000D+00
    178   0.000000D+00  0.000000D+00  0.000000D+00  0.000000D+00  0.000000D+00
    179   0.000000D+00  0.000000D+00  0.000000D+00  0.000000D+00  0.000000D+00
    180   0.000000D+00  0.000000D+00  0.000000D+00  0.000000D+00  0.000000D+00
    181   0.000000D+00  0.000000D+00  0.000000D+00  0.000000D+00  0.000000D+00
    182   0.000000D+00  0.000000D+00  0.000000D+00  0.000000D+00  0.000000D+00
    183   0.000000D+00  0.000000D+00  0.000000D+00  0.000000D+00  0.000000D+00
    184   0.000000D+00  0.000000D+00  0.000000D+00  0.000000D+00  0.000000D+00
    185   0.000000D+00  0.000000D+00  0.000000D+00  0.000000D+00  0.000000D+00
    186   0.000000D+00  0.000000D+00  0.000000D+00  0.000000D+00  0.000000D+00
    187   0.000000D+00  0.000000D+00  0.000000D+00  0.000000D+00  0.000000D+00
    188   0.000000D+00  0.000000D+00  0.000000D+00  0.000000D+00  0.000000D+00
    189   0.000000D+00  0.000000D+00  0.000000D+00  0.000000D+00  0.000000D+00
    190   0.000000D+00  0.000000D+00  0.000000D+00  0.000000D+00  0.000000D+00
    191   0.000000D+00  0.000000D+00  0.000000D+00  0.000000D+00  0.000000D+00
    192   0.000000D+00  0.000000D+00  0.000000D+00  0.000000D+00  0.000000D+00
    193   0.000000D+00  0.000000D+00  0.000000D+00  0.000000D+00  0.000000D+00
    194   0.000000D+00  0.000000D+00  0.000000D+00  0.000000D+00  0.000000D+00
    195   0.000000D+00  0.000000D+00  0.000000D+00  0.000000D+00  0.000000D+00
    196   0.000000D+00  0.000000D+00  0.000000D+00  0.000000D+00  0.000000D+00
    197   0.000000D+00  0.000000D+00  0.000000D+00  0.000000D+00  0.000000D+00
    198   0.000000D+00  0.000000D+00  0.000000D+00  0.000000D+00  0.000000D+00
    199   0.000000D+00  0.000000D+00  0.000000D+00  0.000000D+00  0.000000D+00
    200   0.000000D+00  0.000000D+00  0.000000D+00  0.000000D+00  0.000000D+00
    201   0.000000D+00  0.000000D+00  0.000000D+00  0.000000D+00  0.000000D+00
    202   0.000000D+00  0.000000D+00  0.000000D+00  0.000000D+00  0.000000D+00
    203   0.000000D+00  0.000000D+00  0.000000D+00  0.000000D+00  0.000000D+00
    204   0.000000D+00  0.000000D+00  0.000000D+00  0.000000D+00  0.000000D+00
    205   0.000000D+00  0.000000D+00  0.000000D+00  0.000000D+00  0.000000D+00
    206   0.000000D+00  0.000000D+00  0.000000D+00  0.000000D+00  0.000000D+00
    207   0.000000D+00  0.000000D+00  0.000000D+00  0.000000D+00  0.000000D+00
    208   0.000000D+00  0.000000D+00  0.000000D+00  0.000000D+00  0.000000D+00
    209   0.000000D+00  0.000000D+00  0.000000D+00  0.000000D+00  0.000000D+00
    210   0.000000D+00  0.000000D+00  0.000000D+00  0.000000D+00  0.000000D+00
    211   0.000000D+00  0.000000D+00  0.000000D+00  0.000000D+00  0.000000D+00
    212   0.000000D+00  0.000000D+00  0.000000D+00  0.000000D+00  0.000000D+00
    213   0.000000D+00  0.000000D+00  0.000000D+00  0.000000D+00  0.000000D+00
    214   0.000000D+00  0.000000D+00  0.000000D+00  0.000000D+00  0.000000D+00
    215   0.000000D+00  0.000000D+00  0.000000D+00  0.000000D+00  0.000000D+00
    216   0.000000D+00  0.000000D+00  0.000000D+00  0.000000D+00  0.000000D+00
    217   0.000000D+00  0.000000D+00  0.000000D+00  0.000000D+00  0.000000D+00
    218   0.000000D+00  0.000000D+00  0.000000D+00  0.000000D+00  0.000000D+00
    219   0.000000D+00  0.000000D+00  0.000000D+00  0.000000D+00  0.000000D+00
    220   0.000000D+00  0.000000D+00  0.000000D+00  0.000000D+00  0.000000D+00
    221   0.000000D+00  0.000000D+00  0.000000D+00  0.000000D+00  0.000000D+00
    222   0.000000D+00  0.000000D+00  0.000000D+00  0.000000D+00  0.000000D+00
    223   0.000000D+00  0.000000D+00  0.000000D+00  0.000000D+00  0.000000D+00
    224   0.000000D+00  0.000000D+00  0.000000D+00  0.000000D+00  0.000000D+00
    225   0.000000D+00  0.000000D+00  0.000000D+00  0.000000D+00  0.000000D+00
    226   0.000000D+00  0.000000D+00  0.000000D+00  0.000000D+00  0.000000D+00
    227   0.000000D+00  0.000000D+00  0.000000D+00  0.000000D+00  0.000000D+00
    228   0.000000D+00  0.000000D+00  0.000000D+00  0.000000D+00  0.000000D+00
    229   0.000000D+00  0.000000D+00  0.000000D+00  0.000000D+00  0.000000D+00
    230   0.000000D+00  0.000000D+00  0.000000D+00  0.000000D+00  0.000000D+00
    231   0.000000D+00  0.000000D+00  0.000000D+00  0.000000D+00  0.000000D+00
    232   0.000000D+00  0.000000D+00  0.000000D+00  0.000000D+00  0.000000D+00
    233   0.000000D+00  0.000000D+00  0.000000D+00  0.000000D+00  0.000000D+00
    234   0.000000D+00  0.000000D+00  0.000000D+00  0.000000D+00  0.000000D+00
    235   0.000000D+00  0.000000D+00  0.000000D+00  0.000000D+00  0.000000D+00
    236   0.000000D+00  0.000000D+00  0.000000D+00  0.000000D+00  0.000000D+00
    237   0.000000D+00  0.000000D+00  0.000000D+00  0.000000D+00  0.000000D+00
    238   0.000000D+00  0.000000D+00  0.000000D+00  0.000000D+00  0.000000D+00
    239   0.000000D+00  0.000000D+00  0.000000D+00  0.000000D+00  0.000000D+00
    240   0.000000D+00  0.000000D+00  0.000000D+00  0.000000D+00  0.000000D+00
    241   0.000000D+00  0.000000D+00  0.000000D+00  0.000000D+00  0.000000D+00
    242   0.000000D+00  0.000000D+00  0.000000D+00  0.000000D+00  0.000000D+00
    243   0.000000D+00  0.000000D+00  0.000000D+00  0.000000D+00  0.000000D+00
    244   0.000000D+00  0.000000D+00  0.000000D+00  0.000000D+00  0.000000D+00
    245   0.000000D+00  0.000000D+00  0.000000D+00  0.000000D+00  0.000000D+00
    246   0.000000D+00  0.000000D+00  0.000000D+00  0.000000D+00  0.000000D+00
    247   0.000000D+00  0.000000D+00  0.000000D+00  0.000000D+00  0.000000D+00
    248   0.000000D+00  0.000000D+00  0.000000D+00  0.000000D+00  0.000000D+00
    249   0.000000D+00  0.000000D+00  0.000000D+00  0.000000D+00  0.000000D+00
    250   0.000000D+00  0.000000D+00  0.000000D+00  0.000000D+00  0.000000D+00
    251   0.000000D+00  0.000000D+00  0.000000D+00  0.000000D+00  0.000000D+00
    252   0.000000D+00  0.000000D+00  0.000000D+00  0.000000D+00  0.000000D+00
    253   0.000000D+00  0.000000D+00  0.000000D+00  0.000000D+00  0.000000D+00
    254   0.000000D+00  0.000000D+00  0.000000D+00  0.000000D+00  0.000000D+00
    255   0.000000D+00  0.000000D+00  0.000000D+00  0.000000D+00  0.000000D+00
    256   0.000000D+00  0.000000D+00  0.000000D+00  0.000000D+00  0.000000D+00
    257   0.000000D+00  0.000000D+00  0.000000D+00  0.000000D+00  0.000000D+00
    258   0.000000D+00  0.000000D+00  0.000000D+00  0.000000D+00  0.000000D+00
    259   0.000000D+00  0.000000D+00  0.000000D+00  0.000000D+00  0.000000D+00
    260   0.000000D+00  0.000000D+00  0.000000D+00  0.000000D+00  0.000000D+00
    261   0.000000D+00  0.000000D+00  0.000000D+00  0.000000D+00  0.000000D+00
    262   0.000000D+00  0.000000D+00  0.000000D+00  0.000000D+00  0.000000D+00
    263   0.000000D+00  0.000000D+00  0.000000D+00  0.000000D+00  0.000000D+00
    264   0.000000D+00  0.000000D+00  0.000000D+00  0.000000D+00  0.000000D+00
    265   0.000000D+00  0.000000D+00  0.000000D+00  0.000000D+00  0.000000D+00
    266   0.000000D+00  0.000000D+00  0.000000D+00  0.000000D+00  0.000000D+00
    267   0.000000D+00  0.000000D+00  0.000000D+00  0.000000D+00  0.000000D+00
    268   0.652183D-03  0.404306D-02  0.000000D+00  0.000000D+00 -0.104685D-02
    269   0.342642D-02  0.207725D-01  0.000000D+00  0.000000D+00 -0.121317D-02
    270   0.000000D+00  0.000000D+00  0.634194D-03  0.000000D+00  0.000000D+00
    271   0.000000D+00  0.000000D+00  0.000000D+00  0.634194D-03  0.000000D+00
    272   0.199807D-02  0.122271D-01  0.000000D+00  0.000000D+00 -0.240030D-02
    273   0.000000D+00  0.000000D+00  0.127498D-02  0.000000D+00  0.000000D+00
    274   0.000000D+00  0.000000D+00  0.000000D+00  0.127498D-02  0.000000D+00
    275   0.405743D-02  0.245554D-01  0.000000D+00  0.000000D+00  0.222879D-03
    276   0.000000D+00  0.000000D+00  0.000000D+00  0.000000D+00  0.000000D+00
    277   0.000000D+00  0.000000D+00  0.000000D+00  0.000000D+00  0.000000D+00
    278   0.128282D-05  0.126554D-04  0.000000D+00  0.000000D+00 -0.127823D-04
    279   0.141292D-03  0.957123D-03  0.000000D+00  0.000000D+00 -0.522752D-03
    280   0.123012D-02  0.761467D-02  0.000000D+00  0.000000D+00 -0.216925D-02
    281   0.290621D-02  0.176561D-01  0.000000D+00  0.000000D+00 -0.258841D-02
    282   0.000000D+00  0.000000D+00  0.000000D+00  0.000000D+00  0.000000D+00
    283   0.000000D+00  0.000000D+00  0.000000D+00  0.000000D+00  0.000000D+00
    284   0.000000D+00  0.000000D+00  0.000000D+00  0.000000D+00  0.000000D+00
    285   0.000000D+00  0.000000D+00  0.000000D+00  0.000000D+00  0.000000D+00
    286   0.000000D+00  0.000000D+00  0.000000D+00  0.000000D+00  0.000000D+00
    287   0.000000D+00  0.000000D+00  0.000000D+00  0.000000D+00  0.000000D+00
    288   0.000000D+00  0.000000D+00  0.234137D-05  0.000000D+00  0.000000D+00
    289   0.000000D+00  0.000000D+00  0.000000D+00  0.234137D-05  0.000000D+00
    290   0.473006D-05  0.469099D-04  0.000000D+00  0.000000D+00 -0.477190D-04
    291   0.000000D+00  0.000000D+00  0.276320D-03  0.000000D+00  0.000000D+00
    292   0.000000D+00  0.000000D+00  0.000000D+00  0.276320D-03  0.000000D+00
    293   0.823047D-03  0.535772D-02  0.000000D+00  0.000000D+00 -0.250762D-02
    294   0.000000D+00  0.000000D+00  0.161274D-02  0.000000D+00  0.000000D+00
    295   0.000000D+00  0.000000D+00  0.000000D+00  0.161274D-02  0.000000D+00
    296   0.512071D-02  0.310678D-01  0.000000D+00  0.000000D+00 -0.589355D-02
    297   0.000000D+00  0.000000D+00  0.216348D-02  0.000000D+00  0.000000D+00
    298   0.000000D+00  0.000000D+00  0.000000D+00  0.216348D-02  0.000000D+00
    299   0.690653D-02  0.416537D-01  0.000000D+00  0.000000D+00 -0.245056D-02
    300   0.000000D+00  0.000000D+00  0.000000D+00  0.000000D+00  0.000000D+00
    301   0.000000D+00  0.000000D+00  0.000000D+00  0.000000D+00  0.000000D+00
    302   0.000000D+00  0.000000D+00  0.000000D+00  0.000000D+00  0.000000D+00
    303   0.000000D+00  0.000000D+00  0.000000D+00  0.000000D+00  0.000000D+00
    304   0.000000D+00  0.000000D+00  0.000000D+00  0.000000D+00  0.000000D+00
    305   0.000000D+00  0.000000D+00  0.000000D+00  0.000000D+00  0.000000D+00
    306   0.000000D+00  0.000000D+00  0.000000D+00  0.000000D+00  0.000000D+00
    307   0.000000D+00  0.000000D+00  0.000000D+00  0.000000D+00  0.000000D+00
    308   0.000000D+00  0.000000D+00  0.000000D+00  0.000000D+00  0.000000D+00
    309   0.000000D+00  0.000000D+00  0.000000D+00  0.000000D+00  0.000000D+00
    310   0.000000D+00  0.000000D+00  0.000000D+00  0.000000D+00  0.000000D+00
    311   0.000000D+00  0.000000D+00  0.000000D+00  0.000000D+00  0.000000D+00
    312   0.000000D+00  0.000000D+00  0.000000D+00  0.000000D+00  0.000000D+00
    313   0.000000D+00  0.000000D+00  0.000000D+00  0.000000D+00  0.000000D+00
    314   0.000000D+00  0.000000D+00  0.000000D+00  0.000000D+00  0.000000D+00
    315   0.148263D-04  0.141889D-03  0.000000D+00  0.000000D+00 -0.140780D-03
    316   0.000000D+00  0.000000D+00  0.122967D-04  0.000000D+00  0.000000D+00
    317   0.000000D+00  0.000000D+00  0.000000D+00  0.122967D-04  0.000000D+00
    318   0.000000D+00  0.000000D+00  0.000000D+00  0.000000D+00  0.000000D+00
    319   0.000000D+00  0.000000D+00  0.000000D+00  0.000000D+00  0.000000D+00
    320   0.137777D-02  0.894844D-02  0.000000D+00  0.000000D+00 -0.430330D-02
    321   0.000000D+00  0.000000D+00  0.799535D-03  0.000000D+00  0.000000D+00
    322   0.000000D+00  0.000000D+00  0.000000D+00  0.799535D-03  0.000000D+00
    323   0.000000D+00  0.000000D+00  0.000000D+00  0.000000D+00  0.000000D+00
    324   0.000000D+00  0.000000D+00  0.000000D+00  0.000000D+00  0.000000D+00
    325   0.747726D-02  0.450478D-01  0.000000D+00  0.000000D+00 -0.882952D-02
    326   0.000000D+00  0.000000D+00  0.405304D-02  0.000000D+00  0.000000D+00
    327   0.000000D+00  0.000000D+00  0.000000D+00  0.405304D-02  0.000000D+00
    328   0.000000D+00  0.000000D+00  0.000000D+00  0.000000D+00  0.000000D+00
    329   0.000000D+00  0.000000D+00  0.000000D+00  0.000000D+00  0.000000D+00
    330   0.963110D-02  0.576508D-01  0.000000D+00  0.000000D+00 -0.276043D-02
    331   0.000000D+00  0.000000D+00  0.519013D-02  0.000000D+00  0.000000D+00
    332   0.000000D+00  0.000000D+00  0.000000D+00  0.519013D-02  0.000000D+00
    333   0.000000D+00  0.000000D+00  0.000000D+00  0.000000D+00  0.000000D+00
    334   0.000000D+00  0.000000D+00  0.000000D+00  0.000000D+00  0.000000D+00
    335   0.000000D+00  0.000000D+00  0.000000D+00  0.000000D+00  0.000000D+00
    336   0.000000D+00  0.000000D+00  0.000000D+00  0.000000D+00  0.000000D+00
    337   0.000000D+00  0.000000D+00  0.000000D+00  0.000000D+00  0.000000D+00
    338   0.000000D+00  0.000000D+00  0.000000D+00  0.000000D+00  0.000000D+00
    339   0.000000D+00  0.000000D+00  0.000000D+00  0.000000D+00  0.000000D+00
    340   0.000000D+00  0.000000D+00  0.000000D+00  0.000000D+00  0.000000D+00
    341   0.000000D+00  0.000000D+00  0.000000D+00  0.000000D+00  0.000000D+00
    342   0.000000D+00  0.000000D+00  0.000000D+00  0.000000D+00  0.000000D+00
    343   0.000000D+00  0.000000D+00  0.000000D+00  0.000000D+00  0.000000D+00
    344   0.000000D+00  0.000000D+00  0.000000D+00  0.000000D+00  0.000000D+00
    345   0.000000D+00  0.000000D+00  0.000000D+00  0.000000D+00  0.000000D+00
    346   0.000000D+00  0.000000D+00  0.000000D+00  0.000000D+00  0.000000D+00
    347   0.000000D+00  0.000000D+00  0.000000D+00  0.000000D+00  0.000000D+00
    348   0.000000D+00  0.000000D+00  0.000000D+00  0.000000D+00  0.000000D+00
    349   0.000000D+00  0.619731D-05  0.000000D+00  0.000000D+00 -0.860075D-05
    350   0.000000D+00  0.000000D+00  0.000000D+00  0.000000D+00  0.000000D+00
    351   0.000000D+00  0.000000D+00  0.000000D+00  0.000000D+00  0.000000D+00
    352   0.000000D+00  0.000000D+00  0.000000D+00  0.000000D+00  0.000000D+00
    353   0.000000D+00  0.000000D+00  0.000000D+00  0.000000D+00  0.000000D+00
    354   0.000000D+00  0.000000D+00  0.000000D+00  0.000000D+00  0.000000D+00
    355   0.000000D+00  0.000000D+00  0.000000D+00  0.000000D+00  0.000000D+00
    356   0.372881D-03  0.272758D-02  0.000000D+00  0.000000D+00 -0.194021D-02
    357   0.000000D+00  0.000000D+00  0.341151D-03  0.000000D+00  0.000000D+00
    358   0.000000D+00  0.000000D+00  0.000000D+00  0.341151D-03  0.000000D+00
    359   0.000000D+00  0.000000D+00  0.000000D+00  0.000000D+00  0.000000D+00
    360   0.000000D+00  0.000000D+00  0.000000D+00  0.000000D+00  0.000000D+00
    361   0.000000D+00  0.000000D+00  0.000000D+00  0.000000D+00  0.000000D+00
    362   0.000000D+00  0.000000D+00  0.000000D+00  0.000000D+00  0.000000D+00
    363   0.625747D-02  0.379812D-01  0.000000D+00  0.000000D+00 -0.114239D-01
    364   0.000000D+00  0.000000D+00  0.482937D-02  0.000000D+00  0.000000D+00
    365   0.000000D+00  0.000000D+00  0.000000D+00  0.482937D-02  0.000000D+00
    366   0.000000D+00  0.000000D+00  0.000000D+00  0.000000D+00  0.000000D+00
    367   0.000000D+00  0.000000D+00  0.000000D+00  0.000000D+00  0.000000D+00
    368   0.000000D+00  0.000000D+00  0.000000D+00  0.000000D+00  0.000000D+00
    369   0.000000D+00  0.000000D+00  0.000000D+00  0.000000D+00  0.000000D+00
    370   0.124516D-01  0.737354D-01  0.000000D+00  0.000000D+00 -0.580830D-02
    371   0.000000D+00  0.000000D+00  0.939758D-02  0.000000D+00  0.000000D+00
    372   0.000000D+00  0.000000D+00  0.000000D+00  0.939758D-02  0.000000D+00
    373   0.000000D+00  0.000000D+00  0.000000D+00  0.000000D+00  0.000000D+00
    374   0.000000D+00  0.000000D+00  0.000000D+00  0.000000D+00  0.000000D+00
    375   0.000000D+00  0.000000D+00  0.000000D+00  0.000000D+00  0.000000D+00
    376   0.000000D+00  0.000000D+00  0.000000D+00  0.000000D+00  0.000000D+00
    377   0.000000D+00  0.000000D+00  0.000000D+00  0.000000D+00  0.000000D+00
    378   0.000000D+00  0.000000D+00  0.000000D+00  0.000000D+00  0.000000D+00
    379   0.000000D+00  0.000000D+00  0.000000D+00  0.000000D+00  0.000000D+00
    380   0.000000D+00  0.000000D+00  0.000000D+00  0.000000D+00  0.000000D+00
    381   0.000000D+00  0.000000D+00  0.000000D+00  0.000000D+00  0.000000D+00
    382   0.000000D+00  0.000000D+00  0.000000D+00  0.000000D+00  0.000000D+00
    383   0.000000D+00  0.000000D+00  0.000000D+00  0.000000D+00  0.000000D+00
    384   0.000000D+00  0.000000D+00  0.000000D+00  0.000000D+00  0.000000D+00
    385   0.000000D+00  0.000000D+00  0.000000D+00  0.000000D+00  0.000000D+00
    386   0.000000D+00  0.000000D+00  0.000000D+00  0.000000D+00  0.000000D+00
    387   0.000000D+00  0.000000D+00  0.000000D+00  0.000000D+00  0.000000D+00
    388   0.000000D+00  0.000000D+00  0.000000D+00  0.000000D+00  0.000000D+00
    389   0.000000D+00  0.000000D+00  0.000000D+00  0.000000D+00  0.000000D+00
    390   0.000000D+00  0.000000D+00  0.000000D+00  0.000000D+00  0.000000D+00
    391   0.000000D+00  0.000000D+00  0.000000D+00  0.000000D+00  0.000000D+00
    392   0.000000D+00  0.000000D+00  0.000000D+00  0.000000D+00  0.000000D+00
    393   0.000000D+00  0.000000D+00  0.000000D+00  0.000000D+00  0.000000D+00
    394   0.000000D+00  0.000000D+00  0.000000D+00  0.000000D+00  0.000000D+00
    395   0.115608D-04  0.130574D-03  0.000000D+00  0.000000D+00 -0.148242D-03
    396   0.000000D+00  0.000000D+00  0.204438D-04  0.000000D+00  0.000000D+00
    397   0.000000D+00  0.000000D+00  0.000000D+00  0.204438D-04  0.000000D+00
    398   0.000000D+00  0.000000D+00  0.000000D+00  0.000000D+00  0.000000D+00
    399   0.000000D+00  0.000000D+00  0.000000D+00  0.000000D+00  0.000000D+00
    400   0.000000D+00  0.000000D+00  0.000000D+00  0.000000D+00  0.000000D+00
    401   0.000000D+00  0.000000D+00  0.000000D+00  0.000000D+00  0.000000D+00
    402   0.000000D+00  0.000000D+00  0.000000D+00  0.000000D+00  0.000000D+00
    403   0.000000D+00  0.000000D+00  0.000000D+00  0.000000D+00  0.000000D+00
    404   0.275013D-02  0.175503D-01  0.000000D+00  0.000000D+00 -0.865902D-02
    405   0.000000D+00  0.000000D+00  0.286769D-02  0.000000D+00  0.000000D+00
    406   0.000000D+00  0.000000D+00  0.000000D+00  0.286769D-02  0.000000D+00
    407   0.000000D+00  0.000000D+00  0.000000D+00  0.000000D+00  0.000000D+00
    408   0.000000D+00  0.000000D+00  0.000000D+00  0.000000D+00  0.000000D+00
    409   0.000000D+00  0.000000D+00  0.000000D+00  0.000000D+00  0.000000D+00
    410   0.000000D+00  0.000000D+00  0.000000D+00  0.000000D+00  0.000000D+00
    411   0.000000D+00  0.000000D+00  0.000000D+00  0.000000D+00  0.000000D+00
    412   0.000000D+00  0.000000D+00  0.000000D+00  0.000000D+00  0.000000D+00
    413   0.139325D-01  0.815963D-01  0.000000D+00  0.000000D+00 -0.112834D-01
    414   0.000000D+00  0.000000D+00  0.134401D-01  0.000000D+00  0.000000D+00
    415   0.000000D+00  0.000000D+00  0.000000D+00  0.134401D-01  0.000000D+00
    416   0.000000D+00  0.000000D+00  0.000000D+00  0.000000D+00  0.000000D+00
    417   0.000000D+00  0.000000D+00  0.000000D+00  0.000000D+00  0.000000D+00
    418   0.000000D+00  0.000000D+00  0.000000D+00  0.000000D+00  0.000000D+00
    419   0.000000D+00  0.000000D+00  0.000000D+00  0.000000D+00  0.000000D+00
    420   0.000000D+00  0.000000D+00  0.000000D+00  0.000000D+00  0.000000D+00
    421   0.000000D+00  0.000000D+00  0.000000D+00  0.000000D+00  0.000000D+00
    422   0.000000D+00  0.000000D+00  0.000000D+00  0.000000D+00  0.000000D+00
    423   0.000000D+00  0.000000D+00  0.000000D+00  0.000000D+00  0.000000D+00
    424   0.000000D+00  0.000000D+00  0.000000D+00  0.000000D+00  0.000000D+00
    425   0.000000D+00  0.000000D+00  0.000000D+00  0.000000D+00  0.000000D+00
    426   0.000000D+00  0.000000D+00  0.000000D+00  0.000000D+00  0.000000D+00
    427   0.000000D+00  0.000000D+00  0.000000D+00  0.000000D+00  0.000000D+00
    428   0.000000D+00  0.000000D+00  0.000000D+00  0.000000D+00  0.000000D+00
    429   0.000000D+00  0.000000D+00  0.000000D+00  0.000000D+00  0.000000D+00
    430   0.000000D+00  0.000000D+00  0.000000D+00  0.000000D+00  0.000000D+00
    431   0.000000D+00  0.000000D+00  0.000000D+00  0.000000D+00  0.000000D+00
    432   0.000000D+00  0.000000D+00  0.000000D+00  0.000000D+00  0.000000D+00
    433   0.000000D+00  0.000000D+00  0.000000D+00  0.000000D+00 -0.147118D-05
    434   0.000000D+00  0.000000D+00  0.000000D+00  0.000000D+00  0.000000D+00
    435   0.000000D+00  0.000000D+00  0.000000D+00  0.000000D+00  0.000000D+00
    436   0.000000D+00  0.000000D+00  0.000000D+00  0.000000D+00  0.000000D+00
[...]
                                                  ----------
                         Total pair energies =    -0.448663 A.U.

                         Single Excitations  =    -0.007218 A.U.

                          Total second order =    -0.455881 A.U.



            MP2(CBS) (With Interference Correction) 
            ---------------------------------------

 AB - AA |     16        17        18        19        20        21
 BA - BB |     16        17        18        19        20        21
----------------------------------------------------------------------
   16    | -0.028251 -0.005745 -0.005745 -0.002999 -0.000986 -0.004759
   16    |  0.000000 -0.011574 -0.011574 -0.003458 -0.001542  0.000000
         |
   17    | -0.009623 -0.018957 -0.005360 -0.003102 -0.000607 -0.003070
   17    | -0.017062  0.000000 -0.016350 -0.005291 -0.001889  0.000000
         |
   18    | -0.009623 -0.010024 -0.018957 -0.003102 -0.000607 -0.000829
   18    | -0.017062 -0.010024  0.000000 -0.005291 -0.001889  0.000000
         |
   19    | -0.006418 -0.010612 -0.010612 -0.020013 -0.000081 -0.001487
   19    | -0.007193 -0.009840 -0.009840  0.000000 -0.000100  0.000000
         |
   20    | -0.002835 -0.002498 -0.002498 -0.000150 -0.014824 -0.001729
   20    | -0.003899 -0.003241 -0.003241 -0.000192  0.000000  0.000000
         |
   21    | -0.005670 -0.006959 -0.012013 -0.004571 -0.012141  0.000000
   21    |  0.000000  0.000000  0.000000  0.000000  0.000000  0.000000
         |
   22    | -0.005670 -0.012013 -0.006959 -0.004571 -0.012141  0.000000
   22    |  0.000000  0.000000  0.000000  0.000000  0.000000  0.000000
         |

 AB - AA |     22
 BA - BB |     22
--------------------
   16    | -0.004759
   16    |  0.000000
         |
   17    | -0.000829
   17    |  0.000000
         |
   18    | -0.003070
   18    |  0.000000
         |
   19    | -0.001487
   19    |  0.000000
         |
   20    | -0.001729
   20    |  0.000000
         |
   21    | -0.004935
   21    |  0.000000
         |
   22    |  0.000000
   22    |  0.000000
         |

                     Sum of ab pair energies =    -0.248603 A.U.
                     Sum of ba pair energies =    -0.081593 A.U.
                     Sum of aa pair energies =    -0.057016 A.U.
                     Sum of bb pair energies =    -0.058958 A.U.

           Sum of intraorbital pair energies =    -0.101001 A.U.
           Sum of interorbital pair energies =    -0.345170 A.U.
                                                  ----------
                         Total pair energies =    -0.446171 A.U.

                         Single Excitations  =    -0.007218 A.U.

                          Total second order =    -0.453389 A.U.

                         E2(CBS) - E2(Dir) =      -0.005818 A.U.

 E2(CBS)=      -0.455881 CBS-Int=       0.002492 OIii=       2.123195

 **********************************************************************

            Population analysis using the SCF density.

 **********************************************************************

 Orbital symmetries:
       Occupied  (SG) (SG) (SG) (PI) (PI) (SG) (SG) (SG) (PI) (PI)
                 (SG) (PI) (PI) (DLTA) (DLTA) (SG) (SG) (SG) (PI)
                 (PI) (PI) (PI)
       Virtual   (SG) (SG) (PI) (PI) (SG) (PI) (PI) (SG) (DLTA)
                 (DLTA) (PI) (PI) (SG) (SG) (SG) (PI) (PI) (DLTA)
                 (DLTA) (PHI) (PHI) (SG) (DLTA) (DLTA) (PI) (PI)
                 (SG) (PI) (PI) (PI) (PI) (DLTA) (DLTA) (SG) (SG)
                 (PI) (PI) (SG) (?A) (?A) (PHI) (PHI) (PI) (PI)
                 (PI) (PI) (DLTA) (DLTA) (SG) (DLTA) (DLTA) (SG)
                 (DLTA) (DLTA) (PHI) (PHI) (SG) (PI) (PI) (PI)
                 (PI) (SG) (PHI) (PHI) (DLTA) (DLTA) (SG) (PI)
                 (PI) (?B) (?B) (?A) (?A) (SG) (DLTA) (DLTA) (PI)
                 (PI) (PHI) (PHI) (SG) (PI) (PI) (SG) (DLTA) (DLTA)
                 (PI) (PI) (PHI) (PHI) (SG) (?A) (?A) (DLTA) (DLTA)
                 (PI) (PI) (SG) (DLTA) (DLTA) (?A) (?A) (PHI) (PHI)
                 (SG) (DLTA) (DLTA) (SG) (PI) (PI) (PI) (PI) (?B)
                 (?B) (SG) (SG) (PI) (PI) (SG) (DLTA) (DLTA) (PHI)
                 (PHI) (PHI) (PHI) (?A) (?A) (SG) (DLTA) (DLTA)
                 (SG) (PI) (PI) (DLTA) (DLTA) (SG) (PI) (PI) (PHI)
                 (PHI) (PI) (PI) (?A) (?A) (?B) (?B) (PI) (PI)
                 (SG) (PHI) (PHI) (SG) (?B) (?B) (?A) (?A) (PHI)
                 (PHI) (DLTA) (DLTA) (SG) (DLTA) (DLTA) (PI) (PI)
                 (DLTA) (DLTA) (SG) (PI) (PI) (PHI) (PHI) (?A)
                 (?A) (PI) (PI) (SG) (DLTA) (DLTA) (SG) (DLTA)
                 (DLTA) (SG) (PHI) (PHI) (DLTA) (DLTA) (PI) (PI)
                 (PI) (PI) (SG) (?A) (?A) (SG) (PI) (PI) (PHI)
                 (PHI) (DLTA) (DLTA) (?B) (?B) (SG) (SG) (SG) (PI)
                 (PI) (?A) (?A) (SG) (SG) (SG) (PI) (PI) (PHI)
                 (PHI) (?B) (?B) (DLTA) (DLTA) (SG) (PI) (PI) (?A)
                 (?A) (?B) (?B) (PHI) (PHI) (PHI) (PHI) (SG) (DLTA)
                 (DLTA) (?A) (?A) (SG) (DLTA) (DLTA) (PHI) (PHI)
                 (?A) (?A) (PI) (PI) (PI) (PI) (SG) (DLTA) (DLTA)
                 (PI) (PI) (SG) (SG) (PI) (PI) (DLTA) (DLTA) (PHI)
                 (PHI) (DLTA) (DLTA) (PHI) (PHI) (SG) (PI) (PI)
                 (SG) (DLTA) (DLTA) (?B) (?B) (?A) (?A) (DLTA)
                 (DLTA) (PI) (PI) (PHI) (PHI) (?C) (?C) (SG) (SG)
                 (PI) (PI) (?B) (?B) (DLTA) (DLTA) (SG) (SG) (?A)
                 (?A) (PI) (PI) (SG) (PI) (PI) (SG) (PHI) (PHI)
                 (PI) (PI) (?A) (?A) (SG) (DLTA) (DLTA) (SG) (SG)
                 (PI) (PI) (?B) (?B) (?A) (?A) (PHI) (PHI) (PHI)
                 (PHI) (?B) (?B) (?A) (?A) (?A) (?A) (DLTA) (DLTA)
                 (PI) (PI) (SG) (SG) (PHI) (PHI) (SG) (DLTA) (DLTA)
                 (PI) (PI) (PHI) (PHI) (DLTA) (DLTA) (PHI) (PHI)
                 (SG) (PI) (PI) (SG) (PI) (PI) (DLTA) (DLTA) (DLTA)
                 (DLTA) (SG) (DLTA) (DLTA) (SG) (PI) (PI) (PHI)
                 (PHI) (SG) (PI) (PI) (DLTA) (DLTA) (SG) (SG) (?B)
                 (?B) (?A) (?A) (SG) (PHI) (PHI) (PI) (PI) (DLTA)
                 (DLTA) (PI) (PI) (SG) (SG) (DLTA) (DLTA) (?B)
                 (?B) (?A) (?A) (PI) (PI) (PHI) (PHI) (DLTA) (DLTA)
                 (SG) (PI) (PI) (SG) (PI) (PI) (?A) (?A) (PHI)
                 (PHI) (PHI) (PHI) (SG) (DLTA) (DLTA) (SG) (PI)
                 (PI) (SG) (PI) (PI) (DLTA) (DLTA) (SG) (PI) (PI)
                 (DLTA) (DLTA) (PI) (PI) (SG) (SG) (?B) (?B) (SG)
                 (SG) (?C) (?C) (?A) (?A) (PHI) (PHI) (DLTA) (DLTA)
                 (SG) (PI) (PI) (SG) (SG) (SG) (?B) (?B) (?A) (?A)
                 (PHI) (PHI) (DLTA) (DLTA) (PI) (PI) (SG) (?B)
                 (?B) (?A) (?A) (PHI) (PHI) (DLTA) (DLTA) (PI)
                 (PI) (SG) (PHI) (PHI) (DLTA) (DLTA) (PI) (PI)
                 (SG) (?A) (?A) (PHI) (PHI) (DLTA) (DLTA) (SG)
                 (PI) (PI) (DLTA) (DLTA) (PI) (PI) (SG) (PI) (PI)
                 (SG) (SG) (SG)
 The electronic state is 3-SG.
 Alpha  occ. eigenvalues -- -460.93197 -60.73027 -54.33343 -54.33343 -54.32942
 Alpha  occ. eigenvalues --  -20.60047  -8.99842  -6.73293  -6.73293  -6.72433
 Alpha  occ. eigenvalues --   -2.71748  -2.71748  -2.71685  -2.71584  -2.71584
 Alpha  occ. eigenvalues --   -1.35011  -0.91967  -0.59325  -0.59325  -0.57088
 Alpha  occ. eigenvalues --   -0.40178  -0.40178
 Alpha virt. eigenvalues --    0.04255   0.05811   0.06691   0.06691   0.11422
 Alpha virt. eigenvalues --    0.12815   0.12815   0.13092   0.15588   0.15588
 Alpha virt. eigenvalues --    0.21900   0.21900   0.22432   0.28032   0.29485
 Alpha virt. eigenvalues --    0.29769   0.29769   0.38189   0.38189   0.38776
 Alpha virt. eigenvalues --    0.38776   0.38926   0.38926   0.38979   0.40455
 Alpha virt. eigenvalues --    0.40455   0.44321   0.45304   0.45304   0.47834
 Alpha virt. eigenvalues --    0.47834   0.54840   0.54840   0.57390   0.58892
 Alpha virt. eigenvalues --    0.69723   0.69723   0.73505   0.76474   0.76474
 Alpha virt. eigenvalues --    0.76620   0.76620   0.85653   0.85653   0.87237
 Alpha virt. eigenvalues --    0.87237   0.88029   0.88029   0.89037   0.89752
 Alpha virt. eigenvalues --    0.89752   0.90684   0.91275   0.91275   0.93839
 Alpha virt. eigenvalues --    0.93839   0.94951   0.95822   0.95822   1.01089
 Alpha virt. eigenvalues --    1.01089   1.04392   1.07525   1.07525   1.12286
 Alpha virt. eigenvalues --    1.12286   1.20783   1.23061   1.23061   1.29516
 Alpha virt. eigenvalues --    1.29516   1.29744   1.29744   1.30985   1.36233
 Alpha virt. eigenvalues --    1.36233   1.41593   1.41593   1.46342   1.46342
 Alpha virt. eigenvalues --    1.54976   1.55576   1.55576   1.61659   1.68607
 Alpha virt. eigenvalues --    1.68607   1.69883   1.69883   1.70286   1.70286
 Alpha virt. eigenvalues --    1.70424   1.70424   1.70544   1.82909   1.82909
 Alpha virt. eigenvalues --    1.84842   1.84842   1.84997   1.84997   1.85381
 Alpha virt. eigenvalues --    1.88946   1.88946   1.89128   1.89128   1.91414
 Alpha virt. eigenvalues --    1.96564   1.96564   2.00590   2.00706   2.00706
 Alpha virt. eigenvalues --    2.07775   2.07775   2.15260   2.15260   2.15310
 Alpha virt. eigenvalues --    2.15310   2.20405   2.20405   2.24286   2.24398
 Alpha virt. eigenvalues --    2.24398   2.25897   2.25897   2.33144   2.33144
 Alpha virt. eigenvalues --    2.36549   2.36549   2.47156   2.57699   2.57699
 Alpha virt. eigenvalues --    2.58741   2.59643   2.59643   2.69030   2.69030
 Alpha virt. eigenvalues --    2.69336   2.73139   2.73139   2.74027   2.74027
 Alpha virt. eigenvalues --    2.79947   2.79947   2.81694   2.81694   2.82144
 Alpha virt. eigenvalues --    2.82144   2.94156   2.94156   2.95241   3.03427
 Alpha virt. eigenvalues --    3.03427   3.06493   3.13076   3.13076   3.18597
 Alpha virt. eigenvalues --    3.18597   3.20583   3.20583   3.20799   3.20799
 Alpha virt. eigenvalues --    3.24356   3.27769   3.27769   3.31273   3.31273
 Alpha virt. eigenvalues --    3.32356   3.32356   3.36703   3.53316   3.53316
 Alpha virt. eigenvalues --    3.54000   3.54000   3.56977   3.56977   3.66328
 Alpha virt. eigenvalues --    3.66328   3.73879   3.76901   3.76901   3.79335
 Alpha virt. eigenvalues --    4.01542   4.01542   4.02569   4.07707   4.07707
 Alpha virt. eigenvalues --    4.09677   4.09677   4.14715   4.14715   4.27817
 Alpha virt. eigenvalues --    4.27817   4.28728   4.40584   4.40584   4.46826
 Alpha virt. eigenvalues --    4.49032   4.49032   4.56406   4.56406   4.71833
 Alpha virt. eigenvalues --    4.71833   4.74664   4.74664   4.78034   4.78098
 Alpha virt. eigenvalues --    4.78098   4.80858   4.80858   4.90918   4.90918
 Alpha virt. eigenvalues --    4.94648   4.95748   4.95748   5.00038   5.00038
 Alpha virt. eigenvalues --    5.13476   5.13476   5.16264   5.16264   5.26349
 Alpha virt. eigenvalues --    5.26349   5.31321   5.33413   5.33413   5.35541
 Alpha virt. eigenvalues --    5.35541   5.35659   5.35659   5.41098   5.41098
 Alpha virt. eigenvalues --    5.46422   5.46422   5.52517   5.56806   5.56806
 Alpha virt. eigenvalues --    5.66432   5.66432   5.68280   5.68730   5.68730
 Alpha virt. eigenvalues --    5.77065   5.77065   5.78898   5.78898   5.81707
 Alpha virt. eigenvalues --    5.81707   5.88930   5.88930   5.93745   5.94737
 Alpha virt. eigenvalues --    5.94737   6.16670   6.16670   6.29454   6.31772
 Alpha virt. eigenvalues --    6.47136   6.47136   6.54903   6.54903   6.58241
 Alpha virt. eigenvalues --    6.58241   6.78977   6.78977   6.85190   6.85190
 Alpha virt. eigenvalues --    6.88272   6.95188   6.95188   6.96347   7.39034
 Alpha virt. eigenvalues --    7.39034   7.58815   7.58815   7.79404   7.79404
 Alpha virt. eigenvalues --    7.82433   7.82433   7.92805   7.92805   7.97820
 Alpha virt. eigenvalues --    7.97820   7.97854   7.97854   7.99465   7.99465
 Alpha virt. eigenvalues --    8.14571   8.14571   8.18040   8.18040   8.22436
 Alpha virt. eigenvalues --    8.22436   8.23695   8.31084   8.74440   8.74440
 Alpha virt. eigenvalues --    8.82454   8.82454   8.85372   8.99787   8.99787
 Alpha virt. eigenvalues --    9.02026   9.36548   9.36548   9.39409   9.39409
 Alpha virt. eigenvalues --    9.48232   9.48232   9.62514   9.64008   9.64008
 Alpha virt. eigenvalues --    9.66328   9.66328   9.67822   9.67822   9.67973
 Alpha virt. eigenvalues --    9.67973   9.74021   9.74021   9.74162   9.74162
 Alpha virt. eigenvalues --    9.76681   9.76681   9.77549   9.77549   9.79962
 Alpha virt. eigenvalues --    9.79962   9.83129   9.83129   9.85570   9.85570
 Alpha virt. eigenvalues --    9.89016   9.89016   9.89095   9.98223  10.02319
 Alpha virt. eigenvalues --   10.02319  10.04432  10.18850  10.18850  10.23661
 Alpha virt. eigenvalues --   10.23661  10.23687  10.23687  10.40517  10.40517
 Alpha virt. eigenvalues --   10.49577  10.49577  10.51583  10.74759  10.74759
 Alpha virt. eigenvalues --   10.91971  10.96449  10.96449  10.96650  10.96650
 Alpha virt. eigenvalues --   11.23551  11.23551  11.31275  11.63757  11.63757
 Alpha virt. eigenvalues --   11.69641  11.93931  11.93931  12.57215  12.57215
 Alpha virt. eigenvalues --   12.63209  12.78272  12.78272  13.10102  13.10102
 Alpha virt. eigenvalues --   13.29210  13.29210  13.33928  13.33928  13.48061
 Alpha virt. eigenvalues --   13.48061  13.53819  13.82253  13.82253  14.27506
 Alpha virt. eigenvalues --   14.27506  14.64993  14.64993  15.22665  15.22665
 Alpha virt. eigenvalues --   15.23560  15.56788  16.36227  16.36227  17.08617
 Alpha virt. eigenvalues --   17.08617  17.23610  17.23610  17.33369  17.33369
 Alpha virt. eigenvalues --   17.54487  17.54487  17.99490  17.99490  18.04405
 Alpha virt. eigenvalues --   18.21247  18.21247  18.72477  19.51035  19.51035
 Alpha virt. eigenvalues --   19.85455  19.85455  20.12576  20.12576  20.25241
 Alpha virt. eigenvalues --   20.25241  20.37571  20.45499  20.45499  20.55220
 Alpha virt. eigenvalues --   20.60475  20.60475  20.74469  20.98709  20.98709
 Alpha virt. eigenvalues --   21.10814  21.10814  21.90495  22.30315  22.30315
 Alpha virt. eigenvalues --   22.51351  22.51351  23.05133  23.05133  23.73009
 Alpha virt. eigenvalues --   24.32699  25.27570  25.27570  25.28407  25.28407
 Alpha virt. eigenvalues --   25.29827  25.29827  25.31560  25.31560  25.49574
 Alpha virt. eigenvalues --   25.49574  25.76782  25.76782  25.91516  25.96566
 Alpha virt. eigenvalues --   25.96566  27.17897  33.90526  33.90526  33.92062
 Alpha virt. eigenvalues --   33.92062  33.98013  33.98013  34.10049  34.10049
 Alpha virt. eigenvalues --   34.35346  34.35346  34.52467  34.52467  34.63007
 Alpha virt. eigenvalues --   38.88878  38.88878  38.97531  38.97531  39.15059
 Alpha virt. eigenvalues --   39.15059  39.38669  39.38669  39.50167  39.50167
 Alpha virt. eigenvalues --   39.52234  41.66418  41.66418  42.12937  42.12937
 Alpha virt. eigenvalues --   42.47339  42.47339  42.63435  42.76627  42.76627
 Alpha virt. eigenvalues --   42.97043  42.97043  43.42887  43.42887  43.83703
 Alpha virt. eigenvalues --   43.86198  43.86198  46.93271  46.93271  47.17646
 Alpha virt. eigenvalues --   47.17646  48.17032  53.62154  53.62154  55.31386
 Alpha virt. eigenvalues --  109.41494 554.61927
          Condensed to atoms (all electrons):
              1          2
     1  Se  33.149043   0.304889
     2  O    0.304889   8.241179
          Atomic-Atomic Spin Densities.
              1          2
     1  Se   1.807940  -0.237362
     2  O   -0.237362   0.666785
 Mulliken charges and spin densities:
              1          2
     1  Se   0.546068   1.570578
     2  O   -0.546068   0.429422
 Sum of Mulliken charges =   0.00000 spin densities =   2.000000
 Mulliken charges and spin densities with hydrogens summed into heavy atoms:
              1          2
     1  Se   0.546068   1.570578
     2  O   -0.546068   0.429422
 Sum of Mulliken charges with hydrogens summed into heavy atoms =   0.00000 spin densities =   2.000000
 Electronic spatial extent (au):  <R**2>=            115.9128
 Charge=              0.0000 electrons
 Dipole moment (field-independent basis, Debye):
    X=              0.0000    Y=              0.0000    Z=              3.1048  Tot=              3.1048
 Quadrupole moment (field-independent basis, Debye-Ang):
   XX=            -22.6526   YY=            -22.6526   ZZ=            -26.0784
   XY=              0.0000   XZ=              0.0000   YZ=              0.0000
 Traceless Quadrupole moment (field-independent basis, Debye-Ang):
   XX=              1.1419   YY=              1.1419   ZZ=             -2.2839
   XY=              0.0000   XZ=              0.0000   YZ=              0.0000
 Octapole moment (field-independent basis, Debye-Ang**2):
  XXX=              0.0000  YYY=              0.0000  ZZZ=             12.8297  XYY=              0.0000
  XXY=              0.0000  XXZ=              2.0373  XZZ=              0.0000  YZZ=              0.0000
  YYZ=              2.0373  XYZ=              0.0000
 Hexadecapole moment (field-independent basis, Debye-Ang**3):
 XXXX=            -25.7600 YYYY=            -25.7600 ZZZZ=            -99.9429 XXXY=              0.0000
 XXXZ=              0.0000 YYYX=              0.0000 YYYZ=              0.0000 ZZZX=              0.0000
 ZZZY=              0.0000 XXYY=             -8.5867 XXZZ=            -20.9986 YYZZ=            -20.9986
 XXYZ=              0.0000 YYXZ=              0.0000 ZZXY=              0.0000
 N-N= 8.731873376394D+01 E-N=-9.120408135786D+03  KE= 3.709376649538D+03
                          Isotropic Fermi Contact Couplings
        Atom                 a.u.       MegaHertz       Gauss      10(-4) cm-1
     2  O(17)              0.00000       0.00000       0.00000       0.00000
 --------------------------------------------------------
       Center         ----  Spin Dipole Couplings  ----
                      3XX-RR        3YY-RR        3ZZ-RR
 --------------------------------------------------------
     1   Atom        2.937060      2.937060     -5.874120
     2   Atom        0.504250      0.504250     -1.008499
 --------------------------------------------------------
                        XY            XZ            YZ
 --------------------------------------------------------
     1   Atom        0.000000      0.000000      0.000000
     2   Atom        0.000000      0.000000      0.000000
 --------------------------------------------------------


 ---------------------------------------------------------------------------------
              Anisotropic Spin Dipole Couplings in Principal Axis System
 ---------------------------------------------------------------------------------

       Atom             a.u.   MegaHertz   Gauss  10(-4) cm-1        Axes

              Baa    -1.0085    72.974    26.039    24.342  0.0000  0.0000  1.0000
     2 O(17)  Bbb     0.5042   -36.487   -13.020   -12.171  1.0000  0.0000  0.0000
              Bcc     0.5042   -36.487   -13.020   -12.171  0.0000  1.0000  0.0000
 

 ---------------------------------------------------------------------------------


 Test job not archived.
 1\1\GINC-C28\SP\ROMP2-RW\Gen\O1Se1(3)\GPETERSSON\01-Jun-2013\0\\# ROMP
 2(RW) Gen GFinput Int=NoBasisTransform Int(Grid=Ultrafine) IOp(3/32=2,
 5/6=10,8/11=1,9/33=1) Maxdisk=128GB CBSextrapolate(Nmin=25,MinPop)\\Se
 O 3Sg\\0,3\Se\O,1,1.6484\\Version=EM64L-GDVRevH.12\State=3-SG\HF=-2474
 .7262916\MP2=-2475.1763547\E2(CBS)=-0.4558814\CBS-Int=-0.4533894\OIii=
 2.1231946\RMSD=1.361e-11\PG=C*V [C*(O1Se1)]\\@


 ALL PAPERS THAT YOU SAVE WILL NEVER BE NEEDED UNTIL
 SUCH TIME AS THEY ARE DISPOSED OF, WHEN THEY BECOME
 ESSENTIAL.

           -- JOHN CORCORAN IN
              PAUL DICKSON'S "THE OFFICIAL RULES"
 Job cpu time:  8 days  6 hours 17 minutes 37.3 seconds.
 File lengths (MBytes):  RWF=  24438 Int=      0 D2E=      0 Chk=     22 Scr=      1
 Normal termination of Gaussian DV at Sat Jun  1 09:40:52 2013.
