 Entering Gaussian System, Link 0=g09
 AtFile(1): 7ZaPa-NR.gbs
 Initial command:
 /share/apps/gaussian/g09root/g09/l1.exe /localscratch/60710/Gau-7725.inp -scrdir=/localscratch/60710/
 Entering Link 1 = /share/apps/gaussian/g09root/g09/l1.exe PID=      7726.
  
 Copyright (c) 1988,1990,1992,1993,1995,1998,2003,2009, Gaussian, Inc.
                  All Rights Reserved.
  
 This is part of the Gaussian(R) 09 program.  It is based on
 the Gaussian(R) 03 system (copyright 2003, Gaussian, Inc.),
 the Gaussian(R) 98 system (copyright 1998, Gaussian, Inc.),
 the Gaussian(R) 94 system (copyright 1995, Gaussian, Inc.),
 the Gaussian 92(TM) system (copyright 1992, Gaussian, Inc.),
 the Gaussian 90(TM) system (copyright 1990, Gaussian, Inc.),
 the Gaussian 88(TM) system (copyright 1988, Gaussian, Inc.),
 the Gaussian 86(TM) system (copyright 1986, Carnegie Mellon
 University), and the Gaussian 82(TM) system (copyright 1983,
 Carnegie Mellon University). Gaussian is a federally registered
 trademark of Gaussian, Inc.
  
 This software contains proprietary and confidential information,
 including trade secrets, belonging to Gaussian, Inc.
  
 This software is provided under written license and may be
 used, copied, transmitted, or stored only in accord with that
 written license.
  
 The following legend is applicable only to US Government
 contracts under FAR:
  
                    RESTRICTED RIGHTS LEGEND
  
 Use, reproduction and disclosure by the US Government is
 subject to restrictions as set forth in subparagraphs (a)
 and (c) of the Commercial Computer Software - Restricted
 Rights clause in FAR 52.227-19.
  
 Gaussian, Inc.
 340 Quinnipiac St., Bldg. 40, Wallingford CT 06492
  
  
 ---------------------------------------------------------------
 Warning -- This program may not be used in any manner that
 competes with the business of Gaussian, Inc. or will provide
 assistance to any competitor of Gaussian, Inc.  The licensee
 of this program is prohibited from giving any competitor of
 Gaussian, Inc. access to this program.  By using this program,
 the user acknowledges that Gaussian, Inc. is engaged in the
 business of creating and licensing software in the field of
 computational chemistry and represents and warrants to the
 licensee that it is not a competitor of Gaussian, Inc. and that
 it will not use this program in any manner prohibited above.
 ---------------------------------------------------------------
  

 Cite this work as:
 Gaussian 09, Revision A.02,
 M. J. Frisch, G. W. Trucks, H. B. Schlegel, G. E. Scuseria, 
 M. A. Robb, J. R. Cheeseman, G. Scalmani, V. Barone, B. Mennucci, 
 G. A. Petersson, H. Nakatsuji, M. Caricato, X. Li, H. P. Hratchian, 
 A. F. Izmaylov, J. Bloino, G. Zheng, J. L. Sonnenberg, M. Hada, 
 M. Ehara, K. Toyota, R. Fukuda, J. Hasegawa, M. Ishida, T. Nakajima, 
 Y. Honda, O. Kitao, H. Nakai, T. Vreven, J. A. Montgomery, Jr., 
 J. E. Peralta, F. Ogliaro, M. Bearpark, J. J. Heyd, E. Brothers, 
 K. N. Kudin, V. N. Staroverov, R. Kobayashi, J. Normand, 
 K. Raghavachari, A. Rendell, J. C. Burant, S. S. Iyengar, J. Tomasi, 
 M. Cossi, N. Rega, J. M. Millam, M. Klene, J. E. Knox, J. B. Cross, 
 V. Bakken, C. Adamo, J. Jaramillo, R. Gomperts, R. E. Stratmann, 
 O. Yazyev, A. J. Austin, R. Cammi, C. Pomelli, J. W. Ochterski, 
 R. L. Martin, K. Morokuma, V. G. Zakrzewski, G. A. Voth, 
 P. Salvador, J. J. Dannenberg, S. Dapprich, A. D. Daniels, 
 O. Farkas, J. B. Foresman, J. V. Ortiz, J. Cioslowski, 
 and D. J. Fox, Gaussian, Inc., Wallingford CT, 2009.
 
 ******************************************
 Gaussian 09:  EM64L-G09RevA.02 11-Jun-2009
                23-Oct-2013 
 ******************************************
 % Mem=64GB
 % Nproc=16
 Will use up to   16 processors via shared memory.
 % Chk=TiF.chk
 ----------------------------------------------------------------------
 # ROMP2 Gen GFinput Int=NoBasisTransform Int(Grid=Ultrafine) IOp(3/32=
 2,5/6=10,8/11=1,9/33=1) Maxdisk=128GB CBSextrapolate(Nmin=25,MinPop) G
 uess=Read SCF=Symm
 ----------------------------------------------------------------------
 1/38=1/1;
 2/12=2,17=6,18=5,40=1/2;
 3/5=7,11=2,16=1,24=10,25=1,30=1,32=2,60=-1,75=-5,116=101/1,2,3;
 4/5=1,9=4/1;
 5/5=2,6=10,15=2,38=6/2;
 8/5=-1,10=1,11=1/1;
 9/16=-3,33=1,75=2,81=25,83=4/6,4;
 6/7=2,8=2,9=2,10=2/1;
 99/5=1,9=1/99;
 -------
 TiF 4()
 -------
 Symbolic Z-matrix:
 Charge =  0 Multiplicity = 4
 Ti
 F                    1     1.8311 
 
                          Input orientation:                          
 ---------------------------------------------------------------------
 Center     Atomic      Atomic             Coordinates (Angstroms)
 Number     Number       Type             X           Y           Z
 ---------------------------------------------------------------------
      1         22           0        0.000000    0.000000    0.000000
      2          9           0        0.000000    0.000000    1.831100
 ---------------------------------------------------------------------
 Stoichiometry    FTi(4)
 Framework group  C*V[C*(FTi)]
 Deg. of freedom     1
 Full point group                 C*V     NOp   4
 Largest Abelian subgroup         C2V     NOp   4
 Largest concise Abelian subgroup C1      NOp   1
                         Standard orientation:                         
 ---------------------------------------------------------------------
 Center     Atomic      Atomic             Coordinates (Angstroms)
 Number     Number       Type             X           Y           Z
 ---------------------------------------------------------------------
      1         22           0        0.000000    0.000000    0.531610
      2          9           0        0.000000    0.000000   -1.299490
 ---------------------------------------------------------------------
 Rotational constants (GHZ):      0.0000000     11.0772730     11.0772730
 General basis read from cards:  (5D, 7F)
 AO basis set in the form of general basis input (Overlap normalization):
      1 0
 S  19 1.00       0.000000000000
      0.3093397200D+08  0.4234591329D-06
      0.6044953820D+07  0.2500233199D-05
      0.1406439870D+07  0.1416657951D-04
      0.3808742470D+06  0.6480102538D-04
      0.1175827660D+06  0.2541017510D-03
      0.4060237120D+05  0.8692969262D-03
      0.1541310580D+05  0.2654925011D-02
      0.6332181620D+04  0.7360767086D-02
      0.2775933820D+04  0.1874283040D-01
      0.1282232770D+04  0.4395120447D-01
      0.6170838670D+03  0.9384239299D-01
      0.3063608960D+03  0.1766719309D+00
      0.1555492650D+03  0.2737907056D+00
      0.8016593300D+02  0.3028287172D+00
      0.4166923400D+02  0.1848157313D+00
      0.2172715900D+02  0.4184420217D-01
      0.1131405200D+02  0.2667653209D-02
      0.5862761000D+01  0.3696609412D-03
      0.3014652000D+01  0.1806560102D-04
 S  16 1.00       0.000000000000
      0.1541310580D+05 -0.2000068553D-05
      0.6332181620D+04 -0.1628143465D-04
      0.2775933820D+04 -0.9291660553D-04
      0.1282232770D+04 -0.5141120884D-03
      0.6170838670D+03 -0.2238851019D-02
      0.3063608960D+03 -0.8917513766D-02
      0.1555492650D+03 -0.2843936305D-01
      0.8016593300D+02 -0.6831153690D-01
      0.4166923400D+02 -0.7552064941D-01
      0.2172715900D+02  0.7467127219D-01
      0.1131405200D+02  0.4019305211D+00
      0.5862761000D+01  0.4803209291D+00
      0.3014652000D+01  0.1620583712D+00
      0.1535019000D+01  0.1187769476D-01
      0.7728540000D+00  0.1881608481D-02
      0.3844100000D+00  0.1604322276D-03
 P  16 1.00       0.000000000000
      0.4533295070D+05  0.3902315011D-05
      0.1169435910D+05  0.3240199356D-04
      0.3723173810D+04  0.2050784432D-03
      0.1391898900D+04  0.9772377453D-03
      0.5867660470D+03  0.3774748693D-02
      0.2700556900D+03  0.1224652149D-01
      0.1323256660D+03  0.3421394492D-01
      0.6772548500D+02  0.8269378056D-01
      0.3570066100D+02  0.1661146293D+00
      0.1918843900D+02  0.2645001665D+00
      0.1044071500D+02  0.3144652086D+00
      0.5720592000D+01  0.2281751323D+00
      0.3142031000D+01  0.7796544752D-01
      0.1721723000D+01  0.1030149505D-01
      0.9355130000D+00  0.7894200457D-03
      0.4997910000D+00  0.2205735295D-03
 S  14 1.00       0.000000000000
      0.6170838670D+03  0.5322469049D-05
      0.3063608960D+03  0.3005187127D-04
      0.1555492650D+03  0.2469518916D-03
      0.8016593300D+02  0.1165891645D-02
      0.4166923400D+02  0.2681554527D-02
      0.2172715900D+02 -0.1846075520D-02
      0.1131405200D+02 -0.5172498790D-01
      0.5862761000D+01 -0.1934622218D+00
      0.3014652000D+01 -0.7022929944D-01
      0.1535019000D+01  0.4015244198D+00
      0.7728540000D+00  0.5768182565D+00
      0.3844100000D+00  0.2185252618D+00
      0.1888080000D+00  0.7055723508D-02
      0.9157300000D-01  0.2268621534D-02
 P  14 1.00       0.000000000000
      0.5867660470D+03 -0.5867365744D-05
      0.2700556900D+03 -0.3951856726D-04
      0.1323256660D+03 -0.2661521795D-03
      0.6772548500D+02 -0.1222512852D-02
      0.3570066100D+02 -0.4282268841D-02
      0.1918843900D+02 -0.9948508168D-02
      0.1044071500D+02 -0.1916879440D-01
      0.5720592000D+01  0.2122349637D-02
      0.3142031000D+01  0.1276297999D+00
      0.1721723000D+01  0.2999805429D+00
      0.9355130000D+00  0.3706357039D+00
      0.4997910000D+00  0.2535879781D+00
      0.2594200000D+00  0.6770257652D-01
      0.1286960000D+00  0.5000316675D-02
 D  16 1.00       0.000000000000
      0.1491449740D+04  0.4647613080D-05
      0.4676672110D+03  0.4680834861D-04
      0.1802568120D+03  0.3040571320D-03
      0.8026452900D+02  0.1408035394D-02
      0.3937766900D+02  0.5074876400D-02
      0.2055730100D+02  0.1433085417D-01
      0.1114698300D+02  0.3339947961D-01
      0.6180321000D+01  0.7062636521D-01
      0.3471588000D+01  0.1294550321D+00
      0.1966233000D+01  0.1905965255D+00
      0.1120200000D+01  0.2310709511D+00
      0.6406530000D+00  0.2402235480D+00
      0.3664290000D+00  0.2118898932D+00
      0.2080390000D+00  0.1465381738D+00
      0.1156960000D+00  0.6132776033D-01
      0.6170700000D-01  0.8234166991D-02
 D   1 1.00       0.000000000000
      0.4088453399D-01  0.1000000000D+01
 D   1 1.00       0.000000000000
      0.1288000000D-01  0.1000000000D+01
 S  11 1.00       0.000000000000
      0.4166923400D+02 -0.7430173516D-04
      0.2172715900D+02  0.9954373533D-04
      0.1131405200D+02  0.1248266287D-02
      0.5862761000D+01  0.8227221970D-02
      0.3014652000D+01  0.5168787780D-03
      0.1535019000D+01 -0.2799066814D-01
      0.7728540000D+00 -0.1082136524D+00
      0.3844100000D+00 -0.2119039186D+00
      0.1888080000D+00  0.1241661751D+00
      0.9157300000D-01  0.7398507106D+00
      0.4386900000D-01  0.3407873839D+00
 S   1 1.00       0.000000000000
      0.3468066937D-01  0.1000000000D+01
 S   1 1.00       0.000000000000
      0.1302400000D-01  0.1000000000D+01
 P  11 1.00       0.000000000000
      0.3570066100D+02  0.1516553016D-02
      0.1918843900D+02 -0.1055226724D-02
      0.1044071500D+02  0.9369863391D-02
      0.5720592000D+01 -0.1637669940D-01
      0.3142031000D+01  0.2128086630D-01
      0.1721723000D+01 -0.7338130343D-01
      0.9355130000D+00  0.7804168842D-01
      0.4997910000D+00 -0.4834264406D+00
      0.2594200000D+00 -0.1106826475D+00
      0.1286960000D+00 -0.8257091522D-01
      0.5906020050D-01 -0.5694513510D+00
 P   1 1.00       0.000000000000
      0.6188057483D-01  0.1000000000D+01
 P   1 1.00       0.000000000000
      0.1693100000D-01  0.1000000000D+01
 S   1 1.00       0.000000000000
      0.4132324000D+01  0.1000000000D+01
 S   1 1.00       0.000000000000
      0.2139468000D+01  0.1000000000D+01
 S   1 1.00       0.000000000000
      0.1107688000D+01  0.1000000000D+01
 S   1 1.00       0.000000000000
      0.5734940000D+00  0.1000000000D+01
 S   1 1.00       0.000000000000
      0.2969210000D+00  0.1000000000D+01
 S   1 1.00       0.000000000000
      0.1537280000D+00  0.1000000000D+01
 P   1 1.00       0.000000000000
      0.1701521000D+01  0.1000000000D+01
 P   1 1.00       0.000000000000
      0.9998930000D+00  0.1000000000D+01
 P   1 1.00       0.000000000000
      0.5875840000D+00  0.1000000000D+01
 P   1 1.00       0.000000000000
      0.3452920000D+00  0.1000000000D+01
 P   1 1.00       0.000000000000
      0.2029100000D+00  0.1000000000D+01
 P   1 1.00       0.000000000000
      0.1192390000D+00  0.1000000000D+01
 D   1 1.00       0.000000000000
      0.3111776000D+01  0.1000000000D+01
 D   1 1.00       0.000000000000
      0.1566445000D+01  0.1000000000D+01
 D   1 1.00       0.000000000000
      0.7885370000D+00  0.1000000000D+01
 D   1 1.00       0.000000000000
      0.3969430000D+00  0.1000000000D+01
 D   1 1.00       0.000000000000
      0.1998180000D+00  0.1000000000D+01
 D   1 1.00       0.000000000000
      0.1005870000D+00  0.1000000000D+01
 F   1 1.00       0.000000000000
      0.9884164000D+01  0.1000000000D+01
 F   1 1.00       0.000000000000
      0.4462610000D+01  0.1000000000D+01
 F   1 1.00       0.000000000000
      0.2014828000D+01  0.1000000000D+01
 F   1 1.00       0.000000000000
      0.9096760000D+00  0.1000000000D+01
 F   1 1.00       0.000000000000
      0.4107110000D+00  0.1000000000D+01
 F   1 1.00       0.000000000000
      0.1854320000D+00  0.1000000000D+01
 F   1 1.00       0.000000000000
      0.8372000000D-01  0.1000000000D+01
 G   1 1.00       0.000000000000
      0.6789106000D+01  0.1000000000D+01
 G   1 1.00       0.000000000000
      0.3035888000D+01  0.1000000000D+01
 G   1 1.00       0.000000000000
      0.1357559000D+01  0.1000000000D+01
 G   1 1.00       0.000000000000
      0.6070600000D+00  0.1000000000D+01
 G   1 1.00       0.000000000000
      0.2714590000D+00  0.1000000000D+01
 G   1 1.00       0.000000000000
      0.1213880000D+00  0.1000000000D+01
 H   1 1.00       0.000000000000
      0.5309074000D+01  0.1000000000D+01
 H   1 1.00       0.000000000000
      0.2184678000D+01  0.1000000000D+01
 H   1 1.00       0.000000000000
      0.8989930000D+00  0.1000000000D+01
 H   1 1.00       0.000000000000
      0.3699350000D+00  0.1000000000D+01
 H   1 1.00       0.000000000000
      0.1522270000D+00  0.1000000000D+01
 I   1 1.00       0.000000000000
      0.4025066000D+01  0.1000000000D+01
 I   1 1.00       0.000000000000
      0.1486593000D+01  0.1000000000D+01
 I   1 1.00       0.000000000000
      0.5490490000D+00  0.1000000000D+01
 I   1 1.00       0.000000000000
      0.2027820000D+00  0.1000000000D+01
 J   1 1.00       0.000000000000
      0.2320490000D+01  0.1000000000D+01
 J   1 1.00       0.000000000000
      0.7598860000D+00  0.1000000000D+01
 J   1 1.00       0.000000000000
      0.2488380000D+00  0.1000000000D+01
 K   1 1.00       0.000000000000
      0.1127537136D+01  0.1000000000D+01
 ****
      2 0
 S  17 1.00       0.000000000000
      0.3048244770D+07  0.8396810573D-06
      0.5369968820D+06  0.5676545607D-05
      0.1199883200D+06  0.3254964624D-04
      0.3245363880D+05  0.1460551024D-03
      0.1021678190D+05  0.5510724130D-03
      0.3623944150D+04  0.1811665599D-02
      0.1410396690D+04  0.5358354648D-02
      0.5895474470D+03  0.1452539685D-01
      0.2602273170D+03  0.3633701983D-01
      0.1196906900D+03  0.8281703613D-01
      0.5676751100D+02  0.1661259345D+00
      0.2753188800D+02  0.2741990864D+00
      0.1355825000D+02  0.3232958507D+00
      0.6735532000D+01  0.2025864722D+00
      0.3352805000D+01  0.4301269879D-01
      0.1659369000D+01  0.2646600918D-02
      0.8087840000D+00  0.5220454936D-03
 S  11 1.00       0.000000000000
      0.2602273170D+03 -0.2385176003D-03
      0.1196906900D+03 -0.9798822232D-03
      0.5676751100D+02 -0.4826796172D-02
      0.2753188800D+02 -0.1721310513D-01
      0.1355825000D+02 -0.4852233298D-01
      0.6735532000D+01 -0.6936525834D-01
      0.3352805000D+01  0.3551075826D-01
      0.1659369000D+01  0.2641572510D+00
      0.8087840000D+00  0.4234159692D+00
      0.3835520000D+00  0.3317589638D+00
      0.1742700000D+00  0.7587766348D-01
 S   1 1.00       0.000000000000
      0.1003107033D+00  0.1000000000D+01
 P  14 1.00       0.000000000000
      0.4131222500D+04  0.6941429714D-05
      0.1005024520D+04  0.6277603815D-04
      0.3153760590D+03  0.3928396657D-03
      0.1184334420D+03  0.1785103608D-02
      0.5027007200D+02  0.6387638435D-02
      0.2312552200D+02  0.1888831068D-01
      0.1119294000D+02  0.4840532696D-01
      0.5586791000D+01  0.1064977579D+00
      0.2838035000D+01  0.1869575638D+00
      0.1453994000D+01  0.2545242188D+00
      0.7454810000D+00  0.2744026778D+00
      0.3790260000D+00  0.2294936918D+00
      0.1885760000D+00  0.1210457339D+00
      0.8997400000D-01  0.2246455738D-01
 P   1 1.00       0.000000000000
      0.5438434490D-01  0.1000000000D+01
 S   1 1.00       0.000000000000
      0.1068242600D+02  0.1000000000D+01
 S   1 1.00       0.000000000000
      0.4919101000D+01  0.1000000000D+01
 S   1 1.00       0.000000000000
      0.2265174000D+01  0.1000000000D+01
 S   1 1.00       0.000000000000
      0.1043079000D+01  0.1000000000D+01
 S   1 1.00       0.000000000000
      0.4803230000D+00  0.1000000000D+01
 S   1 1.00       0.000000000000
      0.2211820000D+00  0.1000000000D+01
 P   1 1.00       0.000000000000
      0.6754664000D+01  0.1000000000D+01
 P   1 1.00       0.000000000000
      0.3104005000D+01  0.1000000000D+01
 P   1 1.00       0.000000000000
      0.1426399000D+01  0.1000000000D+01
 P   1 1.00       0.000000000000
      0.6554800000D+00  0.1000000000D+01
 P   1 1.00       0.000000000000
      0.3012160000D+00  0.1000000000D+01
 P   1 1.00       0.000000000000
      0.1384190000D+00  0.1000000000D+01
 D   1 1.00       0.000000000000
      0.1635237200D+02  0.1000000000D+01
 D   1 1.00       0.000000000000
      0.7681640000D+01  0.1000000000D+01
 D   1 1.00       0.000000000000
      0.3608503000D+01  0.1000000000D+01
 D   1 1.00       0.000000000000
      0.1695119000D+01  0.1000000000D+01
 D   1 1.00       0.000000000000
      0.7962940000D+00  0.1000000000D+01
 D   1 1.00       0.000000000000
      0.3740650000D+00  0.1000000000D+01
 D   1 1.00       0.000000000000
      0.1757190000D+00  0.1000000000D+01
 F   1 1.00       0.000000000000
      0.8996481000D+01  0.1000000000D+01
 F   1 1.00       0.000000000000
      0.4445515000D+01  0.1000000000D+01
 F   1 1.00       0.000000000000
      0.2196704000D+01  0.1000000000D+01
 F   1 1.00       0.000000000000
      0.1085478000D+01  0.1000000000D+01
 F   1 1.00       0.000000000000
      0.5363770000D+00  0.1000000000D+01
 F   1 1.00       0.000000000000
      0.2650440000D+00  0.1000000000D+01
 G   1 1.00       0.000000000000
      0.9784986000D+01  0.1000000000D+01
 G   1 1.00       0.000000000000
      0.4586666000D+01  0.1000000000D+01
 G   1 1.00       0.000000000000
      0.2149978000D+01  0.1000000000D+01
 G   1 1.00       0.000000000000
      0.1007792000D+01  0.1000000000D+01
 G   1 1.00       0.000000000000
      0.4723977000D+00  0.1000000000D+01
 H   1 1.00       0.000000000000
      0.6419402000D+01  0.1000000000D+01
 H   1 1.00       0.000000000000
      0.2953824000D+01  0.1000000000D+01
 H   1 1.00       0.000000000000
      0.1359173000D+01  0.1000000000D+01
 H   1 1.00       0.000000000000
      0.6254100000D+00  0.1000000000D+01
 I   1 1.00       0.000000000000
      0.5940514000D+01  0.1000000000D+01
 I   1 1.00       0.000000000000
      0.2322489000D+01  0.1000000000D+01
 I   1 1.00       0.000000000000
      0.9079946000D+00  0.1000000000D+01
 J   1 1.00       0.000000000000
      0.3904785650D+01  0.1000000000D+01
 ****

 There are   207 symmetry adapted basis functions of A1  symmetry.
 There are   106 symmetry adapted basis functions of A2  symmetry.
 There are   151 symmetry adapted basis functions of B1  symmetry.
 There are   151 symmetry adapted basis functions of B2  symmetry.
 Integral buffers will be    131072 words long.
 Raffenetti 2 integral format.
 Two-electron integral symmetry is turned on.
   615 basis functions,  1368 primitive gaussians,  1043 cartesian basis functions
    17 alpha electrons       14 beta electrons
       nuclear repulsion energy        57.2208439194 Hartrees.
 NAtoms=    2 NActive=    2 NUniq=    2 SFac= 7.50D-01 NAtFMM=   80 NAOKFM=F Big=F
 One-electron integrals computed using PRISM.
 NBasis=   615 RedAO= F  NBF=   207   106   151   151
 NBsUse=   615 1.00D-04 NBFU=   207   106   151   151
 Initial guess read from the checkpoint file:  TiF.chk
 B after Tr=     0.000000    0.000000    0.000000
         Rot=    1.000000    0.000000    0.000000    0.000000 Ang=   0.00 deg.
 Initial guess orbital symmetries:
       Occupied  (SG) (SG) (SG) (SG) (PI) (PI) (SG) (SG) (PI) (PI)
                 (SG) (SG) (PI) (PI) (SG) (DLTA) (DLTA)
       Virtual   (PI) (PI) (SG) (SG) (DLTA) (DLTA) (PI) (PI) (SG)
                 (PI) (PI) (SG) (PI) (PI) (DLTA) (DLTA) (SG) (SG)
                 (SG) (PI) (PI) (SG) (PI) (PI) (PHI) (PHI) (DLTA)
                 (DLTA) (PI) (PI) (SG) (PI) (PI) (SG) (DLTA) (DLTA)
                 (SG) (PI) (PI) (SG) (DLTA) (DLTA) (?A) (?A) (SG)
                 (PHI) (PHI) (PI) (PI) (PI) (PI) (SG) (DLTA) (DLTA)
                 (PHI) (PHI) (SG) (PI) (PI) (SG) (PI) (PI) (DLTA)
                 (DLTA) (SG) (PI) (PI) (DLTA) (DLTA) (SG) (?B)
                 (?B) (PHI) (PHI) (?A) (?A) (SG) (DLTA) (DLTA)
                 (PI) (PI) (SG) (PI) (PI) (SG) (PI) (PI) (PHI)
                 (PHI) (?A) (?A) (DLTA) (DLTA) (SG) (PI) (PI) (DLTA)
                 (DLTA) (SG) (PHI) (PHI) (PI) (PI) (PHI) (PHI)
                 (SG) (DLTA) (DLTA) (PI) (PI) (SG) (SG) (DLTA)
                 (DLTA) (DLTA) (DLTA) (SG) (SG) (?B) (?B) (?A)
                 (?A) (SG) (PI) (PI) (PI) (PI) (SG) (PI) (PI) (PHI)
                 (PHI) (DLTA) (DLTA) (SG) (PI) (PI) (PHI) (PHI)
                 (SG) (?A) (?A) (?B) (?B) (DLTA) (DLTA) (PI) (PI)
                 (SG) (PI) (PI) (?A) (?A) (SG) (DLTA) (DLTA) (PI)
                 (PI) (SG) (PHI) (PHI) (?A) (?A) (PHI) (PHI) (PHI)
                 (PHI) (SG) (DLTA) (DLTA) (PHI) (PHI) (PI) (PI)
                 (SG) (DLTA) (DLTA) (DLTA) (DLTA) (SG) (PI) (PI)
                 (SG) (PI) (PI) (DLTA) (DLTA) (SG) (PI) (PI) (SG)
                 (DLTA) (DLTA) (PI) (PI) (PI) (PI) (SG) (PHI) (PHI)
                 (DLTA) (DLTA) (?A) (?A) (?B) (?B) (SG) (SG) (PI)
                 (PI) (SG) (?B) (?B) (?A) (?A) (SG) (PHI) (PHI)
                 (PI) (PI) (DLTA) (DLTA) (SG) (PI) (PI) (SG) (?A)
                 (?A) (PHI) (PHI) (SG) (DLTA) (DLTA) (PI) (PI)
                 (SG) (PHI) (PHI) (DLTA) (DLTA) (SG) (PI) (PI)
                 (?A) (?A) (?B) (?B) (PHI) (PHI) (DLTA) (DLTA)
                 (PI) (PI) (SG) (DLTA) (DLTA) (PI) (PI) (PHI) (PHI)
                 (PHI) (PHI) (SG) (?A) (?A) (DLTA) (DLTA) (DLTA)
                 (DLTA) (PI) (PI) (SG) (PI) (PI) (SG) (SG) (PI)
                 (PI) (SG) (?B) (?B) (?A) (?A) (PHI) (PHI) (DLTA)
                 (DLTA) (PI) (PI) (SG) (?A) (?A) (PHI) (PHI) (DLTA)
                 (DLTA) (PI) (PI) (SG) (PHI) (PHI) (DLTA) (DLTA)
                 (PI) (PI) (SG) (DLTA) (DLTA) (PI) (PI) (SG) (SG)
                 (SG) (SG) (PI) (PI) (SG) (SG) (PI) (PI) (DLTA)
                 (DLTA) (SG) (PI) (PI) (SG) (PI) (PI) (SG) (PI)
                 (PI) (SG) (SG) (SG) (SG) (SG) (PI) (PI) (PI) (PI)
                 (SG) (PI) (PI) (SG) (PI) (PI) (SG) (PI) (PI) (DLTA)
                 (DLTA) (SG) (PI) (PI) (DLTA) (DLTA) (DLTA) (DLTA)
                 (DLTA) (DLTA) (SG) (PI) (PI) (DLTA) (DLTA) (PHI)
                 (PHI) (SG) (PI) (PI) (DLTA) (DLTA) (PHI) (PHI)
                 (PI) (PI) (PHI) (PHI) (PI) (PI) (DLTA) (DLTA)
                 (PHI) (PHI) (SG) (PI) (PI) (DLTA) (DLTA) (PHI)
                 (PHI) (?A) (?A) (SG) (PI) (PI) (DLTA) (DLTA) (PHI)
                 (PHI) (?A) (?A) (DLTA) (DLTA) (SG) (PI) (PI) (DLTA)
                 (DLTA) (PHI) (PHI) (?A) (?A) (?B) (?B) (SG) (PI)
                 (PI) (DLTA) (DLTA) (PHI) (PHI) (?A) (?A) (?B)
                 (?B) (DLTA) (DLTA) (?A) (?A) (SG) (SG) (PI) (PI)
                 (DLTA) (DLTA) (PHI) (PHI) (?A) (?A) (?B) (?B)
                 (SG) (SG) (SG) (PI) (PI) (DLTA) (DLTA) (PHI) (PHI)
                 (?A) (?A) (?B) (?B) (SG) (SG) (PI) (PI) (PHI)
                 (PHI) (PHI) (PHI) (?A) (?A) (?B) (?B) (SG) (PI)
                 (PI) (DLTA) (DLTA) (PHI) (PHI) (?A) (?A) (?B)
                 (?B) (SG) (SG) (?C) (?C) (SG) (PI) (PI) (DLTA)
                 (DLTA) (PHI) (PHI) (?A) (?A) (?B) (?B) (SG) (SG)
                 (?C) (?C) (SG) (DLTA) (DLTA) (PHI) (PHI) (?A)
                 (?A) (?B) (?B) (SG) (SG) (?C) (?C) (SG) (PI) (PI)
                 (DLTA) (DLTA) (PHI) (PHI) (?A) (?A) (?B) (?B)
                 (SG) (SG) (?C) (?C) (?D) (?D) (SG) (PI) (PI) (SG)
                 (PI) (PI) (DLTA) (DLTA) (SG) (PI) (PI) (DLTA)
                 (DLTA) (PHI) (PHI) (SG) (PI) (PI) (DLTA) (DLTA)
                 (PHI) (PHI) (?A) (?A) (?A) (?A) (DLTA) (DLTA)
                 (PHI) (PHI) (?A) (?A) (?B) (?B) (?B) (?B) (PHI)
                 (PHI) (SG) (PI) (PI) (DLTA) (DLTA) (PHI) (PHI)
                 (?A) (?A) (?B) (?B) (SG) (SG) (DLTA) (DLTA) (PHI)
                 (PHI) (?A) (?A) (?B) (?B) (SG) (SG) (SG) (SG)
                 (?A) (?A) (?B) (?B) (SG) (SG) (?C) (?C)
 Requested convergence on RMS density matrix=1.00D-10 within 128 cycles.
 Requested convergence on MAX density matrix=1.00D-08.
 Requested convergence on             energy=1.00D-08.
 No special actions if energy rises.
 Restarting incremental Fock formation.
 SCF Done:  E(ROHF) =  -947.967061560     A.U. after   21 cycles
             Convg  =    0.9750D-11             -V/T =  2.0000
 <Sx>= 0.0000 <Sy>= 0.0000 <Sz>= 1.5000 <S**2>= 3.7500 S= 1.5000
 <L.S>= 0.000000000000E+00
 Annihilation of the first spin contaminant:
 S**2 before annihilation     3.7500,   after     3.7500
 DiagDN has N=   615 LTot=  1877 but NE2=     3 cannot use DSYEVD.
 GenMOA:  NOpAll=  4 NOp2=4 NOpUse=  4 JSym2X=1
 <Sx>= 0.0000 <Sy>= 0.0000 <Sz>= 1.5000 <S**2>= 3.7500 S= 1.5000
 ExpMin= 1.29D-02 ExpMax= 3.09D+07 ExpMxC= 2.78D+03 IAcc=3 IRadAn=         5 AccDes= 0.00D+00
 HarFok:  IExCor=  205 AccDes= 0.00D+00 IRadAn=         5 IDoV=-2
 ScaDFX=  1.000000  1.000000  1.000000  1.000000
 Range of M.O.s used for correlation:    11   615
 NBasis=   615 NAE=    17 NBE=    14 NFC=    10 NFV=     0
 NROrb=    605 NOA=     7 NOB=     4 NVA=   598 NVB=   601

 **** Warning!!: The largest alpha MO coefficient is  0.33459712D+03


 **** Warning!!: The largest beta MO coefficient is  0.33459712D+03

 Singles contribution to E2=   -0.2054252987D-03
 Disk-based method using OVN memory for  7 occupieds at a time.
 Permanent disk used for amplitudes and <ij||ab> integrals=    29787014 words.
 Estimated scratch disk usage=  7010495746 words.
 IUseRI=2 ITolRI= 6 IR12RI=0
 Actual    scratch disk usage=  6975497356 words.
 GetIJB would need an additional  4914162383 words of memory to use all  16 processors.
 JobTyp=2 Pass  1:  I=   1 to   7 NPSUse= 10 ParTrn=T ParDer=T DoDerP=F.
 T,EIJ(AA): I=   1 J=   2      0.5010259E-03     -0.3150536E-02
 T,EIJ(AA): I=   1 J=   3      0.5226775E-03     -0.3196789E-02
 T,EIJ(AA): I=   1 J=   4      0.5226775E-03     -0.3196789E-02
 T,EIJ(AA): I=   1 J=   5      0.8272146E-04     -0.4376564E-03
 T,EIJ(AA): I=   1 J=   6      0.8272146E-04     -0.4376564E-03
 T,EIJ(AA): I=   1 J=   7      0.4665663E-04     -0.1484093E-03
 T,EIJ(AA): I=   2 J=   3      0.2251113E-02     -0.1005953E-01
 T,EIJ(AA): I=   2 J=   4      0.2251113E-02     -0.1005953E-01
 T,EIJ(AA): I=   2 J=   5      0.2865237E-03     -0.8652212E-03
 T,EIJ(AA): I=   2 J=   6      0.2865237E-03     -0.8652212E-03
 T,EIJ(AA): I=   2 J=   7      0.2487319E-03     -0.5001880E-03
 T,EIJ(AA): I=   3 J=   4      0.2356150E-02     -0.1021137E-01
 T,EIJ(AA): I=   3 J=   5      0.1614013E-03     -0.4157584E-03
 T,EIJ(AA): I=   3 J=   6      0.1614013E-03     -0.4157584E-03
 T,EIJ(AA): I=   3 J=   7      0.2455782E-03     -0.4478469E-03
 T,EIJ(AA): I=   4 J=   5      0.1614013E-03     -0.4157584E-03
 T,EIJ(AA): I=   4 J=   6      0.1614013E-03     -0.4157584E-03
 T,EIJ(AA): I=   4 J=   7      0.2455782E-03     -0.4478469E-03
 T,EIJ(AA): I=   5 J=   6      0.3618651E-02     -0.1203786E-01
 T,EIJ(AA): I=   5 J=   7      0.1746227E-02     -0.3356881E-02
 T,EIJ(AA): I=   6 J=   7      0.1746227E-02     -0.3356881E-02
 T,EIJ(AB): I=   1 J=   1      0.1229257E-02     -0.1126929E-01
 T,EIJ(AB): I=   1 J=   2      0.1470500E-02     -0.1119494E-01
 T,EIJ(AB): I=   1 J=   3      0.1515661E-02     -0.1131338E-01
 T,EIJ(AB): I=   1 J=   4      0.1515661E-02     -0.1131338E-01
 T,EIJ(AB): I=   2 J=   1      0.1460652E-02     -0.1110586E-01
 T,EIJ(AB): I=   2 J=   2      0.4907019E-02     -0.2607660E-01
 T,EIJ(AB): I=   2 J=   3      0.2858012E-02     -0.1378020E-01
 T,EIJ(AB): I=   2 J=   4      0.2858012E-02     -0.1378020E-01
 T,EIJ(AB): I=   3 J=   1      0.1511611E-02     -0.1124067E-01
 T,EIJ(AB): I=   3 J=   2      0.2878081E-02     -0.1382253E-01
 T,EIJ(AB): I=   3 J=   3      0.3040513E-02     -0.1403742E-01
 T,EIJ(AB): I=   3 J=   4      0.5347721E-02     -0.2660903E-01
 T,EIJ(AB): I=   4 J=   1      0.1511611E-02     -0.1124067E-01
 T,EIJ(AB): I=   4 J=   2      0.2878081E-02     -0.1382253E-01
 T,EIJ(AB): I=   4 J=   3      0.5347721E-02     -0.2660903E-01
 T,EIJ(AB): I=   4 J=   4      0.3040513E-02     -0.1403742E-01
 T,EIJ(AB): I=   5 J=   1      0.1062981E-03     -0.6025866E-03
 T,EIJ(AB): I=   5 J=   2      0.3799416E-03     -0.1189979E-02
 T,EIJ(AB): I=   5 J=   3      0.1860890E-03     -0.5023179E-03
 T,EIJ(AB): I=   5 J=   4      0.1860890E-03     -0.5023179E-03
 T,EIJ(AB): I=   6 J=   1      0.1062981E-03     -0.6025866E-03
 T,EIJ(AB): I=   6 J=   2      0.3799416E-03     -0.1189979E-02
 T,EIJ(AB): I=   6 J=   3      0.1860890E-03     -0.5023179E-03
 T,EIJ(AB): I=   6 J=   4      0.1860890E-03     -0.5023179E-03
 T,EIJ(AB): I=   7 J=   1      0.8744955E-04     -0.3129982E-03
 T,EIJ(AB): I=   7 J=   2      0.3822495E-03     -0.7895104E-03
 T,EIJ(AB): I=   7 J=   3      0.2783537E-03     -0.5232455E-03
 T,EIJ(AB): I=   7 J=   4      0.2783537E-03     -0.5232455E-03
 Actual    scratch disk usage=  7010491138 words.
 GetIJB would need an additional  4914115448 words of memory to use all  16 processors.
 JobTyp=3 Pass  1:  I=   1 to   4 NPSUse= 10 ParTrn=T ParDer=T DoDerP=F.
 T,EIJ(BB): I=   1 J=   2      0.5052788E-03     -0.3163006E-02
 T,EIJ(BB): I=   1 J=   3      0.5213849E-03     -0.3184268E-02
 T,EIJ(BB): I=   1 J=   4      0.5213849E-03     -0.3184268E-02
 T,EIJ(BB): I=   2 J=   3      0.2236080E-02     -0.1007337E-01
 T,EIJ(BB): I=   2 J=   4      0.2236080E-02     -0.1007337E-01
 T,EIJ(BB): I=   3 J=   4      0.2326444E-02     -0.1019435E-01
 Spin components of T(2) and E(2):
     alpha-alpha T2 =       0.1768650244D-01 E2=     -0.6443924180D-01
     alpha-beta  T2 =       0.4611386744D-01 E2=     -0.2489965597D+00
     beta-beta   T2 =       0.8346651653D-02 E2=     -0.3987263712D-01
 ANorm=    0.1035554075D+01
 E2 =    -0.3535138639D+00 EUMP2 =    -0.94832057542426D+03

 Complete Basis Set (CBS) Extrapolation:
 M. R. Nyden and G. A. Petersson, JCP 75, 1843 (1981)
 G. A. Petersson and M. A. Al-Laham, JCP 94, 6081 (1991)
 G. A. Petersson, T. Tensfeldt, and J. A. Montgomery, JCP 94, 6091 (1991)
 J. A. Montgomery, J. W. Ochterski, and G. A. Petersson, JCP 101, 5900 (1994)
 
 Minimum Number of PNO for Extrapolation =  25
 Absolute Overlaps: IRadAn =         5
 LocTrn: ILocal=3 LocCor=F DoCore=F.
 Entering OneElI...
 Overlap between basis sets.
 Requested accuracy = 0.1000D-12
 PrsmSu:  NPrtUS=   1 ThrOK=F IAlg=1
 PRISM was handed  8588078473 working-precision words and    47 shell-pairs
 IPart=  0 NShTot=          47 NBatch=          10 AvBLen=         4.7
 CnvPC2: ToCart=F DoDens=F IPureD=0 IPureF=0.
 Transformed matrix in CnvPC2: 
                 1             2             3             4             5 
      1   0.100000D+01  0.371775D+00  0.000000D+00  0.000000D+00  0.000000D+00
      2   0.371775D+00  0.100000D+01  0.000000D+00  0.000000D+00  0.000000D+00
      3   0.000000D+00  0.000000D+00  0.100000D+01  0.000000D+00  0.000000D+00
      4   0.000000D+00  0.000000D+00  0.000000D+00  0.100000D+01  0.000000D+00
      5   0.000000D+00  0.000000D+00  0.000000D+00  0.000000D+00  0.100000D+01
      6   0.223608D-01  0.300384D+00  0.000000D+00  0.000000D+00  0.000000D+00
      7   0.000000D+00  0.000000D+00  0.313309D+00  0.000000D+00  0.000000D+00
      8   0.000000D+00  0.000000D+00  0.000000D+00  0.313309D+00  0.000000D+00
      9   0.000000D+00  0.000000D+00  0.000000D+00  0.000000D+00  0.313309D+00
     10   0.000000D+00  0.000000D+00  0.000000D+00  0.000000D+00  0.000000D+00
     11   0.000000D+00  0.000000D+00  0.000000D+00  0.000000D+00  0.000000D+00
     12   0.000000D+00  0.000000D+00  0.000000D+00  0.000000D+00  0.000000D+00
     13   0.000000D+00  0.000000D+00  0.000000D+00  0.000000D+00  0.000000D+00
     14   0.000000D+00  0.000000D+00  0.000000D+00  0.000000D+00  0.000000D+00
     15  -0.412730D-03  0.136941D-01  0.000000D+00  0.000000D+00  0.000000D+00
     16   0.000000D+00  0.000000D+00  0.250808D-01  0.000000D+00  0.000000D+00
     17   0.000000D+00  0.000000D+00  0.000000D+00  0.250808D-01  0.000000D+00
     18   0.000000D+00  0.000000D+00  0.000000D+00  0.000000D+00  0.250808D-01
     19   0.000000D+00  0.000000D+00  0.000000D+00  0.000000D+00  0.000000D+00
     20   0.119288D-03  0.105116D-02  0.000000D+00  0.000000D+00 -0.867979D-03
     21   0.000000D+00  0.000000D+00  0.200942D-03  0.000000D+00  0.000000D+00
     22   0.000000D+00  0.000000D+00  0.000000D+00  0.200942D-03  0.000000D+00
     23   0.320732D-03  0.264461D-02  0.000000D+00  0.000000D+00 -0.199697D-02
                 6             7             8             9            10 
      1   0.223608D-01  0.000000D+00  0.000000D+00  0.000000D+00  0.000000D+00
      2   0.300384D+00  0.000000D+00  0.000000D+00  0.000000D+00  0.000000D+00
      3   0.000000D+00  0.313309D+00  0.000000D+00  0.000000D+00  0.000000D+00
      4   0.000000D+00  0.000000D+00  0.313309D+00  0.000000D+00  0.000000D+00
      5   0.000000D+00  0.000000D+00  0.000000D+00  0.313309D+00  0.000000D+00
      6   0.100000D+01  0.000000D+00  0.000000D+00  0.000000D+00  0.000000D+00
      7   0.000000D+00  0.100000D+01  0.000000D+00  0.000000D+00  0.000000D+00
      8   0.000000D+00  0.000000D+00  0.100000D+01  0.000000D+00  0.000000D+00
      9   0.000000D+00  0.000000D+00  0.000000D+00  0.100000D+01  0.000000D+00
     10   0.000000D+00  0.000000D+00  0.000000D+00  0.000000D+00  0.100000D+01
     11   0.000000D+00  0.000000D+00  0.000000D+00  0.000000D+00  0.000000D+00
     12   0.000000D+00  0.000000D+00  0.000000D+00  0.000000D+00  0.000000D+00
     13   0.000000D+00  0.000000D+00  0.000000D+00  0.000000D+00  0.000000D+00
     14   0.000000D+00  0.000000D+00  0.000000D+00  0.000000D+00  0.000000D+00
     15   0.395149D+00  0.000000D+00  0.000000D+00  0.000000D+00  0.000000D+00
     16   0.000000D+00  0.407435D+00  0.000000D+00  0.000000D+00  0.000000D+00
     17   0.000000D+00  0.000000D+00  0.407435D+00  0.000000D+00  0.000000D+00
     18   0.000000D+00  0.000000D+00  0.000000D+00  0.407435D+00  0.000000D+00
     19   0.176339D-03  0.000000D+00  0.000000D+00 -0.484411D-03  0.223446D-01
     20   0.257030D-01  0.000000D+00  0.000000D+00 -0.395197D-01  0.218161D+00
     21   0.000000D+00  0.959821D-02  0.000000D+00  0.000000D+00  0.000000D+00
     22   0.000000D+00  0.000000D+00  0.959821D-02  0.000000D+00  0.000000D+00
     23   0.434781D-01  0.000000D+00  0.000000D+00 -0.628211D-01  0.178151D+00
                11            12            13            14            15 
      1   0.000000D+00  0.000000D+00  0.000000D+00  0.000000D+00 -0.412730D-03
      2   0.000000D+00  0.000000D+00  0.000000D+00  0.000000D+00  0.136941D-01
      3   0.000000D+00  0.000000D+00  0.000000D+00  0.000000D+00  0.000000D+00
      4   0.000000D+00  0.000000D+00  0.000000D+00  0.000000D+00  0.000000D+00
      5   0.000000D+00  0.000000D+00  0.000000D+00  0.000000D+00  0.000000D+00
      6   0.000000D+00  0.000000D+00  0.000000D+00  0.000000D+00  0.395149D+00
      7   0.000000D+00  0.000000D+00  0.000000D+00  0.000000D+00  0.000000D+00
      8   0.000000D+00  0.000000D+00  0.000000D+00  0.000000D+00  0.000000D+00
      9   0.000000D+00  0.000000D+00  0.000000D+00  0.000000D+00  0.000000D+00
     10   0.000000D+00  0.000000D+00  0.000000D+00  0.000000D+00  0.000000D+00
     11   0.100000D+01  0.000000D+00  0.000000D+00  0.000000D+00  0.000000D+00
     12   0.000000D+00  0.100000D+01  0.000000D+00  0.000000D+00  0.000000D+00
     13   0.000000D+00  0.000000D+00  0.100000D+01  0.000000D+00  0.000000D+00
     14   0.000000D+00  0.000000D+00  0.000000D+00  0.100000D+01  0.000000D+00
     15   0.000000D+00  0.000000D+00  0.000000D+00  0.000000D+00  0.100000D+01
     16   0.000000D+00  0.000000D+00  0.000000D+00  0.000000D+00  0.000000D+00
     17   0.000000D+00  0.000000D+00  0.000000D+00  0.000000D+00  0.000000D+00
     18   0.000000D+00  0.000000D+00  0.000000D+00  0.000000D+00  0.000000D+00
     19   0.000000D+00  0.000000D+00  0.000000D+00  0.000000D+00  0.216733D-01
     20   0.000000D+00  0.000000D+00  0.000000D+00  0.000000D+00  0.217336D+00
     21  -0.101259D+00  0.000000D+00  0.000000D+00  0.000000D+00  0.000000D+00
     22   0.000000D+00 -0.101259D+00  0.000000D+00  0.000000D+00  0.000000D+00
     23   0.000000D+00  0.000000D+00  0.000000D+00  0.000000D+00  0.128423D+00
                16            17            18            19            20 
      1   0.000000D+00  0.000000D+00  0.000000D+00  0.000000D+00  0.119288D-03
      2   0.000000D+00  0.000000D+00  0.000000D+00  0.000000D+00  0.105116D-02
      3   0.250808D-01  0.000000D+00  0.000000D+00  0.000000D+00  0.000000D+00
      4   0.000000D+00  0.250808D-01  0.000000D+00  0.000000D+00  0.000000D+00
      5   0.000000D+00  0.000000D+00  0.250808D-01  0.000000D+00 -0.867979D-03
      6   0.000000D+00  0.000000D+00  0.000000D+00  0.176339D-03  0.257030D-01
      7   0.407435D+00  0.000000D+00  0.000000D+00  0.000000D+00  0.000000D+00
      8   0.000000D+00  0.407435D+00  0.000000D+00  0.000000D+00  0.000000D+00
      9   0.000000D+00  0.000000D+00  0.407435D+00 -0.484411D-03 -0.395197D-01
     10   0.000000D+00  0.000000D+00  0.000000D+00  0.223446D-01  0.218161D+00
     11   0.000000D+00  0.000000D+00  0.000000D+00  0.000000D+00  0.000000D+00
     12   0.000000D+00  0.000000D+00  0.000000D+00  0.000000D+00  0.000000D+00
     13   0.000000D+00  0.000000D+00  0.000000D+00  0.000000D+00  0.000000D+00
     14   0.000000D+00  0.000000D+00  0.000000D+00  0.000000D+00  0.000000D+00
     15   0.000000D+00  0.000000D+00  0.000000D+00  0.216733D-01  0.217336D+00
     16   0.100000D+01  0.000000D+00  0.000000D+00  0.000000D+00  0.000000D+00
     17   0.000000D+00  0.100000D+01  0.000000D+00  0.000000D+00  0.000000D+00
     18   0.000000D+00  0.000000D+00  0.100000D+01 -0.369265D-01 -0.342072D+00
     19   0.000000D+00  0.000000D+00 -0.369265D-01  0.100000D+01  0.237990D+00
     20   0.000000D+00  0.000000D+00 -0.342072D+00  0.237990D+00  0.100000D+01
     21   0.916886D-01  0.000000D+00  0.000000D+00  0.000000D+00  0.000000D+00
     22   0.000000D+00  0.916886D-01  0.000000D+00  0.000000D+00  0.000000D+00
     23   0.000000D+00  0.000000D+00 -0.192808D+00  0.000000D+00  0.000000D+00
                21            22            23 
      1   0.000000D+00  0.000000D+00  0.320732D-03
      2   0.000000D+00  0.000000D+00  0.264461D-02
      3   0.200942D-03  0.000000D+00  0.000000D+00
      4   0.000000D+00  0.200942D-03  0.000000D+00
      5   0.000000D+00  0.000000D+00 -0.199697D-02
      6   0.000000D+00  0.000000D+00  0.434781D-01
      7   0.959821D-02  0.000000D+00  0.000000D+00
      8   0.000000D+00  0.959821D-02  0.000000D+00
      9   0.000000D+00  0.000000D+00 -0.628211D-01
     10   0.000000D+00  0.000000D+00  0.178151D+00
     11  -0.101259D+00  0.000000D+00  0.000000D+00
     12   0.000000D+00 -0.101259D+00  0.000000D+00
     13   0.000000D+00  0.000000D+00  0.000000D+00
     14   0.000000D+00  0.000000D+00  0.000000D+00
     15   0.000000D+00  0.000000D+00  0.128423D+00
     16   0.916886D-01  0.000000D+00  0.000000D+00
     17   0.000000D+00  0.916886D-01  0.000000D+00
     18   0.000000D+00  0.000000D+00 -0.192808D+00
     19   0.000000D+00  0.000000D+00  0.000000D+00
     20   0.000000D+00  0.000000D+00  0.000000D+00
     21   0.100000D+01  0.000000D+00  0.000000D+00
     22   0.000000D+00  0.100000D+01  0.000000D+00
     23   0.000000D+00  0.000000D+00  0.100000D+01
 Entering OneElI...
 Overlap between basis sets.
 Requested accuracy = 0.1000D-12
 PrsmSu:  NPrtUS=   1 ThrOK=F IAlg=1
 PRISM was handed  8586709748 working-precision words and   697 shell-pairs
 IPart=  0 NShTot=         697 NBatch=          89 AvBLen=         7.8
 CnvPC2: ToCart=F DoDens=F IPureD=0 IPureF=0.
 Transformed matrix in CnvPC2: 
                 1             2             3             4             5 
      1   0.999758D+00  0.383883D+00  0.000000D+00  0.000000D+00  0.000000D+00
      2   0.271108D+00  0.991006D+00  0.000000D+00  0.000000D+00  0.000000D+00
      3   0.000000D+00  0.000000D+00  0.998810D+00  0.000000D+00  0.000000D+00
      4   0.000000D+00  0.000000D+00  0.000000D+00  0.998810D+00  0.000000D+00
      5   0.000000D+00  0.000000D+00  0.000000D+00  0.000000D+00  0.998810D+00
      6   0.832611D-02  0.296541D+00  0.000000D+00  0.000000D+00  0.000000D+00
      7   0.000000D+00  0.000000D+00  0.299493D+00  0.000000D+00  0.000000D+00
      8   0.000000D+00  0.000000D+00  0.000000D+00  0.299493D+00  0.000000D+00
      9   0.000000D+00  0.000000D+00  0.000000D+00  0.000000D+00  0.299493D+00
     10   0.000000D+00  0.000000D+00  0.000000D+00  0.000000D+00  0.000000D+00
     11   0.000000D+00  0.000000D+00  0.000000D+00  0.000000D+00  0.000000D+00
     12   0.000000D+00  0.000000D+00  0.000000D+00  0.000000D+00  0.000000D+00
     13   0.000000D+00  0.000000D+00  0.000000D+00  0.000000D+00  0.000000D+00
     14   0.000000D+00  0.000000D+00  0.000000D+00  0.000000D+00  0.000000D+00
     15   0.000000D+00  0.000000D+00  0.000000D+00  0.000000D+00  0.000000D+00
     16   0.000000D+00  0.000000D+00  0.000000D+00  0.000000D+00  0.000000D+00
     17   0.000000D+00  0.000000D+00  0.000000D+00  0.000000D+00  0.000000D+00
     18   0.000000D+00  0.000000D+00  0.000000D+00  0.000000D+00  0.000000D+00
     19   0.000000D+00  0.000000D+00  0.000000D+00  0.000000D+00  0.000000D+00
     20   0.000000D+00  0.000000D+00  0.000000D+00  0.000000D+00  0.000000D+00
     21   0.000000D+00  0.000000D+00  0.000000D+00  0.000000D+00  0.000000D+00
     22   0.000000D+00  0.000000D+00  0.000000D+00  0.000000D+00  0.000000D+00
     23   0.000000D+00  0.000000D+00  0.000000D+00  0.000000D+00  0.000000D+00
     24   0.000000D+00  0.000000D+00  0.000000D+00  0.000000D+00  0.000000D+00
     25  -0.186227D-03  0.218999D-02  0.000000D+00  0.000000D+00  0.000000D+00
     26   0.788010D-02  0.525191D-01  0.000000D+00  0.000000D+00  0.000000D+00
     27   0.378210D-02  0.253212D-01  0.000000D+00  0.000000D+00  0.000000D+00
     28   0.000000D+00  0.000000D+00 -0.777551D-01  0.000000D+00  0.000000D+00
     29   0.000000D+00  0.000000D+00  0.000000D+00 -0.777551D-01  0.000000D+00
     30   0.000000D+00  0.000000D+00  0.000000D+00  0.000000D+00 -0.777551D-01
     31   0.000000D+00  0.000000D+00  0.106471D-01  0.000000D+00  0.000000D+00
     32   0.000000D+00  0.000000D+00  0.000000D+00  0.106471D-01  0.000000D+00
     33   0.000000D+00  0.000000D+00  0.000000D+00  0.000000D+00  0.106471D-01
     34   0.000000D+00  0.000000D+00  0.214041D-02  0.000000D+00  0.000000D+00
     35   0.000000D+00  0.000000D+00  0.000000D+00  0.214041D-02  0.000000D+00
     36   0.000000D+00  0.000000D+00  0.000000D+00  0.000000D+00  0.214041D-02
     37   0.260505D+00  0.935915D+00  0.000000D+00  0.000000D+00  0.000000D+00
     38   0.165713D+00  0.767013D+00  0.000000D+00  0.000000D+00  0.000000D+00
     39   0.103407D+00  0.562987D+00  0.000000D+00  0.000000D+00  0.000000D+00
     40   0.638550D-01  0.382555D+00  0.000000D+00  0.000000D+00  0.000000D+00
     41   0.392124D-01  0.247787D+00  0.000000D+00  0.000000D+00  0.000000D+00
     42   0.240095D-01  0.156142D+00  0.000000D+00  0.000000D+00  0.000000D+00
     43   0.000000D+00  0.000000D+00  0.410438D+00  0.000000D+00  0.000000D+00
     44   0.000000D+00  0.000000D+00  0.000000D+00  0.410438D+00  0.000000D+00
     45   0.000000D+00  0.000000D+00  0.000000D+00  0.000000D+00  0.410438D+00
     46   0.000000D+00  0.000000D+00  0.255871D+00  0.000000D+00  0.000000D+00
     47   0.000000D+00  0.000000D+00  0.000000D+00  0.255871D+00  0.000000D+00
     48   0.000000D+00  0.000000D+00  0.000000D+00  0.000000D+00  0.255871D+00
     49   0.000000D+00  0.000000D+00  0.149112D+00  0.000000D+00  0.000000D+00
     50   0.000000D+00  0.000000D+00  0.000000D+00  0.149112D+00  0.000000D+00
     51   0.000000D+00  0.000000D+00  0.000000D+00  0.000000D+00  0.149112D+00
     52   0.000000D+00  0.000000D+00  0.829389D-01  0.000000D+00  0.000000D+00
     53   0.000000D+00  0.000000D+00  0.000000D+00  0.829389D-01  0.000000D+00
     54   0.000000D+00  0.000000D+00  0.000000D+00  0.000000D+00  0.829389D-01
     55   0.000000D+00  0.000000D+00  0.447537D-01  0.000000D+00  0.000000D+00
     56   0.000000D+00  0.000000D+00  0.000000D+00  0.447537D-01  0.000000D+00
     57   0.000000D+00  0.000000D+00  0.000000D+00  0.000000D+00  0.447537D-01
     58   0.000000D+00  0.000000D+00  0.236951D-01  0.000000D+00  0.000000D+00
     59   0.000000D+00  0.000000D+00  0.000000D+00  0.236951D-01  0.000000D+00
     60   0.000000D+00  0.000000D+00  0.000000D+00  0.000000D+00  0.236951D-01
     61   0.000000D+00  0.000000D+00  0.000000D+00  0.000000D+00  0.000000D+00
     62   0.000000D+00  0.000000D+00  0.000000D+00  0.000000D+00  0.000000D+00
     63   0.000000D+00  0.000000D+00  0.000000D+00  0.000000D+00  0.000000D+00
     64   0.000000D+00  0.000000D+00  0.000000D+00  0.000000D+00  0.000000D+00
     65   0.000000D+00  0.000000D+00  0.000000D+00  0.000000D+00  0.000000D+00
     66   0.000000D+00  0.000000D+00  0.000000D+00  0.000000D+00  0.000000D+00
     67   0.000000D+00  0.000000D+00  0.000000D+00  0.000000D+00  0.000000D+00
     68   0.000000D+00  0.000000D+00  0.000000D+00  0.000000D+00  0.000000D+00
     69   0.000000D+00  0.000000D+00  0.000000D+00  0.000000D+00  0.000000D+00
     70   0.000000D+00  0.000000D+00  0.000000D+00  0.000000D+00  0.000000D+00
     71   0.000000D+00  0.000000D+00  0.000000D+00  0.000000D+00  0.000000D+00
     72   0.000000D+00  0.000000D+00  0.000000D+00  0.000000D+00  0.000000D+00
     73   0.000000D+00  0.000000D+00  0.000000D+00  0.000000D+00  0.000000D+00
     74   0.000000D+00  0.000000D+00  0.000000D+00  0.000000D+00  0.000000D+00
     75   0.000000D+00  0.000000D+00  0.000000D+00  0.000000D+00  0.000000D+00
     76   0.000000D+00  0.000000D+00  0.000000D+00  0.000000D+00  0.000000D+00
     77   0.000000D+00  0.000000D+00  0.000000D+00  0.000000D+00  0.000000D+00
     78   0.000000D+00  0.000000D+00  0.000000D+00  0.000000D+00  0.000000D+00
     79   0.000000D+00  0.000000D+00  0.000000D+00  0.000000D+00  0.000000D+00
     80   0.000000D+00  0.000000D+00  0.000000D+00  0.000000D+00  0.000000D+00
     81   0.000000D+00  0.000000D+00  0.000000D+00  0.000000D+00  0.000000D+00
     82   0.000000D+00  0.000000D+00  0.000000D+00  0.000000D+00  0.000000D+00
     83   0.000000D+00  0.000000D+00  0.000000D+00  0.000000D+00  0.000000D+00
     84   0.000000D+00  0.000000D+00  0.000000D+00  0.000000D+00  0.000000D+00
     85   0.000000D+00  0.000000D+00  0.000000D+00  0.000000D+00  0.000000D+00
     86   0.000000D+00  0.000000D+00  0.000000D+00  0.000000D+00  0.000000D+00
     87   0.000000D+00  0.000000D+00  0.000000D+00  0.000000D+00  0.000000D+00
     88   0.000000D+00  0.000000D+00  0.000000D+00  0.000000D+00  0.000000D+00
     89   0.000000D+00  0.000000D+00  0.000000D+00  0.000000D+00  0.000000D+00
     90   0.000000D+00  0.000000D+00  0.000000D+00  0.000000D+00  0.000000D+00
     91   0.000000D+00  0.000000D+00  0.000000D+00  0.000000D+00  0.000000D+00
     92   0.000000D+00  0.000000D+00  0.000000D+00  0.000000D+00  0.000000D+00
     93   0.000000D+00  0.000000D+00  0.000000D+00  0.000000D+00  0.000000D+00
     94   0.000000D+00  0.000000D+00  0.000000D+00  0.000000D+00  0.000000D+00
     95   0.000000D+00  0.000000D+00  0.000000D+00  0.000000D+00  0.000000D+00
     96   0.000000D+00  0.000000D+00  0.000000D+00  0.000000D+00  0.000000D+00
     97   0.000000D+00  0.000000D+00  0.000000D+00  0.000000D+00  0.000000D+00
     98   0.000000D+00  0.000000D+00  0.000000D+00  0.000000D+00  0.000000D+00
     99   0.000000D+00  0.000000D+00  0.000000D+00  0.000000D+00  0.000000D+00
    100   0.000000D+00  0.000000D+00  0.000000D+00  0.000000D+00  0.000000D+00
    101   0.000000D+00  0.000000D+00  0.000000D+00  0.000000D+00  0.000000D+00
    102   0.000000D+00  0.000000D+00  0.000000D+00  0.000000D+00  0.000000D+00
    103   0.000000D+00  0.000000D+00  0.000000D+00  0.000000D+00  0.000000D+00
    104   0.000000D+00  0.000000D+00  0.000000D+00  0.000000D+00  0.000000D+00
    105   0.000000D+00  0.000000D+00  0.000000D+00  0.000000D+00  0.000000D+00
    106   0.000000D+00  0.000000D+00  0.000000D+00  0.000000D+00  0.000000D+00
    107   0.000000D+00  0.000000D+00  0.000000D+00  0.000000D+00  0.000000D+00
    108   0.000000D+00  0.000000D+00  0.000000D+00  0.000000D+00  0.000000D+00
    109   0.000000D+00  0.000000D+00  0.000000D+00  0.000000D+00  0.000000D+00
    110   0.000000D+00  0.000000D+00  0.000000D+00  0.000000D+00  0.000000D+00
    111   0.000000D+00  0.000000D+00  0.000000D+00  0.000000D+00  0.000000D+00
    112   0.000000D+00  0.000000D+00  0.000000D+00  0.000000D+00  0.000000D+00
    113   0.000000D+00  0.000000D+00  0.000000D+00  0.000000D+00  0.000000D+00
    114   0.000000D+00  0.000000D+00  0.000000D+00  0.000000D+00  0.000000D+00
    115   0.000000D+00  0.000000D+00  0.000000D+00  0.000000D+00  0.000000D+00
    116   0.000000D+00  0.000000D+00  0.000000D+00  0.000000D+00  0.000000D+00
    117   0.000000D+00  0.000000D+00  0.000000D+00  0.000000D+00  0.000000D+00
    118   0.000000D+00  0.000000D+00  0.000000D+00  0.000000D+00  0.000000D+00
    119   0.000000D+00  0.000000D+00  0.000000D+00  0.000000D+00  0.000000D+00
    120   0.000000D+00  0.000000D+00  0.000000D+00  0.000000D+00  0.000000D+00
    121   0.000000D+00  0.000000D+00  0.000000D+00  0.000000D+00  0.000000D+00
    122   0.000000D+00  0.000000D+00  0.000000D+00  0.000000D+00  0.000000D+00
    123   0.000000D+00  0.000000D+00  0.000000D+00  0.000000D+00  0.000000D+00
    124   0.000000D+00  0.000000D+00  0.000000D+00  0.000000D+00  0.000000D+00
    125   0.000000D+00  0.000000D+00  0.000000D+00  0.000000D+00  0.000000D+00
    126   0.000000D+00  0.000000D+00  0.000000D+00  0.000000D+00  0.000000D+00
    127   0.000000D+00  0.000000D+00  0.000000D+00  0.000000D+00  0.000000D+00
    128   0.000000D+00  0.000000D+00  0.000000D+00  0.000000D+00  0.000000D+00
    129   0.000000D+00  0.000000D+00  0.000000D+00  0.000000D+00  0.000000D+00
    130   0.000000D+00  0.000000D+00  0.000000D+00  0.000000D+00  0.000000D+00
    131   0.000000D+00  0.000000D+00  0.000000D+00  0.000000D+00  0.000000D+00
    132   0.000000D+00  0.000000D+00  0.000000D+00  0.000000D+00  0.000000D+00
    133   0.000000D+00  0.000000D+00  0.000000D+00  0.000000D+00  0.000000D+00
    134   0.000000D+00  0.000000D+00  0.000000D+00  0.000000D+00  0.000000D+00
    135   0.000000D+00  0.000000D+00  0.000000D+00  0.000000D+00  0.000000D+00
    136   0.000000D+00  0.000000D+00  0.000000D+00  0.000000D+00  0.000000D+00
    137   0.000000D+00  0.000000D+00  0.000000D+00  0.000000D+00  0.000000D+00
    138   0.000000D+00  0.000000D+00  0.000000D+00  0.000000D+00  0.000000D+00
    139   0.000000D+00  0.000000D+00  0.000000D+00  0.000000D+00  0.000000D+00
    140   0.000000D+00  0.000000D+00  0.000000D+00  0.000000D+00  0.000000D+00
    141   0.000000D+00  0.000000D+00  0.000000D+00  0.000000D+00  0.000000D+00
    142   0.000000D+00  0.000000D+00  0.000000D+00  0.000000D+00  0.000000D+00
    143   0.000000D+00  0.000000D+00  0.000000D+00  0.000000D+00  0.000000D+00
    144   0.000000D+00  0.000000D+00  0.000000D+00  0.000000D+00  0.000000D+00
    145   0.000000D+00  0.000000D+00  0.000000D+00  0.000000D+00  0.000000D+00
    146   0.000000D+00  0.000000D+00  0.000000D+00  0.000000D+00  0.000000D+00
    147   0.000000D+00  0.000000D+00  0.000000D+00  0.000000D+00  0.000000D+00
    148   0.000000D+00  0.000000D+00  0.000000D+00  0.000000D+00  0.000000D+00
    149   0.000000D+00  0.000000D+00  0.000000D+00  0.000000D+00  0.000000D+00
    150   0.000000D+00  0.000000D+00  0.000000D+00  0.000000D+00  0.000000D+00
    151   0.000000D+00  0.000000D+00  0.000000D+00  0.000000D+00  0.000000D+00
    152   0.000000D+00  0.000000D+00  0.000000D+00  0.000000D+00  0.000000D+00
    153   0.000000D+00  0.000000D+00  0.000000D+00  0.000000D+00  0.000000D+00
    154   0.000000D+00  0.000000D+00  0.000000D+00  0.000000D+00  0.000000D+00
    155   0.000000D+00  0.000000D+00  0.000000D+00  0.000000D+00  0.000000D+00
    156   0.000000D+00  0.000000D+00  0.000000D+00  0.000000D+00  0.000000D+00
    157   0.000000D+00  0.000000D+00  0.000000D+00  0.000000D+00  0.000000D+00
    158   0.000000D+00  0.000000D+00  0.000000D+00  0.000000D+00  0.000000D+00
    159   0.000000D+00  0.000000D+00  0.000000D+00  0.000000D+00  0.000000D+00
    160   0.000000D+00  0.000000D+00  0.000000D+00  0.000000D+00  0.000000D+00
    161   0.000000D+00  0.000000D+00  0.000000D+00  0.000000D+00  0.000000D+00
    162   0.000000D+00  0.000000D+00  0.000000D+00  0.000000D+00  0.000000D+00
    163   0.000000D+00  0.000000D+00  0.000000D+00  0.000000D+00  0.000000D+00
    164   0.000000D+00  0.000000D+00  0.000000D+00  0.000000D+00  0.000000D+00
    165   0.000000D+00  0.000000D+00  0.000000D+00  0.000000D+00  0.000000D+00
    166   0.000000D+00  0.000000D+00  0.000000D+00  0.000000D+00  0.000000D+00
    167   0.000000D+00  0.000000D+00  0.000000D+00  0.000000D+00  0.000000D+00
    168   0.000000D+00  0.000000D+00  0.000000D+00  0.000000D+00  0.000000D+00
    169   0.000000D+00  0.000000D+00  0.000000D+00  0.000000D+00  0.000000D+00
    170   0.000000D+00  0.000000D+00  0.000000D+00  0.000000D+00  0.000000D+00
    171   0.000000D+00  0.000000D+00  0.000000D+00  0.000000D+00  0.000000D+00
    172   0.000000D+00  0.000000D+00  0.000000D+00  0.000000D+00  0.000000D+00
    173   0.000000D+00  0.000000D+00  0.000000D+00  0.000000D+00  0.000000D+00
    174   0.000000D+00  0.000000D+00  0.000000D+00  0.000000D+00  0.000000D+00
    175   0.000000D+00  0.000000D+00  0.000000D+00  0.000000D+00  0.000000D+00
    176   0.000000D+00  0.000000D+00  0.000000D+00  0.000000D+00  0.000000D+00
    177   0.000000D+00  0.000000D+00  0.000000D+00  0.000000D+00  0.000000D+00
    178   0.000000D+00  0.000000D+00  0.000000D+00  0.000000D+00  0.000000D+00
    179   0.000000D+00  0.000000D+00  0.000000D+00  0.000000D+00  0.000000D+00
    180   0.000000D+00  0.000000D+00  0.000000D+00  0.000000D+00  0.000000D+00
    181   0.000000D+00  0.000000D+00  0.000000D+00  0.000000D+00  0.000000D+00
    182   0.000000D+00  0.000000D+00  0.000000D+00  0.000000D+00  0.000000D+00
    183   0.000000D+00  0.000000D+00  0.000000D+00  0.000000D+00  0.000000D+00
    184   0.000000D+00  0.000000D+00  0.000000D+00  0.000000D+00  0.000000D+00
    185   0.000000D+00  0.000000D+00  0.000000D+00  0.000000D+00  0.000000D+00
    186   0.000000D+00  0.000000D+00  0.000000D+00  0.000000D+00  0.000000D+00
    187   0.000000D+00  0.000000D+00  0.000000D+00  0.000000D+00  0.000000D+00
    188   0.000000D+00  0.000000D+00  0.000000D+00  0.000000D+00  0.000000D+00
    189   0.000000D+00  0.000000D+00  0.000000D+00  0.000000D+00  0.000000D+00
    190   0.000000D+00  0.000000D+00  0.000000D+00  0.000000D+00  0.000000D+00
    191   0.000000D+00  0.000000D+00  0.000000D+00  0.000000D+00  0.000000D+00
    192   0.000000D+00  0.000000D+00  0.000000D+00  0.000000D+00  0.000000D+00
    193   0.000000D+00  0.000000D+00  0.000000D+00  0.000000D+00  0.000000D+00
    194   0.000000D+00  0.000000D+00  0.000000D+00  0.000000D+00  0.000000D+00
    195   0.000000D+00  0.000000D+00  0.000000D+00  0.000000D+00  0.000000D+00
    196   0.000000D+00  0.000000D+00  0.000000D+00  0.000000D+00  0.000000D+00
    197   0.000000D+00  0.000000D+00  0.000000D+00  0.000000D+00  0.000000D+00
    198   0.000000D+00  0.000000D+00  0.000000D+00  0.000000D+00  0.000000D+00
    199   0.000000D+00  0.000000D+00  0.000000D+00  0.000000D+00  0.000000D+00
    200   0.000000D+00  0.000000D+00  0.000000D+00  0.000000D+00  0.000000D+00
    201   0.000000D+00  0.000000D+00  0.000000D+00  0.000000D+00  0.000000D+00
    202   0.000000D+00  0.000000D+00  0.000000D+00  0.000000D+00  0.000000D+00
    203   0.000000D+00  0.000000D+00  0.000000D+00  0.000000D+00  0.000000D+00
    204   0.000000D+00  0.000000D+00  0.000000D+00  0.000000D+00  0.000000D+00
    205   0.000000D+00  0.000000D+00  0.000000D+00  0.000000D+00  0.000000D+00
    206   0.000000D+00  0.000000D+00  0.000000D+00  0.000000D+00  0.000000D+00
    207   0.000000D+00  0.000000D+00  0.000000D+00  0.000000D+00  0.000000D+00
    208   0.000000D+00  0.000000D+00  0.000000D+00  0.000000D+00  0.000000D+00
    209   0.000000D+00  0.000000D+00  0.000000D+00  0.000000D+00  0.000000D+00
    210   0.000000D+00  0.000000D+00  0.000000D+00  0.000000D+00  0.000000D+00
    211   0.000000D+00  0.000000D+00  0.000000D+00  0.000000D+00  0.000000D+00
    212   0.000000D+00  0.000000D+00  0.000000D+00  0.000000D+00  0.000000D+00
    213   0.000000D+00  0.000000D+00  0.000000D+00  0.000000D+00  0.000000D+00
    214   0.000000D+00  0.000000D+00  0.000000D+00  0.000000D+00  0.000000D+00
    215   0.000000D+00  0.000000D+00  0.000000D+00  0.000000D+00  0.000000D+00
    216   0.000000D+00  0.000000D+00  0.000000D+00  0.000000D+00  0.000000D+00
    217   0.000000D+00  0.000000D+00  0.000000D+00  0.000000D+00  0.000000D+00
    218   0.000000D+00  0.000000D+00  0.000000D+00  0.000000D+00  0.000000D+00
    219   0.000000D+00  0.000000D+00  0.000000D+00  0.000000D+00  0.000000D+00
    220   0.000000D+00  0.000000D+00  0.000000D+00  0.000000D+00  0.000000D+00
    221   0.000000D+00  0.000000D+00  0.000000D+00  0.000000D+00  0.000000D+00
    222   0.000000D+00  0.000000D+00  0.000000D+00  0.000000D+00  0.000000D+00
    223   0.000000D+00  0.000000D+00  0.000000D+00  0.000000D+00  0.000000D+00
    224   0.000000D+00  0.000000D+00  0.000000D+00  0.000000D+00  0.000000D+00
    225   0.000000D+00  0.000000D+00  0.000000D+00  0.000000D+00  0.000000D+00
    226   0.000000D+00  0.000000D+00  0.000000D+00  0.000000D+00  0.000000D+00
    227   0.000000D+00  0.000000D+00  0.000000D+00  0.000000D+00  0.000000D+00
    228   0.000000D+00  0.000000D+00  0.000000D+00  0.000000D+00  0.000000D+00
    229   0.000000D+00  0.000000D+00  0.000000D+00  0.000000D+00  0.000000D+00
    230   0.000000D+00  0.000000D+00  0.000000D+00  0.000000D+00  0.000000D+00
    231   0.000000D+00  0.000000D+00  0.000000D+00  0.000000D+00  0.000000D+00
    232   0.000000D+00  0.000000D+00  0.000000D+00  0.000000D+00  0.000000D+00
    233   0.000000D+00  0.000000D+00  0.000000D+00  0.000000D+00  0.000000D+00
    234   0.000000D+00  0.000000D+00  0.000000D+00  0.000000D+00  0.000000D+00
    235   0.000000D+00  0.000000D+00  0.000000D+00  0.000000D+00  0.000000D+00
    236   0.000000D+00  0.000000D+00  0.000000D+00  0.000000D+00  0.000000D+00
    237   0.000000D+00  0.000000D+00  0.000000D+00  0.000000D+00  0.000000D+00
    238   0.000000D+00  0.000000D+00  0.000000D+00  0.000000D+00  0.000000D+00
    239   0.000000D+00  0.000000D+00  0.000000D+00  0.000000D+00  0.000000D+00
    240   0.000000D+00  0.000000D+00  0.000000D+00  0.000000D+00  0.000000D+00
    241   0.000000D+00  0.000000D+00  0.000000D+00  0.000000D+00  0.000000D+00
    242   0.000000D+00  0.000000D+00  0.000000D+00  0.000000D+00  0.000000D+00
    243   0.000000D+00  0.000000D+00  0.000000D+00  0.000000D+00  0.000000D+00
    244   0.000000D+00  0.000000D+00  0.000000D+00  0.000000D+00  0.000000D+00
    245   0.000000D+00  0.000000D+00  0.000000D+00  0.000000D+00  0.000000D+00
    246   0.000000D+00  0.000000D+00  0.000000D+00  0.000000D+00  0.000000D+00
    247   0.000000D+00  0.000000D+00  0.000000D+00  0.000000D+00  0.000000D+00
    248   0.000000D+00  0.000000D+00  0.000000D+00  0.000000D+00  0.000000D+00
    249   0.000000D+00  0.000000D+00  0.000000D+00  0.000000D+00  0.000000D+00
    250   0.000000D+00  0.000000D+00  0.000000D+00  0.000000D+00  0.000000D+00
    251   0.000000D+00  0.000000D+00  0.000000D+00  0.000000D+00  0.000000D+00
    252   0.000000D+00  0.000000D+00  0.000000D+00  0.000000D+00  0.000000D+00
    253   0.000000D+00  0.000000D+00  0.000000D+00  0.000000D+00  0.000000D+00
    254   0.000000D+00  0.000000D+00  0.000000D+00  0.000000D+00  0.000000D+00
    255   0.000000D+00  0.000000D+00  0.000000D+00  0.000000D+00  0.000000D+00
    256   0.000000D+00  0.000000D+00  0.000000D+00  0.000000D+00  0.000000D+00
    257   0.000000D+00  0.000000D+00  0.000000D+00  0.000000D+00  0.000000D+00
    258   0.000000D+00  0.000000D+00  0.000000D+00  0.000000D+00  0.000000D+00
    259   0.000000D+00  0.000000D+00  0.000000D+00  0.000000D+00  0.000000D+00
    260   0.000000D+00  0.000000D+00  0.000000D+00  0.000000D+00  0.000000D+00
    261   0.000000D+00  0.000000D+00  0.000000D+00  0.000000D+00  0.000000D+00
    262   0.000000D+00  0.000000D+00  0.000000D+00  0.000000D+00  0.000000D+00
    263   0.000000D+00  0.000000D+00  0.000000D+00  0.000000D+00  0.000000D+00
    264   0.000000D+00  0.000000D+00  0.000000D+00  0.000000D+00  0.000000D+00
    265   0.000000D+00  0.000000D+00  0.000000D+00  0.000000D+00  0.000000D+00
    266   0.000000D+00  0.000000D+00  0.000000D+00  0.000000D+00  0.000000D+00
    267   0.000000D+00  0.000000D+00  0.000000D+00  0.000000D+00  0.000000D+00
    268   0.000000D+00  0.000000D+00  0.000000D+00  0.000000D+00  0.000000D+00
    269   0.000000D+00  0.000000D+00  0.000000D+00  0.000000D+00  0.000000D+00
    270   0.000000D+00  0.000000D+00  0.000000D+00  0.000000D+00  0.000000D+00
    271   0.000000D+00  0.000000D+00  0.000000D+00  0.000000D+00  0.000000D+00
    272   0.000000D+00  0.000000D+00  0.000000D+00  0.000000D+00  0.000000D+00
    273   0.000000D+00  0.000000D+00  0.000000D+00  0.000000D+00  0.000000D+00
    274   0.000000D+00  0.000000D+00  0.000000D+00  0.000000D+00  0.000000D+00
    275   0.000000D+00  0.000000D+00  0.000000D+00  0.000000D+00  0.000000D+00
    276   0.000000D+00  0.000000D+00  0.000000D+00  0.000000D+00  0.000000D+00
    277   0.000000D+00  0.000000D+00  0.000000D+00  0.000000D+00  0.000000D+00
    278   0.000000D+00  0.000000D+00  0.000000D+00  0.000000D+00  0.000000D+00
    279   0.000000D+00  0.000000D+00  0.000000D+00  0.000000D+00  0.000000D+00
    280   0.000000D+00  0.000000D+00  0.000000D+00  0.000000D+00  0.000000D+00
    281   0.000000D+00  0.000000D+00  0.000000D+00  0.000000D+00  0.000000D+00
    282   0.000000D+00  0.000000D+00  0.000000D+00  0.000000D+00  0.000000D+00
    283   0.000000D+00  0.000000D+00  0.000000D+00  0.000000D+00  0.000000D+00
    284   0.000000D+00  0.000000D+00  0.000000D+00  0.000000D+00  0.000000D+00
    285   0.000000D+00  0.000000D+00  0.000000D+00  0.000000D+00  0.000000D+00
    286   0.000000D+00  0.000000D+00  0.000000D+00  0.000000D+00  0.000000D+00
    287   0.000000D+00  0.000000D+00  0.000000D+00  0.000000D+00  0.000000D+00
    288   0.000000D+00  0.000000D+00  0.000000D+00  0.000000D+00  0.000000D+00
    289   0.000000D+00  0.000000D+00  0.000000D+00  0.000000D+00  0.000000D+00
    290   0.000000D+00  0.000000D+00  0.000000D+00  0.000000D+00  0.000000D+00
    291   0.000000D+00  0.000000D+00  0.000000D+00  0.000000D+00  0.000000D+00
    292   0.000000D+00  0.000000D+00  0.000000D+00  0.000000D+00  0.000000D+00
    293   0.000000D+00  0.000000D+00  0.000000D+00  0.000000D+00  0.000000D+00
    294   0.000000D+00  0.000000D+00  0.000000D+00  0.000000D+00  0.000000D+00
    295   0.000000D+00  0.000000D+00  0.000000D+00  0.000000D+00  0.000000D+00
    296   0.000000D+00  0.000000D+00  0.000000D+00  0.000000D+00  0.000000D+00
    297   0.000000D+00  0.000000D+00  0.000000D+00  0.000000D+00  0.000000D+00
    298   0.000000D+00  0.000000D+00  0.000000D+00  0.000000D+00  0.000000D+00
    299   0.000000D+00  0.000000D+00  0.000000D+00  0.000000D+00  0.000000D+00
    300   0.000000D+00  0.000000D+00  0.000000D+00  0.000000D+00  0.000000D+00
    301   0.000000D+00  0.000000D+00  0.000000D+00  0.000000D+00  0.000000D+00
    302   0.000000D+00  0.000000D+00  0.000000D+00  0.000000D+00  0.000000D+00
    303   0.000000D+00  0.000000D+00  0.000000D+00  0.000000D+00  0.000000D+00
    304   0.000000D+00  0.000000D+00  0.000000D+00  0.000000D+00  0.000000D+00
    305   0.000000D+00  0.000000D+00  0.000000D+00  0.000000D+00  0.000000D+00
    306   0.000000D+00  0.000000D+00  0.000000D+00  0.000000D+00  0.000000D+00
    307   0.000000D+00  0.000000D+00  0.000000D+00  0.000000D+00  0.000000D+00
    308   0.000000D+00  0.000000D+00  0.000000D+00  0.000000D+00  0.000000D+00
    309   0.000000D+00  0.000000D+00  0.000000D+00  0.000000D+00  0.000000D+00
    310   0.000000D+00  0.000000D+00  0.000000D+00  0.000000D+00  0.000000D+00
    311   0.000000D+00  0.000000D+00  0.000000D+00  0.000000D+00  0.000000D+00
    312   0.000000D+00  0.000000D+00  0.000000D+00  0.000000D+00  0.000000D+00
    313   0.000000D+00  0.000000D+00  0.000000D+00  0.000000D+00  0.000000D+00
    314   0.000000D+00  0.000000D+00  0.000000D+00  0.000000D+00  0.000000D+00
    315   0.000000D+00  0.000000D+00  0.000000D+00  0.000000D+00  0.000000D+00
    316   0.000000D+00  0.000000D+00  0.000000D+00  0.000000D+00  0.000000D+00
    317   0.000000D+00  0.000000D+00  0.000000D+00  0.000000D+00  0.000000D+00
    318   0.000000D+00  0.000000D+00  0.000000D+00  0.000000D+00  0.000000D+00
    319   0.000000D+00  0.000000D+00  0.000000D+00  0.000000D+00  0.000000D+00
    320   0.000000D+00  0.000000D+00  0.000000D+00  0.000000D+00  0.000000D+00
    321   0.000000D+00  0.000000D+00  0.000000D+00  0.000000D+00  0.000000D+00
    322   0.000000D+00  0.000000D+00  0.000000D+00  0.000000D+00  0.000000D+00
    323   0.000000D+00  0.000000D+00  0.000000D+00  0.000000D+00  0.000000D+00
    324   0.000000D+00  0.000000D+00  0.000000D+00  0.000000D+00  0.000000D+00
    325   0.000000D+00  0.000000D+00  0.000000D+00  0.000000D+00  0.000000D+00
    326   0.000000D+00  0.000000D+00  0.000000D+00  0.000000D+00  0.000000D+00
    327   0.000000D+00  0.000000D+00  0.000000D+00  0.000000D+00  0.000000D+00
    328   0.000000D+00  0.000000D+00  0.000000D+00  0.000000D+00  0.000000D+00
    329   0.000000D+00  0.000000D+00  0.000000D+00  0.000000D+00  0.000000D+00
    330   0.000000D+00  0.000000D+00  0.000000D+00  0.000000D+00  0.000000D+00
    331   0.000000D+00  0.000000D+00  0.000000D+00  0.000000D+00  0.000000D+00
    332   0.000000D+00  0.000000D+00  0.000000D+00  0.000000D+00  0.000000D+00
    333   0.000000D+00  0.000000D+00  0.000000D+00  0.000000D+00  0.000000D+00
    334   0.000000D+00  0.000000D+00  0.000000D+00  0.000000D+00  0.000000D+00
    335   0.000000D+00  0.000000D+00  0.000000D+00  0.000000D+00  0.000000D+00
    336   0.000000D+00  0.000000D+00  0.000000D+00  0.000000D+00  0.000000D+00
    337   0.000000D+00  0.000000D+00  0.000000D+00  0.000000D+00  0.000000D+00
    338   0.000000D+00  0.000000D+00  0.000000D+00  0.000000D+00  0.000000D+00
    339   0.000000D+00  0.000000D+00  0.000000D+00  0.000000D+00  0.000000D+00
    340   0.000000D+00  0.000000D+00  0.000000D+00  0.000000D+00  0.000000D+00
    341   0.000000D+00  0.000000D+00  0.000000D+00  0.000000D+00  0.000000D+00
    342   0.000000D+00  0.000000D+00  0.000000D+00  0.000000D+00  0.000000D+00
    343   0.000000D+00  0.000000D+00  0.000000D+00  0.000000D+00  0.000000D+00
    344   0.000000D+00  0.000000D+00  0.000000D+00  0.000000D+00  0.000000D+00
    345   0.000000D+00  0.000000D+00  0.000000D+00  0.000000D+00  0.000000D+00
    346   0.000000D+00  0.000000D+00  0.000000D+00  0.000000D+00  0.000000D+00
    347   0.000000D+00  0.000000D+00  0.000000D+00  0.000000D+00  0.000000D+00
    348   0.000000D+00  0.000000D+00  0.000000D+00  0.000000D+00  0.000000D+00
    349   0.000000D+00  0.000000D+00  0.000000D+00  0.000000D+00  0.000000D+00
    350   0.000000D+00  0.000000D+00  0.000000D+00  0.000000D+00  0.000000D+00
    351   0.000000D+00  0.000000D+00  0.000000D+00  0.000000D+00  0.000000D+00
    352   0.000000D+00  0.000000D+00  0.000000D+00  0.000000D+00  0.000000D+00
    353   0.000000D+00  0.000000D+00  0.000000D+00  0.000000D+00  0.000000D+00
    354   0.000000D+00  0.000000D+00  0.000000D+00  0.000000D+00  0.000000D+00
    355   0.000000D+00  0.000000D+00  0.000000D+00  0.000000D+00  0.000000D+00
    356   0.000000D+00  0.000000D+00  0.000000D+00  0.000000D+00  0.000000D+00
    357   0.000000D+00  0.000000D+00  0.000000D+00  0.000000D+00  0.000000D+00
    358   0.000000D+00  0.000000D+00  0.000000D+00  0.000000D+00  0.000000D+00
    359   0.000000D+00  0.000000D+00  0.000000D+00  0.000000D+00  0.000000D+00
    360   0.000000D+00  0.000000D+00  0.000000D+00  0.000000D+00  0.000000D+00
    361   0.000000D+00  0.000000D+00  0.000000D+00  0.000000D+00  0.000000D+00
    362   0.000000D+00  0.000000D+00  0.000000D+00  0.000000D+00  0.000000D+00
    363   0.000000D+00  0.000000D+00  0.000000D+00  0.000000D+00  0.000000D+00
    364   0.415579D-03  0.301525D-02  0.000000D+00  0.000000D+00 -0.143104D-02
    365   0.526016D-02  0.351612D-01  0.000000D+00  0.000000D+00 -0.644308D-02
    366   0.000000D+00  0.000000D+00  0.981897D-03  0.000000D+00  0.000000D+00
    367   0.000000D+00  0.000000D+00  0.000000D+00  0.981897D-03  0.000000D+00
    368   0.184259D-02  0.127308D-01  0.000000D+00  0.000000D+00 -0.443162D-02
    369   0.000000D+00  0.000000D+00  0.476018D-02  0.000000D+00  0.000000D+00
    370   0.000000D+00  0.000000D+00  0.000000D+00  0.476018D-02  0.000000D+00
    371   0.928617D-02  0.614732D-01  0.000000D+00  0.000000D+00 -0.139197D-02
    372   0.000000D+00  0.000000D+00  0.000000D+00  0.000000D+00  0.000000D+00
    373   0.000000D+00  0.000000D+00  0.000000D+00  0.000000D+00  0.000000D+00
    374   0.000000D+00  0.000000D+00  0.000000D+00  0.000000D+00  0.000000D+00
    375   0.000000D+00  0.121515D-04  0.000000D+00  0.000000D+00 -0.185315D-04
    376   0.185486D-03  0.161731D-02  0.000000D+00  0.000000D+00 -0.131527D-02
    377   0.224820D-02  0.156041D-01  0.000000D+00  0.000000D+00 -0.617843D-02
    378   0.000000D+00  0.000000D+00  0.000000D+00  0.000000D+00  0.000000D+00
    379   0.000000D+00  0.000000D+00  0.000000D+00  0.000000D+00  0.000000D+00
    380   0.000000D+00  0.000000D+00  0.000000D+00  0.000000D+00  0.000000D+00
    381   0.000000D+00  0.000000D+00  0.000000D+00  0.000000D+00  0.000000D+00
    382   0.000000D+00  0.000000D+00  0.000000D+00  0.000000D+00  0.000000D+00
    383   0.000000D+00  0.000000D+00  0.000000D+00  0.000000D+00  0.000000D+00
    384   0.000000D+00  0.000000D+00  0.000000D+00  0.000000D+00  0.000000D+00
    385   0.000000D+00  0.000000D+00  0.000000D+00  0.000000D+00  0.000000D+00
    386   0.000000D+00  0.405125D-05  0.000000D+00  0.000000D+00 -0.748418D-05
    387   0.000000D+00  0.000000D+00  0.127348D-03  0.000000D+00  0.000000D+00
    388   0.000000D+00  0.000000D+00  0.000000D+00  0.127348D-03  0.000000D+00
    389   0.164623D-03  0.170437D-02  0.000000D+00  0.000000D+00 -0.169474D-02
    390   0.000000D+00  0.000000D+00  0.222869D-02  0.000000D+00  0.000000D+00
    391   0.000000D+00  0.000000D+00  0.000000D+00  0.222869D-02  0.000000D+00
    392   0.413360D-02  0.289278D-01  0.000000D+00  0.000000D+00 -0.131896D-01
    393   0.000000D+00  0.000000D+00  0.558102D-02  0.000000D+00  0.000000D+00
    394   0.000000D+00  0.000000D+00  0.000000D+00  0.558102D-02  0.000000D+00
    395   0.109119D-01  0.720562D-01  0.000000D+00  0.000000D+00 -0.125647D-01
    396   0.000000D+00  0.000000D+00  0.000000D+00  0.000000D+00  0.000000D+00
    397   0.000000D+00  0.000000D+00  0.000000D+00  0.000000D+00  0.000000D+00
    398   0.000000D+00  0.000000D+00  0.000000D+00  0.000000D+00  0.000000D+00
    399   0.000000D+00  0.000000D+00  0.000000D+00  0.000000D+00  0.000000D+00
    400   0.000000D+00  0.000000D+00  0.000000D+00  0.000000D+00  0.000000D+00
    401   0.000000D+00  0.000000D+00  0.000000D+00  0.000000D+00  0.000000D+00
    402   0.000000D+00  0.000000D+00  0.000000D+00  0.000000D+00  0.000000D+00
    403   0.000000D+00  0.000000D+00  0.000000D+00  0.000000D+00  0.000000D+00
    404   0.000000D+00  0.000000D+00  0.000000D+00  0.000000D+00  0.000000D+00
    405   0.000000D+00  0.000000D+00  0.000000D+00  0.000000D+00  0.000000D+00
    406   0.000000D+00  0.000000D+00  0.000000D+00  0.000000D+00  0.000000D+00
    407   0.000000D+00  0.000000D+00  0.000000D+00  0.000000D+00  0.000000D+00
    408   0.000000D+00  0.000000D+00  0.000000D+00  0.000000D+00  0.000000D+00
    409   0.000000D+00  0.000000D+00  0.000000D+00  0.000000D+00  0.000000D+00
    410   0.000000D+00  0.000000D+00  0.000000D+00  0.000000D+00  0.000000D+00
    411   0.000000D+00  0.249271D-05  0.000000D+00  0.000000D+00 -0.506091D-05
    412   0.000000D+00  0.000000D+00  0.000000D+00  0.000000D+00  0.000000D+00
    413   0.000000D+00  0.000000D+00  0.000000D+00  0.000000D+00  0.000000D+00
    414   0.000000D+00  0.000000D+00  0.000000D+00  0.000000D+00  0.000000D+00
    415   0.000000D+00  0.000000D+00  0.000000D+00  0.000000D+00  0.000000D+00
    416   0.141333D-03  0.168557D-02  0.000000D+00  0.000000D+00 -0.187650D-02
    417   0.000000D+00  0.000000D+00  0.216194D-03  0.000000D+00  0.000000D+00
    418   0.000000D+00  0.000000D+00  0.000000D+00  0.216194D-03  0.000000D+00
    419   0.000000D+00  0.000000D+00  0.000000D+00  0.000000D+00  0.000000D+00
    420   0.000000D+00  0.000000D+00  0.000000D+00  0.000000D+00  0.000000D+00
    421   0.553788D-02  0.387820D-01  0.000000D+00  0.000000D+00 -0.194442D-01
    422   0.000000D+00  0.000000D+00  0.517518D-02  0.000000D+00  0.000000D+00
    423   0.000000D+00  0.000000D+00  0.000000D+00  0.517518D-02  0.000000D+00
    424   0.000000D+00  0.000000D+00  0.000000D+00  0.000000D+00  0.000000D+00
    425   0.000000D+00  0.000000D+00  0.000000D+00  0.000000D+00  0.000000D+00
    426   0.157264D-01  0.101993D+00  0.000000D+00  0.000000D+00 -0.166706D-01
    427   0.000000D+00  0.000000D+00  0.137063D-01  0.000000D+00  0.000000D+00
    428   0.000000D+00  0.000000D+00  0.000000D+00  0.137063D-01  0.000000D+00
    429   0.000000D+00  0.000000D+00  0.000000D+00  0.000000D+00  0.000000D+00
    430   0.000000D+00  0.000000D+00  0.000000D+00  0.000000D+00  0.000000D+00
    431   0.000000D+00  0.000000D+00  0.000000D+00  0.000000D+00  0.000000D+00
    432   0.000000D+00  0.000000D+00  0.000000D+00  0.000000D+00  0.000000D+00
    433   0.000000D+00  0.000000D+00  0.000000D+00  0.000000D+00  0.000000D+00
    434   0.000000D+00  0.000000D+00  0.000000D+00  0.000000D+00  0.000000D+00
    435   0.000000D+00  0.000000D+00  0.000000D+00  0.000000D+00  0.000000D+00
    436   0.000000D+00  0.000000D+00  0.000000D+00  0.000000D+00  0.000000D+00
    437   0.000000D+00  0.000000D+00  0.000000D+00  0.000000D+00  0.000000D+00
    438   0.000000D+00  0.000000D+00  0.000000D+00  0.000000D+00  0.000000D+00
    439   0.000000D+00  0.000000D+00  0.000000D+00  0.000000D+00  0.000000D+00
    440   0.000000D+00  0.000000D+00  0.000000D+00  0.000000D+00  0.000000D+00
    441   0.000000D+00  0.000000D+00  0.000000D+00  0.000000D+00  0.000000D+00
    442   0.000000D+00  0.000000D+00  0.000000D+00  0.000000D+00  0.000000D+00
    443   0.000000D+00  0.000000D+00  0.000000D+00  0.000000D+00  0.000000D+00
    444   0.000000D+00  0.000000D+00  0.000000D+00  0.000000D+00  0.000000D+00
    445   0.000000D+00  0.000000D+00  0.000000D+00  0.000000D+00  0.000000D+00
    446   0.000000D+00  0.000000D+00  0.000000D+00  0.000000D+00  0.000000D+00
    447   0.000000D+00  0.000000D+00  0.000000D+00  0.000000D+00  0.000000D+00
    448   0.000000D+00  0.000000D+00  0.000000D+00  0.000000D+00  0.000000D+00
    449   0.000000D+00  0.000000D+00  0.000000D+00  0.000000D+00  0.000000D+00
    450   0.000000D+00  0.000000D+00  0.000000D+00  0.000000D+00  0.000000D+00
    451   0.000000D+00  0.000000D+00  0.000000D+00  0.000000D+00  0.000000D+00
    452   0.262155D-04  0.506363D-03  0.000000D+00  0.000000D+00 -0.703206D-03
    453   0.000000D+00  0.000000D+00  0.895923D-04  0.000000D+00  0.000000D+00
    454   0.000000D+00  0.000000D+00  0.000000D+00  0.895923D-04  0.000000D+00
    455   0.000000D+00  0.000000D+00  0.000000D+00  0.000000D+00  0.000000D+00
    456   0.000000D+00  0.000000D+00  0.000000D+00  0.000000D+00  0.000000D+00
    457   0.000000D+00  0.000000D+00  0.000000D+00  0.000000D+00  0.000000D+00
    458   0.000000D+00  0.000000D+00  0.000000D+00  0.000000D+00  0.000000D+00
    459   0.341050D-02  0.257417D-01  0.000000D+00  0.000000D+00 -0.176031D-01
    460   0.000000D+00  0.000000D+00  0.482703D-02  0.000000D+00  0.000000D+00
    461   0.000000D+00  0.000000D+00  0.000000D+00  0.482703D-02  0.000000D+00
    462   0.000000D+00  0.000000D+00  0.000000D+00  0.000000D+00  0.000000D+00
    463   0.000000D+00  0.000000D+00  0.000000D+00  0.000000D+00  0.000000D+00
    464   0.000000D+00  0.000000D+00  0.000000D+00  0.000000D+00  0.000000D+00
    465   0.000000D+00  0.000000D+00  0.000000D+00  0.000000D+00  0.000000D+00
    466   0.176253D-01  0.112485D+00  0.000000D+00  0.000000D+00 -0.272748D-01
    467   0.000000D+00  0.000000D+00  0.214113D-01  0.000000D+00  0.000000D+00
    468   0.000000D+00  0.000000D+00  0.000000D+00  0.214113D-01  0.000000D+00
    469   0.000000D+00  0.000000D+00  0.000000D+00  0.000000D+00  0.000000D+00
    470   0.000000D+00  0.000000D+00  0.000000D+00  0.000000D+00  0.000000D+00
    471   0.000000D+00  0.000000D+00  0.000000D+00  0.000000D+00  0.000000D+00
    472   0.000000D+00  0.000000D+00  0.000000D+00  0.000000D+00  0.000000D+00
    473   0.000000D+00  0.000000D+00  0.000000D+00  0.000000D+00  0.000000D+00
    474   0.000000D+00  0.000000D+00  0.000000D+00  0.000000D+00  0.000000D+00
    475   0.000000D+00  0.000000D+00  0.000000D+00  0.000000D+00  0.000000D+00
    476   0.000000D+00  0.000000D+00  0.000000D+00  0.000000D+00  0.000000D+00
    477   0.000000D+00  0.000000D+00  0.000000D+00  0.000000D+00  0.000000D+00
    478   0.000000D+00  0.000000D+00  0.000000D+00  0.000000D+00  0.000000D+00
    479   0.000000D+00  0.000000D+00  0.000000D+00  0.000000D+00  0.000000D+00
    480   0.000000D+00  0.000000D+00  0.000000D+00  0.000000D+00  0.000000D+00
    481   0.000000D+00  0.000000D+00  0.000000D+00  0.000000D+00  0.000000D+00
    482   0.000000D+00  0.000000D+00  0.000000D+00  0.000000D+00  0.000000D+00
    483   0.000000D+00  0.000000D+00  0.000000D+00  0.000000D+00  0.000000D+00
    484   0.000000D+00  0.000000D+00  0.000000D+00  0.000000D+00  0.000000D+00
    485   0.000000D+00  0.000000D+00  0.000000D+00  0.000000D+00  0.000000D+00
    486   0.000000D+00  0.000000D+00  0.000000D+00  0.000000D+00  0.000000D+00
    487   0.000000D+00  0.000000D+00  0.000000D+00  0.000000D+00  0.000000D+00
    488   0.000000D+00  0.000000D+00  0.000000D+00  0.000000D+00  0.000000D+00
    489   0.000000D+00  0.000000D+00  0.000000D+00  0.000000D+00  0.000000D+00
    490   0.000000D+00  0.000000D+00  0.000000D+00  0.000000D+00  0.000000D+00
    491   0.000000D+00  0.131954D-05  0.000000D+00  0.000000D+00 -0.301802D-05
    492   0.000000D+00  0.000000D+00  0.000000D+00  0.000000D+00  0.000000D+00
    493   0.000000D+00  0.000000D+00  0.000000D+00  0.000000D+00  0.000000D+00
[...]
                         Total pair energies =    -0.355453 A.U.

                         Single Excitations  =    -0.000205 A.U.

                          Total second order =    -0.355658 A.U.

                         E2(CBS) - E2(Dir) =      -0.003485 A.U.

 E2(CBS)=      -0.356999 CBS-Int=       0.001341 OIii=       2.019074

 **********************************************************************

            Population analysis using the SCF density.

 **********************************************************************

 Orbital symmetries:
       Occupied  (SG) (SG) (SG) (SG) (PI) (PI) (SG) (SG) (PI) (PI)
                 (SG) (SG) (PI) (PI) (SG) (DLTA) (DLTA)
       Virtual   (PI) (PI) (SG) (SG) (DLTA) (DLTA) (PI) (PI) (SG)
                 (PI) (PI) (SG) (DLTA) (DLTA) (PI) (PI) (SG) (SG)
                 (SG) (PI) (PI) (PI) (PI) (SG) (DLTA) (DLTA) (PHI)
                 (PHI) (SG) (PI) (PI) (PI) (PI) (SG) (DLTA) (DLTA)
                 (SG) (PI) (PI) (SG) (DLTA) (DLTA) (SG) (?A) (?A)
                 (PHI) (PHI) (PI) (PI) (SG) (PI) (PI) (DLTA) (DLTA)
                 (SG) (PI) (PI) (PHI) (PHI) (PI) (PI) (SG) (DLTA)
                 (DLTA) (SG) (PHI) (PHI) (?B) (?B) (?A) (?A) (PI)
                 (PI) (SG) (DLTA) (DLTA) (PI) (PI) (DLTA) (DLTA)
                 (SG) (PI) (PI) (SG) (PHI) (PHI) (DLTA) (DLTA)
                 (SG) (PI) (PI) (SG) (SG) (?A) (?A) (?B) (?B) (PHI)
                 (PHI) (SG) (?A) (?A) (DLTA) (DLTA) (PI) (PI) (SG)
                 (PI) (PI) (SG) (PHI) (PHI) (DLTA) (DLTA) (PI)
                 (PI) (SG) (PHI) (PHI) (DLTA) (DLTA) (PI) (PI)
                 (SG) (SG) (PI) (PI) (DLTA) (DLTA) (?A) (?A) (?C)
                 (?C) (SG) (SG) (?B) (?B) (SG) (PI) (PI) (PHI)
                 (PHI) (DLTA) (DLTA) (SG) (DLTA) (DLTA) (PI) (PI)
                 (PHI) (PHI) (?A) (?A) (?B) (?B) (PI) (PI) (SG)
                 (DLTA) (DLTA) (SG) (?A) (?A) (PI) (PI) (PHI) (PHI)
                 (SG) (DLTA) (DLTA) (SG) (PI) (PI) (PHI) (PHI)
                 (PI) (PI) (DLTA) (DLTA) (?A) (?A) (SG) (PI) (PI)
                 (SG) (PHI) (PHI) (DLTA) (DLTA) (SG) (PI) (PI)
                 (DLTA) (DLTA) (?A) (?A) (PI) (PI) (PHI) (PHI)
                 (SG) (SG) (?B) (?B) (DLTA) (DLTA) (SG) (SG) (?B)
                 (?B) (PHI) (PHI) (PI) (PI) (SG) (?A) (?A) (PI)
                 (PI) (SG) (DLTA) (DLTA) (DLTA) (DLTA) (SG) (PI)
                 (PI) (PHI) (PHI) (PI) (PI) (SG) (DLTA) (DLTA)
                 (PI) (PI) (PI) (PI) (SG) (PHI) (PHI) (?A) (?A)
                 (?B) (?B) (SG) (SG) (DLTA) (DLTA) (PHI) (PHI)
                 (?A) (?A) (?B) (?B) (PI) (PI) (DLTA) (DLTA) (SG)
                 (SG) (SG) (?C) (?C) (?A) (?A) (PI) (PI) (PHI)
                 (PHI) (DLTA) (DLTA) (SG) (SG) (SG) (?B) (?B) (PHI)
                 (PHI) (PI) (PI) (SG) (DLTA) (DLTA) (SG) (PHI)
                 (PHI) (?A) (?A) (PI) (PI) (DLTA) (DLTA) (?A) (?A)
                 (DLTA) (DLTA) (SG) (PI) (PI) (PHI) (PHI) (PI)
                 (PI) (PHI) (PHI) (DLTA) (DLTA) (SG) (SG) (PI)
                 (PI) (DLTA) (DLTA) (PI) (PI) (SG) (?B) (?B) (SG)
                 (PI) (PI) (PI) (PI) (?A) (?A) (SG) (DLTA) (DLTA)
                 (PHI) (PHI) (PI) (PI) (SG) (DLTA) (DLTA) (SG)
                 (SG) (?C) (?C) (?D) (?D) (SG) (?B) (?B) (?A) (?A)
                 (?B) (?B) (PI) (PI) (SG) (SG) (SG) (PHI) (PHI)
                 (?A) (?A) (DLTA) (DLTA) (PHI) (PHI) (SG) (PI)
                 (PI) (PI) (PI) (DLTA) (DLTA) (SG) (PHI) (PHI)
                 (SG) (DLTA) (DLTA) (SG) (?A) (?A) (PI) (PI) (PHI)
                 (PHI) (?A) (?A) (?B) (?B) (DLTA) (DLTA) (PHI)
                 (PHI) (PI) (PI) (DLTA) (DLTA) (SG) (PI) (PI) (SG)
                 (DLTA) (DLTA) (PI) (PI) (?A) (?A) (PHI) (PHI)
                 (SG) (DLTA) (DLTA) (PI) (PI) (SG) (SG) (SG) (?B)
                 (?B) (?A) (?A) (PHI) (PHI) (DLTA) (DLTA) (PHI)
                 (PHI) (PI) (PI) (DLTA) (DLTA) (?B) (?B) (SG) (SG)
                 (?C) (?C) (SG) (?A) (?A) (PI) (PI) (PHI) (PHI)
                 (SG) (DLTA) (DLTA) (SG) (PI) (PI) (PI) (PI) (?B)
                 (?B) (?A) (?A) (PHI) (PHI) (PI) (PI) (DLTA) (DLTA)
                 (SG) (PI) (PI) (SG) (SG) (DLTA) (DLTA) (SG) (PI)
                 (PI) (SG) (PHI) (PHI) (DLTA) (DLTA) (SG) (PI)
                 (PI) (SG) (?B) (?B) (?A) (?A) (SG) (SG) (PHI)
                 (PHI) (?A) (?A) (PI) (PI) (DLTA) (DLTA) (PHI)
                 (PHI) (DLTA) (DLTA) (SG) (PI) (PI) (SG) (?B) (?B)
                 (?A) (?A) (SG) (SG) (?C) (?C) (PHI) (PHI) (DLTA)
                 (DLTA) (PI) (PI) (SG) (?A) (?A) (?B) (?B) (PHI)
                 (PHI) (DLTA) (DLTA) (DLTA) (DLTA) (PI) (PI) (SG)
                 (PI) (PI) (SG) (?A) (?A) (PHI) (PHI) (DLTA) (DLTA)
                 (PI) (PI) (SG) (PHI) (PHI) (DLTA) (DLTA) (PI)
                 (PI) (SG) (SG) (SG) (?B) (?B) (?A) (?A) (PHI)
                 (PHI) (DLTA) (DLTA) (PI) (PI) (SG) (?B) (?B) (?A)
                 (?A) (PHI) (PHI) (DLTA) (DLTA) (PI) (PI) (SG)
                 (PHI) (PHI) (DLTA) (DLTA) (SG) (PI) (PI) (SG)
                 (PI) (PI) (SG) (?A) (?A) (PHI) (PHI) (DLTA) (DLTA)
                 (PI) (PI) (SG) (DLTA) (DLTA) (PI) (PI) (SG) (SG)
                 (SG)
 The electronic state is 4-SG.
 Alpha  occ. eigenvalues -- -183.25854 -26.20528 -21.42518 -17.79540 -17.79345
 Alpha  occ. eigenvalues --  -17.79345  -2.91924  -1.88189  -1.88189  -1.82343
 Alpha  occ. eigenvalues --   -1.46836  -0.60141  -0.57508  -0.57508  -0.38027
 Alpha  occ. eigenvalues --   -0.38027  -0.24740
 Alpha virt. eigenvalues --    0.01070   0.01070   0.02520   0.02826   0.03975
 Alpha virt. eigenvalues --    0.03975   0.04317   0.04317   0.04518   0.07483
 Alpha virt. eigenvalues --    0.07483   0.07604   0.13808   0.13808   0.13857
 Alpha virt. eigenvalues --    0.13857   0.14914   0.15268   0.18451   0.18451
 Alpha virt. eigenvalues --    0.19206   0.20664   0.20664   0.23058   0.29611
 Alpha virt. eigenvalues --    0.29611   0.30052   0.30052   0.31472   0.31782
 Alpha virt. eigenvalues --    0.31782   0.34463   0.34463   0.37413   0.38494
 Alpha virt. eigenvalues --    0.38494   0.40874   0.42831   0.42831   0.50649
 Alpha virt. eigenvalues --    0.54731   0.54731   0.54871   0.57231   0.57231
 Alpha virt. eigenvalues --    0.57416   0.57416   0.59981   0.59981   0.61948
 Alpha virt. eigenvalues --    0.63359   0.63359   0.68881   0.68881   0.71884
 Alpha virt. eigenvalues --    0.78253   0.78253   0.79203   0.79203   0.82539
 Alpha virt. eigenvalues --    0.82539   0.83571   0.83571   0.83646   0.85958
 Alpha virt. eigenvalues --    0.89369   0.89369   0.89750   0.89750   0.90247
 Alpha virt. eigenvalues --    0.90247   0.90993   0.90993   0.93366   0.93366
 Alpha virt. eigenvalues --    0.93917   0.97975   0.97975   0.99901   0.99901
 Alpha virt. eigenvalues --    1.03152   1.18980   1.18980   1.23154   1.30402
 Alpha virt. eigenvalues --    1.30402   1.31306   1.31306   1.32776   1.42265
 Alpha virt. eigenvalues --    1.42265   1.42731   1.42731   1.42905   1.42905
 Alpha virt. eigenvalues --    1.43187   1.43187   1.45272   1.45272   1.48269
 Alpha virt. eigenvalues --    1.48269   1.48723   1.49837   1.49837   1.50583
 Alpha virt. eigenvalues --    1.50583   1.53770   1.59860   1.59860   1.63267
 Alpha virt. eigenvalues --    1.63267   1.63281   1.65503   1.65503   1.71170
 Alpha virt. eigenvalues --    1.71170   1.74991   1.78591   1.78591   1.80860
 Alpha virt. eigenvalues --    1.80860   1.81631   1.81631   1.86731   1.93377
 Alpha virt. eigenvalues --    1.93377   1.93466   1.96338   1.96338   2.01066
 Alpha virt. eigenvalues --    2.01066   2.02858   2.02858   2.03288   2.03288
 Alpha virt. eigenvalues --    2.03471   2.03471   2.04447   2.12300   2.12300
 Alpha virt. eigenvalues --    2.13477   2.13477   2.14161   2.14161   2.14813
 Alpha virt. eigenvalues --    2.16580   2.16580   2.21513   2.21513   2.34634
 Alpha virt. eigenvalues --    2.34634   2.37350   2.37350   2.38517   2.38517
 Alpha virt. eigenvalues --    2.53964   2.53964   2.54036   2.60263   2.60263
 Alpha virt. eigenvalues --    2.67522   2.84971   2.84971   2.91221   2.91221
 Alpha virt. eigenvalues --    2.96862   2.96862   3.00596   3.11871   3.11871
 Alpha virt. eigenvalues --    3.12452   3.15771   3.15771   3.21288   3.21288
 Alpha virt. eigenvalues --    3.23451   3.23451   3.29638   3.29638   3.37221
 Alpha virt. eigenvalues --    3.37221   3.38691   3.38771   3.38771   3.43419
 Alpha virt. eigenvalues --    3.44178   3.44178   3.51139   3.51139   3.52655
 Alpha virt. eigenvalues --    3.57032   3.57032   3.73598   3.73598   3.81271
 Alpha virt. eigenvalues --    3.81271   3.82170   3.82170   3.83381   3.83381
 Alpha virt. eigenvalues --    3.85635   3.91783   3.93620   3.93620   3.97022
 Alpha virt. eigenvalues --    3.97022   4.03269   4.03269   4.06213   4.06213
 Alpha virt. eigenvalues --    4.09603   4.09603   4.09744   4.09744   4.39157
 Alpha virt. eigenvalues --    4.47584   4.47584   4.55204   4.55204   4.56547
 Alpha virt. eigenvalues --    4.58456   4.58456   4.63628   4.63628   4.69699
 Alpha virt. eigenvalues --    4.93857   4.93857   4.99532   4.99532   5.05222
 Alpha virt. eigenvalues --    5.05222   5.06221   5.14417   5.14417   5.32803
 Alpha virt. eigenvalues --    5.32803   5.50643   5.50643   5.60840   5.67836
 Alpha virt. eigenvalues --    5.67836   5.76018   5.76018   5.77608   5.77608
 Alpha virt. eigenvalues --    5.85052   6.01544   6.03360   6.03360   6.09143
 Alpha virt. eigenvalues --    6.09143   6.14757   6.14757   6.15435   6.15435
 Alpha virt. eigenvalues --    6.15677   6.15677   6.17527   6.17527   6.22608
 Alpha virt. eigenvalues --    6.26006   6.26006   6.26780   6.26780   6.36211
 Alpha virt. eigenvalues --    6.36211   6.38307   6.38307   6.53910   6.53910
 Alpha virt. eigenvalues --    6.58184   6.58184   6.62196   6.62196   6.74841
 Alpha virt. eigenvalues --    6.83561   6.83561   6.84425   6.84425   7.00727
 Alpha virt. eigenvalues --    7.00727   7.10296   7.10751   7.10751   7.19434
 Alpha virt. eigenvalues --    7.27784   7.27784   7.32940   7.32940   7.34636
 Alpha virt. eigenvalues --    7.34636   7.37651   7.37651   7.49558   7.49558
 Alpha virt. eigenvalues --    7.76372   7.76372   7.92771   7.95722   7.95722
 Alpha virt. eigenvalues --    8.19688   8.19688   8.31384   8.31384   8.44827
 Alpha virt. eigenvalues --    8.44827   8.52202   8.52202   8.58861   8.89820
 Alpha virt. eigenvalues --    8.95772   8.95772   9.13358   9.13358   9.27319
 Alpha virt. eigenvalues --    9.27319   9.32615   9.52367   9.52367   9.57245
 Alpha virt. eigenvalues --    9.58588   9.58588   9.62493   9.62493   9.64259
 Alpha virt. eigenvalues --    9.64448   9.64448   9.72197   9.72197   9.75455
 Alpha virt. eigenvalues --    9.75455   9.86300   9.86300  10.00627  10.01820
 Alpha virt. eigenvalues --   10.01820  10.20100  10.20100  10.20337  10.20337
 Alpha virt. eigenvalues --   10.21332  10.21332  10.25746  10.28015  10.28015
 Alpha virt. eigenvalues --   10.52901  10.52901  10.72891  10.72891  10.73177
 Alpha virt. eigenvalues --   10.73177  10.73823  10.73823  10.74929  10.79820
 Alpha virt. eigenvalues --   10.79820  10.88710  10.88710  11.09722  11.09722
 Alpha virt. eigenvalues --   11.39714  11.39714  11.44346  11.45691  11.45691
 Alpha virt. eigenvalues --   11.58100  11.58100  11.67431  11.67431  11.99922
 Alpha virt. eigenvalues --   12.15886  12.15886  12.64054  12.81717  12.81717
 Alpha virt. eigenvalues --   13.43516  13.46848  13.46848  13.54056  13.54056
 Alpha virt. eigenvalues --   13.59130  13.59130  13.65802  13.65802  13.66563
 Alpha virt. eigenvalues --   13.66563  13.81329  13.81329  13.92262  13.92262
 Alpha virt. eigenvalues --   14.48778  14.48778  14.56554  14.56554  14.65092
 Alpha virt. eigenvalues --   15.01875  15.01875  15.09494  15.38806  15.38806
 Alpha virt. eigenvalues --   16.08536  16.08536  16.08599  16.08599  16.15502
 Alpha virt. eigenvalues --   16.15502  16.52812  16.74642  16.74642  17.28483
 Alpha virt. eigenvalues --   17.28483  17.63489  17.92738  17.92738  17.96182
 Alpha virt. eigenvalues --   17.96182  18.09775  18.09775  18.31563  18.31563
 Alpha virt. eigenvalues --   18.43071  18.43071  18.45619  18.45619  18.57993
 Alpha virt. eigenvalues --   18.57993  18.61789  18.61789  18.79524  18.79524
 Alpha virt. eigenvalues --   18.79879  18.79879  18.82117  18.82117  18.83986
 Alpha virt. eigenvalues --   18.87873  18.87873  19.02809  19.02809  19.04591
 Alpha virt. eigenvalues --   19.04591  19.19141  19.28004  19.28004  19.63652
 Alpha virt. eigenvalues --   19.66105  19.66105  20.94459  20.94459  21.09166
 Alpha virt. eigenvalues --   21.09166  21.16770  21.16770  21.31271  21.31271
 Alpha virt. eigenvalues --   21.59606  21.59606  21.65733  21.65733  21.76383
 Alpha virt. eigenvalues --   21.89956  21.89956  22.02255  22.26094  23.76039
 Alpha virt. eigenvalues --   23.76039  23.92659  24.03726  24.03726  24.47224
 Alpha virt. eigenvalues --   24.64481  24.64481  25.04320  25.04320  26.15383
 Alpha virt. eigenvalues --   26.15596  26.15596  26.60271  28.53457  28.53457
 Alpha virt. eigenvalues --   28.53733  28.53733  28.56015  28.56015  28.59369
 Alpha virt. eigenvalues --   28.59369  28.65467  28.65467  28.65575  28.65575
 Alpha virt. eigenvalues --   28.68271  28.68271  28.83146  28.83146  29.06360
 Alpha virt. eigenvalues --   29.06360  29.07991  29.48919  29.48919  29.53809
 Alpha virt. eigenvalues --   32.26247  32.26247  32.26544  32.26544  32.26754
 Alpha virt. eigenvalues --   32.26754  32.27324  32.27324  32.30159  32.30159
 Alpha virt. eigenvalues --   32.31203  32.31203  32.33749  32.33749  32.45690
 Alpha virt. eigenvalues --   32.99494  32.99494  33.01742  33.01742  33.05253
 Alpha virt. eigenvalues --   33.05253  33.36622  33.36622  33.41427  33.41427
 Alpha virt. eigenvalues --   33.50565  33.50565  33.65934  34.17150  34.17150
 Alpha virt. eigenvalues --   34.60763  36.52115  36.52115  36.55418  36.55418
 Alpha virt. eigenvalues --   36.89713  36.89713  37.18829  37.18829  37.42871
 Alpha virt. eigenvalues --   42.67705  42.67705  42.81827  42.81827  43.28287
 Alpha virt. eigenvalues --   43.28287  43.68820  46.31611  46.31611  46.32998
 Alpha virt. eigenvalues --   46.32998  46.39091  46.39091  46.47253  46.47253
 Alpha virt. eigenvalues --   46.52533  46.52533  46.58508  46.58508  46.62710
 Alpha virt. eigenvalues --   47.12153  47.12153  47.17370  47.17370  47.26972
 Alpha virt. eigenvalues --   47.26972  47.46384  47.46384  47.49483  47.49483
 Alpha virt. eigenvalues --   47.62411  51.97327  51.97327  52.26997  52.26997
 Alpha virt. eigenvalues --   53.00145  53.08626  53.08626  61.30051  61.58886
 Alpha virt. eigenvalues --   61.58886  63.29508  63.33413  63.33413  63.45113
 Alpha virt. eigenvalues --   63.45113  63.62020  63.62020  63.82342  63.82342
 Alpha virt. eigenvalues --   63.93117  75.53950  75.53950  75.99499  75.99499
 Alpha virt. eigenvalues --   76.30364 275.18624 467.84450
          Condensed to atoms (all electrons):
              1          2
     1  Ti  21.089622   0.083072
     2  F    0.083072   9.744235
 Mulliken atomic charges:
              1
     1  Ti   0.827306
     2  F   -0.827306
 Sum of Mulliken atomic charges =   0.00000
 Mulliken charges with hydrogens summed into heavy atoms:
              1
     1  Ti   0.827306
     2  F   -0.827306
 Sum of Mulliken charges with hydrogens summed into heavy atoms =   0.00000
          Atomic-Atomic Spin Densities.
              1          2
     1  Ti   2.941852  -0.057615
     2  F   -0.057615   0.173377
 Mulliken atomic spin densities:
              1
     1  Ti   2.884238
     2  F    0.115762
 Sum of Mulliken atomic spin densities =   3.00000
 Electronic spatial extent (au):  <R**2>=            130.5953
 Charge=              0.0000 electrons
 Dipole moment (field-independent basis, Debye):
    X=              0.0000    Y=              0.0000    Z=              2.6350  Tot=              2.6350
 Quadrupole moment (field-independent basis, Debye-Ang):
   XX=            -21.9574   YY=            -21.9574   ZZ=            -28.8774
   XY=              0.0000   XZ=              0.0000   YZ=              0.0000
 Traceless Quadrupole moment (field-independent basis, Debye-Ang):
   XX=              2.3067   YY=              2.3067   ZZ=             -4.6133
   XY=              0.0000   XZ=              0.0000   YZ=              0.0000
 Octapole moment (field-independent basis, Debye-Ang**2):
  XXX=              0.0000  YYY=              0.0000  ZZZ=            -13.7718  XYY=              0.0000
  XXY=              0.0000  XXZ=             -5.8956  XZZ=              0.0000  YZZ=              0.0000
  YYZ=             -5.8956  XYZ=              0.0000
 Hexadecapole moment (field-independent basis, Debye-Ang**3):
 XXXX=            -41.6777 YYYY=            -41.6777 ZZZZ=           -170.6228 XXXY=              0.0000
 XXXZ=              0.0000 YYYX=              0.0000 YYYZ=              0.0000 ZZZX=              0.0000
 ZZZY=              0.0000 XXYY=            -13.8926 XXZZ=            -34.3001 YYZZ=            -34.3001
 XXYZ=              0.0000 YYXZ=              0.0000 ZZXY=              0.0000
 N-N= 5.722084391940D+01 E-N=-3.522876181184D+03  KE= 1.417920316423D+03
                          Isotropic Fermi Contact Couplings
        Atom                 a.u.       MegaHertz       Gauss      10(-4) cm-1
     1  Ti(47)             1.52593    -128.37530     -45.80750     -42.82139
     2  F(19)              0.01859      26.07388       9.30381       8.69731
 --------------------------------------------------------
       Center         ----  Spin Dipole Couplings  ----
                      3XX-RR        3YY-RR        3ZZ-RR
 --------------------------------------------------------
     1   Atom        0.941628      0.941628     -1.883256
     2   Atom       -0.043128     -0.043128      0.086257
 --------------------------------------------------------
                        XY            XZ            YZ
 --------------------------------------------------------
     1   Atom        0.000000      0.000000      0.000000
     2   Atom        0.000000      0.000000      0.000000
 --------------------------------------------------------


 ---------------------------------------------------------------------------------
              Anisotropic Spin Dipole Couplings in Principal Axis System
 ---------------------------------------------------------------------------------

       Atom             a.u.   MegaHertz   Gauss  10(-4) cm-1        Axes

              Baa    -1.8833    56.736    20.245    18.925  0.0000  0.0000  1.0000
     1 Ti(47) Bbb     0.9416   -28.368   -10.122    -9.463  1.0000  0.0000  0.0000
              Bcc     0.9416   -28.368   -10.122    -9.463  0.0000  1.0000  0.0000
 
              Baa    -0.0431   -21.660    -7.729    -7.225  1.0000  0.0000  0.0000
     2 F(19)  Bbb    -0.0431   -21.660    -7.729    -7.225  0.0000  1.0000  0.0000
              Bcc     0.0863    43.320    15.458    14.450  0.0000  0.0000  1.0000
 

 ---------------------------------------------------------------------------------


 Test job not archived.
 1\1\GINC-N35\SP\ROMP2-FC\Gen\F1Ti1(4)\GPETERSSON\24-Oct-2013\0\\# ROMP
 2 Gen GFinput Int=NoBasisTransform Int(Grid=Ultrafine) IOp(3/32=2,5/6=
 10,8/11=1,9/33=1) Maxdisk=128GB CBSextrapolate(Nmin=25,MinPop) Guess=R
 ead SCF=Symm\\TiF 4()\\0,4\Ti\F,1,1.8311\\Version=EM64L-G09RevA.02\Sta
 te=4-SG\HF=-947.9670616\MP2=-948.3205754\E2(CBS)=-0.3569987\CBS-Int=-0
 .355658\OIii=2.0190742\RMSD=9.750e-12\PG=C*V [C*(F1Ti1)]\\@


 THERE IS NOTHING NOBLE IN BEING SUPERIOR TO SOME OTHER MAN.
 TRUE NOBILITY IS BEING SUPERIOR TO YOUR FORMER SELF.

                                                   -- HINDU PROVERB
 Job cpu time:  6 days  7 hours 55 minutes 35.2 seconds.
 File lengths (MBytes):  RWF=  53830 Int=      0 D2E=      0 Chk=     38 Scr=      1
 Normal termination of Gaussian 09 at Thu Oct 24 06:03:09 2013.
