 Entering Gaussian System, Link 0=g09
 AtFile(1): 7ZaPa-NR.gbs
 Initial command:
 /share/apps/gaussian/g09root/g09/l1.exe /localscratch/60274/Gau-8836.inp -scrdir=/localscratch/60274/
 Entering Link 1 = /share/apps/gaussian/g09root/g09/l1.exe PID=      8837.
  
 Copyright (c) 1988,1990,1992,1993,1995,1998,2003,2009, Gaussian, Inc.
                  All Rights Reserved.
  
 This is part of the Gaussian(R) 09 program.  It is based on
 the Gaussian(R) 03 system (copyright 2003, Gaussian, Inc.),
 the Gaussian(R) 98 system (copyright 1998, Gaussian, Inc.),
 the Gaussian(R) 94 system (copyright 1995, Gaussian, Inc.),
 the Gaussian 92(TM) system (copyright 1992, Gaussian, Inc.),
 the Gaussian 90(TM) system (copyright 1990, Gaussian, Inc.),
 the Gaussian 88(TM) system (copyright 1988, Gaussian, Inc.),
 the Gaussian 86(TM) system (copyright 1986, Carnegie Mellon
 University), and the Gaussian 82(TM) system (copyright 1983,
 Carnegie Mellon University). Gaussian is a federally registered
 trademark of Gaussian, Inc.
  
 This software contains proprietary and confidential information,
 including trade secrets, belonging to Gaussian, Inc.
  
 This software is provided under written license and may be
 used, copied, transmitted, or stored only in accord with that
 written license.
  
 The following legend is applicable only to US Government
 contracts under FAR:
  
                    RESTRICTED RIGHTS LEGEND
  
 Use, reproduction and disclosure by the US Government is
 subject to restrictions as set forth in subparagraphs (a)
 and (c) of the Commercial Computer Software - Restricted
 Rights clause in FAR 52.227-19.
  
 Gaussian, Inc.
 340 Quinnipiac St., Bldg. 40, Wallingford CT 06492
  
  
 ---------------------------------------------------------------
 Warning -- This program may not be used in any manner that
 competes with the business of Gaussian, Inc. or will provide
 assistance to any competitor of Gaussian, Inc.  The licensee
 of this program is prohibited from giving any competitor of
 Gaussian, Inc. access to this program.  By using this program,
 the user acknowledges that Gaussian, Inc. is engaged in the
 business of creating and licensing software in the field of
 computational chemistry and represents and warrants to the
 licensee that it is not a competitor of Gaussian, Inc. and that
 it will not use this program in any manner prohibited above.
 ---------------------------------------------------------------
  

 Cite this work as:
 Gaussian 09, Revision A.02,
 M. J. Frisch, G. W. Trucks, H. B. Schlegel, G. E. Scuseria, 
 M. A. Robb, J. R. Cheeseman, G. Scalmani, V. Barone, B. Mennucci, 
 G. A. Petersson, H. Nakatsuji, M. Caricato, X. Li, H. P. Hratchian, 
 A. F. Izmaylov, J. Bloino, G. Zheng, J. L. Sonnenberg, M. Hada, 
 M. Ehara, K. Toyota, R. Fukuda, J. Hasegawa, M. Ishida, T. Nakajima, 
 Y. Honda, O. Kitao, H. Nakai, T. Vreven, J. A. Montgomery, Jr., 
 J. E. Peralta, F. Ogliaro, M. Bearpark, J. J. Heyd, E. Brothers, 
 K. N. Kudin, V. N. Staroverov, R. Kobayashi, J. Normand, 
 K. Raghavachari, A. Rendell, J. C. Burant, S. S. Iyengar, J. Tomasi, 
 M. Cossi, N. Rega, J. M. Millam, M. Klene, J. E. Knox, J. B. Cross, 
 V. Bakken, C. Adamo, J. Jaramillo, R. Gomperts, R. E. Stratmann, 
 O. Yazyev, A. J. Austin, R. Cammi, C. Pomelli, J. W. Ochterski, 
 R. L. Martin, K. Morokuma, V. G. Zakrzewski, G. A. Voth, 
 P. Salvador, J. J. Dannenberg, S. Dapprich, A. D. Daniels, 
 O. Farkas, J. B. Foresman, J. V. Ortiz, J. Cioslowski, 
 and D. J. Fox, Gaussian, Inc., Wallingford CT, 2009.
 
 ******************************************
 Gaussian 09:  EM64L-G09RevA.02 11-Jun-2009
                18-Oct-2013 
 ******************************************
 % Mem=64GB
 % Nproc=16
 Will use up to   16 processors via shared memory.
 % Chk=TiN_2Sg.chk
 ----------------------------------------------------------------------
 # ROMP2 Gen GFinput Int=NoBasisTransform Int(Grid=Ultrafine) IOp(3/32=
 2,5/6=10,8/11=1,9/33=1) Maxdisk=128GB CBSextrapolate(Nmin=25,MinPop) G
 uess=Read
 ----------------------------------------------------------------------
 1/38=1/1;
 2/12=2,17=6,18=5,40=1/2;
 3/5=7,11=2,16=1,24=10,25=1,30=1,32=2,60=-1,75=-5,116=101/1,2,3;
 4/5=1/1;
 5/5=2,6=10,38=6/2;
 8/5=-1,10=1,11=1/1;
 9/16=-3,33=1,75=2,81=25,83=4/6,4;
 6/7=2,8=2,9=2,10=2/1;
 99/5=1,9=1/99;
 -------
 TiN 2Sg
 -------
 Symbolic Z-matrix:
 Charge =  0 Multiplicity = 2
 Ti
 N                    1     1.5802 
 
                          Input orientation:                          
 ---------------------------------------------------------------------
 Center     Atomic      Atomic             Coordinates (Angstroms)
 Number     Number       Type             X           Y           Z
 ---------------------------------------------------------------------
      1         22           0        0.000000    0.000000    0.000000
      2          7           0        0.000000    0.000000    1.580200
 ---------------------------------------------------------------------
 Stoichiometry    NTi(2)
 Framework group  C*V[C*(NTi)]
 Deg. of freedom     1
 Full point group                 C*V     NOp   4
 Largest Abelian subgroup         C2V     NOp   4
 Largest concise Abelian subgroup C1      NOp   1
                         Standard orientation:                         
 ---------------------------------------------------------------------
 Center     Atomic      Atomic             Coordinates (Angstroms)
 Number     Number       Type             X           Y           Z
 ---------------------------------------------------------------------
      1         22           0        0.000000    0.000000    0.381428
      2          7           0        0.000000    0.000000   -1.198772
 ---------------------------------------------------------------------
 Rotational constants (GHZ):      0.0000000     18.6744642     18.6744642
 General basis read from cards:  (5D, 7F)
 AO basis set in the form of general basis input (Overlap normalization):
      1 0
 S  19 1.00       0.000000000000
      0.3093397200D+08  0.4234591329D-06
      0.6044953820D+07  0.2500233199D-05
      0.1406439870D+07  0.1416657951D-04
      0.3808742470D+06  0.6480102538D-04
      0.1175827660D+06  0.2541017510D-03
      0.4060237120D+05  0.8692969262D-03
      0.1541310580D+05  0.2654925011D-02
      0.6332181620D+04  0.7360767086D-02
      0.2775933820D+04  0.1874283040D-01
      0.1282232770D+04  0.4395120447D-01
      0.6170838670D+03  0.9384239299D-01
      0.3063608960D+03  0.1766719309D+00
      0.1555492650D+03  0.2737907056D+00
      0.8016593300D+02  0.3028287172D+00
      0.4166923400D+02  0.1848157313D+00
      0.2172715900D+02  0.4184420217D-01
      0.1131405200D+02  0.2667653209D-02
      0.5862761000D+01  0.3696609412D-03
      0.3014652000D+01  0.1806560102D-04
 S  16 1.00       0.000000000000
      0.1541310580D+05 -0.2000068553D-05
      0.6332181620D+04 -0.1628143465D-04
      0.2775933820D+04 -0.9291660553D-04
      0.1282232770D+04 -0.5141120884D-03
      0.6170838670D+03 -0.2238851019D-02
      0.3063608960D+03 -0.8917513766D-02
      0.1555492650D+03 -0.2843936305D-01
      0.8016593300D+02 -0.6831153690D-01
      0.4166923400D+02 -0.7552064941D-01
      0.2172715900D+02  0.7467127219D-01
      0.1131405200D+02  0.4019305211D+00
      0.5862761000D+01  0.4803209291D+00
      0.3014652000D+01  0.1620583712D+00
      0.1535019000D+01  0.1187769476D-01
      0.7728540000D+00  0.1881608481D-02
      0.3844100000D+00  0.1604322276D-03
 P  16 1.00       0.000000000000
      0.4533295070D+05  0.3902315011D-05
      0.1169435910D+05  0.3240199356D-04
      0.3723173810D+04  0.2050784432D-03
      0.1391898900D+04  0.9772377453D-03
      0.5867660470D+03  0.3774748693D-02
      0.2700556900D+03  0.1224652149D-01
      0.1323256660D+03  0.3421394492D-01
      0.6772548500D+02  0.8269378056D-01
      0.3570066100D+02  0.1661146293D+00
      0.1918843900D+02  0.2645001665D+00
      0.1044071500D+02  0.3144652086D+00
      0.5720592000D+01  0.2281751323D+00
      0.3142031000D+01  0.7796544752D-01
      0.1721723000D+01  0.1030149505D-01
      0.9355130000D+00  0.7894200457D-03
      0.4997910000D+00  0.2205735295D-03
 S  14 1.00       0.000000000000
      0.6170838670D+03  0.5322469049D-05
      0.3063608960D+03  0.3005187127D-04
      0.1555492650D+03  0.2469518916D-03
      0.8016593300D+02  0.1165891645D-02
      0.4166923400D+02  0.2681554527D-02
      0.2172715900D+02 -0.1846075520D-02
      0.1131405200D+02 -0.5172498790D-01
      0.5862761000D+01 -0.1934622218D+00
      0.3014652000D+01 -0.7022929944D-01
      0.1535019000D+01  0.4015244198D+00
      0.7728540000D+00  0.5768182565D+00
      0.3844100000D+00  0.2185252618D+00
      0.1888080000D+00  0.7055723508D-02
      0.9157300000D-01  0.2268621534D-02
 P  14 1.00       0.000000000000
      0.5867660470D+03 -0.5867365744D-05
      0.2700556900D+03 -0.3951856726D-04
      0.1323256660D+03 -0.2661521795D-03
      0.6772548500D+02 -0.1222512852D-02
      0.3570066100D+02 -0.4282268841D-02
      0.1918843900D+02 -0.9948508168D-02
      0.1044071500D+02 -0.1916879440D-01
      0.5720592000D+01  0.2122349637D-02
      0.3142031000D+01  0.1276297999D+00
      0.1721723000D+01  0.2999805429D+00
      0.9355130000D+00  0.3706357039D+00
      0.4997910000D+00  0.2535879781D+00
      0.2594200000D+00  0.6770257652D-01
      0.1286960000D+00  0.5000316675D-02
 D  16 1.00       0.000000000000
      0.1491449740D+04  0.4647613080D-05
      0.4676672110D+03  0.4680834861D-04
      0.1802568120D+03  0.3040571320D-03
      0.8026452900D+02  0.1408035394D-02
      0.3937766900D+02  0.5074876400D-02
      0.2055730100D+02  0.1433085417D-01
      0.1114698300D+02  0.3339947961D-01
      0.6180321000D+01  0.7062636521D-01
      0.3471588000D+01  0.1294550321D+00
      0.1966233000D+01  0.1905965255D+00
      0.1120200000D+01  0.2310709511D+00
      0.6406530000D+00  0.2402235480D+00
      0.3664290000D+00  0.2118898932D+00
      0.2080390000D+00  0.1465381738D+00
      0.1156960000D+00  0.6132776033D-01
      0.6170700000D-01  0.8234166991D-02
 D   1 1.00       0.000000000000
      0.4088453399D-01  0.1000000000D+01
 D   1 1.00       0.000000000000
      0.1288000000D-01  0.1000000000D+01
 S  11 1.00       0.000000000000
      0.4166923400D+02 -0.7430173516D-04
      0.2172715900D+02  0.9954373533D-04
      0.1131405200D+02  0.1248266287D-02
      0.5862761000D+01  0.8227221970D-02
      0.3014652000D+01  0.5168787780D-03
      0.1535019000D+01 -0.2799066814D-01
      0.7728540000D+00 -0.1082136524D+00
      0.3844100000D+00 -0.2119039186D+00
      0.1888080000D+00  0.1241661751D+00
      0.9157300000D-01  0.7398507106D+00
      0.4386900000D-01  0.3407873839D+00
 S   1 1.00       0.000000000000
      0.3468066937D-01  0.1000000000D+01
 S   1 1.00       0.000000000000
      0.1302400000D-01  0.1000000000D+01
 P  11 1.00       0.000000000000
      0.3570066100D+02  0.1516553016D-02
      0.1918843900D+02 -0.1055226724D-02
      0.1044071500D+02  0.9369863391D-02
      0.5720592000D+01 -0.1637669940D-01
      0.3142031000D+01  0.2128086630D-01
      0.1721723000D+01 -0.7338130343D-01
      0.9355130000D+00  0.7804168842D-01
      0.4997910000D+00 -0.4834264406D+00
      0.2594200000D+00 -0.1106826475D+00
      0.1286960000D+00 -0.8257091522D-01
      0.5906020050D-01 -0.5694513510D+00
 P   1 1.00       0.000000000000
      0.6188057483D-01  0.1000000000D+01
 P   1 1.00       0.000000000000
      0.1693100000D-01  0.1000000000D+01
 S   1 1.00       0.000000000000
      0.4132324000D+01  0.1000000000D+01
 S   1 1.00       0.000000000000
      0.2139468000D+01  0.1000000000D+01
 S   1 1.00       0.000000000000
      0.1107688000D+01  0.1000000000D+01
 S   1 1.00       0.000000000000
      0.5734940000D+00  0.1000000000D+01
 S   1 1.00       0.000000000000
      0.2969210000D+00  0.1000000000D+01
 S   1 1.00       0.000000000000
      0.1537280000D+00  0.1000000000D+01
 P   1 1.00       0.000000000000
      0.1701521000D+01  0.1000000000D+01
 P   1 1.00       0.000000000000
      0.9998930000D+00  0.1000000000D+01
 P   1 1.00       0.000000000000
      0.5875840000D+00  0.1000000000D+01
 P   1 1.00       0.000000000000
      0.3452920000D+00  0.1000000000D+01
 P   1 1.00       0.000000000000
      0.2029100000D+00  0.1000000000D+01
 P   1 1.00       0.000000000000
      0.1192390000D+00  0.1000000000D+01
 D   1 1.00       0.000000000000
      0.3111776000D+01  0.1000000000D+01
 D   1 1.00       0.000000000000
      0.1566445000D+01  0.1000000000D+01
 D   1 1.00       0.000000000000
      0.7885370000D+00  0.1000000000D+01
 D   1 1.00       0.000000000000
      0.3969430000D+00  0.1000000000D+01
 D   1 1.00       0.000000000000
      0.1998180000D+00  0.1000000000D+01
 D   1 1.00       0.000000000000
      0.1005870000D+00  0.1000000000D+01
 F   1 1.00       0.000000000000
      0.9884164000D+01  0.1000000000D+01
 F   1 1.00       0.000000000000
      0.4462610000D+01  0.1000000000D+01
 F   1 1.00       0.000000000000
      0.2014828000D+01  0.1000000000D+01
 F   1 1.00       0.000000000000
      0.9096760000D+00  0.1000000000D+01
 F   1 1.00       0.000000000000
      0.4107110000D+00  0.1000000000D+01
 F   1 1.00       0.000000000000
      0.1854320000D+00  0.1000000000D+01
 F   1 1.00       0.000000000000
      0.8372000000D-01  0.1000000000D+01
 G   1 1.00       0.000000000000
      0.6789106000D+01  0.1000000000D+01
 G   1 1.00       0.000000000000
      0.3035888000D+01  0.1000000000D+01
 G   1 1.00       0.000000000000
      0.1357559000D+01  0.1000000000D+01
 G   1 1.00       0.000000000000
      0.6070600000D+00  0.1000000000D+01
 G   1 1.00       0.000000000000
      0.2714590000D+00  0.1000000000D+01
 G   1 1.00       0.000000000000
      0.1213880000D+00  0.1000000000D+01
 H   1 1.00       0.000000000000
      0.5309074000D+01  0.1000000000D+01
 H   1 1.00       0.000000000000
      0.2184678000D+01  0.1000000000D+01
 H   1 1.00       0.000000000000
      0.8989930000D+00  0.1000000000D+01
 H   1 1.00       0.000000000000
      0.3699350000D+00  0.1000000000D+01
 H   1 1.00       0.000000000000
      0.1522270000D+00  0.1000000000D+01
 I   1 1.00       0.000000000000
      0.4025066000D+01  0.1000000000D+01
 I   1 1.00       0.000000000000
      0.1486593000D+01  0.1000000000D+01
 I   1 1.00       0.000000000000
      0.5490490000D+00  0.1000000000D+01
 I   1 1.00       0.000000000000
      0.2027820000D+00  0.1000000000D+01
 J   1 1.00       0.000000000000
      0.2320490000D+01  0.1000000000D+01
 J   1 1.00       0.000000000000
      0.7598860000D+00  0.1000000000D+01
 J   1 1.00       0.000000000000
      0.2488380000D+00  0.1000000000D+01
 K   1 1.00       0.000000000000
      0.1127537136D+01  0.1000000000D+01
 ****
      2 0
 S  16 1.00       0.000000000000
      0.1088712560D+07  0.1611832326D-05
      0.1902385110D+06  0.1102421557D-04
      0.4230982420D+05  0.6339586911D-04
      0.1143587060D+05  0.2838779074D-03
      0.3611220760D+04  0.1061939899D-02
      0.1288647200D+04  0.3447082760D-02
      0.5054024930D+03  0.1000700267D-01
      0.2129143370D+03  0.2647692667D-01
      0.9456121700D+02  0.6365646656D-01
      0.4361107400D+02  0.1360514323D+00
      0.2063348100D+02  0.2443928536D+00
      0.9916559000D+01  0.3320386689D+00
      0.4801870000D+01  0.2595256165D+00
      0.2326049000D+01  0.7309787953D-01
      0.1119587000D+01  0.3869391549D-02
      0.5317350000D+00  0.8219661382D-03
 S  11 1.00       0.000000000000
      0.2129143370D+03 -0.1097268503D-03
      0.9456121700D+02 -0.5407398515D-03
      0.4361107400D+02 -0.2748526900D-02
      0.2063348100D+02 -0.1084281315D-01
      0.9916559000D+01 -0.3515207088D-01
      0.4801870000D+01 -0.7205283779D-01
      0.2326049000D+01 -0.1560602412D-01
      0.1119587000D+01  0.2078127050D+00
      0.5317350000D+00  0.4233012553D+00
      0.2472390000D+00  0.3892241063D+00
      0.1114940000D+00  0.1039026704D+00
 S   1 1.00       0.000000000000
      0.4110083202D-01  0.1000000000D+01
 P  13 1.00       0.000000000000
      0.1659117230D+04  0.1278634101D-04
      0.4055543190D+03  0.1133960824D-03
      0.1285337080D+03  0.6887767592D-03
      0.4857192600D+02  0.3010705050D-02
      0.2059071900D+02  0.1025220750D-01
      0.9387461000D+01  0.2885118833D-01
      0.4478003000D+01  0.7126243407D-01
      0.2197796000D+01  0.1482231765D+00
      0.1098612000D+01  0.2396450378D+00
      0.5550900000D+00  0.2959280313D+00
      0.2809420000D+00  0.2713782015D+00
      0.1403710000D+00  0.1510588203D+00
      0.6758800000D-01  0.2883595141D-01
 P   1 1.00       0.000000000000
      0.4816500000D-01  0.1000000000D+01
 P   1 1.00       0.000000000000
      0.2019200000D-01  0.1000000000D+01
 S   1 1.00       0.000000000000
      0.3131301000D+01  0.1000000000D+01
 S   1 1.00       0.000000000000
      0.1579356000D+01  0.1000000000D+01
 S   1 1.00       0.000000000000
      0.7965910000D+00  0.1000000000D+01
 S   1 1.00       0.000000000000
      0.4017820000D+00  0.1000000000D+01
 S   1 1.00       0.000000000000
      0.2026500000D+00  0.1000000000D+01
 S   1 1.00       0.000000000000
      0.1022120000D+00  0.1000000000D+01
 P   1 1.00       0.000000000000
      0.4841149000D+01  0.1000000000D+01
 P   1 1.00       0.000000000000
      0.2248931000D+01  0.1000000000D+01
 P   1 1.00       0.000000000000
      0.1044730000D+01  0.1000000000D+01
 P   1 1.00       0.000000000000
      0.4853240000D+00  0.1000000000D+01
 P   1 1.00       0.000000000000
      0.2254550000D+00  0.1000000000D+01
 P   1 1.00       0.000000000000
      0.1047340000D+00  0.1000000000D+01
 D   1 1.00       0.000000000000
      0.6851943000D+01  0.1000000000D+01
 D   1 1.00       0.000000000000
      0.3435730000D+01  0.1000000000D+01
 D   1 1.00       0.000000000000
      0.1722758000D+01  0.1000000000D+01
 D   1 1.00       0.000000000000
      0.8638330000D+00  0.1000000000D+01
 D   1 1.00       0.000000000000
      0.4331470000D+00  0.1000000000D+01
 D   1 1.00       0.000000000000
      0.2171900000D+00  0.1000000000D+01
 D   1 1.00       0.000000000000
      0.1089040000D+00  0.1000000000D+01
 F   1 1.00       0.000000000000
      0.4116982000D+01  0.1000000000D+01
 F   1 1.00       0.000000000000
      0.2299161000D+01  0.1000000000D+01
 F   1 1.00       0.000000000000
      0.1283985000D+01  0.1000000000D+01
 F   1 1.00       0.000000000000
      0.7170510000D+00  0.1000000000D+01
 F   1 1.00       0.000000000000
      0.4004430000D+00  0.1000000000D+01
 F   1 1.00       0.000000000000
      0.2236306000D+00  0.1000000000D+01
 G   1 1.00       0.000000000000
      0.4985485000D+01  0.1000000000D+01
 G   1 1.00       0.000000000000
      0.2478946000D+01  0.1000000000D+01
 G   1 1.00       0.000000000000
      0.1232613000D+01  0.1000000000D+01
 G   1 1.00       0.000000000000
      0.6128960000D+00  0.1000000000D+01
 G   1 1.00       0.000000000000
      0.3047521000D+00  0.1000000000D+01
 H   1 1.00       0.000000000000
      0.3940913000D+01  0.1000000000D+01
 H   1 1.00       0.000000000000
      0.1879180000D+01  0.1000000000D+01
 H   1 1.00       0.000000000000
      0.8960660000D+00  0.1000000000D+01
 H   1 1.00       0.000000000000
      0.4272790000D+00  0.1000000000D+01
 I   1 1.00       0.000000000000
      0.3212240000D+01  0.1000000000D+01
 I   1 1.00       0.000000000000
      0.1386314000D+01  0.1000000000D+01
 I   1 1.00       0.000000000000
      0.5982948000D+00  0.1000000000D+01
 J   1 1.00       0.000000000000
      0.2248877960D+01  0.1000000000D+01
 ****

 There are   208 symmetry adapted basis functions of A1  symmetry.
 There are   106 symmetry adapted basis functions of A2  symmetry.
 There are   152 symmetry adapted basis functions of B1  symmetry.
 There are   152 symmetry adapted basis functions of B2  symmetry.
 Integral buffers will be    131072 words long.
 Raffenetti 2 integral format.
 Two-electron integral symmetry is turned on.
   618 basis functions,  1367 primitive gaussians,  1046 cartesian basis functions
    15 alpha electrons       14 beta electrons
       nuclear repulsion energy        51.5715036849 Hartrees.
 NAtoms=    2 NActive=    2 NUniq=    2 SFac= 7.50D-01 NAtFMM=   80 NAOKFM=F Big=F
 One-electron integrals computed using PRISM.
 NBasis=   618 RedAO= F  NBF=   208   106   152   152
 NBsUse=   618 1.00D-04 NBFU=   208   106   152   152
 Initial guess read from the checkpoint file:  TiN_2Sg.chk
 B after Tr=     0.000000    0.000000    0.000000
         Rot=    1.000000    0.000000    0.000000    0.000000 Ang=   0.00 deg.
 Initial guess orbital symmetries:
       Occupied  (SG) (SG) (PI) (PI) (SG) (SG) (SG) (SG) (PI) (PI)
                 (SG) (SG) (PI) (PI) (SG)
       Virtual   (PI) (PI) (SG) (SG) (PI) (PI) (DLTA) (DLTA) (SG)
                 (PI) (PI) (SG) (DLTA) (DLTA) (PI) (PI) (SG) (SG)
                 (SG) (PI) (PI) (SG) (DLTA) (DLTA) (PI) (PI) (PI)
                 (PI) (SG) (PI) (PI) (DLTA) (DLTA) (SG) (PHI) (PHI)
                 (PI) (PI) (SG) (SG) (DLTA) (DLTA) (SG) (DLTA)
                 (DLTA) (PI) (PI) (PI) (PI) (SG) (PI) (PI) (PHI)
                 (PHI) (?A) (?A) (SG) (SG) (DLTA) (DLTA) (PI) (PI)
                 (PI) (PI) (SG) (SG) (PHI) (PHI) (DLTA) (DLTA)
                 (SG) (PHI) (PHI) (DLTA) (DLTA) (PI) (PI) (?B)
                 (?B) (?A) (?A) (SG) (DLTA) (DLTA) (PI) (PI) (SG)
                 (PI) (PI) (SG) (PHI) (PHI) (DLTA) (DLTA) (PI)
                 (PI) (PI) (PI) (SG) (DLTA) (DLTA) (PI) (PI) (SG)
                 (?A) (?A) (SG) (SG) (?B) (?B) (PHI) (PHI) (SG)
                 (PI) (PI) (SG) (DLTA) (DLTA) (?A) (?A) (PHI) (PHI)
                 (SG) (DLTA) (DLTA) (PI) (PI) (SG) (PHI) (PHI)
                 (DLTA) (DLTA) (SG) (?A) (?A) (PI) (PI) (PHI) (PHI)
                 (PI) (PI) (PI) (PI) (SG) (SG) (DLTA) (DLTA) (PHI)
                 (PHI) (DLTA) (DLTA) (PI) (PI) (SG) (DLTA) (DLTA)
                 (PI) (PI) (SG) (?A) (?A) (?B) (?B) (SG) (PI) (PI)
                 (DLTA) (DLTA) (?B) (?B) (PHI) (PHI) (SG) (PI)
                 (PI) (?A) (?A) (PI) (PI) (SG) (DLTA) (DLTA) (DLTA)
                 (DLTA) (SG) (PHI) (PHI) (SG) (PI) (PI) (?A) (?A)
                 (PHI) (PHI) (PI) (PI) (PI) (PI) (SG) (DLTA) (DLTA)
                 (PHI) (PHI) (DLTA) (DLTA) (SG) (?A) (?A) (PHI)
                 (PHI) (SG) (SG) (SG) (PHI) (PHI) (?B) (?B) (SG)
                 (DLTA) (DLTA) (?A) (?A) (PI) (PI) (PI) (PI) (SG)
                 (DLTA) (DLTA) (PI) (PI) (PHI) (PHI) (SG) (DLTA)
                 (DLTA) (PI) (PI) (SG) (DLTA) (DLTA) (SG) (PI)
                 (PI) (PI) (PI) (DLTA) (DLTA) (SG) (SG) (PI) (PI)
                 (SG) (?A) (?A) (DLTA) (DLTA) (PHI) (PHI) (?B)
                 (?B) (?B) (?B) (?A) (?A) (PI) (PI) (PHI) (PHI)
                 (SG) (DLTA) (DLTA) (?C) (?C) (SG) (SG) (?B) (?B)
                 (?A) (?A) (PI) (PI) (SG) (PHI) (PHI) (PI) (PI)
                 (DLTA) (DLTA) (PI) (PI) (SG) (DLTA) (DLTA) (PHI)
                 (PHI) (?A) (?A) (?A) (?A) (PHI) (PHI) (SG) (PHI)
                 (PHI) (PI) (PI) (SG) (DLTA) (DLTA) (PI) (PI) (SG)
                 (PHI) (PHI) (DLTA) (DLTA) (SG) (PI) (PI) (DLTA)
                 (DLTA) (SG) (PI) (PI) (DLTA) (DLTA) (SG) (SG)
                 (SG) (?B) (?B) (SG) (PI) (PI) (?A) (?A) (DLTA)
                 (DLTA) (PI) (PI) (SG) (SG) (?B) (?B) (?A) (?A)
                 (PHI) (PHI) (PI) (PI) (PHI) (PHI) (SG) (SG) (SG)
                 (DLTA) (DLTA) (DLTA) (DLTA) (SG) (PI) (PI) (PI)
                 (PI) (?B) (?B) (?A) (?A) (PHI) (PHI) (SG) (DLTA)
                 (DLTA) (PI) (PI) (PHI) (PHI) (SG) (DLTA) (DLTA)
                 (?B) (?B) (?A) (?A) (PI) (PI) (PHI) (PHI) (SG)
                 (DLTA) (DLTA) (PI) (PI) (SG) (?A) (?A) (PHI) (PHI)
                 (DLTA) (DLTA) (PI) (PI) (SG) (?A) (?A) (PHI) (PHI)
                 (DLTA) (DLTA) (PI) (PI) (SG) (PI) (PI) (PHI) (PHI)
                 (DLTA) (DLTA) (SG) (PI) (PI) (SG) (DLTA) (DLTA)
                 (PI) (PI) (SG) (SG) (SG) (SG) (PI) (PI) (SG) (SG)
                 (PI) (PI) (DLTA) (DLTA) (SG) (PI) (PI) (SG) (PI)
                 (PI) (SG) (SG) (SG) (SG) (SG) (PI) (PI) (SG) (PI)
                 (PI) (PI) (PI) (SG) (PI) (PI) (PI) (PI) (SG) (DLTA)
                 (DLTA) (DLTA) (DLTA) (PI) (PI) (DLTA) (DLTA) (DLTA)
                 (DLTA) (DLTA) (DLTA) (PHI) (PHI) (SG) (PI) (PI)
                 (SG) (PI) (PI) (DLTA) (DLTA) (PHI) (PHI) (PHI)
                 (PHI) (PI) (PI) (DLTA) (DLTA) (PHI) (PHI) (?A)
                 (?A) (DLTA) (DLTA) (PHI) (PHI) (?A) (?A) (PHI)
                 (PHI) (SG) (PI) (PI) (DLTA) (DLTA) (PHI) (PHI)
                 (?A) (?A) (?B) (?B) (SG) (PI) (PI) (DLTA) (DLTA)
                 (PHI) (PHI) (?A) (?A) (?B) (?B) (SG) (PI) (PI)
                 (DLTA) (DLTA) (PHI) (PHI) (?A) (?A) (?B) (?B)
                 (SG) (SG) (SG) (PI) (PI) (DLTA) (DLTA) (PHI) (PHI)
                 (?A) (?A) (?B) (?B) (SG) (SG) (?C) (?C) (DLTA)
                 (DLTA) (?A) (?A) (DLTA) (DLTA) (PHI) (PHI) (?A)
                 (?A) (?B) (?B) (SG) (SG) (?C) (?C) (PHI) (PHI)
                 (?A) (?A) (?B) (?B) (SG) (SG) (?C) (?C) (?D) (?D)
                 (?A) (?A) (?B) (?B) (PHI) (PHI) (?A) (?A) (?B)
                 (?B) (SG) (SG) (SG) (SG) (?B) (?B) (SG) (SG) (?C)
                 (?C)
 Requested convergence on RMS density matrix=1.00D-10 within 128 cycles.
 Requested convergence on MAX density matrix=1.00D-08.
 Requested convergence on             energy=1.00D-08.
 No special actions if energy rises.
 SCF Done:  E(ROHF) =  -902.769261878     A.U. after   18 cycles
             Convg  =    0.1011D-10             -V/T =  2.0003
 <Sx>= 0.0000 <Sy>= 0.0000 <Sz>= 0.5000 <S**2>= 0.7500 S= 0.5000
 <L.S>= 0.000000000000E+00
 Annihilation of the first spin contaminant:
 S**2 before annihilation     0.7500,   after     0.7500
 DiagDN has N=   618 LTot=  1886 but NE2=     3 cannot use DSYEVD.
 GenMOA:  NOpAll=  4 NOp2=4 NOpUse=  4 JSym2X=1
 <Sx>= 0.0000 <Sy>= 0.0000 <Sz>= 0.5000 <S**2>= 0.7500 S= 0.5000
 ExpMin= 1.29D-02 ExpMax= 3.09D+07 ExpMxC= 2.78D+03 IAcc=3 IRadAn=         5 AccDes= 0.00D+00
 HarFok:  IExCor=  205 AccDes= 0.00D+00 IRadAn=         5 IDoV=-2
 ScaDFX=  1.000000  1.000000  1.000000  1.000000
 Range of M.O.s used for correlation:    11   618
 NBasis=   618 NAE=    15 NBE=    14 NFC=    10 NFV=     0
 NROrb=    608 NOA=     5 NOB=     4 NVA=   603 NVB=   604

 **** Warning!!: The largest alpha MO coefficient is  0.56468714D+03


 **** Warning!!: The largest beta MO coefficient is  0.56473855D+03

 Singles contribution to E2=   -0.1581103082D-03
 Disk-based method using OVN memory for  5 occupieds at a time.
 Permanent disk used for amplitudes and <ij||ab> integrals=    20383812 words.
 Estimated scratch disk usage=  4220299236 words.
 IUseRI=2 ITolRI= 6 IR12RI=0
 Actual    scratch disk usage=  4213306357 words.
 GetIJB would need an additional  4780076110 words of memory to use all  16 processors.
 JobTyp=2 Pass  1:  I=   1 to   5 NPSUse= 10 ParTrn=T ParDer=T DoDerP=F.
 T,EIJ(AA): I=   1 J=   2      0.1185694E-02     -0.3835561E-02
 T,EIJ(AA): I=   1 J=   3      0.1383611E-02     -0.4317611E-02
 T,EIJ(AA): I=   1 J=   4      0.1383611E-02     -0.4317611E-02
 T,EIJ(AA): I=   1 J=   5      0.2839357E-03     -0.6650087E-03
 T,EIJ(AA): I=   2 J=   3      0.9222527E-02     -0.1565614E-01
 T,EIJ(AA): I=   2 J=   4      0.9222527E-02     -0.1565614E-01
 T,EIJ(AA): I=   2 J=   5      0.1260474E-02     -0.2220935E-02
 T,EIJ(AA): I=   3 J=   4      0.8079509E-02     -0.1368015E-01
 T,EIJ(AA): I=   3 J=   5      0.1757990E-02     -0.2561164E-02
 T,EIJ(AA): I=   4 J=   5      0.1757990E-02     -0.2561164E-02
 T,EIJ(AB): I=   1 J=   1      0.3198971E-02     -0.1396325E-01
 T,EIJ(AB): I=   1 J=   2      0.3036985E-02     -0.1148593E-01
 T,EIJ(AB): I=   1 J=   3      0.3102479E-02     -0.1173436E-01
 T,EIJ(AB): I=   1 J=   4      0.3102479E-02     -0.1173436E-01
 T,EIJ(AB): I=   2 J=   1      0.3025268E-02     -0.1142403E-01
 T,EIJ(AB): I=   2 J=   2      0.1788196E-01     -0.3419139E-01
 T,EIJ(AB): I=   2 J=   3      0.1047591E-01     -0.1869417E-01
 T,EIJ(AB): I=   2 J=   4      0.1047591E-01     -0.1869417E-01
 T,EIJ(AB): I=   3 J=   1      0.3146369E-02     -0.1181489E-01
 T,EIJ(AB): I=   3 J=   2      0.1085185E-01     -0.1916502E-01
 T,EIJ(AB): I=   3 J=   3      0.1583334E-01     -0.3007733E-01
 T,EIJ(AB): I=   3 J=   4      0.1018916E-01     -0.1798771E-01
 T,EIJ(AB): I=   4 J=   1      0.3146369E-02     -0.1181489E-01
 T,EIJ(AB): I=   4 J=   2      0.1085185E-01     -0.1916502E-01
 T,EIJ(AB): I=   4 J=   3      0.1018916E-01     -0.1798771E-01
 T,EIJ(AB): I=   4 J=   4      0.1583334E-01     -0.3007733E-01
 T,EIJ(AB): I=   5 J=   1      0.4235451E-03     -0.1067095E-02
 T,EIJ(AB): I=   5 J=   2      0.2818295E-02     -0.4426319E-02
 T,EIJ(AB): I=   5 J=   3      0.2313773E-02     -0.3406948E-02
 T,EIJ(AB): I=   5 J=   4      0.2313773E-02     -0.3406948E-02
 Actual    scratch disk usage=  4220293092 words.
 GetIJB would need an additional  4780060420 words of memory to use all  16 processors.
 JobTyp=3 Pass  1:  I=   1 to   4 NPSUse= 10 ParTrn=T ParDer=T DoDerP=F.
 T,EIJ(BB): I=   1 J=   2      0.1230593E-02     -0.3949544E-02
 T,EIJ(BB): I=   1 J=   3      0.1417233E-02     -0.4381750E-02
 T,EIJ(BB): I=   1 J=   4      0.1417233E-02     -0.4381750E-02
 T,EIJ(BB): I=   2 J=   3      0.9512487E-02     -0.1603542E-01
 T,EIJ(BB): I=   2 J=   4      0.9512487E-02     -0.1603542E-01
 T,EIJ(BB): I=   3 J=   4      0.8043541E-02     -0.1366361E-01
 Spin components of T(2) and E(2):
     alpha-alpha T2 =       0.3553786856D-01 E2=     -0.6547148099D-01
     alpha-beta  T2 =       0.1422107753D+00 E2=     -0.3023188837D+00
     beta-beta   T2 =       0.3113357388D-01 E2=     -0.5844749646D-01
 ANorm=    0.1099603092D+01
 E2 =    -0.4263959715D+00 EUMP2 =    -0.90319565784974D+03

 Complete Basis Set (CBS) Extrapolation:
 M. R. Nyden and G. A. Petersson, JCP 75, 1843 (1981)
 G. A. Petersson and M. A. Al-Laham, JCP 94, 6081 (1991)
 G. A. Petersson, T. Tensfeldt, and J. A. Montgomery, JCP 94, 6091 (1991)
 J. A. Montgomery, J. W. Ochterski, and G. A. Petersson, JCP 101, 5900 (1994)
 
 Minimum Number of PNO for Extrapolation =  25
 Absolute Overlaps: IRadAn =         5
 LocTrn: ILocal=3 LocCor=F DoCore=F.
 Entering OneElI...
 Overlap between basis sets.
 Requested accuracy = 0.1000D-12
 PrsmSu:  NPrtUS=   1 ThrOK=F IAlg=1
 PRISM was handed  8588064757 working-precision words and    49 shell-pairs
 IPart=  0 NShTot=          49 NBatch=           9 AvBLen=         5.4
 CnvPC2: ToCart=F DoDens=F IPureD=0 IPureF=0.
 Transformed matrix in CnvPC2: 
                 1             2             3             4             5 
      1   0.100000D+01  0.371775D+00  0.000000D+00  0.000000D+00  0.000000D+00
      2   0.371775D+00  0.100000D+01  0.000000D+00  0.000000D+00  0.000000D+00
      3   0.000000D+00  0.000000D+00  0.100000D+01  0.000000D+00  0.000000D+00
      4   0.000000D+00  0.000000D+00  0.000000D+00  0.100000D+01  0.000000D+00
      5   0.000000D+00  0.000000D+00  0.000000D+00  0.000000D+00  0.100000D+01
      6   0.223608D-01  0.300384D+00  0.000000D+00  0.000000D+00  0.000000D+00
      7   0.000000D+00  0.000000D+00  0.313309D+00  0.000000D+00  0.000000D+00
      8   0.000000D+00  0.000000D+00  0.000000D+00  0.313309D+00  0.000000D+00
      9   0.000000D+00  0.000000D+00  0.000000D+00  0.000000D+00  0.313309D+00
     10   0.000000D+00  0.000000D+00  0.000000D+00  0.000000D+00  0.000000D+00
     11   0.000000D+00  0.000000D+00  0.000000D+00  0.000000D+00  0.000000D+00
     12   0.000000D+00  0.000000D+00  0.000000D+00  0.000000D+00  0.000000D+00
     13   0.000000D+00  0.000000D+00  0.000000D+00  0.000000D+00  0.000000D+00
     14   0.000000D+00  0.000000D+00  0.000000D+00  0.000000D+00  0.000000D+00
     15  -0.412730D-03  0.136941D-01  0.000000D+00  0.000000D+00  0.000000D+00
     16   0.000000D+00  0.000000D+00  0.250808D-01  0.000000D+00  0.000000D+00
     17   0.000000D+00  0.000000D+00  0.000000D+00  0.250808D-01  0.000000D+00
     18   0.000000D+00  0.000000D+00  0.000000D+00  0.000000D+00  0.250808D-01
     19   0.000000D+00  0.000000D+00  0.000000D+00  0.000000D+00  0.000000D+00
     20   0.212569D-02  0.149239D-01  0.000000D+00  0.000000D+00 -0.667613D-02
     21   0.000000D+00  0.000000D+00  0.238743D-02  0.000000D+00  0.000000D+00
     22   0.000000D+00  0.000000D+00  0.000000D+00  0.238743D-02  0.000000D+00
     23   0.388435D-02  0.267012D-01  0.000000D+00  0.000000D+00 -0.104631D-01
                 6             7             8             9            10 
      1   0.223608D-01  0.000000D+00  0.000000D+00  0.000000D+00  0.000000D+00
      2   0.300384D+00  0.000000D+00  0.000000D+00  0.000000D+00  0.000000D+00
      3   0.000000D+00  0.313309D+00  0.000000D+00  0.000000D+00  0.000000D+00
      4   0.000000D+00  0.000000D+00  0.313309D+00  0.000000D+00  0.000000D+00
      5   0.000000D+00  0.000000D+00  0.000000D+00  0.313309D+00  0.000000D+00
      6   0.100000D+01  0.000000D+00  0.000000D+00  0.000000D+00  0.000000D+00
      7   0.000000D+00  0.100000D+01  0.000000D+00  0.000000D+00  0.000000D+00
      8   0.000000D+00  0.000000D+00  0.100000D+01  0.000000D+00  0.000000D+00
      9   0.000000D+00  0.000000D+00  0.000000D+00  0.100000D+01  0.000000D+00
     10   0.000000D+00  0.000000D+00  0.000000D+00  0.000000D+00  0.100000D+01
     11   0.000000D+00  0.000000D+00  0.000000D+00  0.000000D+00  0.000000D+00
     12   0.000000D+00  0.000000D+00  0.000000D+00  0.000000D+00  0.000000D+00
     13   0.000000D+00  0.000000D+00  0.000000D+00  0.000000D+00  0.000000D+00
     14   0.000000D+00  0.000000D+00  0.000000D+00  0.000000D+00  0.000000D+00
     15   0.395149D+00  0.000000D+00  0.000000D+00  0.000000D+00  0.000000D+00
     16   0.000000D+00  0.407435D+00  0.000000D+00  0.000000D+00  0.000000D+00
     17   0.000000D+00  0.000000D+00  0.407435D+00  0.000000D+00  0.000000D+00
     18   0.000000D+00  0.000000D+00  0.000000D+00  0.407435D+00  0.000000D+00
     19   0.186895D-02  0.000000D+00  0.000000D+00 -0.428097D-02  0.598231D-01
     20   0.118273D+00  0.000000D+00  0.000000D+00 -0.130451D+00  0.323852D+00
     21   0.000000D+00  0.507707D-01  0.000000D+00  0.000000D+00  0.000000D+00
     22   0.000000D+00  0.000000D+00  0.507707D-01  0.000000D+00  0.000000D+00
     23   0.181659D+00  0.000000D+00  0.000000D+00 -0.183534D+00  0.221672D+00
                11            12            13            14            15 
      1   0.000000D+00  0.000000D+00  0.000000D+00  0.000000D+00 -0.412730D-03
      2   0.000000D+00  0.000000D+00  0.000000D+00  0.000000D+00  0.136941D-01
      3   0.000000D+00  0.000000D+00  0.000000D+00  0.000000D+00  0.000000D+00
      4   0.000000D+00  0.000000D+00  0.000000D+00  0.000000D+00  0.000000D+00
      5   0.000000D+00  0.000000D+00  0.000000D+00  0.000000D+00  0.000000D+00
      6   0.000000D+00  0.000000D+00  0.000000D+00  0.000000D+00  0.395149D+00
      7   0.000000D+00  0.000000D+00  0.000000D+00  0.000000D+00  0.000000D+00
      8   0.000000D+00  0.000000D+00  0.000000D+00  0.000000D+00  0.000000D+00
      9   0.000000D+00  0.000000D+00  0.000000D+00  0.000000D+00  0.000000D+00
     10   0.000000D+00  0.000000D+00  0.000000D+00  0.000000D+00  0.000000D+00
     11   0.100000D+01  0.000000D+00  0.000000D+00  0.000000D+00  0.000000D+00
     12   0.000000D+00  0.100000D+01  0.000000D+00  0.000000D+00  0.000000D+00
     13   0.000000D+00  0.000000D+00  0.100000D+01  0.000000D+00  0.000000D+00
     14   0.000000D+00  0.000000D+00  0.000000D+00  0.100000D+01  0.000000D+00
     15   0.000000D+00  0.000000D+00  0.000000D+00  0.000000D+00  0.100000D+01
     16   0.000000D+00  0.000000D+00  0.000000D+00  0.000000D+00  0.000000D+00
     17   0.000000D+00  0.000000D+00  0.000000D+00  0.000000D+00  0.000000D+00
     18   0.000000D+00  0.000000D+00  0.000000D+00  0.000000D+00  0.000000D+00
     19   0.000000D+00  0.000000D+00  0.000000D+00  0.000000D+00  0.451351D-01
     20   0.000000D+00  0.000000D+00  0.000000D+00  0.000000D+00  0.383573D+00
     21  -0.245889D+00  0.000000D+00  0.000000D+00  0.000000D+00  0.000000D+00
     22   0.000000D+00 -0.245889D+00  0.000000D+00  0.000000D+00  0.000000D+00
     23   0.000000D+00  0.000000D+00  0.000000D+00  0.000000D+00  0.218866D+00
                16            17            18            19            20 
      1   0.000000D+00  0.000000D+00  0.000000D+00  0.000000D+00  0.212569D-02
      2   0.000000D+00  0.000000D+00  0.000000D+00  0.000000D+00  0.149239D-01
      3   0.250808D-01  0.000000D+00  0.000000D+00  0.000000D+00  0.000000D+00
      4   0.000000D+00  0.250808D-01  0.000000D+00  0.000000D+00  0.000000D+00
      5   0.000000D+00  0.000000D+00  0.250808D-01  0.000000D+00 -0.667613D-02
      6   0.000000D+00  0.000000D+00  0.000000D+00  0.186895D-02  0.118273D+00
      7   0.407435D+00  0.000000D+00  0.000000D+00  0.000000D+00  0.000000D+00
      8   0.000000D+00  0.407435D+00  0.000000D+00  0.000000D+00  0.000000D+00
      9   0.000000D+00  0.000000D+00  0.407435D+00 -0.428097D-02 -0.130451D+00
     10   0.000000D+00  0.000000D+00  0.000000D+00  0.598231D-01  0.323852D+00
     11   0.000000D+00  0.000000D+00  0.000000D+00  0.000000D+00  0.000000D+00
     12   0.000000D+00  0.000000D+00  0.000000D+00  0.000000D+00  0.000000D+00
     13   0.000000D+00  0.000000D+00  0.000000D+00  0.000000D+00  0.000000D+00
     14   0.000000D+00  0.000000D+00  0.000000D+00  0.000000D+00  0.000000D+00
     15   0.000000D+00  0.000000D+00  0.000000D+00  0.451351D-01  0.383573D+00
     16   0.100000D+01  0.000000D+00  0.000000D+00  0.000000D+00  0.000000D+00
     17   0.000000D+00  0.100000D+01  0.000000D+00  0.000000D+00  0.000000D+00
     18   0.000000D+00  0.000000D+00  0.100000D+01 -0.779755D-01 -0.532973D+00
     19   0.000000D+00  0.000000D+00 -0.779755D-01  0.100000D+01  0.235038D+00
     20   0.000000D+00  0.000000D+00 -0.532973D+00  0.235038D+00  0.100000D+01
     21   0.223755D+00  0.000000D+00  0.000000D+00  0.000000D+00  0.000000D+00
     22   0.000000D+00  0.223755D+00  0.000000D+00  0.000000D+00  0.000000D+00
     23   0.000000D+00  0.000000D+00 -0.245411D+00  0.000000D+00  0.000000D+00
                21            22            23 
      1   0.000000D+00  0.000000D+00  0.388435D-02
      2   0.000000D+00  0.000000D+00  0.267012D-01
      3   0.238743D-02  0.000000D+00  0.000000D+00
      4   0.000000D+00  0.238743D-02  0.000000D+00
      5   0.000000D+00  0.000000D+00 -0.104631D-01
      6   0.000000D+00  0.000000D+00  0.181659D+00
      7   0.507707D-01  0.000000D+00  0.000000D+00
      8   0.000000D+00  0.507707D-01  0.000000D+00
      9   0.000000D+00  0.000000D+00 -0.183534D+00
     10   0.000000D+00  0.000000D+00  0.221672D+00
     11  -0.245889D+00  0.000000D+00  0.000000D+00
     12   0.000000D+00 -0.245889D+00  0.000000D+00
     13   0.000000D+00  0.000000D+00  0.000000D+00
     14   0.000000D+00  0.000000D+00  0.000000D+00
     15   0.000000D+00  0.000000D+00  0.218866D+00
     16   0.223755D+00  0.000000D+00  0.000000D+00
     17   0.000000D+00  0.223755D+00  0.000000D+00
     18   0.000000D+00  0.000000D+00 -0.245411D+00
     19   0.000000D+00  0.000000D+00  0.000000D+00
     20   0.000000D+00  0.000000D+00  0.000000D+00
     21   0.100000D+01  0.000000D+00  0.000000D+00
     22   0.000000D+00  0.100000D+01  0.000000D+00
     23   0.000000D+00  0.000000D+00  0.100000D+01
 Entering OneElI...
 Overlap between basis sets.
 Requested accuracy = 0.1000D-12
 PrsmSu:  NPrtUS=   1 ThrOK=F IAlg=1
 PRISM was handed  8586687290 working-precision words and   713 shell-pairs
 IPart=  0 NShTot=         713 NBatch=          73 AvBLen=         9.8
 CnvPC2: ToCart=F DoDens=F IPureD=0 IPureF=0.
 Transformed matrix in CnvPC2: 
                 1             2             3             4             5 
      1   0.999758D+00  0.383883D+00  0.000000D+00  0.000000D+00  0.000000D+00
      2   0.271108D+00  0.991006D+00  0.000000D+00  0.000000D+00  0.000000D+00
      3   0.000000D+00  0.000000D+00  0.998810D+00  0.000000D+00  0.000000D+00
      4   0.000000D+00  0.000000D+00  0.000000D+00  0.998810D+00  0.000000D+00
      5   0.000000D+00  0.000000D+00  0.000000D+00  0.000000D+00  0.998810D+00
      6   0.832611D-02  0.296541D+00  0.000000D+00  0.000000D+00  0.000000D+00
      7   0.000000D+00  0.000000D+00  0.299493D+00  0.000000D+00  0.000000D+00
      8   0.000000D+00  0.000000D+00  0.000000D+00  0.299493D+00  0.000000D+00
      9   0.000000D+00  0.000000D+00  0.000000D+00  0.000000D+00  0.299493D+00
     10   0.000000D+00  0.000000D+00  0.000000D+00  0.000000D+00  0.000000D+00
     11   0.000000D+00  0.000000D+00  0.000000D+00  0.000000D+00  0.000000D+00
     12   0.000000D+00  0.000000D+00  0.000000D+00  0.000000D+00  0.000000D+00
     13   0.000000D+00  0.000000D+00  0.000000D+00  0.000000D+00  0.000000D+00
     14   0.000000D+00  0.000000D+00  0.000000D+00  0.000000D+00  0.000000D+00
     15   0.000000D+00  0.000000D+00  0.000000D+00  0.000000D+00  0.000000D+00
     16   0.000000D+00  0.000000D+00  0.000000D+00  0.000000D+00  0.000000D+00
     17   0.000000D+00  0.000000D+00  0.000000D+00  0.000000D+00  0.000000D+00
     18   0.000000D+00  0.000000D+00  0.000000D+00  0.000000D+00  0.000000D+00
     19   0.000000D+00  0.000000D+00  0.000000D+00  0.000000D+00  0.000000D+00
     20   0.000000D+00  0.000000D+00  0.000000D+00  0.000000D+00  0.000000D+00
     21   0.000000D+00  0.000000D+00  0.000000D+00  0.000000D+00  0.000000D+00
     22   0.000000D+00  0.000000D+00  0.000000D+00  0.000000D+00  0.000000D+00
     23   0.000000D+00  0.000000D+00  0.000000D+00  0.000000D+00  0.000000D+00
     24   0.000000D+00  0.000000D+00  0.000000D+00  0.000000D+00  0.000000D+00
     25  -0.186227D-03  0.218999D-02  0.000000D+00  0.000000D+00  0.000000D+00
     26   0.788010D-02  0.525191D-01  0.000000D+00  0.000000D+00  0.000000D+00
     27   0.378210D-02  0.253212D-01  0.000000D+00  0.000000D+00  0.000000D+00
     28   0.000000D+00  0.000000D+00 -0.777551D-01  0.000000D+00  0.000000D+00
     29   0.000000D+00  0.000000D+00  0.000000D+00 -0.777551D-01  0.000000D+00
     30   0.000000D+00  0.000000D+00  0.000000D+00  0.000000D+00 -0.777551D-01
     31   0.000000D+00  0.000000D+00  0.106471D-01  0.000000D+00  0.000000D+00
     32   0.000000D+00  0.000000D+00  0.000000D+00  0.106471D-01  0.000000D+00
     33   0.000000D+00  0.000000D+00  0.000000D+00  0.000000D+00  0.106471D-01
     34   0.000000D+00  0.000000D+00  0.214041D-02  0.000000D+00  0.000000D+00
     35   0.000000D+00  0.000000D+00  0.000000D+00  0.214041D-02  0.000000D+00
     36   0.000000D+00  0.000000D+00  0.000000D+00  0.000000D+00  0.214041D-02
     37   0.260505D+00  0.935915D+00  0.000000D+00  0.000000D+00  0.000000D+00
     38   0.165713D+00  0.767013D+00  0.000000D+00  0.000000D+00  0.000000D+00
     39   0.103407D+00  0.562987D+00  0.000000D+00  0.000000D+00  0.000000D+00
     40   0.638550D-01  0.382555D+00  0.000000D+00  0.000000D+00  0.000000D+00
     41   0.392124D-01  0.247787D+00  0.000000D+00  0.000000D+00  0.000000D+00
     42   0.240095D-01  0.156142D+00  0.000000D+00  0.000000D+00  0.000000D+00
     43   0.000000D+00  0.000000D+00  0.410438D+00  0.000000D+00  0.000000D+00
     44   0.000000D+00  0.000000D+00  0.000000D+00  0.410438D+00  0.000000D+00
     45   0.000000D+00  0.000000D+00  0.000000D+00  0.000000D+00  0.410438D+00
     46   0.000000D+00  0.000000D+00  0.255871D+00  0.000000D+00  0.000000D+00
     47   0.000000D+00  0.000000D+00  0.000000D+00  0.255871D+00  0.000000D+00
     48   0.000000D+00  0.000000D+00  0.000000D+00  0.000000D+00  0.255871D+00
     49   0.000000D+00  0.000000D+00  0.149112D+00  0.000000D+00  0.000000D+00
     50   0.000000D+00  0.000000D+00  0.000000D+00  0.149112D+00  0.000000D+00
     51   0.000000D+00  0.000000D+00  0.000000D+00  0.000000D+00  0.149112D+00
     52   0.000000D+00  0.000000D+00  0.829389D-01  0.000000D+00  0.000000D+00
     53   0.000000D+00  0.000000D+00  0.000000D+00  0.829389D-01  0.000000D+00
     54   0.000000D+00  0.000000D+00  0.000000D+00  0.000000D+00  0.829389D-01
     55   0.000000D+00  0.000000D+00  0.447537D-01  0.000000D+00  0.000000D+00
     56   0.000000D+00  0.000000D+00  0.000000D+00  0.447537D-01  0.000000D+00
     57   0.000000D+00  0.000000D+00  0.000000D+00  0.000000D+00  0.447537D-01
     58   0.000000D+00  0.000000D+00  0.236951D-01  0.000000D+00  0.000000D+00
     59   0.000000D+00  0.000000D+00  0.000000D+00  0.236951D-01  0.000000D+00
     60   0.000000D+00  0.000000D+00  0.000000D+00  0.000000D+00  0.236951D-01
     61   0.000000D+00  0.000000D+00  0.000000D+00  0.000000D+00  0.000000D+00
     62   0.000000D+00  0.000000D+00  0.000000D+00  0.000000D+00  0.000000D+00
     63   0.000000D+00  0.000000D+00  0.000000D+00  0.000000D+00  0.000000D+00
     64   0.000000D+00  0.000000D+00  0.000000D+00  0.000000D+00  0.000000D+00
     65   0.000000D+00  0.000000D+00  0.000000D+00  0.000000D+00  0.000000D+00
     66   0.000000D+00  0.000000D+00  0.000000D+00  0.000000D+00  0.000000D+00
     67   0.000000D+00  0.000000D+00  0.000000D+00  0.000000D+00  0.000000D+00
     68   0.000000D+00  0.000000D+00  0.000000D+00  0.000000D+00  0.000000D+00
     69   0.000000D+00  0.000000D+00  0.000000D+00  0.000000D+00  0.000000D+00
     70   0.000000D+00  0.000000D+00  0.000000D+00  0.000000D+00  0.000000D+00
     71   0.000000D+00  0.000000D+00  0.000000D+00  0.000000D+00  0.000000D+00
     72   0.000000D+00  0.000000D+00  0.000000D+00  0.000000D+00  0.000000D+00
     73   0.000000D+00  0.000000D+00  0.000000D+00  0.000000D+00  0.000000D+00
     74   0.000000D+00  0.000000D+00  0.000000D+00  0.000000D+00  0.000000D+00
     75   0.000000D+00  0.000000D+00  0.000000D+00  0.000000D+00  0.000000D+00
     76   0.000000D+00  0.000000D+00  0.000000D+00  0.000000D+00  0.000000D+00
     77   0.000000D+00  0.000000D+00  0.000000D+00  0.000000D+00  0.000000D+00
     78   0.000000D+00  0.000000D+00  0.000000D+00  0.000000D+00  0.000000D+00
     79   0.000000D+00  0.000000D+00  0.000000D+00  0.000000D+00  0.000000D+00
     80   0.000000D+00  0.000000D+00  0.000000D+00  0.000000D+00  0.000000D+00
     81   0.000000D+00  0.000000D+00  0.000000D+00  0.000000D+00  0.000000D+00
     82   0.000000D+00  0.000000D+00  0.000000D+00  0.000000D+00  0.000000D+00
     83   0.000000D+00  0.000000D+00  0.000000D+00  0.000000D+00  0.000000D+00
     84   0.000000D+00  0.000000D+00  0.000000D+00  0.000000D+00  0.000000D+00
     85   0.000000D+00  0.000000D+00  0.000000D+00  0.000000D+00  0.000000D+00
     86   0.000000D+00  0.000000D+00  0.000000D+00  0.000000D+00  0.000000D+00
     87   0.000000D+00  0.000000D+00  0.000000D+00  0.000000D+00  0.000000D+00
     88   0.000000D+00  0.000000D+00  0.000000D+00  0.000000D+00  0.000000D+00
     89   0.000000D+00  0.000000D+00  0.000000D+00  0.000000D+00  0.000000D+00
     90   0.000000D+00  0.000000D+00  0.000000D+00  0.000000D+00  0.000000D+00
     91   0.000000D+00  0.000000D+00  0.000000D+00  0.000000D+00  0.000000D+00
     92   0.000000D+00  0.000000D+00  0.000000D+00  0.000000D+00  0.000000D+00
     93   0.000000D+00  0.000000D+00  0.000000D+00  0.000000D+00  0.000000D+00
     94   0.000000D+00  0.000000D+00  0.000000D+00  0.000000D+00  0.000000D+00
     95   0.000000D+00  0.000000D+00  0.000000D+00  0.000000D+00  0.000000D+00
     96   0.000000D+00  0.000000D+00  0.000000D+00  0.000000D+00  0.000000D+00
     97   0.000000D+00  0.000000D+00  0.000000D+00  0.000000D+00  0.000000D+00
     98   0.000000D+00  0.000000D+00  0.000000D+00  0.000000D+00  0.000000D+00
     99   0.000000D+00  0.000000D+00  0.000000D+00  0.000000D+00  0.000000D+00
    100   0.000000D+00  0.000000D+00  0.000000D+00  0.000000D+00  0.000000D+00
    101   0.000000D+00  0.000000D+00  0.000000D+00  0.000000D+00  0.000000D+00
    102   0.000000D+00  0.000000D+00  0.000000D+00  0.000000D+00  0.000000D+00
    103   0.000000D+00  0.000000D+00  0.000000D+00  0.000000D+00  0.000000D+00
    104   0.000000D+00  0.000000D+00  0.000000D+00  0.000000D+00  0.000000D+00
    105   0.000000D+00  0.000000D+00  0.000000D+00  0.000000D+00  0.000000D+00
    106   0.000000D+00  0.000000D+00  0.000000D+00  0.000000D+00  0.000000D+00
    107   0.000000D+00  0.000000D+00  0.000000D+00  0.000000D+00  0.000000D+00
    108   0.000000D+00  0.000000D+00  0.000000D+00  0.000000D+00  0.000000D+00
    109   0.000000D+00  0.000000D+00  0.000000D+00  0.000000D+00  0.000000D+00
    110   0.000000D+00  0.000000D+00  0.000000D+00  0.000000D+00  0.000000D+00
    111   0.000000D+00  0.000000D+00  0.000000D+00  0.000000D+00  0.000000D+00
    112   0.000000D+00  0.000000D+00  0.000000D+00  0.000000D+00  0.000000D+00
    113   0.000000D+00  0.000000D+00  0.000000D+00  0.000000D+00  0.000000D+00
    114   0.000000D+00  0.000000D+00  0.000000D+00  0.000000D+00  0.000000D+00
    115   0.000000D+00  0.000000D+00  0.000000D+00  0.000000D+00  0.000000D+00
    116   0.000000D+00  0.000000D+00  0.000000D+00  0.000000D+00  0.000000D+00
    117   0.000000D+00  0.000000D+00  0.000000D+00  0.000000D+00  0.000000D+00
    118   0.000000D+00  0.000000D+00  0.000000D+00  0.000000D+00  0.000000D+00
    119   0.000000D+00  0.000000D+00  0.000000D+00  0.000000D+00  0.000000D+00
    120   0.000000D+00  0.000000D+00  0.000000D+00  0.000000D+00  0.000000D+00
    121   0.000000D+00  0.000000D+00  0.000000D+00  0.000000D+00  0.000000D+00
    122   0.000000D+00  0.000000D+00  0.000000D+00  0.000000D+00  0.000000D+00
    123   0.000000D+00  0.000000D+00  0.000000D+00  0.000000D+00  0.000000D+00
    124   0.000000D+00  0.000000D+00  0.000000D+00  0.000000D+00  0.000000D+00
    125   0.000000D+00  0.000000D+00  0.000000D+00  0.000000D+00  0.000000D+00
    126   0.000000D+00  0.000000D+00  0.000000D+00  0.000000D+00  0.000000D+00
    127   0.000000D+00  0.000000D+00  0.000000D+00  0.000000D+00  0.000000D+00
    128   0.000000D+00  0.000000D+00  0.000000D+00  0.000000D+00  0.000000D+00
    129   0.000000D+00  0.000000D+00  0.000000D+00  0.000000D+00  0.000000D+00
    130   0.000000D+00  0.000000D+00  0.000000D+00  0.000000D+00  0.000000D+00
    131   0.000000D+00  0.000000D+00  0.000000D+00  0.000000D+00  0.000000D+00
    132   0.000000D+00  0.000000D+00  0.000000D+00  0.000000D+00  0.000000D+00
    133   0.000000D+00  0.000000D+00  0.000000D+00  0.000000D+00  0.000000D+00
    134   0.000000D+00  0.000000D+00  0.000000D+00  0.000000D+00  0.000000D+00
    135   0.000000D+00  0.000000D+00  0.000000D+00  0.000000D+00  0.000000D+00
    136   0.000000D+00  0.000000D+00  0.000000D+00  0.000000D+00  0.000000D+00
    137   0.000000D+00  0.000000D+00  0.000000D+00  0.000000D+00  0.000000D+00
    138   0.000000D+00  0.000000D+00  0.000000D+00  0.000000D+00  0.000000D+00
    139   0.000000D+00  0.000000D+00  0.000000D+00  0.000000D+00  0.000000D+00
    140   0.000000D+00  0.000000D+00  0.000000D+00  0.000000D+00  0.000000D+00
    141   0.000000D+00  0.000000D+00  0.000000D+00  0.000000D+00  0.000000D+00
    142   0.000000D+00  0.000000D+00  0.000000D+00  0.000000D+00  0.000000D+00
    143   0.000000D+00  0.000000D+00  0.000000D+00  0.000000D+00  0.000000D+00
    144   0.000000D+00  0.000000D+00  0.000000D+00  0.000000D+00  0.000000D+00
    145   0.000000D+00  0.000000D+00  0.000000D+00  0.000000D+00  0.000000D+00
    146   0.000000D+00  0.000000D+00  0.000000D+00  0.000000D+00  0.000000D+00
    147   0.000000D+00  0.000000D+00  0.000000D+00  0.000000D+00  0.000000D+00
    148   0.000000D+00  0.000000D+00  0.000000D+00  0.000000D+00  0.000000D+00
    149   0.000000D+00  0.000000D+00  0.000000D+00  0.000000D+00  0.000000D+00
    150   0.000000D+00  0.000000D+00  0.000000D+00  0.000000D+00  0.000000D+00
    151   0.000000D+00  0.000000D+00  0.000000D+00  0.000000D+00  0.000000D+00
    152   0.000000D+00  0.000000D+00  0.000000D+00  0.000000D+00  0.000000D+00
    153   0.000000D+00  0.000000D+00  0.000000D+00  0.000000D+00  0.000000D+00
    154   0.000000D+00  0.000000D+00  0.000000D+00  0.000000D+00  0.000000D+00
    155   0.000000D+00  0.000000D+00  0.000000D+00  0.000000D+00  0.000000D+00
    156   0.000000D+00  0.000000D+00  0.000000D+00  0.000000D+00  0.000000D+00
    157   0.000000D+00  0.000000D+00  0.000000D+00  0.000000D+00  0.000000D+00
    158   0.000000D+00  0.000000D+00  0.000000D+00  0.000000D+00  0.000000D+00
    159   0.000000D+00  0.000000D+00  0.000000D+00  0.000000D+00  0.000000D+00
    160   0.000000D+00  0.000000D+00  0.000000D+00  0.000000D+00  0.000000D+00
    161   0.000000D+00  0.000000D+00  0.000000D+00  0.000000D+00  0.000000D+00
    162   0.000000D+00  0.000000D+00  0.000000D+00  0.000000D+00  0.000000D+00
    163   0.000000D+00  0.000000D+00  0.000000D+00  0.000000D+00  0.000000D+00
    164   0.000000D+00  0.000000D+00  0.000000D+00  0.000000D+00  0.000000D+00
    165   0.000000D+00  0.000000D+00  0.000000D+00  0.000000D+00  0.000000D+00
    166   0.000000D+00  0.000000D+00  0.000000D+00  0.000000D+00  0.000000D+00
    167   0.000000D+00  0.000000D+00  0.000000D+00  0.000000D+00  0.000000D+00
    168   0.000000D+00  0.000000D+00  0.000000D+00  0.000000D+00  0.000000D+00
    169   0.000000D+00  0.000000D+00  0.000000D+00  0.000000D+00  0.000000D+00
    170   0.000000D+00  0.000000D+00  0.000000D+00  0.000000D+00  0.000000D+00
    171   0.000000D+00  0.000000D+00  0.000000D+00  0.000000D+00  0.000000D+00
    172   0.000000D+00  0.000000D+00  0.000000D+00  0.000000D+00  0.000000D+00
    173   0.000000D+00  0.000000D+00  0.000000D+00  0.000000D+00  0.000000D+00
    174   0.000000D+00  0.000000D+00  0.000000D+00  0.000000D+00  0.000000D+00
    175   0.000000D+00  0.000000D+00  0.000000D+00  0.000000D+00  0.000000D+00
    176   0.000000D+00  0.000000D+00  0.000000D+00  0.000000D+00  0.000000D+00
    177   0.000000D+00  0.000000D+00  0.000000D+00  0.000000D+00  0.000000D+00
    178   0.000000D+00  0.000000D+00  0.000000D+00  0.000000D+00  0.000000D+00
    179   0.000000D+00  0.000000D+00  0.000000D+00  0.000000D+00  0.000000D+00
    180   0.000000D+00  0.000000D+00  0.000000D+00  0.000000D+00  0.000000D+00
    181   0.000000D+00  0.000000D+00  0.000000D+00  0.000000D+00  0.000000D+00
    182   0.000000D+00  0.000000D+00  0.000000D+00  0.000000D+00  0.000000D+00
    183   0.000000D+00  0.000000D+00  0.000000D+00  0.000000D+00  0.000000D+00
    184   0.000000D+00  0.000000D+00  0.000000D+00  0.000000D+00  0.000000D+00
    185   0.000000D+00  0.000000D+00  0.000000D+00  0.000000D+00  0.000000D+00
    186   0.000000D+00  0.000000D+00  0.000000D+00  0.000000D+00  0.000000D+00
    187   0.000000D+00  0.000000D+00  0.000000D+00  0.000000D+00  0.000000D+00
    188   0.000000D+00  0.000000D+00  0.000000D+00  0.000000D+00  0.000000D+00
    189   0.000000D+00  0.000000D+00  0.000000D+00  0.000000D+00  0.000000D+00
    190   0.000000D+00  0.000000D+00  0.000000D+00  0.000000D+00  0.000000D+00
    191   0.000000D+00  0.000000D+00  0.000000D+00  0.000000D+00  0.000000D+00
    192   0.000000D+00  0.000000D+00  0.000000D+00  0.000000D+00  0.000000D+00
    193   0.000000D+00  0.000000D+00  0.000000D+00  0.000000D+00  0.000000D+00
    194   0.000000D+00  0.000000D+00  0.000000D+00  0.000000D+00  0.000000D+00
    195   0.000000D+00  0.000000D+00  0.000000D+00  0.000000D+00  0.000000D+00
    196   0.000000D+00  0.000000D+00  0.000000D+00  0.000000D+00  0.000000D+00
    197   0.000000D+00  0.000000D+00  0.000000D+00  0.000000D+00  0.000000D+00
    198   0.000000D+00  0.000000D+00  0.000000D+00  0.000000D+00  0.000000D+00
    199   0.000000D+00  0.000000D+00  0.000000D+00  0.000000D+00  0.000000D+00
    200   0.000000D+00  0.000000D+00  0.000000D+00  0.000000D+00  0.000000D+00
    201   0.000000D+00  0.000000D+00  0.000000D+00  0.000000D+00  0.000000D+00
    202   0.000000D+00  0.000000D+00  0.000000D+00  0.000000D+00  0.000000D+00
    203   0.000000D+00  0.000000D+00  0.000000D+00  0.000000D+00  0.000000D+00
    204   0.000000D+00  0.000000D+00  0.000000D+00  0.000000D+00  0.000000D+00
    205   0.000000D+00  0.000000D+00  0.000000D+00  0.000000D+00  0.000000D+00
    206   0.000000D+00  0.000000D+00  0.000000D+00  0.000000D+00  0.000000D+00
    207   0.000000D+00  0.000000D+00  0.000000D+00  0.000000D+00  0.000000D+00
    208   0.000000D+00  0.000000D+00  0.000000D+00  0.000000D+00  0.000000D+00
    209   0.000000D+00  0.000000D+00  0.000000D+00  0.000000D+00  0.000000D+00
    210   0.000000D+00  0.000000D+00  0.000000D+00  0.000000D+00  0.000000D+00
    211   0.000000D+00  0.000000D+00  0.000000D+00  0.000000D+00  0.000000D+00
    212   0.000000D+00  0.000000D+00  0.000000D+00  0.000000D+00  0.000000D+00
    213   0.000000D+00  0.000000D+00  0.000000D+00  0.000000D+00  0.000000D+00
    214   0.000000D+00  0.000000D+00  0.000000D+00  0.000000D+00  0.000000D+00
    215   0.000000D+00  0.000000D+00  0.000000D+00  0.000000D+00  0.000000D+00
    216   0.000000D+00  0.000000D+00  0.000000D+00  0.000000D+00  0.000000D+00
    217   0.000000D+00  0.000000D+00  0.000000D+00  0.000000D+00  0.000000D+00
    218   0.000000D+00  0.000000D+00  0.000000D+00  0.000000D+00  0.000000D+00
    219   0.000000D+00  0.000000D+00  0.000000D+00  0.000000D+00  0.000000D+00
    220   0.000000D+00  0.000000D+00  0.000000D+00  0.000000D+00  0.000000D+00
    221   0.000000D+00  0.000000D+00  0.000000D+00  0.000000D+00  0.000000D+00
    222   0.000000D+00  0.000000D+00  0.000000D+00  0.000000D+00  0.000000D+00
    223   0.000000D+00  0.000000D+00  0.000000D+00  0.000000D+00  0.000000D+00
    224   0.000000D+00  0.000000D+00  0.000000D+00  0.000000D+00  0.000000D+00
    225   0.000000D+00  0.000000D+00  0.000000D+00  0.000000D+00  0.000000D+00
    226   0.000000D+00  0.000000D+00  0.000000D+00  0.000000D+00  0.000000D+00
    227   0.000000D+00  0.000000D+00  0.000000D+00  0.000000D+00  0.000000D+00
    228   0.000000D+00  0.000000D+00  0.000000D+00  0.000000D+00  0.000000D+00
    229   0.000000D+00  0.000000D+00  0.000000D+00  0.000000D+00  0.000000D+00
    230   0.000000D+00  0.000000D+00  0.000000D+00  0.000000D+00  0.000000D+00
    231   0.000000D+00  0.000000D+00  0.000000D+00  0.000000D+00  0.000000D+00
    232   0.000000D+00  0.000000D+00  0.000000D+00  0.000000D+00  0.000000D+00
    233   0.000000D+00  0.000000D+00  0.000000D+00  0.000000D+00  0.000000D+00
    234   0.000000D+00  0.000000D+00  0.000000D+00  0.000000D+00  0.000000D+00
    235   0.000000D+00  0.000000D+00  0.000000D+00  0.000000D+00  0.000000D+00
    236   0.000000D+00  0.000000D+00  0.000000D+00  0.000000D+00  0.000000D+00
    237   0.000000D+00  0.000000D+00  0.000000D+00  0.000000D+00  0.000000D+00
    238   0.000000D+00  0.000000D+00  0.000000D+00  0.000000D+00  0.000000D+00
    239   0.000000D+00  0.000000D+00  0.000000D+00  0.000000D+00  0.000000D+00
    240   0.000000D+00  0.000000D+00  0.000000D+00  0.000000D+00  0.000000D+00
    241   0.000000D+00  0.000000D+00  0.000000D+00  0.000000D+00  0.000000D+00
    242   0.000000D+00  0.000000D+00  0.000000D+00  0.000000D+00  0.000000D+00
    243   0.000000D+00  0.000000D+00  0.000000D+00  0.000000D+00  0.000000D+00
    244   0.000000D+00  0.000000D+00  0.000000D+00  0.000000D+00  0.000000D+00
    245   0.000000D+00  0.000000D+00  0.000000D+00  0.000000D+00  0.000000D+00
    246   0.000000D+00  0.000000D+00  0.000000D+00  0.000000D+00  0.000000D+00
    247   0.000000D+00  0.000000D+00  0.000000D+00  0.000000D+00  0.000000D+00
    248   0.000000D+00  0.000000D+00  0.000000D+00  0.000000D+00  0.000000D+00
    249   0.000000D+00  0.000000D+00  0.000000D+00  0.000000D+00  0.000000D+00
    250   0.000000D+00  0.000000D+00  0.000000D+00  0.000000D+00  0.000000D+00
    251   0.000000D+00  0.000000D+00  0.000000D+00  0.000000D+00  0.000000D+00
    252   0.000000D+00  0.000000D+00  0.000000D+00  0.000000D+00  0.000000D+00
    253   0.000000D+00  0.000000D+00  0.000000D+00  0.000000D+00  0.000000D+00
    254   0.000000D+00  0.000000D+00  0.000000D+00  0.000000D+00  0.000000D+00
    255   0.000000D+00  0.000000D+00  0.000000D+00  0.000000D+00  0.000000D+00
    256   0.000000D+00  0.000000D+00  0.000000D+00  0.000000D+00  0.000000D+00
    257   0.000000D+00  0.000000D+00  0.000000D+00  0.000000D+00  0.000000D+00
    258   0.000000D+00  0.000000D+00  0.000000D+00  0.000000D+00  0.000000D+00
    259   0.000000D+00  0.000000D+00  0.000000D+00  0.000000D+00  0.000000D+00
    260   0.000000D+00  0.000000D+00  0.000000D+00  0.000000D+00  0.000000D+00
    261   0.000000D+00  0.000000D+00  0.000000D+00  0.000000D+00  0.000000D+00
    262   0.000000D+00  0.000000D+00  0.000000D+00  0.000000D+00  0.000000D+00
    263   0.000000D+00  0.000000D+00  0.000000D+00  0.000000D+00  0.000000D+00
    264   0.000000D+00  0.000000D+00  0.000000D+00  0.000000D+00  0.000000D+00
    265   0.000000D+00  0.000000D+00  0.000000D+00  0.000000D+00  0.000000D+00
    266   0.000000D+00  0.000000D+00  0.000000D+00  0.000000D+00  0.000000D+00
    267   0.000000D+00  0.000000D+00  0.000000D+00  0.000000D+00  0.000000D+00
    268   0.000000D+00  0.000000D+00  0.000000D+00  0.000000D+00  0.000000D+00
    269   0.000000D+00  0.000000D+00  0.000000D+00  0.000000D+00  0.000000D+00
    270   0.000000D+00  0.000000D+00  0.000000D+00  0.000000D+00  0.000000D+00
    271   0.000000D+00  0.000000D+00  0.000000D+00  0.000000D+00  0.000000D+00
    272   0.000000D+00  0.000000D+00  0.000000D+00  0.000000D+00  0.000000D+00
    273   0.000000D+00  0.000000D+00  0.000000D+00  0.000000D+00  0.000000D+00
    274   0.000000D+00  0.000000D+00  0.000000D+00  0.000000D+00  0.000000D+00
    275   0.000000D+00  0.000000D+00  0.000000D+00  0.000000D+00  0.000000D+00
    276   0.000000D+00  0.000000D+00  0.000000D+00  0.000000D+00  0.000000D+00
    277   0.000000D+00  0.000000D+00  0.000000D+00  0.000000D+00  0.000000D+00
    278   0.000000D+00  0.000000D+00  0.000000D+00  0.000000D+00  0.000000D+00
    279   0.000000D+00  0.000000D+00  0.000000D+00  0.000000D+00  0.000000D+00
    280   0.000000D+00  0.000000D+00  0.000000D+00  0.000000D+00  0.000000D+00
    281   0.000000D+00  0.000000D+00  0.000000D+00  0.000000D+00  0.000000D+00
    282   0.000000D+00  0.000000D+00  0.000000D+00  0.000000D+00  0.000000D+00
    283   0.000000D+00  0.000000D+00  0.000000D+00  0.000000D+00  0.000000D+00
    284   0.000000D+00  0.000000D+00  0.000000D+00  0.000000D+00  0.000000D+00
    285   0.000000D+00  0.000000D+00  0.000000D+00  0.000000D+00  0.000000D+00
    286   0.000000D+00  0.000000D+00  0.000000D+00  0.000000D+00  0.000000D+00
    287   0.000000D+00  0.000000D+00  0.000000D+00  0.000000D+00  0.000000D+00
    288   0.000000D+00  0.000000D+00  0.000000D+00  0.000000D+00  0.000000D+00
    289   0.000000D+00  0.000000D+00  0.000000D+00  0.000000D+00  0.000000D+00
    290   0.000000D+00  0.000000D+00  0.000000D+00  0.000000D+00  0.000000D+00
    291   0.000000D+00  0.000000D+00  0.000000D+00  0.000000D+00  0.000000D+00
    292   0.000000D+00  0.000000D+00  0.000000D+00  0.000000D+00  0.000000D+00
    293   0.000000D+00  0.000000D+00  0.000000D+00  0.000000D+00  0.000000D+00
    294   0.000000D+00  0.000000D+00  0.000000D+00  0.000000D+00  0.000000D+00
    295   0.000000D+00  0.000000D+00  0.000000D+00  0.000000D+00  0.000000D+00
    296   0.000000D+00  0.000000D+00  0.000000D+00  0.000000D+00  0.000000D+00
    297   0.000000D+00  0.000000D+00  0.000000D+00  0.000000D+00  0.000000D+00
    298   0.000000D+00  0.000000D+00  0.000000D+00  0.000000D+00  0.000000D+00
    299   0.000000D+00  0.000000D+00  0.000000D+00  0.000000D+00  0.000000D+00
    300   0.000000D+00  0.000000D+00  0.000000D+00  0.000000D+00  0.000000D+00
    301   0.000000D+00  0.000000D+00  0.000000D+00  0.000000D+00  0.000000D+00
    302   0.000000D+00  0.000000D+00  0.000000D+00  0.000000D+00  0.000000D+00
    303   0.000000D+00  0.000000D+00  0.000000D+00  0.000000D+00  0.000000D+00
    304   0.000000D+00  0.000000D+00  0.000000D+00  0.000000D+00  0.000000D+00
    305   0.000000D+00  0.000000D+00  0.000000D+00  0.000000D+00  0.000000D+00
    306   0.000000D+00  0.000000D+00  0.000000D+00  0.000000D+00  0.000000D+00
    307   0.000000D+00  0.000000D+00  0.000000D+00  0.000000D+00  0.000000D+00
    308   0.000000D+00  0.000000D+00  0.000000D+00  0.000000D+00  0.000000D+00
    309   0.000000D+00  0.000000D+00  0.000000D+00  0.000000D+00  0.000000D+00
    310   0.000000D+00  0.000000D+00  0.000000D+00  0.000000D+00  0.000000D+00
    311   0.000000D+00  0.000000D+00  0.000000D+00  0.000000D+00  0.000000D+00
    312   0.000000D+00  0.000000D+00  0.000000D+00  0.000000D+00  0.000000D+00
    313   0.000000D+00  0.000000D+00  0.000000D+00  0.000000D+00  0.000000D+00
    314   0.000000D+00  0.000000D+00  0.000000D+00  0.000000D+00  0.000000D+00
    315   0.000000D+00  0.000000D+00  0.000000D+00  0.000000D+00  0.000000D+00
    316   0.000000D+00  0.000000D+00  0.000000D+00  0.000000D+00  0.000000D+00
    317   0.000000D+00  0.000000D+00  0.000000D+00  0.000000D+00  0.000000D+00
    318   0.000000D+00  0.000000D+00  0.000000D+00  0.000000D+00  0.000000D+00
    319   0.000000D+00  0.000000D+00  0.000000D+00  0.000000D+00  0.000000D+00
    320   0.000000D+00  0.000000D+00  0.000000D+00  0.000000D+00  0.000000D+00
    321   0.000000D+00  0.000000D+00  0.000000D+00  0.000000D+00  0.000000D+00
    322   0.000000D+00  0.000000D+00  0.000000D+00  0.000000D+00  0.000000D+00
    323   0.000000D+00  0.000000D+00  0.000000D+00  0.000000D+00  0.000000D+00
    324   0.000000D+00  0.000000D+00  0.000000D+00  0.000000D+00  0.000000D+00
    325   0.000000D+00  0.000000D+00  0.000000D+00  0.000000D+00  0.000000D+00
    326   0.000000D+00  0.000000D+00  0.000000D+00  0.000000D+00  0.000000D+00
    327   0.000000D+00  0.000000D+00  0.000000D+00  0.000000D+00  0.000000D+00
    328   0.000000D+00  0.000000D+00  0.000000D+00  0.000000D+00  0.000000D+00
    329   0.000000D+00  0.000000D+00  0.000000D+00  0.000000D+00  0.000000D+00
    330   0.000000D+00  0.000000D+00  0.000000D+00  0.000000D+00  0.000000D+00
    331   0.000000D+00  0.000000D+00  0.000000D+00  0.000000D+00  0.000000D+00
    332   0.000000D+00  0.000000D+00  0.000000D+00  0.000000D+00  0.000000D+00
    333   0.000000D+00  0.000000D+00  0.000000D+00  0.000000D+00  0.000000D+00
    334   0.000000D+00  0.000000D+00  0.000000D+00  0.000000D+00  0.000000D+00
    335   0.000000D+00  0.000000D+00  0.000000D+00  0.000000D+00  0.000000D+00
    336   0.000000D+00  0.000000D+00  0.000000D+00  0.000000D+00  0.000000D+00
    337   0.000000D+00  0.000000D+00  0.000000D+00  0.000000D+00  0.000000D+00
    338   0.000000D+00  0.000000D+00  0.000000D+00  0.000000D+00  0.000000D+00
    339   0.000000D+00  0.000000D+00  0.000000D+00  0.000000D+00  0.000000D+00
    340   0.000000D+00  0.000000D+00  0.000000D+00  0.000000D+00  0.000000D+00
    341   0.000000D+00  0.000000D+00  0.000000D+00  0.000000D+00  0.000000D+00
    342   0.000000D+00  0.000000D+00  0.000000D+00  0.000000D+00  0.000000D+00
    343   0.000000D+00  0.000000D+00  0.000000D+00  0.000000D+00  0.000000D+00
    344   0.000000D+00  0.000000D+00  0.000000D+00  0.000000D+00  0.000000D+00
    345   0.000000D+00  0.000000D+00  0.000000D+00  0.000000D+00  0.000000D+00
    346   0.000000D+00  0.000000D+00  0.000000D+00  0.000000D+00  0.000000D+00
    347   0.000000D+00  0.000000D+00  0.000000D+00  0.000000D+00  0.000000D+00
    348   0.000000D+00  0.000000D+00  0.000000D+00  0.000000D+00  0.000000D+00
    349   0.000000D+00  0.000000D+00  0.000000D+00  0.000000D+00  0.000000D+00
    350   0.000000D+00  0.000000D+00  0.000000D+00  0.000000D+00  0.000000D+00
    351   0.000000D+00  0.000000D+00  0.000000D+00  0.000000D+00  0.000000D+00
    352   0.000000D+00  0.000000D+00  0.000000D+00  0.000000D+00  0.000000D+00
    353   0.000000D+00  0.000000D+00  0.000000D+00  0.000000D+00  0.000000D+00
    354   0.000000D+00  0.000000D+00  0.000000D+00  0.000000D+00  0.000000D+00
    355   0.000000D+00  0.000000D+00  0.000000D+00  0.000000D+00  0.000000D+00
    356   0.000000D+00  0.000000D+00  0.000000D+00  0.000000D+00  0.000000D+00
    357   0.000000D+00  0.000000D+00  0.000000D+00  0.000000D+00  0.000000D+00
    358   0.000000D+00  0.000000D+00  0.000000D+00  0.000000D+00  0.000000D+00
    359   0.000000D+00  0.000000D+00  0.000000D+00  0.000000D+00  0.000000D+00
    360   0.000000D+00  0.000000D+00  0.000000D+00  0.000000D+00  0.000000D+00
    361   0.000000D+00  0.000000D+00  0.000000D+00  0.000000D+00  0.000000D+00
    362   0.000000D+00  0.000000D+00  0.000000D+00  0.000000D+00  0.000000D+00
    363   0.000000D+00  0.421896D-05  0.000000D+00  0.000000D+00 -0.358718D-05
    364   0.244074D-02  0.169629D-01  0.000000D+00  0.000000D+00 -0.625278D-02
    365   0.620470D-02  0.413841D-01  0.000000D+00  0.000000D+00 -0.270427D-02
    366   0.000000D+00  0.000000D+00  0.349446D-02  0.000000D+00  0.000000D+00
    367   0.000000D+00  0.000000D+00  0.000000D+00  0.349446D-02  0.000000D+00
    368   0.575502D-02  0.390322D-01  0.000000D+00  0.000000D+00 -0.116429D-01
    369   0.000000D+00  0.000000D+00  0.510531D-02  0.000000D+00  0.000000D+00
    370   0.000000D+00  0.000000D+00  0.000000D+00  0.510531D-02  0.000000D+00
    371   0.859388D-02  0.568970D-01  0.000000D+00  0.000000D+00  0.749572D-03
    372   0.000000D+00  0.000000D+00  0.222661D-02  0.000000D+00  0.000000D+00
    373   0.000000D+00  0.000000D+00  0.000000D+00  0.222661D-02  0.000000D+00
    374   0.372322D-02  0.248321D-01  0.000000D+00  0.000000D+00  0.142708D-02
    375   0.000000D+00  0.000000D+00  0.000000D+00  0.000000D+00  0.000000D+00
    376   0.000000D+00  0.895330D-05  0.000000D+00  0.000000D+00 -0.161369D-04
    377   0.726603D-04  0.841780D-03  0.000000D+00  0.000000D+00 -0.918393D-03
    378   0.139374D-02  0.104103D-01  0.000000D+00  0.000000D+00 -0.626242D-02
    379   0.486931D-02  0.329400D-01  0.000000D+00  0.000000D+00 -0.103641D-01
    380   0.712378D-02  0.474213D-01  0.000000D+00  0.000000D+00 -0.764216D-02
    381   0.000000D+00  0.000000D+00  0.000000D+00  0.000000D+00  0.000000D+00
    382   0.000000D+00  0.000000D+00  0.000000D+00  0.000000D+00  0.000000D+00
    383   0.000000D+00  0.000000D+00  0.000000D+00  0.000000D+00  0.000000D+00
    384   0.000000D+00  0.000000D+00  0.000000D+00  0.000000D+00  0.000000D+00
    385   0.000000D+00  0.000000D+00  0.000000D+00  0.000000D+00  0.000000D+00
    386   0.000000D+00  0.223625D-05  0.000000D+00  0.000000D+00 -0.494227D-05
    387   0.000000D+00  0.000000D+00  0.805894D-04  0.000000D+00  0.000000D+00
    388   0.000000D+00  0.000000D+00  0.000000D+00  0.805894D-04  0.000000D+00
    389   0.618267D-04  0.952667D-03  0.000000D+00  0.000000D+00 -0.121361D-02
    390   0.000000D+00  0.000000D+00  0.210663D-02  0.000000D+00  0.000000D+00
    391   0.000000D+00  0.000000D+00  0.000000D+00  0.210663D-02  0.000000D+00
    392   0.317421D-02  0.237321D-01  0.000000D+00  0.000000D+00 -0.149478D-01
    393   0.000000D+00  0.000000D+00  0.721635D-02  0.000000D+00  0.000000D+00
    394   0.000000D+00  0.000000D+00  0.000000D+00  0.721635D-02  0.000000D+00
    395   0.121744D-01  0.804036D-01  0.000000D+00  0.000000D+00 -0.209074D-01
    396   0.000000D+00  0.000000D+00  0.806711D-02  0.000000D+00  0.000000D+00
    397   0.000000D+00  0.000000D+00  0.000000D+00  0.806711D-02  0.000000D+00
    398   0.136899D-01  0.898291D-01  0.000000D+00  0.000000D+00 -0.678191D-02
    399   0.000000D+00  0.000000D+00  0.000000D+00  0.000000D+00  0.000000D+00
    400   0.000000D+00  0.000000D+00  0.000000D+00  0.000000D+00  0.000000D+00
    401   0.000000D+00  0.000000D+00  0.000000D+00  0.000000D+00  0.000000D+00
    402   0.000000D+00  0.000000D+00  0.000000D+00  0.000000D+00  0.000000D+00
    403   0.000000D+00  0.000000D+00  0.000000D+00  0.000000D+00  0.000000D+00
    404   0.000000D+00  0.000000D+00  0.000000D+00  0.000000D+00  0.000000D+00
    405   0.000000D+00  0.000000D+00  0.000000D+00  0.000000D+00  0.000000D+00
    406   0.000000D+00  0.000000D+00  0.000000D+00  0.000000D+00  0.000000D+00
    407   0.000000D+00  0.000000D+00  0.000000D+00  0.000000D+00  0.000000D+00
    408   0.000000D+00  0.000000D+00  0.000000D+00  0.000000D+00  0.000000D+00
    409   0.150706D-05  0.902070D-04  0.000000D+00  0.000000D+00 -0.159885D-03
    410   0.000000D+00  0.000000D+00  0.126432D-04  0.000000D+00  0.000000D+00
    411   0.000000D+00  0.000000D+00  0.000000D+00  0.126432D-04  0.000000D+00
    412   0.000000D+00  0.000000D+00  0.000000D+00  0.000000D+00  0.000000D+00
    413   0.000000D+00  0.000000D+00  0.000000D+00  0.000000D+00  0.000000D+00
    414   0.744670D-03  0.758552D-02  0.000000D+00  0.000000D+00 -0.767505D-02
    415   0.000000D+00  0.000000D+00  0.113934D-02  0.000000D+00  0.000000D+00
    416   0.000000D+00  0.000000D+00  0.000000D+00  0.113934D-02  0.000000D+00
    417   0.000000D+00  0.000000D+00  0.000000D+00  0.000000D+00  0.000000D+00
    418   0.000000D+00  0.000000D+00  0.000000D+00  0.000000D+00  0.000000D+00
    419   0.984420D-02  0.669330D-01  0.000000D+00  0.000000D+00 -0.316443D-01
    420   0.000000D+00  0.000000D+00  0.103781D-01  0.000000D+00  0.000000D+00
    421   0.000000D+00  0.000000D+00  0.000000D+00  0.103781D-01  0.000000D+00
    422   0.000000D+00  0.000000D+00  0.000000D+00  0.000000D+00  0.000000D+00
    423   0.000000D+00  0.000000D+00  0.000000D+00  0.000000D+00  0.000000D+00
    424   0.200313D-01  0.128226D+00  0.000000D+00  0.000000D+00 -0.203049D-01
    425   0.000000D+00  0.000000D+00  0.199926D-01  0.000000D+00  0.000000D+00
    426   0.000000D+00  0.000000D+00  0.000000D+00  0.199926D-01  0.000000D+00
    427   0.000000D+00  0.000000D+00  0.000000D+00  0.000000D+00  0.000000D+00
    428   0.000000D+00  0.000000D+00  0.000000D+00  0.000000D+00  0.000000D+00
    429   0.157338D-01  0.101663D+00  0.000000D+00  0.000000D+00  0.796046D-03
    430   0.000000D+00  0.000000D+00  0.158367D-01  0.000000D+00  0.000000D+00
    431   0.000000D+00  0.000000D+00  0.000000D+00  0.158367D-01  0.000000D+00
    432   0.000000D+00  0.000000D+00  0.000000D+00  0.000000D+00  0.000000D+00
    433   0.000000D+00  0.000000D+00  0.000000D+00  0.000000D+00  0.000000D+00
    434   0.000000D+00  0.000000D+00  0.000000D+00  0.000000D+00  0.000000D+00
    435   0.000000D+00  0.000000D+00  0.000000D+00  0.000000D+00  0.000000D+00
    436   0.000000D+00  0.000000D+00  0.000000D+00  0.000000D+00  0.000000D+00
    437   0.000000D+00  0.000000D+00  0.000000D+00  0.000000D+00  0.000000D+00
    438   0.000000D+00  0.000000D+00  0.000000D+00  0.000000D+00  0.000000D+00
    439   0.000000D+00  0.000000D+00  0.000000D+00  0.000000D+00  0.000000D+00
    440   0.000000D+00  0.000000D+00  0.000000D+00  0.000000D+00  0.000000D+00
    441   0.000000D+00  0.194305D-04  0.000000D+00  0.000000D+00 -0.407837D-04
    442   0.000000D+00  0.000000D+00  0.378318D-05  0.000000D+00  0.000000D+00
    443   0.000000D+00  0.000000D+00  0.000000D+00  0.378318D-05  0.000000D+00
    444   0.000000D+00  0.000000D+00  0.000000D+00  0.000000D+00  0.000000D+00
    445   0.000000D+00  0.000000D+00  0.000000D+00  0.000000D+00  0.000000D+00
    446   0.000000D+00  0.000000D+00  0.000000D+00  0.000000D+00  0.000000D+00
    447   0.000000D+00  0.000000D+00  0.000000D+00  0.000000D+00  0.000000D+00
    448   0.114952D-03  0.202641D-02  0.000000D+00  0.000000D+00 -0.274520D-02
    449   0.000000D+00  0.000000D+00  0.417447D-03  0.000000D+00  0.000000D+00
    450   0.000000D+00  0.000000D+00  0.000000D+00  0.417447D-03  0.000000D+00
    451   0.000000D+00  0.000000D+00  0.000000D+00  0.000000D+00  0.000000D+00
    452   0.000000D+00  0.000000D+00  0.000000D+00  0.000000D+00  0.000000D+00
    453   0.000000D+00  0.000000D+00  0.000000D+00  0.000000D+00  0.000000D+00
    454   0.000000D+00  0.000000D+00  0.000000D+00  0.000000D+00  0.000000D+00
    455   0.435321D-02  0.337277D-01  0.000000D+00  0.000000D+00 -0.256888D-01
    456   0.000000D+00  0.000000D+00  0.731443D-02  0.000000D+00  0.000000D+00
    457   0.000000D+00  0.000000D+00  0.000000D+00  0.731443D-02  0.000000D+00
    458   0.000000D+00  0.000000D+00  0.000000D+00  0.000000D+00  0.000000D+00
    459   0.000000D+00  0.000000D+00  0.000000D+00  0.000000D+00  0.000000D+00
    460   0.000000D+00  0.000000D+00  0.000000D+00  0.000000D+00  0.000000D+00
    461   0.000000D+00  0.000000D+00  0.000000D+00  0.000000D+00  0.000000D+00
    462   0.192623D-01  0.122175D+00  0.000000D+00  0.000000D+00 -0.414418D-01
    463   0.000000D+00  0.000000D+00  0.269660D-01  0.000000D+00  0.000000D+00
    464   0.000000D+00  0.000000D+00  0.000000D+00  0.269660D-01  0.000000D+00
    465   0.000000D+00  0.000000D+00  0.000000D+00  0.000000D+00  0.000000D+00
    466   0.000000D+00  0.000000D+00  0.000000D+00  0.000000D+00  0.000000D+00
    467   0.000000D+00  0.000000D+00  0.000000D+00  0.000000D+00  0.000000D+00
    468   0.000000D+00  0.000000D+00  0.000000D+00  0.000000D+00  0.000000D+00
    469   0.250600D-01  0.155647D+00  0.000000D+00  0.000000D+00 -0.121943D-01
    470   0.000000D+00  0.000000D+00  0.344212D-01  0.000000D+00  0.000000D+00
    471   0.000000D+00  0.000000D+00  0.000000D+00  0.344212D-01  0.000000D+00
    472   0.000000D+00  0.000000D+00  0.000000D+00  0.000000D+00  0.000000D+00
    473   0.000000D+00  0.000000D+00  0.000000D+00  0.000000D+00  0.000000D+00
    474   0.000000D+00  0.000000D+00  0.000000D+00  0.000000D+00  0.000000D+00
    475   0.000000D+00  0.000000D+00  0.000000D+00  0.000000D+00  0.000000D+00
    476   0.000000D+00  0.000000D+00  0.000000D+00  0.000000D+00  0.000000D+00
    477   0.000000D+00  0.000000D+00  0.000000D+00  0.000000D+00  0.000000D+00
    478   0.000000D+00  0.000000D+00  0.000000D+00  0.000000D+00  0.000000D+00
    479   0.000000D+00  0.000000D+00  0.000000D+00  0.000000D+00  0.000000D+00
    480   0.000000D+00  0.000000D+00  0.000000D+00  0.000000D+00  0.000000D+00
    481   0.000000D+00  0.000000D+00  0.000000D+00  0.000000D+00  0.000000D+00
    482   0.000000D+00  0.000000D+00  0.000000D+00  0.000000D+00  0.000000D+00
    483   0.000000D+00  0.000000D+00  0.000000D+00  0.000000D+00  0.000000D+00
    484   0.000000D+00  0.000000D+00  0.000000D+00  0.000000D+00  0.000000D+00
    485   0.000000D+00  0.232118D-04  0.000000D+00  0.000000D+00 -0.497139D-04
    486   0.000000D+00  0.000000D+00  0.582492D-05  0.000000D+00  0.000000D+00
    487   0.000000D+00  0.000000D+00  0.000000D+00  0.582492D-05  0.000000D+00
    488   0.000000D+00  0.000000D+00  0.000000D+00  0.000000D+00  0.000000D+00
    489   0.000000D+00  0.000000D+00  0.000000D+00  0.000000D+00  0.000000D+00
    490   0.000000D+00  0.000000D+00  0.000000D+00  0.000000D+00  0.000000D+00
    491   0.000000D+00  0.000000D+00  0.000000D+00  0.000000D+00  0.000000D+00
    492   0.000000D+00  0.000000D+00  0.000000D+00  0.000000D+00  0.000000D+00
    493   0.000000D+00  0.000000D+00  0.000000D+00  0.000000D+00  0.000000D+00
    494   0.402419D-03  0.546592D-02  0.000000D+00  0.000000D+00 -0.677461D-02
    495   0.000000D+00  0.000000D+00  0.147371D-02  0.000000D+00  0.000000D+00
    496   0.000000D+00  0.000000D+00  0.000000D+00  0.147371D-02  0.000000D+00
    497   0.000000D+00  0.000000D+00  0.000000D+00  0.000000D+00  0.000000D+00
    498   0.000000D+00  0.000000D+00  0.000000D+00  0.000000D+00  0.000000D+00
    499   0.000000D+00  0.000000D+00  0.000000D+00  0.000000D+00  0.000000D+00
    500   0.000000D+00  0.000000D+00  0.000000D+00  0.000000D+00  0.000000D+00
    501   0.000000D+00  0.000000D+00  0.000000D+00  0.000000D+00  0.000000D+00
    502   0.000000D+00  0.000000D+00  0.000000D+00  0.000000D+00  0.000000D+00
    503   0.134063D-01  0.877145D-01  0.000000D+00  0.000000D+00 -0.478546D-01
    504   0.000000D+00  0.000000D+00  0.249265D-01  0.000000D+00  0.000000D+00
    505   0.000000D+00  0.000000D+00  0.000000D+00  0.249265D-01  0.000000D+00
    506   0.000000D+00  0.000000D+00  0.000000D+00  0.000000D+00  0.000000D+00
    507   0.000000D+00  0.000000D+00  0.000000D+00  0.000000D+00  0.000000D+00
    508   0.000000D+00  0.000000D+00  0.000000D+00  0.000000D+00  0.000000D+00
[...]

                          Total second order =    -0.427635 A.U.

                         E2(CBS) - E2(Dir) =      -0.002717 A.U.

 E2(CBS)=      -0.429113 CBS-Int=       0.001478 OIii=       1.223998

 **********************************************************************

            Population analysis using the SCF density.

 **********************************************************************

 Orbital symmetries:
       Occupied  (SG) (SG) (PI) (PI) (SG) (SG) (SG) (SG) (PI) (PI)
                 (SG) (SG) (PI) (PI) (SG)
       Virtual   (PI) (PI) (SG) (SG) (PI) (PI) (DLTA) (DLTA) (SG)
                 (PI) (PI) (SG) (DLTA) (DLTA) (PI) (PI) (SG) (SG)
                 (PI) (PI) (SG) (DLTA) (DLTA) (SG) (PI) (PI) (PI)
                 (PI) (SG) (DLTA) (DLTA) (SG) (PHI) (PHI) (PI)
                 (PI) (SG) (PI) (PI) (SG) (DLTA) (DLTA) (PI) (PI)
                 (DLTA) (DLTA) (SG) (PI) (PI) (SG) (PHI) (PHI)
                 (?A) (?A) (SG) (PI) (PI) (SG) (DLTA) (DLTA) (PI)
                 (PI) (SG) (DLTA) (DLTA) (PHI) (PHI) (PI) (PI)
                 (PHI) (PHI) (SG) (?A) (?A) (?B) (?B) (SG) (PI)
                 (PI) (DLTA) (DLTA) (DLTA) (DLTA) (SG) (PI) (PI)
                 (SG) (PI) (PI) (DLTA) (DLTA) (SG) (PHI) (PHI)
                 (PI) (PI) (SG) (DLTA) (DLTA) (PI) (PI) (SG) (PHI)
                 (PHI) (?A) (?A) (SG) (SG) (?B) (?B) (DLTA) (DLTA)
                 (?A) (?A) (SG) (PI) (PI) (DLTA) (DLTA) (SG) (PHI)
                 (PHI) (PI) (PI) (SG) (PHI) (PHI) (PI) (PI) (SG)
                 (PI) (PI) (?A) (?A) (PI) (PI) (DLTA) (DLTA) (PHI)
                 (PHI) (SG) (SG) (PI) (PI) (DLTA) (DLTA) (?B) (?B)
                 (?C) (?C) (SG) (SG) (?A) (?A) (DLTA) (DLTA) (SG)
                 (PI) (PI) (SG) (DLTA) (DLTA) (PHI) (PHI) (PHI)
                 (PHI) (DLTA) (DLTA) (?B) (?B) (PI) (PI) (SG) (?A)
                 (?A) (DLTA) (DLTA) (PI) (PI) (SG) (PHI) (PHI)
                 (SG) (PI) (PI) (SG) (DLTA) (DLTA) (?B) (?B) (PI)
                 (PI) (SG) (?A) (?A) (PHI) (PHI) (SG) (PI) (PI)
                 (?A) (?A) (DLTA) (DLTA) (PI) (PI) (PI) (PI) (SG)
                 (PHI) (PHI) (SG) (DLTA) (DLTA) (PHI) (PHI) (PI)
                 (PI) (SG) (?B) (?B) (?A) (?A) (SG) (SG) (DLTA)
                 (DLTA) (PHI) (PHI) (PI) (PI) (SG) (DLTA) (DLTA)
                 (PHI) (PHI) (?A) (?A) (SG) (DLTA) (DLTA) (SG)
                 (SG) (SG) (DLTA) (DLTA) (PI) (PI) (?B) (?B) (PI)
                 (PI) (SG) (DLTA) (DLTA) (PI) (PI) (SG) (PHI) (PHI)
                 (PI) (PI) (DLTA) (DLTA) (SG) (PHI) (PHI) (?A)
                 (?A) (PI) (PI) (?B) (?B) (SG) (DLTA) (DLTA) (PI)
                 (PI) (?A) (?A) (SG) (?C) (?C) (PI) (PI) (PHI)
                 (PHI) (SG) (SG) (?B) (?B) (DLTA) (DLTA) (?A) (?A)
                 (SG) (PI) (PI) (?B) (?B) (SG) (PHI) (PHI) (PI)
                 (PI) (DLTA) (DLTA) (SG) (?A) (?A) (SG) (PHI) (PHI)
                 (?A) (?A) (DLTA) (DLTA) (PI) (PI) (SG) (PHI) (PHI)
                 (PI) (PI) (DLTA) (DLTA) (DLTA) (DLTA) (?A) (?A)
                 (SG) (PI) (PI) (PHI) (PHI) (PHI) (PHI) (SG) (PHI)
                 (PHI) (PI) (PI) (SG) (DLTA) (DLTA) (PI) (PI) (DLTA)
                 (DLTA) (SG) (SG) (DLTA) (DLTA) (PI) (PI) (PI)
                 (PI) (SG) (DLTA) (DLTA) (PI) (PI) (?D) (?D) (?C)
                 (?C) (SG) (SG) (?A) (?A) (?B) (?B) (SG) (PHI)
                 (PHI) (SG) (SG) (DLTA) (DLTA) (?B) (?B) (SG) (SG)
                 (SG) (?A) (?A) (?B) (?B) (PI) (PI) (PHI) (PHI)
                 (PI) (PI) (SG) (DLTA) (DLTA) (?A) (?A) (PI) (PI)
                 (SG) (SG) (PHI) (PHI) (DLTA) (DLTA) (SG) (PI)
                 (PI) (?B) (?B) (?A) (?A) (?B) (?B) (?A) (?A) (PHI)
                 (PHI) (PI) (PI) (SG) (DLTA) (DLTA) (PHI) (PHI)
                 (PHI) (PHI) (SG) (PI) (PI) (DLTA) (DLTA) (SG)
                 (DLTA) (DLTA) (SG) (PI) (PI) (?A) (?A) (DLTA)
                 (DLTA) (?A) (?A) (PI) (PI) (PHI) (PHI) (PHI) (PHI)
                 (DLTA) (DLTA) (SG) (PI) (PI) (SG) (DLTA) (DLTA)
                 (SG) (PI) (PI) (SG) (PHI) (PHI) (PI) (PI) (DLTA)
                 (DLTA) (SG) (SG) (?C) (?C) (?B) (?B) (?C) (?C)
                 (SG) (SG) (?B) (?B) (?A) (?A) (PHI) (PHI) (DLTA)
                 (DLTA) (SG) (?A) (?A) (PI) (PI) (PI) (PI) (PHI)
                 (PHI) (SG) (DLTA) (DLTA) (PI) (PI) (SG) (PI) (PI)
                 (SG) (DLTA) (DLTA) (PI) (PI) (SG) (SG) (SG) (?B)
                 (?B) (?A) (?A) (PHI) (PHI) (DLTA) (DLTA) (PI)
                 (PI) (PHI) (PHI) (SG) (SG) (DLTA) (DLTA) (PI)
                 (PI) (SG) (SG) (SG) (?B) (?B) (?A) (?A) (PHI)
                 (PHI) (PI) (PI) (DLTA) (DLTA) (SG) (?B) (?B) (?A)
                 (?A) (PHI) (PHI) (DLTA) (DLTA) (SG) (PI) (PI)
                 (SG) (?B) (?B) (?A) (?A) (PHI) (PHI) (DLTA) (DLTA)
                 (SG) (PI) (PI) (?A) (?A) (DLTA) (DLTA) (PHI) (PHI)
                 (PI) (PI) (SG) (DLTA) (DLTA) (PI) (PI) (?A) (?A)
                 (PHI) (PHI) (SG) (DLTA) (DLTA) (PI) (PI) (SG)
                 (PHI) (PHI) (DLTA) (DLTA) (PI) (PI) (SG) (PI)
                 (PI) (SG) (SG) (SG)
 The electronic state is 2-SG.
 Alpha  occ. eigenvalues -- -183.35657 -21.51814 -17.88873 -17.88873 -17.87840
 Alpha  occ. eigenvalues --  -15.52887  -2.94639  -1.89360  -1.86411  -1.86411
 Alpha  occ. eigenvalues --   -0.90866  -0.39828  -0.39127  -0.39127  -0.25674
 Alpha virt. eigenvalues --    0.00330   0.00330   0.02051   0.02692   0.03597
 Alpha virt. eigenvalues --    0.03597   0.03797   0.03797   0.04370   0.06347
 Alpha virt. eigenvalues --    0.06347   0.06355   0.07791   0.07791   0.09411
 Alpha virt. eigenvalues --    0.09411   0.09778   0.12460   0.15042   0.15042
 Alpha virt. eigenvalues --    0.15368   0.16221   0.16221   0.16383   0.19599
 Alpha virt. eigenvalues --    0.19599   0.22539   0.22539   0.25355   0.29119
 Alpha virt. eigenvalues --    0.29119   0.29519   0.29643   0.29643   0.30146
 Alpha virt. eigenvalues --    0.30146   0.31517   0.34589   0.34589   0.39684
 Alpha virt. eigenvalues --    0.40209   0.40209   0.43508   0.43508   0.44205
 Alpha virt. eigenvalues --    0.44285   0.44285   0.50604   0.50604   0.52639
 Alpha virt. eigenvalues --    0.54695   0.54695   0.56563   0.56563   0.57966
 Alpha virt. eigenvalues --    0.60496   0.60496   0.60619   0.61144   0.61144
 Alpha virt. eigenvalues --    0.63354   0.63354   0.64361   0.72352   0.72352
 Alpha virt. eigenvalues --    0.78161   0.78161   0.81171   0.81171   0.81827
 Alpha virt. eigenvalues --    0.81827   0.82500   0.88473   0.88473   0.88944
 Alpha virt. eigenvalues --    0.88944   0.91009   0.91638   0.91638   0.93268
 Alpha virt. eigenvalues --    0.93268   0.94051   0.94051   0.95288   0.96318
 Alpha virt. eigenvalues --    0.96318   1.01310   1.02613   1.02613   1.04688
 Alpha virt. eigenvalues --    1.04688   1.08399   1.12538   1.12538   1.12932
 Alpha virt. eigenvalues --    1.12932   1.20946   1.27894   1.27894   1.28840
 Alpha virt. eigenvalues --    1.28840   1.31539   1.34528   1.34528   1.38607
 Alpha virt. eigenvalues --    1.38607   1.41567   1.41567   1.42184   1.42184
 Alpha virt. eigenvalues --    1.44963   1.44963   1.45645   1.45645   1.49707
 Alpha virt. eigenvalues --    1.50199   1.50199   1.60759   1.60759   1.62123
 Alpha virt. eigenvalues --    1.62882   1.62882   1.66917   1.66917   1.70341
 Alpha virt. eigenvalues --    1.73299   1.73299   1.80789   1.80789   1.81571
 Alpha virt. eigenvalues --    1.85056   1.85056   1.86810   1.86810   1.88685
 Alpha virt. eigenvalues --    1.88685   1.89527   1.89527   1.90258   1.90258
 Alpha virt. eigenvalues --    1.90829   1.97182   1.98296   1.98296   2.00903
 Alpha virt. eigenvalues --    2.00903   2.00939   2.00939   2.01462   2.01462
 Alpha virt. eigenvalues --    2.02477   2.02477   2.06876   2.06876   2.09222
 Alpha virt. eigenvalues --    2.09222   2.10645   2.15735   2.15735   2.18180
 Alpha virt. eigenvalues --    2.19493   2.19493   2.22200   2.22200   2.28836
 Alpha virt. eigenvalues --    2.28836   2.33133   2.33133   2.34912   2.34912
 Alpha virt. eigenvalues --    2.36133   2.36133   2.36973   2.47013   2.47013
 Alpha virt. eigenvalues --    2.68386   2.68386   2.70334   2.70334   2.70919
 Alpha virt. eigenvalues --    2.82042   2.82042   2.85225   2.85250   2.85250
 Alpha virt. eigenvalues --    2.94008   2.95408   2.95408   2.95768   2.95768
 Alpha virt. eigenvalues --    3.08581   3.08581   3.10411   3.18123   3.18123
 Alpha virt. eigenvalues --    3.19145   3.19145   3.26015   3.31460   3.31460
 Alpha virt. eigenvalues --    3.31801   3.31801   3.43205   3.43205   3.44042
 Alpha virt. eigenvalues --    3.44042   3.55754   3.55754   3.57828   3.60033
 Alpha virt. eigenvalues --    3.60033   3.64335   3.66231   3.66231   3.88218
 Alpha virt. eigenvalues --    3.88218   3.88751   3.88751   3.94383   3.95432
 Alpha virt. eigenvalues --    3.95432   3.96425   3.96425   3.97745   3.97745
 Alpha virt. eigenvalues --    4.00441   4.00441   4.00742   4.00742   4.05703
 Alpha virt. eigenvalues --    4.05703   4.08499   4.19025   4.19025   4.32233
 Alpha virt. eigenvalues --    4.32233   4.33993   4.33993   4.36911   4.41732
 Alpha virt. eigenvalues --    4.41732   4.42434   4.42434   4.52262   4.53976
 Alpha virt. eigenvalues --    4.53976   4.57322   4.57322   4.76429   4.76429
 Alpha virt. eigenvalues --    4.82352   4.82352   4.88926   4.96852   4.96852
 Alpha virt. eigenvalues --    4.98453   4.98453   5.02020   5.03481   5.03481
 Alpha virt. eigenvalues --    5.10286   5.10286   5.15552   5.15552   5.18631
 Alpha virt. eigenvalues --    5.29126   5.29126   5.30784   5.30784   5.66618
 Alpha virt. eigenvalues --    5.66618   5.69960   5.69960   5.72982   5.78032
 Alpha virt. eigenvalues --    5.78032   5.79968   5.79968   5.81551   5.81551
 Alpha virt. eigenvalues --    5.91944   6.20013   6.20013   6.20383   6.20383
 Alpha virt. eigenvalues --    6.20984   6.20984   6.22809   6.22809   6.32942
 Alpha virt. eigenvalues --    6.32942   6.41392   6.41392   6.45316   6.45316
 Alpha virt. eigenvalues --    6.56255   6.61014   6.61014   6.61262   6.61262
 Alpha virt. eigenvalues --    6.66044   6.70193   6.70193   6.70952   6.70952
 Alpha virt. eigenvalues --    6.87219   6.87219   6.87589   7.11932   7.11932
 Alpha virt. eigenvalues --    7.23391   7.27237   7.27237   7.43466   7.43466
 Alpha virt. eigenvalues --    7.56598   7.56598   7.71512   7.71512   7.73383
 Alpha virt. eigenvalues --    7.77445   7.77445   7.83080   7.83080   7.91029
 Alpha virt. eigenvalues --    7.91029   8.02487   8.02487   8.06348   8.06348
 Alpha virt. eigenvalues --    8.09559   8.16435   8.16435   8.16776   8.16776
 Alpha virt. eigenvalues --    8.26036   8.26036   8.42825   8.78426   8.78426
 Alpha virt. eigenvalues --    8.83178   8.83178   8.87429   8.94834   8.94834
 Alpha virt. eigenvalues --    9.01655   9.01655   9.04463   9.04463   9.07693
 Alpha virt. eigenvalues --    9.37100   9.44481   9.44481   9.50544   9.50544
 Alpha virt. eigenvalues --    9.69257   9.69257   9.70209  10.00464  10.00464
 Alpha virt. eigenvalues --   10.08924  10.08924  10.12009  10.12009  10.13787
 Alpha virt. eigenvalues --   10.13787  10.18154  10.18154  10.22183  10.22183
 Alpha virt. eigenvalues --   10.24560  10.24560  10.26318  10.57063  10.57063
 Alpha virt. eigenvalues --   10.62545  10.62545  10.68342  10.68342  10.68903
 Alpha virt. eigenvalues --   10.68903  10.93998  10.93998  11.02895  11.03133
 Alpha virt. eigenvalues --   11.03133  11.16974  11.16974  11.22378  11.22378
 Alpha virt. eigenvalues --   11.24572  11.24572  11.60399  11.60399  11.84555
 Alpha virt. eigenvalues --   11.84598  11.84598  12.02786  12.02786  12.08462
 Alpha virt. eigenvalues --   12.08462  12.26885  12.63481  12.64728  12.64728
 Alpha virt. eigenvalues --   12.98557  12.98557  13.23956  13.35345  13.35345
 Alpha virt. eigenvalues --   13.54173  13.54173  13.55458  13.55458  13.74339
 Alpha virt. eigenvalues --   13.74339  13.94487  13.94487  14.07346  14.07346
 Alpha virt. eigenvalues --   14.18814  14.18814  14.32756  14.35463  14.35463
 Alpha virt. eigenvalues --   14.46082  14.46082  14.54242  14.54242  14.67149
 Alpha virt. eigenvalues --   14.81224  14.81224  15.05729  15.05729  15.20782
 Alpha virt. eigenvalues --   15.50946  15.50946  15.70980  15.73331  15.73331
 Alpha virt. eigenvalues --   15.98460  15.98460  16.17433  16.17433  16.24211
 Alpha virt. eigenvalues --   16.24211  16.33227  16.33227  16.36368  16.36368
 Alpha virt. eigenvalues --   16.60770  16.60770  16.87272  16.87272  16.96247
 Alpha virt. eigenvalues --   17.20869  17.20869  17.36774  17.75317  17.75317
 Alpha virt. eigenvalues --   18.17726  18.35486  18.35486  18.42649  18.42848
 Alpha virt. eigenvalues --   18.42848  18.47087  18.47087  18.47678  18.47678
 Alpha virt. eigenvalues --   18.63702  18.63702  18.66365  18.66365  18.67539
 Alpha virt. eigenvalues --   18.67539  18.68005  18.68005  18.72497  18.72497
 Alpha virt. eigenvalues --   18.90597  18.90597  18.91074  18.91074  18.91243
 Alpha virt. eigenvalues --   18.91243  18.97371  18.97371  19.27816  19.38644
 Alpha virt. eigenvalues --   19.38644  19.51889  19.51889  19.90429  19.90429
 Alpha virt. eigenvalues --   20.02970  20.02970  20.95171  21.20141  21.20141
 Alpha virt. eigenvalues --   21.55506  21.55506  21.70856  22.20357  22.20357
 Alpha virt. eigenvalues --   22.96646  23.70394  23.70394  24.74701  24.74701
 Alpha virt. eigenvalues --   24.76735  26.00167  26.00167  26.04892  26.04892
 Alpha virt. eigenvalues --   26.22071  26.22071  26.55331  26.55331  26.79710
 Alpha virt. eigenvalues --   26.79710  27.14657  27.14657  27.35378  27.35378
 Alpha virt. eigenvalues --   27.40635  27.48241  27.58765  27.58765  27.85844
 Alpha virt. eigenvalues --   27.85844  28.20875  28.40473  28.40473  28.43193
 Alpha virt. eigenvalues --   28.43193  28.54189  28.54189  28.78786  28.78786
 Alpha virt. eigenvalues --   29.21361  29.21361  29.38655  29.38655  29.43344
 Alpha virt. eigenvalues --   29.69844  29.69844  29.75871  29.75871  29.93576
 Alpha virt. eigenvalues --   29.93576  30.46172  30.46172  31.05761  31.17014
 Alpha virt. eigenvalues --   31.17014  31.69058  32.86804  32.86804  32.93528
 Alpha virt. eigenvalues --   32.93528  33.29489  33.29489  33.72059  33.72059
 Alpha virt. eigenvalues --   33.85948  33.95294  33.95294  33.96102  33.96102
 Alpha virt. eigenvalues --   33.96397  33.96397  34.14201  34.14201  34.18849
 Alpha virt. eigenvalues --   34.18849  34.71668  35.10094  35.10094  35.90468
 Alpha virt. eigenvalues --   35.90468  36.39296  36.39296  36.69202  36.69202
 Alpha virt. eigenvalues --   36.81933  36.95112  36.95112  37.88535  37.88535
 Alpha virt. eigenvalues --   39.73655  42.63342  42.63342  43.09079  43.09079
 Alpha virt. eigenvalues --   44.10122  44.10122  44.83572  48.22541  48.22541
 Alpha virt. eigenvalues --   49.89106  78.91197 471.18403
          Condensed to atoms (all electrons):
              1          2
     1  Ti  21.229853   0.250693
     2  N    0.250693   7.268761
 Mulliken atomic charges:
              1
     1  Ti   0.519454
     2  N   -0.519454
 Sum of Mulliken atomic charges =   0.00000
 Mulliken charges with hydrogens summed into heavy atoms:
              1
     1  Ti   0.519454
     2  N   -0.519454
 Sum of Mulliken charges with hydrogens summed into heavy atoms =   0.00000
          Atomic-Atomic Spin Densities.
              1          2
     1  Ti   1.510646  -0.342830
     2  N   -0.342830   0.175013
 Mulliken atomic spin densities:
              1
     1  Ti   1.167817
     2  N   -0.167817
 Sum of Mulliken atomic spin densities =   1.00000
 Electronic spatial extent (au):  <R**2>=            104.3948
 Charge=              0.0000 electrons
 Dipole moment (field-independent basis, Debye):
    X=              0.0000    Y=              0.0000    Z=              3.9313  Tot=              3.9313
 Quadrupole moment (field-independent basis, Debye-Ang):
   XX=            -23.0151   YY=            -23.0151   ZZ=            -30.6934
   XY=              0.0000   XZ=              0.0000   YZ=              0.0000
 Traceless Quadrupole moment (field-independent basis, Debye-Ang):
   XX=              2.5594   YY=              2.5594   ZZ=             -5.1189
   XY=              0.0000   XZ=              0.0000   YZ=              0.0000
 Octapole moment (field-independent basis, Debye-Ang**2):
  XXX=              0.0000  YYY=              0.0000  ZZZ=             -1.4844  XYY=              0.0000
  XXY=              0.0000  XXZ=              0.3103  XZZ=              0.0000  YZZ=              0.0000
  YYZ=              0.3103  XYZ=              0.0000
 Hexadecapole moment (field-independent basis, Debye-Ang**3):
 XXXX=            -45.0153 YYYY=            -45.0153 ZZZZ=           -152.2640 XXXY=              0.0000
 XXXZ=              0.0000 YYYX=              0.0000 YYYZ=              0.0000 ZZZX=              0.0000
 ZZZY=              0.0000 XXYY=            -15.0051 XXZZ=            -32.6759 YYZZ=            -32.6759
 XXYZ=              0.0000 YYXZ=              0.0000 ZZXY=              0.0000
 N-N= 5.157150368489D+01 E-N=-3.357748423357D+03  KE= 1.353384817993D+03
                          Isotropic Fermi Contact Couplings
        Atom                 a.u.       MegaHertz       Gauss      10(-4) cm-1
     1  Ti(47)             1.72258    -434.75904    -155.13283    -145.02001
     2  N(14)              0.03081       9.95562       3.55241       3.32084
 --------------------------------------------------------
       Center         ----  Spin Dipole Couplings  ----
                      3XX-RR        3YY-RR        3ZZ-RR
 --------------------------------------------------------
     1   Atom       -0.099722     -0.099722      0.199445
     2   Atom       -0.010689     -0.010689      0.021379
 --------------------------------------------------------
                        XY            XZ            YZ
 --------------------------------------------------------
     1   Atom        0.000000      0.000000      0.000000
     2   Atom        0.000000      0.000000      0.000000
 --------------------------------------------------------


 ---------------------------------------------------------------------------------
              Anisotropic Spin Dipole Couplings in Principal Axis System
 ---------------------------------------------------------------------------------

       Atom             a.u.   MegaHertz   Gauss  10(-4) cm-1        Axes

              Baa    -0.0997     3.004     1.072     1.002  0.0000  1.0000  0.0000
     1 Ti(47) Bbb    -0.0997     3.004     1.072     1.002  1.0000  0.0000  0.0000
              Bcc     0.1994    -6.009    -2.144    -2.004  0.0000  0.0000  1.0000
 
              Baa    -0.0107    -0.412    -0.147    -0.138  1.0000  0.0000  0.0000
     2 N(14)  Bbb    -0.0107    -0.412    -0.147    -0.138  0.0000  1.0000  0.0000
              Bcc     0.0214     0.825     0.294     0.275  0.0000  0.0000  1.0000
 

 ---------------------------------------------------------------------------------


 Test job not archived.
 1\1\GINC-N35\SP\ROMP2-FC\Gen\N1Ti1(2)\GPETERSSON\19-Oct-2013\0\\# ROMP
 2 Gen GFinput Int=NoBasisTransform Int(Grid=Ultrafine) IOp(3/32=2,5/6=
 10,8/11=1,9/33=1) Maxdisk=128GB CBSextrapolate(Nmin=25,MinPop) Guess=R
 ead\\TiN 2Sg\\0,2\Ti\N,1,1.5802\\Version=EM64L-G09RevA.02\State=2-SG\H
 F=-902.7692619\MP2=-903.1956578\E2(CBS)=-0.4291132\CBS-Int=-0.4276347\
 OIii=1.223998\RMSD=1.011e-11\PG=C*V [C*(N1Ti1)]\\@


 THE 2ND LAW OF THERMODYNAMICS HAS THE SAME
 DEGREE OF TRUTH AS THE STATEMENT THAT IF YOU THROW
 A TUMBLERFULL OF WATER INTO THE SEA, YOU CANNOT GET
 THE SAME TUMBLERFULL OF WATER OUT AGAIN.
          - J.C. MAXWELL, LETTER TO LORD RAYLEIGH, DECEMBER 6,1870
 Job cpu time:  5 days 10 hours  1 minutes 55.8 seconds.
 File lengths (MBytes):  RWF=  32469 Int=      0 D2E=      0 Chk=     40 Scr=      1
 Normal termination of Gaussian 09 at Sat Oct 19 03:27:14 2013.
