 Entering Gaussian System, Link 0=g09
 AtFile(1): 7ZaPa-NR.gbs
 Initial command:
 /share/apps/gaussian/g09root/g09/l1.exe /localscratch/60620/Gau-27145.inp -scrdir=/localscratch/60620/
 Entering Link 1 = /share/apps/gaussian/g09root/g09/l1.exe PID=     27146.
  
 Copyright (c) 1988,1990,1992,1993,1995,1998,2003,2009, Gaussian, Inc.
                  All Rights Reserved.
  
 This is part of the Gaussian(R) 09 program.  It is based on
 the Gaussian(R) 03 system (copyright 2003, Gaussian, Inc.),
 the Gaussian(R) 98 system (copyright 1998, Gaussian, Inc.),
 the Gaussian(R) 94 system (copyright 1995, Gaussian, Inc.),
 the Gaussian 92(TM) system (copyright 1992, Gaussian, Inc.),
 the Gaussian 90(TM) system (copyright 1990, Gaussian, Inc.),
 the Gaussian 88(TM) system (copyright 1988, Gaussian, Inc.),
 the Gaussian 86(TM) system (copyright 1986, Carnegie Mellon
 University), and the Gaussian 82(TM) system (copyright 1983,
 Carnegie Mellon University). Gaussian is a federally registered
 trademark of Gaussian, Inc.
  
 This software contains proprietary and confidential information,
 including trade secrets, belonging to Gaussian, Inc.
  
 This software is provided under written license and may be
 used, copied, transmitted, or stored only in accord with that
 written license.
  
 The following legend is applicable only to US Government
 contracts under FAR:
  
                    RESTRICTED RIGHTS LEGEND
  
 Use, reproduction and disclosure by the US Government is
 subject to restrictions as set forth in subparagraphs (a)
 and (c) of the Commercial Computer Software - Restricted
 Rights clause in FAR 52.227-19.
  
 Gaussian, Inc.
 340 Quinnipiac St., Bldg. 40, Wallingford CT 06492
  
  
 ---------------------------------------------------------------
 Warning -- This program may not be used in any manner that
 competes with the business of Gaussian, Inc. or will provide
 assistance to any competitor of Gaussian, Inc.  The licensee
 of this program is prohibited from giving any competitor of
 Gaussian, Inc. access to this program.  By using this program,
 the user acknowledges that Gaussian, Inc. is engaged in the
 business of creating and licensing software in the field of
 computational chemistry and represents and warrants to the
 licensee that it is not a competitor of Gaussian, Inc. and that
 it will not use this program in any manner prohibited above.
 ---------------------------------------------------------------
  

 Cite this work as:
 Gaussian 09, Revision A.02,
 M. J. Frisch, G. W. Trucks, H. B. Schlegel, G. E. Scuseria, 
 M. A. Robb, J. R. Cheeseman, G. Scalmani, V. Barone, B. Mennucci, 
 G. A. Petersson, H. Nakatsuji, M. Caricato, X. Li, H. P. Hratchian, 
 A. F. Izmaylov, J. Bloino, G. Zheng, J. L. Sonnenberg, M. Hada, 
 M. Ehara, K. Toyota, R. Fukuda, J. Hasegawa, M. Ishida, T. Nakajima, 
 Y. Honda, O. Kitao, H. Nakai, T. Vreven, J. A. Montgomery, Jr., 
 J. E. Peralta, F. Ogliaro, M. Bearpark, J. J. Heyd, E. Brothers, 
 K. N. Kudin, V. N. Staroverov, R. Kobayashi, J. Normand, 
 K. Raghavachari, A. Rendell, J. C. Burant, S. S. Iyengar, J. Tomasi, 
 M. Cossi, N. Rega, J. M. Millam, M. Klene, J. E. Knox, J. B. Cross, 
 V. Bakken, C. Adamo, J. Jaramillo, R. Gomperts, R. E. Stratmann, 
 O. Yazyev, A. J. Austin, R. Cammi, C. Pomelli, J. W. Ochterski, 
 R. L. Martin, K. Morokuma, V. G. Zakrzewski, G. A. Voth, 
 P. Salvador, J. J. Dannenberg, S. Dapprich, A. D. Daniels, 
 O. Farkas, J. B. Foresman, J. V. Ortiz, J. Cioslowski, 
 and D. J. Fox, Gaussian, Inc., Wallingford CT, 2009.
 
 ******************************************
 Gaussian 09:  EM64L-G09RevA.02 11-Jun-2009
                23-Oct-2013 
 ******************************************
 % Mem=64GB
 % Nproc=16
 Will use up to   16 processors via shared memory.
 % Chk=TiO-_2D.chk
 ----------------------------------------------------------------------
 # ROMP2 Gen GFinput Int=NoBasisTransform Int(Grid=Ultrafine) IOp(3/32=
 2,5/6=10,8/11=1,9/33=1) Maxdisk=128GB CBSextrapolate(Nmin=25,MinPop) S
 CF=Symm Guess=Read
 ----------------------------------------------------------------------
 1/38=1/1;
 2/12=2,17=6,18=5,40=1/2;
 3/5=7,11=2,16=1,24=10,25=1,30=1,32=2,60=-1,75=-5,116=101/1,2,3;
 4/5=1,9=4/1;
 5/5=2,6=10,15=2,38=6/2;
 8/5=-1,10=1,11=1/1;
 9/16=-3,33=1,75=2,81=25,83=4/6,4;
 6/7=2,8=2,9=2,10=2/1;
 99/5=1,9=1/99;
 --------
 TiO- 2/\
 --------
 Symbolic Z-matrix:
 Charge = -1 Multiplicity = 2
 Ti
 O                    1     1.644 
 
                          Input orientation:                          
 ---------------------------------------------------------------------
 Center     Atomic      Atomic             Coordinates (Angstroms)
 Number     Number       Type             X           Y           Z
 ---------------------------------------------------------------------
      1         22           0        0.000000    0.000000    0.000000
      2          8           0        0.000000    0.000000    1.644000
 ---------------------------------------------------------------------
 Stoichiometry    OTi(1-,2)
 Framework group  C*V[C*(OTi)]
 Deg. of freedom     1
 Full point group                 C*V     NOp   4
 Largest Abelian subgroup         C2V     NOp   4
 Largest concise Abelian subgroup C1      NOp   1
                         Standard orientation:                         
 ---------------------------------------------------------------------
 Center     Atomic      Atomic             Coordinates (Angstroms)
 Number     Number       Type             X           Y           Z
 ---------------------------------------------------------------------
      1         22           0        0.000000    0.000000    0.438400
      2          8           0        0.000000    0.000000   -1.205600
 ---------------------------------------------------------------------
 Rotational constants (GHZ):      0.0000000     15.5902721     15.5902721
 General basis read from cards:  (5D, 7F)
 AO basis set in the form of general basis input (Overlap normalization):
      1 0
 S  19 1.00       0.000000000000
      0.3093397200D+08  0.4234591329D-06
      0.6044953820D+07  0.2500233199D-05
      0.1406439870D+07  0.1416657951D-04
      0.3808742470D+06  0.6480102538D-04
      0.1175827660D+06  0.2541017510D-03
      0.4060237120D+05  0.8692969262D-03
      0.1541310580D+05  0.2654925011D-02
      0.6332181620D+04  0.7360767086D-02
      0.2775933820D+04  0.1874283040D-01
      0.1282232770D+04  0.4395120447D-01
      0.6170838670D+03  0.9384239299D-01
      0.3063608960D+03  0.1766719309D+00
      0.1555492650D+03  0.2737907056D+00
      0.8016593300D+02  0.3028287172D+00
      0.4166923400D+02  0.1848157313D+00
      0.2172715900D+02  0.4184420217D-01
      0.1131405200D+02  0.2667653209D-02
      0.5862761000D+01  0.3696609412D-03
      0.3014652000D+01  0.1806560102D-04
 S  16 1.00       0.000000000000
      0.1541310580D+05 -0.2000068553D-05
      0.6332181620D+04 -0.1628143465D-04
      0.2775933820D+04 -0.9291660553D-04
      0.1282232770D+04 -0.5141120884D-03
      0.6170838670D+03 -0.2238851019D-02
      0.3063608960D+03 -0.8917513766D-02
      0.1555492650D+03 -0.2843936305D-01
      0.8016593300D+02 -0.6831153690D-01
      0.4166923400D+02 -0.7552064941D-01
      0.2172715900D+02  0.7467127219D-01
      0.1131405200D+02  0.4019305211D+00
      0.5862761000D+01  0.4803209291D+00
      0.3014652000D+01  0.1620583712D+00
      0.1535019000D+01  0.1187769476D-01
      0.7728540000D+00  0.1881608481D-02
      0.3844100000D+00  0.1604322276D-03
 P  16 1.00       0.000000000000
      0.4533295070D+05  0.3902315011D-05
      0.1169435910D+05  0.3240199356D-04
      0.3723173810D+04  0.2050784432D-03
      0.1391898900D+04  0.9772377453D-03
      0.5867660470D+03  0.3774748693D-02
      0.2700556900D+03  0.1224652149D-01
      0.1323256660D+03  0.3421394492D-01
      0.6772548500D+02  0.8269378056D-01
      0.3570066100D+02  0.1661146293D+00
      0.1918843900D+02  0.2645001665D+00
      0.1044071500D+02  0.3144652086D+00
      0.5720592000D+01  0.2281751323D+00
      0.3142031000D+01  0.7796544752D-01
      0.1721723000D+01  0.1030149505D-01
      0.9355130000D+00  0.7894200457D-03
      0.4997910000D+00  0.2205735295D-03
 S  14 1.00       0.000000000000
      0.6170838670D+03  0.5322469049D-05
      0.3063608960D+03  0.3005187127D-04
      0.1555492650D+03  0.2469518916D-03
      0.8016593300D+02  0.1165891645D-02
      0.4166923400D+02  0.2681554527D-02
      0.2172715900D+02 -0.1846075520D-02
      0.1131405200D+02 -0.5172498790D-01
      0.5862761000D+01 -0.1934622218D+00
      0.3014652000D+01 -0.7022929944D-01
      0.1535019000D+01  0.4015244198D+00
      0.7728540000D+00  0.5768182565D+00
      0.3844100000D+00  0.2185252618D+00
      0.1888080000D+00  0.7055723508D-02
      0.9157300000D-01  0.2268621534D-02
 P  14 1.00       0.000000000000
      0.5867660470D+03 -0.5867365744D-05
      0.2700556900D+03 -0.3951856726D-04
      0.1323256660D+03 -0.2661521795D-03
      0.6772548500D+02 -0.1222512852D-02
      0.3570066100D+02 -0.4282268841D-02
      0.1918843900D+02 -0.9948508168D-02
      0.1044071500D+02 -0.1916879440D-01
      0.5720592000D+01  0.2122349637D-02
      0.3142031000D+01  0.1276297999D+00
      0.1721723000D+01  0.2999805429D+00
      0.9355130000D+00  0.3706357039D+00
      0.4997910000D+00  0.2535879781D+00
      0.2594200000D+00  0.6770257652D-01
      0.1286960000D+00  0.5000316675D-02
 D  16 1.00       0.000000000000
      0.1491449740D+04  0.4647613080D-05
      0.4676672110D+03  0.4680834861D-04
      0.1802568120D+03  0.3040571320D-03
      0.8026452900D+02  0.1408035394D-02
      0.3937766900D+02  0.5074876400D-02
      0.2055730100D+02  0.1433085417D-01
      0.1114698300D+02  0.3339947961D-01
      0.6180321000D+01  0.7062636521D-01
      0.3471588000D+01  0.1294550321D+00
      0.1966233000D+01  0.1905965255D+00
      0.1120200000D+01  0.2310709511D+00
      0.6406530000D+00  0.2402235480D+00
      0.3664290000D+00  0.2118898932D+00
      0.2080390000D+00  0.1465381738D+00
      0.1156960000D+00  0.6132776033D-01
      0.6170700000D-01  0.8234166991D-02
 D   1 1.00       0.000000000000
      0.4088453399D-01  0.1000000000D+01
 D   1 1.00       0.000000000000
      0.1288000000D-01  0.1000000000D+01
 S  11 1.00       0.000000000000
      0.4166923400D+02 -0.7430173516D-04
      0.2172715900D+02  0.9954373533D-04
      0.1131405200D+02  0.1248266287D-02
      0.5862761000D+01  0.8227221970D-02
      0.3014652000D+01  0.5168787780D-03
      0.1535019000D+01 -0.2799066814D-01
      0.7728540000D+00 -0.1082136524D+00
      0.3844100000D+00 -0.2119039186D+00
      0.1888080000D+00  0.1241661751D+00
      0.9157300000D-01  0.7398507106D+00
      0.4386900000D-01  0.3407873839D+00
 S   1 1.00       0.000000000000
      0.3468066937D-01  0.1000000000D+01
 S   1 1.00       0.000000000000
      0.1302400000D-01  0.1000000000D+01
 P  11 1.00       0.000000000000
      0.3570066100D+02  0.1516553016D-02
      0.1918843900D+02 -0.1055226724D-02
      0.1044071500D+02  0.9369863391D-02
      0.5720592000D+01 -0.1637669940D-01
      0.3142031000D+01  0.2128086630D-01
      0.1721723000D+01 -0.7338130343D-01
      0.9355130000D+00  0.7804168842D-01
      0.4997910000D+00 -0.4834264406D+00
      0.2594200000D+00 -0.1106826475D+00
      0.1286960000D+00 -0.8257091522D-01
      0.5906020050D-01 -0.5694513510D+00
 P   1 1.00       0.000000000000
      0.6188057483D-01  0.1000000000D+01
 P   1 1.00       0.000000000000
      0.1693100000D-01  0.1000000000D+01
 S   1 1.00       0.000000000000
      0.4132324000D+01  0.1000000000D+01
 S   1 1.00       0.000000000000
      0.2139468000D+01  0.1000000000D+01
 S   1 1.00       0.000000000000
      0.1107688000D+01  0.1000000000D+01
 S   1 1.00       0.000000000000
      0.5734940000D+00  0.1000000000D+01
 S   1 1.00       0.000000000000
      0.2969210000D+00  0.1000000000D+01
 S   1 1.00       0.000000000000
      0.1537280000D+00  0.1000000000D+01
 P   1 1.00       0.000000000000
      0.1701521000D+01  0.1000000000D+01
 P   1 1.00       0.000000000000
      0.9998930000D+00  0.1000000000D+01
 P   1 1.00       0.000000000000
      0.5875840000D+00  0.1000000000D+01
 P   1 1.00       0.000000000000
      0.3452920000D+00  0.1000000000D+01
 P   1 1.00       0.000000000000
      0.2029100000D+00  0.1000000000D+01
 P   1 1.00       0.000000000000
      0.1192390000D+00  0.1000000000D+01
 D   1 1.00       0.000000000000
      0.3111776000D+01  0.1000000000D+01
 D   1 1.00       0.000000000000
      0.1566445000D+01  0.1000000000D+01
 D   1 1.00       0.000000000000
      0.7885370000D+00  0.1000000000D+01
 D   1 1.00       0.000000000000
      0.3969430000D+00  0.1000000000D+01
 D   1 1.00       0.000000000000
      0.1998180000D+00  0.1000000000D+01
 D   1 1.00       0.000000000000
      0.1005870000D+00  0.1000000000D+01
 F   1 1.00       0.000000000000
      0.9884164000D+01  0.1000000000D+01
 F   1 1.00       0.000000000000
      0.4462610000D+01  0.1000000000D+01
 F   1 1.00       0.000000000000
      0.2014828000D+01  0.1000000000D+01
 F   1 1.00       0.000000000000
      0.9096760000D+00  0.1000000000D+01
 F   1 1.00       0.000000000000
      0.4107110000D+00  0.1000000000D+01
 F   1 1.00       0.000000000000
      0.1854320000D+00  0.1000000000D+01
 F   1 1.00       0.000000000000
      0.8372000000D-01  0.1000000000D+01
 G   1 1.00       0.000000000000
      0.6789106000D+01  0.1000000000D+01
 G   1 1.00       0.000000000000
      0.3035888000D+01  0.1000000000D+01
 G   1 1.00       0.000000000000
      0.1357559000D+01  0.1000000000D+01
 G   1 1.00       0.000000000000
      0.6070600000D+00  0.1000000000D+01
 G   1 1.00       0.000000000000
      0.2714590000D+00  0.1000000000D+01
 G   1 1.00       0.000000000000
      0.1213880000D+00  0.1000000000D+01
 H   1 1.00       0.000000000000
      0.5309074000D+01  0.1000000000D+01
 H   1 1.00       0.000000000000
      0.2184678000D+01  0.1000000000D+01
 H   1 1.00       0.000000000000
      0.8989930000D+00  0.1000000000D+01
 H   1 1.00       0.000000000000
      0.3699350000D+00  0.1000000000D+01
 H   1 1.00       0.000000000000
      0.1522270000D+00  0.1000000000D+01
 I   1 1.00       0.000000000000
      0.4025066000D+01  0.1000000000D+01
 I   1 1.00       0.000000000000
      0.1486593000D+01  0.1000000000D+01
 I   1 1.00       0.000000000000
      0.5490490000D+00  0.1000000000D+01
 I   1 1.00       0.000000000000
      0.2027820000D+00  0.1000000000D+01
 J   1 1.00       0.000000000000
      0.2320490000D+01  0.1000000000D+01
 J   1 1.00       0.000000000000
      0.7598860000D+00  0.1000000000D+01
 J   1 1.00       0.000000000000
      0.2488380000D+00  0.1000000000D+01
 K   1 1.00       0.000000000000
      0.1127537136D+01  0.1000000000D+01
 ****
      2 0
 S  16 1.00       0.000000000000
      0.1411246410D+07  0.1627429822D-05
      0.2499102240D+06  0.1092621996D-04
      0.5603410580D+05  0.6238741867D-04
      0.1521153640D+05  0.2783303491D-03
      0.4812287750D+04  0.1040541872D-02
      0.1717755460D+04  0.3380392793D-02
      0.6733958240D+03  0.9828484765D-02
      0.2835101840D+03  0.2605310129D-01
      0.1258620070D+03  0.6280818057D-01
      0.5804472200D+02  0.1348202075D+00
      0.2747198500D+02  0.2435563460D+00
      0.1321062900D+02  0.3323287378D+00
      0.6399806000D+01  0.2607930483D+00
      0.3099614000D+01  0.7430834326D-01
      0.1489856000D+01  0.4189538074D-02
      0.7052010000D+00  0.8706455725D-03
 S  11 1.00       0.000000000000
      0.2835101840D+03 -0.1122588094D-03
      0.1258620070D+03 -0.5559335617D-03
      0.5804472200D+02 -0.2851687904D-02
      0.2747198500D+02 -0.1133494995D-01
      0.1321062900D+02 -0.3657977704D-01
      0.6399806000D+01 -0.7288994197D-01
      0.3099614000D+01 -0.1062032356D-01
      0.1489856000D+01  0.2196705572D+00
      0.7052010000D+00  0.4294832072D+00
      0.3258480000D+00  0.3775832849D+00
      0.1454600000D+00  0.9640261255D-01
 S   1 1.00       0.000000000000
      0.5814297870D-01  0.1000000000D+01
 P  13 1.00       0.000000000000
      0.2085279200D+04  0.1447911740D-04
      0.5101470830D+03  0.1283233588D-03
      0.1616811510D+03  0.7792790007D-03
      0.6114945200D+02  0.3400506049D-02
      0.2597660200D+02  0.1157685214D-01
      0.1187542600D+02  0.3269740339D-01
      0.5677133000D+01  0.8011404242D-01
      0.2786475000D+01  0.1605265057D+00
      0.1387844000D+01  0.2460495026D+00
      0.6952810000D+00  0.2898982926D+00
      0.3470020000D+00  0.2606799382D+00
      0.1700990000D+00  0.1479363112D+00
      0.8008000000D-01  0.2980261453D-01
 P   1 1.00       0.000000000000
      0.4261436033D-01  0.1000000000D+01
 S   1 1.00       0.000000000000
      0.4249866000D+01  0.1000000000D+01
 S   1 1.00       0.000000000000
      0.2167470000D+01  0.1000000000D+01
 S   1 1.00       0.000000000000
      0.1105429000D+01  0.1000000000D+01
 S   1 1.00       0.000000000000
      0.5637790000D+00  0.1000000000D+01
 S   1 1.00       0.000000000000
      0.2875320000D+00  0.1000000000D+01
 S   1 1.00       0.000000000000
      0.1466440000D+00  0.1000000000D+01
 P   1 1.00       0.000000000000
      0.5659724000D+01  0.1000000000D+01
 P   1 1.00       0.000000000000
      0.2575878000D+01  0.1000000000D+01
 P   1 1.00       0.000000000000
      0.1172344000D+01  0.1000000000D+01
 P   1 1.00       0.000000000000
      0.5335620000D+00  0.1000000000D+01
 P   1 1.00       0.000000000000
      0.2428370000D+00  0.1000000000D+01
 P   1 1.00       0.000000000000
      0.1105210000D+00  0.1000000000D+01
 D   1 1.00       0.000000000000
      0.9464211000D+01  0.1000000000D+01
 D   1 1.00       0.000000000000
      0.4752286000D+01  0.1000000000D+01
 D   1 1.00       0.000000000000
      0.2386276000D+01  0.1000000000D+01
 D   1 1.00       0.000000000000
      0.1198226000D+01  0.1000000000D+01
 D   1 1.00       0.000000000000
      0.6016680000D+00  0.1000000000D+01
 D   1 1.00       0.000000000000
      0.3021170000D+00  0.1000000000D+01
 D   1 1.00       0.000000000000
      0.1517020000D+00  0.1000000000D+01
 F   1 1.00       0.000000000000
      0.7001836000D+01  0.1000000000D+01
 F   1 1.00       0.000000000000
      0.3552509000D+01  0.1000000000D+01
 F   1 1.00       0.000000000000
      0.1802430000D+01  0.1000000000D+01
 F   1 1.00       0.000000000000
      0.9144960000D+00  0.1000000000D+01
 F   1 1.00       0.000000000000
      0.4639860000D+00  0.1000000000D+01
 F   1 1.00       0.000000000000
      0.2354110000D+00  0.1000000000D+01
 G   1 1.00       0.000000000000
      0.6472481000D+01  0.1000000000D+01
 G   1 1.00       0.000000000000
      0.3119071000D+01  0.1000000000D+01
 G   1 1.00       0.000000000000
      0.1503072000D+01  0.1000000000D+01
 G   1 1.00       0.000000000000
      0.7243260000D+00  0.1000000000D+01
 G   1 1.00       0.000000000000
      0.3490500000D+00  0.1000000000D+01
 H   1 1.00       0.000000000000
      0.5355083000D+01  0.1000000000D+01
 H   1 1.00       0.000000000000
      0.2414696000D+01  0.1000000000D+01
 H   1 1.00       0.000000000000
      0.1088827000D+01  0.1000000000D+01
 H   1 1.00       0.000000000000
      0.4909703000D+00  0.1000000000D+01
 I   1 1.00       0.000000000000
      0.4322113000D+01  0.1000000000D+01
 I   1 1.00       0.000000000000
      0.1716263000D+01  0.1000000000D+01
 I   1 1.00       0.000000000000
      0.6815089000D+00  0.1000000000D+01
 J   1 1.00       0.000000000000
      0.3060973723D+01  0.1000000000D+01
 ****

 There are   207 symmetry adapted basis functions of A1  symmetry.
 There are   106 symmetry adapted basis functions of A2  symmetry.
 There are   151 symmetry adapted basis functions of B1  symmetry.
 There are   151 symmetry adapted basis functions of B2  symmetry.
 Integral buffers will be    131072 words long.
 Raffenetti 2 integral format.
 Two-electron integral symmetry is turned on.
   615 basis functions,  1364 primitive gaussians,  1043 cartesian basis functions
    16 alpha electrons       15 beta electrons
       nuclear repulsion energy        56.6515746422 Hartrees.
 NAtoms=    2 NActive=    2 NUniq=    2 SFac= 7.50D-01 NAtFMM=   80 NAOKFM=F Big=F
 One-electron integrals computed using PRISM.
 NBasis=   615 RedAO= F  NBF=   207   106   151   151
 NBsUse=   615 1.00D-04 NBFU=   207   106   151   151
 Initial guess read from the checkpoint file:  TiO-_2D.chk
 B after Tr=     0.000000    0.000000    0.000000
         Rot=    1.000000    0.000000    0.000000    0.000000 Ang=   0.00 deg.
 Initial guess orbital symmetries:
       Occupied  (SG) (SG) (SG) (SG) (PI) (PI) (SG) (SG) (PI) (PI)
                 (SG) (SG) (PI) (PI) (SG) (?A)
       Virtual   (SG) (SG) (PI) (PI) (SG) (SG) (?A) (?A) (PI) (PI)
                 (PI) (PI) (SG) (SG) (PI) (PI) (SG) (?A) (PI) (PI)
                 (SG) (SG) (?A) (?A) (PI) (PI) (SG) (PI) (PI) (SG)
                 (SG) (PI) (PI) (DLTA) (SG) (DLTA) (PHI) (PHI)
                 (SG) (PI) (PI) (SG) (?A) (?A) (PI) (PI) (?A) (?A)
                 (PI) (PI) (SG) (SG) (PI) (PI) (?B) (?B) (?B) (PHI)
                 (PHI) (PI) (PI) (SG) (DLTA) (DLTA) (PI) (PI) (SG)
                 (SG) (DLTA) (DLTA) (PHI) (PHI) (PI) (PI) (PHI)
                 (PHI) (SG) (SG) (DLTA) (DLTA) (PI) (PI) (PI) (PI)
                 (?A) (?A) (?C) (?C) (?D) (?D) (SG) (SG) (?E) (?E)
                 (DLTA) (DLTA) (?E) (?E) (SG) (PI) (PI) (DLTA)
                 (DLTA) (SG) (PI) (PI) (SG) (DLTA) (DLTA) (?D)
                 (?D) (?E) (?E) (?E) (?E) (SG) (PI) (PI) (SG) (?D)
                 (?D) (PHI) (PHI) (DLTA) (DLTA) (PHI) (PHI) (SG)
                 (SG) (?C) (?C) (SG) (DLTA) (DLTA) (PI) (PI) (?D)
                 (?D) (PI) (PI) (PHI) (PHI) (SG) (SG) (PHI) (PHI)
                 (PI) (PI) (DLTA) (DLTA) (SG) (PI) (PI) (SG) (DLTA)
                 (DLTA) (DLTA) (DLTA) (SG) (PI) (PI) (PI) (PI)
                 (SG) (DLTA) (DLTA) (SG) (PI) (PI) (?C) (?C) (DLTA)
                 (?D) (?D) (DLTA) (PHI) (PHI) (SG) (PI) (PI) (?D)
                 (?D) (PHI) (PHI) (?C) (?C) (?F) (?F) (SG) (SG)
                 (SG) (?C) (?C) (DLTA) (DLTA) (?G) (?G) (?G) (PI)
                 (PI) (DLTA) (DLTA) (?E) (?E) (?E) (?E) (?D) (?D)
                 (PHI) (PHI) (SG) (PI) (PI) (DLTA) (DLTA) (PHI)
                 (PHI) (PI) (PI) (DLTA) (DLTA) (SG) (SG) (PI) (PI)
                 (PHI) (PHI) (SG) (?D) (?D) (DLTA) (DLTA) (PHI)
                 (PHI) (SG) (PI) (PI) (DLTA) (DLTA) (SG) (SG) (PI)
                 (PI) (?C) (?C) (SG) (SG) (?D) (?D) (?E) (?E) (PI)
                 (PI) (DLTA) (DLTA) (?E) (?E) (SG) (SG) (DLTA)
                 (DLTA) (PI) (PI) (DLTA) (DLTA) (SG) (PI) (PI)
                 (SG) (SG) (?C) (?C) (SG) (SG) (?D) (?D) (PHI)
                 (PHI) (DLTA) (DLTA) (PI) (PI) (SG) (?D) (?D) (?C)
                 (?C) (PHI) (PHI) (DLTA) (DLTA) (PI) (PI) (SG)
                 (?C) (?C) (?D) (?D) (PHI) (PHI) (DLTA) (DLTA)
                 (PI) (PI) (SG) (?D) (?D) (PHI) (PHI) (DLTA) (DLTA)
                 (PI) (PI) (SG) (PHI) (PHI) (PHI) (PHI) (DLTA)
                 (DLTA) (DLTA) (DLTA) (SG) (PI) (PI) (PI) (PI)
                 (SG) (?D) (?D) (PHI) (PHI) (DLTA) (DLTA) (PI)
                 (PI) (SG) (PI) (PI) (SG) (DLTA) (DLTA) (PI) (PI)
                 (SG) (SG) (SG) (SG) (PI) (PI) (SG) (SG) (PI) (PI)
                 (DLTA) (DLTA) (SG) (PI) (PI) (DLTA) (DLTA) (SG)
                 (PI) (PI) (DLTA) (DLTA) (SG) (PI) (PI) (SG) (PI)
                 (PI) (SG) (PI) (PI) (SG) (SG) (SG) (SG) (PI) (PI)
                 (PI) (PI) (SG) (PI) (PI) (SG) (PI) (PI) (SG) (PI)
                 (PI) (SG) (DLTA) (DLTA) (PI) (PI) (DLTA) (DLTA)
                 (PI) (PI) (DLTA) (DLTA) (PI) (PI) (DLTA) (DLTA)
                 (PI) (PI) (DLTA) (DLTA) (PHI) (PHI) (SG) (SG)
                 (DLTA) (DLTA) (PHI) (PHI) (SG) (DLTA) (DLTA) (PHI)
                 (PHI) (DLTA) (DLTA) (PHI) (PHI) (SG) (PI) (PI)
                 (DLTA) (DLTA) (PHI) (PHI) (?D) (?D) (PHI) (PHI)
                 (PI) (PI) (DLTA) (DLTA) (PHI) (PHI) (?D) (?D)
                 (SG) (PI) (PI) (DLTA) (DLTA) (PHI) (PHI) (?D)
                 (?D) (SG) (PI) (PI) (DLTA) (DLTA) (PHI) (PHI)
                 (?D) (?D) (?C) (?C) (SG) (PI) (PI) (DLTA) (DLTA)
                 (PHI) (PHI) (?D) (?D) (?C) (?C) (SG) (PI) (PI)
                 (DLTA) (DLTA) (PHI) (PHI) (?D) (?D) (?C) (?C)
                 (SG) (PI) (PI) (DLTA) (DLTA) (PHI) (PHI) (?D)
                 (?D) (?C) (?C) (SG) (SG) (SG) (PI) (PI) (DLTA)
                 (DLTA) (PHI) (PHI) (?D) (?D) (?C) (?C) (SG) (SG)
                 (SG) (PI) (PI) (DLTA) (DLTA) (PHI) (PHI) (?D)
                 (?D) (?C) (?C) (SG) (SG) (?F) (?F) (DLTA) (DLTA)
                 (DLTA) (DLTA) (PHI) (PHI) (?D) (?D) (?C) (?C)
                 (SG) (SG) (?F) (?F) (DLTA) (DLTA) (PHI) (PHI)
                 (?D) (?D) (?C) (?C) (SG) (SG) (?F) (?F) (?H) (?H)
                 (SG) (PI) (PI) (PHI) (PHI) (PHI) (PHI) (PHI) (PHI)
                 (?D) (?D) (?D) (?D) (PI) (PI) (DLTA) (DLTA) (?D)
                 (?D) (?C) (?C) (?C) (?C) (PHI) (PHI) (?D) (?D)
                 (?C) (?C) (SG) (SG) (SG) (SG) (?D) (?D) (?C) (?C)
                 (SG) (SG) (?F) (?F)
 Requested convergence on RMS density matrix=1.00D-10 within 128 cycles.
 Requested convergence on MAX density matrix=1.00D-08.
 Requested convergence on             energy=1.00D-08.
 No special actions if energy rises.
 Restarting incremental Fock formation.
 SCF Done:  E(ROHF) =  -923.336689953     A.U. after   20 cycles
             Convg  =    0.3855D-11             -V/T =  2.0000
 <Sx>= 0.0000 <Sy>= 0.0000 <Sz>= 0.5000 <S**2>= 0.7500 S= 0.5000
 <L.S>= 0.000000000000E+00
 Annihilation of the first spin contaminant:
 S**2 before annihilation     0.7500,   after     0.7500
 DiagDN has N=   615 LTot=  1877 but NE2=     3 cannot use DSYEVD.
 GenMOA:  NOpAll=  4 NOp2=4 NOpUse=  4 JSym2X=1
 <Sx>= 0.0000 <Sy>= 0.0000 <Sz>= 0.5000 <S**2>= 0.7500 S= 0.5000
 ExpMin= 1.29D-02 ExpMax= 3.09D+07 ExpMxC= 2.78D+03 IAcc=3 IRadAn=         5 AccDes= 0.00D+00
 HarFok:  IExCor=  205 AccDes= 0.00D+00 IRadAn=         5 IDoV=-2
 ScaDFX=  1.000000  1.000000  1.000000  1.000000
 Range of M.O.s used for correlation:    11   615
 NBasis=   615 NAE=    16 NBE=    15 NFC=    10 NFV=     0
 NROrb=    605 NOA=     6 NOB=     5 NVA=   599 NVB=   600

 **** Warning!!: The largest alpha MO coefficient is  0.27110041D+03


 **** Warning!!: The largest beta MO coefficient is  0.27110037D+03

 Singles contribution to E2=   -0.3809937719D-03
 Disk-based method using OVN memory for  6 occupieds at a time.
 Permanent disk used for amplitudes and <ij||ab> integrals=    30531030 words.
 Estimated scratch disk usage=  5002511376 words.
 IUseRI=2 ITolRI= 6 IR12RI=0
 Actual    scratch disk usage=  4994166602 words.
 GetIJB would need an additional  4846592948 words of memory to use all  16 processors.
 JobTyp=2 Pass  1:  I=   1 to   6 NPSUse= 10 ParTrn=T ParDer=T DoDerP=F.
 T,EIJ(AA): I=   1 J=   2      0.8234152E-03     -0.3615390E-02
 T,EIJ(AA): I=   1 J=   3      0.1489723E-03     -0.7485810E-03
 T,EIJ(AA): I=   1 J=   4      0.9169903E-03     -0.3751177E-02
 T,EIJ(AA): I=   1 J=   5      0.9169903E-03     -0.3751177E-02
 T,EIJ(AA): I=   1 J=   6      0.9337471E-04     -0.2447571E-03
 T,EIJ(AA): I=   2 J=   3      0.7522014E-03     -0.2227965E-02
 T,EIJ(AA): I=   2 J=   4      0.4958236E-02     -0.1213912E-01
 T,EIJ(AA): I=   2 J=   5      0.4958236E-02     -0.1213912E-01
 T,EIJ(AA): I=   2 J=   6      0.7580724E-03     -0.1176381E-02
 T,EIJ(AA): I=   3 J=   4      0.6373770E-03     -0.1617797E-02
 T,EIJ(AA): I=   3 J=   5      0.6373770E-03     -0.1617797E-02
 T,EIJ(AA): I=   3 J=   6      0.1325727E-02     -0.2578222E-02
 T,EIJ(AA): I=   4 J=   5      0.4778958E-02     -0.1152210E-01
 T,EIJ(AA): I=   4 J=   6      0.9553022E-03     -0.1273957E-02
 T,EIJ(AA): I=   5 J=   6      0.9553022E-03     -0.1273957E-02
 T,EIJ(AB): I=   1 J=   1      0.1919386E-02     -0.1228316E-01
 T,EIJ(AB): I=   1 J=   2      0.2226835E-02     -0.1178334E-01
 T,EIJ(AB): I=   1 J=   3      0.2283281E-02     -0.1165744E-01
 T,EIJ(AB): I=   1 J=   4      0.2283281E-02     -0.1165744E-01
 T,EIJ(AB): I=   1 J=   5      0.1423581E-03     -0.3989218E-03
 T,EIJ(AB): I=   2 J=   1      0.2222220E-02     -0.1177306E-01
 T,EIJ(AB): I=   2 J=   2      0.9612088E-02     -0.2896636E-01
 T,EIJ(AB): I=   2 J=   3      0.5811299E-02     -0.1556202E-01
 T,EIJ(AB): I=   2 J=   4      0.5811299E-02     -0.1556202E-01
 T,EIJ(AB): I=   2 J=   5      0.1193219E-02     -0.1793107E-02
 T,EIJ(AB): I=   3 J=   1      0.1817295E-03     -0.9761843E-03
 T,EIJ(AB): I=   3 J=   2      0.1039699E-02     -0.3264918E-02
 T,EIJ(AB): I=   3 J=   3      0.7588286E-03     -0.2027577E-02
 T,EIJ(AB): I=   3 J=   4      0.7588286E-03     -0.2027577E-02
 T,EIJ(AB): I=   3 J=   5      0.2425270E-02     -0.4223670E-02
 T,EIJ(AB): I=   4 J=   1      0.2276753E-02     -0.1163306E-01
 T,EIJ(AB): I=   4 J=   2      0.5798709E-02     -0.1554201E-01
 T,EIJ(AB): I=   4 J=   3      0.9875386E-02     -0.2752539E-01
 T,EIJ(AB): I=   4 J=   4      0.6074453E-02     -0.1548233E-01
 T,EIJ(AB): I=   4 J=   5      0.1140535E-02     -0.1552150E-02
 T,EIJ(AB): I=   5 J=   1      0.2276753E-02     -0.1163306E-01
 T,EIJ(AB): I=   5 J=   2      0.5798709E-02     -0.1554201E-01
 T,EIJ(AB): I=   5 J=   3      0.6074453E-02     -0.1548233E-01
 T,EIJ(AB): I=   5 J=   4      0.9875386E-02     -0.2752539E-01
 T,EIJ(AB): I=   5 J=   5      0.1140535E-02     -0.1552150E-02
 T,EIJ(AB): I=   6 J=   1      0.1400650E-03     -0.3936465E-03
 T,EIJ(AB): I=   6 J=   2      0.1182537E-02     -0.1785935E-02
 T,EIJ(AB): I=   6 J=   3      0.1125640E-02     -0.1542669E-02
 T,EIJ(AB): I=   6 J=   4      0.1125640E-02     -0.1542669E-02
 T,EIJ(AB): I=   6 J=   5      0.3331082E-01     -0.2135814E-01
 Actual    scratch disk usage=  5002504208 words.
 GetIJB would need an additional  4846577303 words of memory to use all  16 processors.
 JobTyp=3 Pass  1:  I=   1 to   5 NPSUse= 10 ParTrn=T ParDer=T DoDerP=F.
 T,EIJ(BB): I=   1 J=   2      0.8204328E-03     -0.3613615E-02
 T,EIJ(BB): I=   1 J=   3      0.9101790E-03     -0.3740310E-02
 T,EIJ(BB): I=   1 J=   4      0.9101790E-03     -0.3740310E-02
 T,EIJ(BB): I=   1 J=   5      0.9161216E-04     -0.2434571E-03
 T,EIJ(BB): I=   2 J=   3      0.4846405E-02     -0.1207142E-01
 T,EIJ(BB): I=   2 J=   4      0.4846405E-02     -0.1207142E-01
 T,EIJ(BB): I=   2 J=   5      0.7462641E-03     -0.1173005E-02
 T,EIJ(BB): I=   3 J=   4      0.4703412E-02     -0.1149473E-01
 T,EIJ(BB): I=   3 J=   5      0.9404372E-03     -0.1273032E-02
 T,EIJ(BB): I=   4 J=   5      0.9404372E-03     -0.1273032E-02
 Spin components of T(2) and E(2):
     alpha-alpha T2 =       0.2361653152D-01 E2=     -0.5967749675D-01
     alpha-beta  T2 =       0.1258859928D+00 E2=     -0.3040497199D+00
     beta-beta   T2 =       0.1975576295D-01 E2=     -0.5069433320D-01
 ANorm=    0.1081637236D+01
 E2 =    -0.4148025436D+00 EUMP2 =    -0.92375149249614D+03

 Complete Basis Set (CBS) Extrapolation:
 M. R. Nyden and G. A. Petersson, JCP 75, 1843 (1981)
 G. A. Petersson and M. A. Al-Laham, JCP 94, 6081 (1991)
 G. A. Petersson, T. Tensfeldt, and J. A. Montgomery, JCP 94, 6091 (1991)
 J. A. Montgomery, J. W. Ochterski, and G. A. Petersson, JCP 101, 5900 (1994)
 
 Minimum Number of PNO for Extrapolation =  25
 Absolute Overlaps: IRadAn =         5
 LocTrn: ILocal=3 LocCor=F DoCore=F.
 Entering OneElI...
 Overlap between basis sets.
 Requested accuracy = 0.1000D-12
 PrsmSu:  NPrtUS=   1 ThrOK=F IAlg=1
 PRISM was handed  8588078518 working-precision words and    47 shell-pairs
 IPart=  0 NShTot=          47 NBatch=          10 AvBLen=         4.7
 CnvPC2: ToCart=F DoDens=F IPureD=0 IPureF=0.
 Transformed matrix in CnvPC2: 
                 1             2             3             4             5 
      1   0.100000D+01  0.371775D+00  0.000000D+00  0.000000D+00  0.000000D+00
      2   0.371775D+00  0.100000D+01  0.000000D+00  0.000000D+00  0.000000D+00
      3   0.000000D+00  0.000000D+00  0.100000D+01  0.000000D+00  0.000000D+00
      4   0.000000D+00  0.000000D+00  0.000000D+00  0.100000D+01  0.000000D+00
      5   0.000000D+00  0.000000D+00  0.000000D+00  0.000000D+00  0.100000D+01
      6   0.223608D-01  0.300384D+00  0.000000D+00  0.000000D+00  0.000000D+00
      7   0.000000D+00  0.000000D+00  0.313309D+00  0.000000D+00  0.000000D+00
      8   0.000000D+00  0.000000D+00  0.000000D+00  0.313309D+00  0.000000D+00
      9   0.000000D+00  0.000000D+00  0.000000D+00  0.000000D+00  0.313309D+00
     10   0.000000D+00  0.000000D+00  0.000000D+00  0.000000D+00  0.000000D+00
     11   0.000000D+00  0.000000D+00  0.000000D+00  0.000000D+00  0.000000D+00
     12   0.000000D+00  0.000000D+00  0.000000D+00  0.000000D+00  0.000000D+00
     13   0.000000D+00  0.000000D+00  0.000000D+00  0.000000D+00  0.000000D+00
     14   0.000000D+00  0.000000D+00  0.000000D+00  0.000000D+00  0.000000D+00
     15  -0.412730D-03  0.136941D-01  0.000000D+00  0.000000D+00  0.000000D+00
     16   0.000000D+00  0.000000D+00  0.250808D-01  0.000000D+00  0.000000D+00
     17   0.000000D+00  0.000000D+00  0.000000D+00  0.250808D-01  0.000000D+00
     18   0.000000D+00  0.000000D+00  0.000000D+00  0.000000D+00  0.250808D-01
     19   0.000000D+00  0.000000D+00  0.000000D+00  0.000000D+00  0.000000D+00
     20   0.857608D-03  0.641312D-02  0.000000D+00  0.000000D+00 -0.382664D-02
     21   0.000000D+00  0.000000D+00  0.112220D-02  0.000000D+00  0.000000D+00
     22   0.000000D+00  0.000000D+00  0.000000D+00  0.112220D-02  0.000000D+00
     23   0.183477D-02  0.131015D-01  0.000000D+00  0.000000D+00 -0.683691D-02
                 6             7             8             9            10 
      1   0.223608D-01  0.000000D+00  0.000000D+00  0.000000D+00  0.000000D+00
      2   0.300384D+00  0.000000D+00  0.000000D+00  0.000000D+00  0.000000D+00
      3   0.000000D+00  0.313309D+00  0.000000D+00  0.000000D+00  0.000000D+00
      4   0.000000D+00  0.000000D+00  0.313309D+00  0.000000D+00  0.000000D+00
      5   0.000000D+00  0.000000D+00  0.000000D+00  0.313309D+00  0.000000D+00
      6   0.100000D+01  0.000000D+00  0.000000D+00  0.000000D+00  0.000000D+00
      7   0.000000D+00  0.100000D+01  0.000000D+00  0.000000D+00  0.000000D+00
      8   0.000000D+00  0.000000D+00  0.100000D+01  0.000000D+00  0.000000D+00
      9   0.000000D+00  0.000000D+00  0.000000D+00  0.100000D+01  0.000000D+00
     10   0.000000D+00  0.000000D+00  0.000000D+00  0.000000D+00  0.100000D+01
     11   0.000000D+00  0.000000D+00  0.000000D+00  0.000000D+00  0.000000D+00
     12   0.000000D+00  0.000000D+00  0.000000D+00  0.000000D+00  0.000000D+00
     13   0.000000D+00  0.000000D+00  0.000000D+00  0.000000D+00  0.000000D+00
     14   0.000000D+00  0.000000D+00  0.000000D+00  0.000000D+00  0.000000D+00
     15   0.395149D+00  0.000000D+00  0.000000D+00  0.000000D+00  0.000000D+00
     16   0.000000D+00  0.407435D+00  0.000000D+00  0.000000D+00  0.000000D+00
     17   0.000000D+00  0.000000D+00  0.407435D+00  0.000000D+00  0.000000D+00
     18   0.000000D+00  0.000000D+00  0.000000D+00  0.407435D+00  0.000000D+00
     19   0.906656D-03  0.000000D+00  0.000000D+00 -0.220516D-02  0.418778D-01
     20   0.714025D-01  0.000000D+00  0.000000D+00 -0.930313D-01  0.303025D+00
     21   0.000000D+00  0.293384D-01  0.000000D+00  0.000000D+00  0.000000D+00
     22   0.000000D+00  0.000000D+00  0.293384D-01  0.000000D+00  0.000000D+00
     23   0.112505D+00  0.000000D+00  0.000000D+00 -0.135103D+00  0.221770D+00
                11            12            13            14            15 
      1   0.000000D+00  0.000000D+00  0.000000D+00  0.000000D+00 -0.412730D-03
      2   0.000000D+00  0.000000D+00  0.000000D+00  0.000000D+00  0.136941D-01
      3   0.000000D+00  0.000000D+00  0.000000D+00  0.000000D+00  0.000000D+00
      4   0.000000D+00  0.000000D+00  0.000000D+00  0.000000D+00  0.000000D+00
      5   0.000000D+00  0.000000D+00  0.000000D+00  0.000000D+00  0.000000D+00
      6   0.000000D+00  0.000000D+00  0.000000D+00  0.000000D+00  0.395149D+00
      7   0.000000D+00  0.000000D+00  0.000000D+00  0.000000D+00  0.000000D+00
      8   0.000000D+00  0.000000D+00  0.000000D+00  0.000000D+00  0.000000D+00
      9   0.000000D+00  0.000000D+00  0.000000D+00  0.000000D+00  0.000000D+00
     10   0.000000D+00  0.000000D+00  0.000000D+00  0.000000D+00  0.000000D+00
     11   0.100000D+01  0.000000D+00  0.000000D+00  0.000000D+00  0.000000D+00
     12   0.000000D+00  0.100000D+01  0.000000D+00  0.000000D+00  0.000000D+00
     13   0.000000D+00  0.000000D+00  0.100000D+01  0.000000D+00  0.000000D+00
     14   0.000000D+00  0.000000D+00  0.000000D+00  0.100000D+01  0.000000D+00
     15   0.000000D+00  0.000000D+00  0.000000D+00  0.000000D+00  0.100000D+01
     16   0.000000D+00  0.000000D+00  0.000000D+00  0.000000D+00  0.000000D+00
     17   0.000000D+00  0.000000D+00  0.000000D+00  0.000000D+00  0.000000D+00
     18   0.000000D+00  0.000000D+00  0.000000D+00  0.000000D+00  0.000000D+00
     19   0.000000D+00  0.000000D+00  0.000000D+00  0.000000D+00  0.338665D-01
     20   0.000000D+00  0.000000D+00  0.000000D+00  0.000000D+00  0.309668D+00
     21  -0.184043D+00  0.000000D+00  0.000000D+00  0.000000D+00  0.000000D+00
     22   0.000000D+00 -0.184043D+00  0.000000D+00  0.000000D+00  0.000000D+00
     23   0.000000D+00  0.000000D+00  0.000000D+00  0.000000D+00  0.171207D+00
                16            17            18            19            20 
      1   0.000000D+00  0.000000D+00  0.000000D+00  0.000000D+00  0.857608D-03
      2   0.000000D+00  0.000000D+00  0.000000D+00  0.000000D+00  0.641312D-02
      3   0.250808D-01  0.000000D+00  0.000000D+00  0.000000D+00  0.000000D+00
      4   0.000000D+00  0.250808D-01  0.000000D+00  0.000000D+00  0.000000D+00
      5   0.000000D+00  0.000000D+00  0.250808D-01  0.000000D+00 -0.382664D-02
      6   0.000000D+00  0.000000D+00  0.000000D+00  0.906656D-03  0.714025D-01
      7   0.407435D+00  0.000000D+00  0.000000D+00  0.000000D+00  0.000000D+00
      8   0.000000D+00  0.407435D+00  0.000000D+00  0.000000D+00  0.000000D+00
      9   0.000000D+00  0.000000D+00  0.407435D+00 -0.220516D-02 -0.930313D-01
     10   0.000000D+00  0.000000D+00  0.000000D+00  0.418778D-01  0.303025D+00
     11   0.000000D+00  0.000000D+00  0.000000D+00  0.000000D+00  0.000000D+00
     12   0.000000D+00  0.000000D+00  0.000000D+00  0.000000D+00  0.000000D+00
     13   0.000000D+00  0.000000D+00  0.000000D+00  0.000000D+00  0.000000D+00
     14   0.000000D+00  0.000000D+00  0.000000D+00  0.000000D+00  0.000000D+00
     15   0.000000D+00  0.000000D+00  0.000000D+00  0.338665D-01  0.309668D+00
     16   0.100000D+01  0.000000D+00  0.000000D+00  0.000000D+00  0.000000D+00
     17   0.000000D+00  0.100000D+01  0.000000D+00  0.000000D+00  0.000000D+00
     18   0.000000D+00  0.000000D+00  0.100000D+01 -0.584188D-01 -0.461437D+00
     19   0.000000D+00  0.000000D+00 -0.584188D-01  0.100000D+01  0.236704D+00
     20   0.000000D+00  0.000000D+00 -0.461437D+00  0.236704D+00  0.100000D+01
     21   0.158735D+00  0.000000D+00  0.000000D+00  0.000000D+00  0.000000D+00
     22   0.000000D+00  0.158735D+00  0.000000D+00  0.000000D+00  0.000000D+00
     23   0.000000D+00  0.000000D+00 -0.226128D+00  0.000000D+00  0.000000D+00
                21            22            23 
      1   0.000000D+00  0.000000D+00  0.183477D-02
      2   0.000000D+00  0.000000D+00  0.131015D-01
      3   0.112220D-02  0.000000D+00  0.000000D+00
      4   0.000000D+00  0.112220D-02  0.000000D+00
      5   0.000000D+00  0.000000D+00 -0.683691D-02
      6   0.000000D+00  0.000000D+00  0.112505D+00
      7   0.293384D-01  0.000000D+00  0.000000D+00
      8   0.000000D+00  0.293384D-01  0.000000D+00
      9   0.000000D+00  0.000000D+00 -0.135103D+00
     10   0.000000D+00  0.000000D+00  0.221770D+00
     11  -0.184043D+00  0.000000D+00  0.000000D+00
     12   0.000000D+00 -0.184043D+00  0.000000D+00
     13   0.000000D+00  0.000000D+00  0.000000D+00
     14   0.000000D+00  0.000000D+00  0.000000D+00
     15   0.000000D+00  0.000000D+00  0.171207D+00
     16   0.158735D+00  0.000000D+00  0.000000D+00
     17   0.000000D+00  0.158735D+00  0.000000D+00
     18   0.000000D+00  0.000000D+00 -0.226128D+00
     19   0.000000D+00  0.000000D+00  0.000000D+00
     20   0.000000D+00  0.000000D+00  0.000000D+00
     21   0.100000D+01  0.000000D+00  0.000000D+00
     22   0.000000D+00  0.100000D+01  0.000000D+00
     23   0.000000D+00  0.000000D+00  0.100000D+01
 Entering OneElI...
 Overlap between basis sets.
 Requested accuracy = 0.1000D-12
 PrsmSu:  NPrtUS=   1 ThrOK=F IAlg=1
 PRISM was handed  8586709069 working-precision words and   703 shell-pairs
 IPart=  0 NShTot=         703 NBatch=          82 AvBLen=         8.6
 CnvPC2: ToCart=F DoDens=F IPureD=0 IPureF=0.
 Transformed matrix in CnvPC2: 
                 1             2             3             4             5 
      1   0.999758D+00  0.383883D+00  0.000000D+00  0.000000D+00  0.000000D+00
      2   0.271108D+00  0.991006D+00  0.000000D+00  0.000000D+00  0.000000D+00
      3   0.000000D+00  0.000000D+00  0.998810D+00  0.000000D+00  0.000000D+00
      4   0.000000D+00  0.000000D+00  0.000000D+00  0.998810D+00  0.000000D+00
      5   0.000000D+00  0.000000D+00  0.000000D+00  0.000000D+00  0.998810D+00
      6   0.832611D-02  0.296541D+00  0.000000D+00  0.000000D+00  0.000000D+00
      7   0.000000D+00  0.000000D+00  0.299493D+00  0.000000D+00  0.000000D+00
      8   0.000000D+00  0.000000D+00  0.000000D+00  0.299493D+00  0.000000D+00
      9   0.000000D+00  0.000000D+00  0.000000D+00  0.000000D+00  0.299493D+00
     10   0.000000D+00  0.000000D+00  0.000000D+00  0.000000D+00  0.000000D+00
     11   0.000000D+00  0.000000D+00  0.000000D+00  0.000000D+00  0.000000D+00
     12   0.000000D+00  0.000000D+00  0.000000D+00  0.000000D+00  0.000000D+00
     13   0.000000D+00  0.000000D+00  0.000000D+00  0.000000D+00  0.000000D+00
     14   0.000000D+00  0.000000D+00  0.000000D+00  0.000000D+00  0.000000D+00
     15   0.000000D+00  0.000000D+00  0.000000D+00  0.000000D+00  0.000000D+00
     16   0.000000D+00  0.000000D+00  0.000000D+00  0.000000D+00  0.000000D+00
     17   0.000000D+00  0.000000D+00  0.000000D+00  0.000000D+00  0.000000D+00
     18   0.000000D+00  0.000000D+00  0.000000D+00  0.000000D+00  0.000000D+00
     19   0.000000D+00  0.000000D+00  0.000000D+00  0.000000D+00  0.000000D+00
     20   0.000000D+00  0.000000D+00  0.000000D+00  0.000000D+00  0.000000D+00
     21   0.000000D+00  0.000000D+00  0.000000D+00  0.000000D+00  0.000000D+00
     22   0.000000D+00  0.000000D+00  0.000000D+00  0.000000D+00  0.000000D+00
     23   0.000000D+00  0.000000D+00  0.000000D+00  0.000000D+00  0.000000D+00
     24   0.000000D+00  0.000000D+00  0.000000D+00  0.000000D+00  0.000000D+00
     25  -0.186227D-03  0.218999D-02  0.000000D+00  0.000000D+00  0.000000D+00
     26   0.788010D-02  0.525191D-01  0.000000D+00  0.000000D+00  0.000000D+00
     27   0.378210D-02  0.253212D-01  0.000000D+00  0.000000D+00  0.000000D+00
     28   0.000000D+00  0.000000D+00 -0.777551D-01  0.000000D+00  0.000000D+00
     29   0.000000D+00  0.000000D+00  0.000000D+00 -0.777551D-01  0.000000D+00
     30   0.000000D+00  0.000000D+00  0.000000D+00  0.000000D+00 -0.777551D-01
     31   0.000000D+00  0.000000D+00  0.106471D-01  0.000000D+00  0.000000D+00
     32   0.000000D+00  0.000000D+00  0.000000D+00  0.106471D-01  0.000000D+00
     33   0.000000D+00  0.000000D+00  0.000000D+00  0.000000D+00  0.106471D-01
     34   0.000000D+00  0.000000D+00  0.214041D-02  0.000000D+00  0.000000D+00
     35   0.000000D+00  0.000000D+00  0.000000D+00  0.214041D-02  0.000000D+00
     36   0.000000D+00  0.000000D+00  0.000000D+00  0.000000D+00  0.214041D-02
     37   0.260505D+00  0.935915D+00  0.000000D+00  0.000000D+00  0.000000D+00
     38   0.165713D+00  0.767013D+00  0.000000D+00  0.000000D+00  0.000000D+00
     39   0.103407D+00  0.562987D+00  0.000000D+00  0.000000D+00  0.000000D+00
     40   0.638550D-01  0.382555D+00  0.000000D+00  0.000000D+00  0.000000D+00
     41   0.392124D-01  0.247787D+00  0.000000D+00  0.000000D+00  0.000000D+00
     42   0.240095D-01  0.156142D+00  0.000000D+00  0.000000D+00  0.000000D+00
     43   0.000000D+00  0.000000D+00  0.410438D+00  0.000000D+00  0.000000D+00
     44   0.000000D+00  0.000000D+00  0.000000D+00  0.410438D+00  0.000000D+00
     45   0.000000D+00  0.000000D+00  0.000000D+00  0.000000D+00  0.410438D+00
     46   0.000000D+00  0.000000D+00  0.255871D+00  0.000000D+00  0.000000D+00
     47   0.000000D+00  0.000000D+00  0.000000D+00  0.255871D+00  0.000000D+00
     48   0.000000D+00  0.000000D+00  0.000000D+00  0.000000D+00  0.255871D+00
     49   0.000000D+00  0.000000D+00  0.149112D+00  0.000000D+00  0.000000D+00
     50   0.000000D+00  0.000000D+00  0.000000D+00  0.149112D+00  0.000000D+00
     51   0.000000D+00  0.000000D+00  0.000000D+00  0.000000D+00  0.149112D+00
     52   0.000000D+00  0.000000D+00  0.829389D-01  0.000000D+00  0.000000D+00
     53   0.000000D+00  0.000000D+00  0.000000D+00  0.829389D-01  0.000000D+00
     54   0.000000D+00  0.000000D+00  0.000000D+00  0.000000D+00  0.829389D-01
     55   0.000000D+00  0.000000D+00  0.447537D-01  0.000000D+00  0.000000D+00
     56   0.000000D+00  0.000000D+00  0.000000D+00  0.447537D-01  0.000000D+00
     57   0.000000D+00  0.000000D+00  0.000000D+00  0.000000D+00  0.447537D-01
     58   0.000000D+00  0.000000D+00  0.236951D-01  0.000000D+00  0.000000D+00
     59   0.000000D+00  0.000000D+00  0.000000D+00  0.236951D-01  0.000000D+00
     60   0.000000D+00  0.000000D+00  0.000000D+00  0.000000D+00  0.236951D-01
     61   0.000000D+00  0.000000D+00  0.000000D+00  0.000000D+00  0.000000D+00
     62   0.000000D+00  0.000000D+00  0.000000D+00  0.000000D+00  0.000000D+00
     63   0.000000D+00  0.000000D+00  0.000000D+00  0.000000D+00  0.000000D+00
     64   0.000000D+00  0.000000D+00  0.000000D+00  0.000000D+00  0.000000D+00
     65   0.000000D+00  0.000000D+00  0.000000D+00  0.000000D+00  0.000000D+00
     66   0.000000D+00  0.000000D+00  0.000000D+00  0.000000D+00  0.000000D+00
     67   0.000000D+00  0.000000D+00  0.000000D+00  0.000000D+00  0.000000D+00
     68   0.000000D+00  0.000000D+00  0.000000D+00  0.000000D+00  0.000000D+00
     69   0.000000D+00  0.000000D+00  0.000000D+00  0.000000D+00  0.000000D+00
     70   0.000000D+00  0.000000D+00  0.000000D+00  0.000000D+00  0.000000D+00
     71   0.000000D+00  0.000000D+00  0.000000D+00  0.000000D+00  0.000000D+00
     72   0.000000D+00  0.000000D+00  0.000000D+00  0.000000D+00  0.000000D+00
     73   0.000000D+00  0.000000D+00  0.000000D+00  0.000000D+00  0.000000D+00
     74   0.000000D+00  0.000000D+00  0.000000D+00  0.000000D+00  0.000000D+00
     75   0.000000D+00  0.000000D+00  0.000000D+00  0.000000D+00  0.000000D+00
     76   0.000000D+00  0.000000D+00  0.000000D+00  0.000000D+00  0.000000D+00
     77   0.000000D+00  0.000000D+00  0.000000D+00  0.000000D+00  0.000000D+00
     78   0.000000D+00  0.000000D+00  0.000000D+00  0.000000D+00  0.000000D+00
     79   0.000000D+00  0.000000D+00  0.000000D+00  0.000000D+00  0.000000D+00
     80   0.000000D+00  0.000000D+00  0.000000D+00  0.000000D+00  0.000000D+00
     81   0.000000D+00  0.000000D+00  0.000000D+00  0.000000D+00  0.000000D+00
     82   0.000000D+00  0.000000D+00  0.000000D+00  0.000000D+00  0.000000D+00
     83   0.000000D+00  0.000000D+00  0.000000D+00  0.000000D+00  0.000000D+00
     84   0.000000D+00  0.000000D+00  0.000000D+00  0.000000D+00  0.000000D+00
     85   0.000000D+00  0.000000D+00  0.000000D+00  0.000000D+00  0.000000D+00
     86   0.000000D+00  0.000000D+00  0.000000D+00  0.000000D+00  0.000000D+00
     87   0.000000D+00  0.000000D+00  0.000000D+00  0.000000D+00  0.000000D+00
     88   0.000000D+00  0.000000D+00  0.000000D+00  0.000000D+00  0.000000D+00
     89   0.000000D+00  0.000000D+00  0.000000D+00  0.000000D+00  0.000000D+00
     90   0.000000D+00  0.000000D+00  0.000000D+00  0.000000D+00  0.000000D+00
     91   0.000000D+00  0.000000D+00  0.000000D+00  0.000000D+00  0.000000D+00
     92   0.000000D+00  0.000000D+00  0.000000D+00  0.000000D+00  0.000000D+00
     93   0.000000D+00  0.000000D+00  0.000000D+00  0.000000D+00  0.000000D+00
     94   0.000000D+00  0.000000D+00  0.000000D+00  0.000000D+00  0.000000D+00
     95   0.000000D+00  0.000000D+00  0.000000D+00  0.000000D+00  0.000000D+00
     96   0.000000D+00  0.000000D+00  0.000000D+00  0.000000D+00  0.000000D+00
     97   0.000000D+00  0.000000D+00  0.000000D+00  0.000000D+00  0.000000D+00
     98   0.000000D+00  0.000000D+00  0.000000D+00  0.000000D+00  0.000000D+00
     99   0.000000D+00  0.000000D+00  0.000000D+00  0.000000D+00  0.000000D+00
    100   0.000000D+00  0.000000D+00  0.000000D+00  0.000000D+00  0.000000D+00
    101   0.000000D+00  0.000000D+00  0.000000D+00  0.000000D+00  0.000000D+00
    102   0.000000D+00  0.000000D+00  0.000000D+00  0.000000D+00  0.000000D+00
    103   0.000000D+00  0.000000D+00  0.000000D+00  0.000000D+00  0.000000D+00
    104   0.000000D+00  0.000000D+00  0.000000D+00  0.000000D+00  0.000000D+00
    105   0.000000D+00  0.000000D+00  0.000000D+00  0.000000D+00  0.000000D+00
    106   0.000000D+00  0.000000D+00  0.000000D+00  0.000000D+00  0.000000D+00
    107   0.000000D+00  0.000000D+00  0.000000D+00  0.000000D+00  0.000000D+00
    108   0.000000D+00  0.000000D+00  0.000000D+00  0.000000D+00  0.000000D+00
    109   0.000000D+00  0.000000D+00  0.000000D+00  0.000000D+00  0.000000D+00
    110   0.000000D+00  0.000000D+00  0.000000D+00  0.000000D+00  0.000000D+00
    111   0.000000D+00  0.000000D+00  0.000000D+00  0.000000D+00  0.000000D+00
    112   0.000000D+00  0.000000D+00  0.000000D+00  0.000000D+00  0.000000D+00
    113   0.000000D+00  0.000000D+00  0.000000D+00  0.000000D+00  0.000000D+00
    114   0.000000D+00  0.000000D+00  0.000000D+00  0.000000D+00  0.000000D+00
    115   0.000000D+00  0.000000D+00  0.000000D+00  0.000000D+00  0.000000D+00
    116   0.000000D+00  0.000000D+00  0.000000D+00  0.000000D+00  0.000000D+00
    117   0.000000D+00  0.000000D+00  0.000000D+00  0.000000D+00  0.000000D+00
    118   0.000000D+00  0.000000D+00  0.000000D+00  0.000000D+00  0.000000D+00
    119   0.000000D+00  0.000000D+00  0.000000D+00  0.000000D+00  0.000000D+00
    120   0.000000D+00  0.000000D+00  0.000000D+00  0.000000D+00  0.000000D+00
    121   0.000000D+00  0.000000D+00  0.000000D+00  0.000000D+00  0.000000D+00
    122   0.000000D+00  0.000000D+00  0.000000D+00  0.000000D+00  0.000000D+00
    123   0.000000D+00  0.000000D+00  0.000000D+00  0.000000D+00  0.000000D+00
    124   0.000000D+00  0.000000D+00  0.000000D+00  0.000000D+00  0.000000D+00
    125   0.000000D+00  0.000000D+00  0.000000D+00  0.000000D+00  0.000000D+00
    126   0.000000D+00  0.000000D+00  0.000000D+00  0.000000D+00  0.000000D+00
    127   0.000000D+00  0.000000D+00  0.000000D+00  0.000000D+00  0.000000D+00
    128   0.000000D+00  0.000000D+00  0.000000D+00  0.000000D+00  0.000000D+00
    129   0.000000D+00  0.000000D+00  0.000000D+00  0.000000D+00  0.000000D+00
    130   0.000000D+00  0.000000D+00  0.000000D+00  0.000000D+00  0.000000D+00
    131   0.000000D+00  0.000000D+00  0.000000D+00  0.000000D+00  0.000000D+00
    132   0.000000D+00  0.000000D+00  0.000000D+00  0.000000D+00  0.000000D+00
    133   0.000000D+00  0.000000D+00  0.000000D+00  0.000000D+00  0.000000D+00
    134   0.000000D+00  0.000000D+00  0.000000D+00  0.000000D+00  0.000000D+00
    135   0.000000D+00  0.000000D+00  0.000000D+00  0.000000D+00  0.000000D+00
    136   0.000000D+00  0.000000D+00  0.000000D+00  0.000000D+00  0.000000D+00
    137   0.000000D+00  0.000000D+00  0.000000D+00  0.000000D+00  0.000000D+00
    138   0.000000D+00  0.000000D+00  0.000000D+00  0.000000D+00  0.000000D+00
    139   0.000000D+00  0.000000D+00  0.000000D+00  0.000000D+00  0.000000D+00
    140   0.000000D+00  0.000000D+00  0.000000D+00  0.000000D+00  0.000000D+00
    141   0.000000D+00  0.000000D+00  0.000000D+00  0.000000D+00  0.000000D+00
    142   0.000000D+00  0.000000D+00  0.000000D+00  0.000000D+00  0.000000D+00
    143   0.000000D+00  0.000000D+00  0.000000D+00  0.000000D+00  0.000000D+00
    144   0.000000D+00  0.000000D+00  0.000000D+00  0.000000D+00  0.000000D+00
    145   0.000000D+00  0.000000D+00  0.000000D+00  0.000000D+00  0.000000D+00
    146   0.000000D+00  0.000000D+00  0.000000D+00  0.000000D+00  0.000000D+00
    147   0.000000D+00  0.000000D+00  0.000000D+00  0.000000D+00  0.000000D+00
    148   0.000000D+00  0.000000D+00  0.000000D+00  0.000000D+00  0.000000D+00
    149   0.000000D+00  0.000000D+00  0.000000D+00  0.000000D+00  0.000000D+00
    150   0.000000D+00  0.000000D+00  0.000000D+00  0.000000D+00  0.000000D+00
    151   0.000000D+00  0.000000D+00  0.000000D+00  0.000000D+00  0.000000D+00
    152   0.000000D+00  0.000000D+00  0.000000D+00  0.000000D+00  0.000000D+00
    153   0.000000D+00  0.000000D+00  0.000000D+00  0.000000D+00  0.000000D+00
    154   0.000000D+00  0.000000D+00  0.000000D+00  0.000000D+00  0.000000D+00
    155   0.000000D+00  0.000000D+00  0.000000D+00  0.000000D+00  0.000000D+00
    156   0.000000D+00  0.000000D+00  0.000000D+00  0.000000D+00  0.000000D+00
    157   0.000000D+00  0.000000D+00  0.000000D+00  0.000000D+00  0.000000D+00
    158   0.000000D+00  0.000000D+00  0.000000D+00  0.000000D+00  0.000000D+00
    159   0.000000D+00  0.000000D+00  0.000000D+00  0.000000D+00  0.000000D+00
    160   0.000000D+00  0.000000D+00  0.000000D+00  0.000000D+00  0.000000D+00
    161   0.000000D+00  0.000000D+00  0.000000D+00  0.000000D+00  0.000000D+00
    162   0.000000D+00  0.000000D+00  0.000000D+00  0.000000D+00  0.000000D+00
    163   0.000000D+00  0.000000D+00  0.000000D+00  0.000000D+00  0.000000D+00
    164   0.000000D+00  0.000000D+00  0.000000D+00  0.000000D+00  0.000000D+00
    165   0.000000D+00  0.000000D+00  0.000000D+00  0.000000D+00  0.000000D+00
    166   0.000000D+00  0.000000D+00  0.000000D+00  0.000000D+00  0.000000D+00
    167   0.000000D+00  0.000000D+00  0.000000D+00  0.000000D+00  0.000000D+00
    168   0.000000D+00  0.000000D+00  0.000000D+00  0.000000D+00  0.000000D+00
    169   0.000000D+00  0.000000D+00  0.000000D+00  0.000000D+00  0.000000D+00
    170   0.000000D+00  0.000000D+00  0.000000D+00  0.000000D+00  0.000000D+00
    171   0.000000D+00  0.000000D+00  0.000000D+00  0.000000D+00  0.000000D+00
    172   0.000000D+00  0.000000D+00  0.000000D+00  0.000000D+00  0.000000D+00
    173   0.000000D+00  0.000000D+00  0.000000D+00  0.000000D+00  0.000000D+00
    174   0.000000D+00  0.000000D+00  0.000000D+00  0.000000D+00  0.000000D+00
    175   0.000000D+00  0.000000D+00  0.000000D+00  0.000000D+00  0.000000D+00
    176   0.000000D+00  0.000000D+00  0.000000D+00  0.000000D+00  0.000000D+00
    177   0.000000D+00  0.000000D+00  0.000000D+00  0.000000D+00  0.000000D+00
    178   0.000000D+00  0.000000D+00  0.000000D+00  0.000000D+00  0.000000D+00
    179   0.000000D+00  0.000000D+00  0.000000D+00  0.000000D+00  0.000000D+00
    180   0.000000D+00  0.000000D+00  0.000000D+00  0.000000D+00  0.000000D+00
    181   0.000000D+00  0.000000D+00  0.000000D+00  0.000000D+00  0.000000D+00
    182   0.000000D+00  0.000000D+00  0.000000D+00  0.000000D+00  0.000000D+00
    183   0.000000D+00  0.000000D+00  0.000000D+00  0.000000D+00  0.000000D+00
    184   0.000000D+00  0.000000D+00  0.000000D+00  0.000000D+00  0.000000D+00
    185   0.000000D+00  0.000000D+00  0.000000D+00  0.000000D+00  0.000000D+00
    186   0.000000D+00  0.000000D+00  0.000000D+00  0.000000D+00  0.000000D+00
    187   0.000000D+00  0.000000D+00  0.000000D+00  0.000000D+00  0.000000D+00
    188   0.000000D+00  0.000000D+00  0.000000D+00  0.000000D+00  0.000000D+00
    189   0.000000D+00  0.000000D+00  0.000000D+00  0.000000D+00  0.000000D+00
    190   0.000000D+00  0.000000D+00  0.000000D+00  0.000000D+00  0.000000D+00
    191   0.000000D+00  0.000000D+00  0.000000D+00  0.000000D+00  0.000000D+00
    192   0.000000D+00  0.000000D+00  0.000000D+00  0.000000D+00  0.000000D+00
    193   0.000000D+00  0.000000D+00  0.000000D+00  0.000000D+00  0.000000D+00
    194   0.000000D+00  0.000000D+00  0.000000D+00  0.000000D+00  0.000000D+00
    195   0.000000D+00  0.000000D+00  0.000000D+00  0.000000D+00  0.000000D+00
    196   0.000000D+00  0.000000D+00  0.000000D+00  0.000000D+00  0.000000D+00
    197   0.000000D+00  0.000000D+00  0.000000D+00  0.000000D+00  0.000000D+00
    198   0.000000D+00  0.000000D+00  0.000000D+00  0.000000D+00  0.000000D+00
    199   0.000000D+00  0.000000D+00  0.000000D+00  0.000000D+00  0.000000D+00
    200   0.000000D+00  0.000000D+00  0.000000D+00  0.000000D+00  0.000000D+00
    201   0.000000D+00  0.000000D+00  0.000000D+00  0.000000D+00  0.000000D+00
    202   0.000000D+00  0.000000D+00  0.000000D+00  0.000000D+00  0.000000D+00
    203   0.000000D+00  0.000000D+00  0.000000D+00  0.000000D+00  0.000000D+00
    204   0.000000D+00  0.000000D+00  0.000000D+00  0.000000D+00  0.000000D+00
    205   0.000000D+00  0.000000D+00  0.000000D+00  0.000000D+00  0.000000D+00
    206   0.000000D+00  0.000000D+00  0.000000D+00  0.000000D+00  0.000000D+00
    207   0.000000D+00  0.000000D+00  0.000000D+00  0.000000D+00  0.000000D+00
    208   0.000000D+00  0.000000D+00  0.000000D+00  0.000000D+00  0.000000D+00
    209   0.000000D+00  0.000000D+00  0.000000D+00  0.000000D+00  0.000000D+00
    210   0.000000D+00  0.000000D+00  0.000000D+00  0.000000D+00  0.000000D+00
    211   0.000000D+00  0.000000D+00  0.000000D+00  0.000000D+00  0.000000D+00
    212   0.000000D+00  0.000000D+00  0.000000D+00  0.000000D+00  0.000000D+00
    213   0.000000D+00  0.000000D+00  0.000000D+00  0.000000D+00  0.000000D+00
    214   0.000000D+00  0.000000D+00  0.000000D+00  0.000000D+00  0.000000D+00
    215   0.000000D+00  0.000000D+00  0.000000D+00  0.000000D+00  0.000000D+00
    216   0.000000D+00  0.000000D+00  0.000000D+00  0.000000D+00  0.000000D+00
    217   0.000000D+00  0.000000D+00  0.000000D+00  0.000000D+00  0.000000D+00
    218   0.000000D+00  0.000000D+00  0.000000D+00  0.000000D+00  0.000000D+00
    219   0.000000D+00  0.000000D+00  0.000000D+00  0.000000D+00  0.000000D+00
    220   0.000000D+00  0.000000D+00  0.000000D+00  0.000000D+00  0.000000D+00
    221   0.000000D+00  0.000000D+00  0.000000D+00  0.000000D+00  0.000000D+00
    222   0.000000D+00  0.000000D+00  0.000000D+00  0.000000D+00  0.000000D+00
    223   0.000000D+00  0.000000D+00  0.000000D+00  0.000000D+00  0.000000D+00
    224   0.000000D+00  0.000000D+00  0.000000D+00  0.000000D+00  0.000000D+00
    225   0.000000D+00  0.000000D+00  0.000000D+00  0.000000D+00  0.000000D+00
    226   0.000000D+00  0.000000D+00  0.000000D+00  0.000000D+00  0.000000D+00
    227   0.000000D+00  0.000000D+00  0.000000D+00  0.000000D+00  0.000000D+00
    228   0.000000D+00  0.000000D+00  0.000000D+00  0.000000D+00  0.000000D+00
    229   0.000000D+00  0.000000D+00  0.000000D+00  0.000000D+00  0.000000D+00
    230   0.000000D+00  0.000000D+00  0.000000D+00  0.000000D+00  0.000000D+00
    231   0.000000D+00  0.000000D+00  0.000000D+00  0.000000D+00  0.000000D+00
    232   0.000000D+00  0.000000D+00  0.000000D+00  0.000000D+00  0.000000D+00
    233   0.000000D+00  0.000000D+00  0.000000D+00  0.000000D+00  0.000000D+00
    234   0.000000D+00  0.000000D+00  0.000000D+00  0.000000D+00  0.000000D+00
    235   0.000000D+00  0.000000D+00  0.000000D+00  0.000000D+00  0.000000D+00
    236   0.000000D+00  0.000000D+00  0.000000D+00  0.000000D+00  0.000000D+00
    237   0.000000D+00  0.000000D+00  0.000000D+00  0.000000D+00  0.000000D+00
    238   0.000000D+00  0.000000D+00  0.000000D+00  0.000000D+00  0.000000D+00
    239   0.000000D+00  0.000000D+00  0.000000D+00  0.000000D+00  0.000000D+00
    240   0.000000D+00  0.000000D+00  0.000000D+00  0.000000D+00  0.000000D+00
    241   0.000000D+00  0.000000D+00  0.000000D+00  0.000000D+00  0.000000D+00
    242   0.000000D+00  0.000000D+00  0.000000D+00  0.000000D+00  0.000000D+00
    243   0.000000D+00  0.000000D+00  0.000000D+00  0.000000D+00  0.000000D+00
    244   0.000000D+00  0.000000D+00  0.000000D+00  0.000000D+00  0.000000D+00
    245   0.000000D+00  0.000000D+00  0.000000D+00  0.000000D+00  0.000000D+00
    246   0.000000D+00  0.000000D+00  0.000000D+00  0.000000D+00  0.000000D+00
    247   0.000000D+00  0.000000D+00  0.000000D+00  0.000000D+00  0.000000D+00
    248   0.000000D+00  0.000000D+00  0.000000D+00  0.000000D+00  0.000000D+00
    249   0.000000D+00  0.000000D+00  0.000000D+00  0.000000D+00  0.000000D+00
    250   0.000000D+00  0.000000D+00  0.000000D+00  0.000000D+00  0.000000D+00
    251   0.000000D+00  0.000000D+00  0.000000D+00  0.000000D+00  0.000000D+00
    252   0.000000D+00  0.000000D+00  0.000000D+00  0.000000D+00  0.000000D+00
    253   0.000000D+00  0.000000D+00  0.000000D+00  0.000000D+00  0.000000D+00
    254   0.000000D+00  0.000000D+00  0.000000D+00  0.000000D+00  0.000000D+00
    255   0.000000D+00  0.000000D+00  0.000000D+00  0.000000D+00  0.000000D+00
    256   0.000000D+00  0.000000D+00  0.000000D+00  0.000000D+00  0.000000D+00
    257   0.000000D+00  0.000000D+00  0.000000D+00  0.000000D+00  0.000000D+00
    258   0.000000D+00  0.000000D+00  0.000000D+00  0.000000D+00  0.000000D+00
    259   0.000000D+00  0.000000D+00  0.000000D+00  0.000000D+00  0.000000D+00
    260   0.000000D+00  0.000000D+00  0.000000D+00  0.000000D+00  0.000000D+00
    261   0.000000D+00  0.000000D+00  0.000000D+00  0.000000D+00  0.000000D+00
    262   0.000000D+00  0.000000D+00  0.000000D+00  0.000000D+00  0.000000D+00
    263   0.000000D+00  0.000000D+00  0.000000D+00  0.000000D+00  0.000000D+00
    264   0.000000D+00  0.000000D+00  0.000000D+00  0.000000D+00  0.000000D+00
    265   0.000000D+00  0.000000D+00  0.000000D+00  0.000000D+00  0.000000D+00
    266   0.000000D+00  0.000000D+00  0.000000D+00  0.000000D+00  0.000000D+00
    267   0.000000D+00  0.000000D+00  0.000000D+00  0.000000D+00  0.000000D+00
    268   0.000000D+00  0.000000D+00  0.000000D+00  0.000000D+00  0.000000D+00
    269   0.000000D+00  0.000000D+00  0.000000D+00  0.000000D+00  0.000000D+00
    270   0.000000D+00  0.000000D+00  0.000000D+00  0.000000D+00  0.000000D+00
    271   0.000000D+00  0.000000D+00  0.000000D+00  0.000000D+00  0.000000D+00
    272   0.000000D+00  0.000000D+00  0.000000D+00  0.000000D+00  0.000000D+00
    273   0.000000D+00  0.000000D+00  0.000000D+00  0.000000D+00  0.000000D+00
    274   0.000000D+00  0.000000D+00  0.000000D+00  0.000000D+00  0.000000D+00
    275   0.000000D+00  0.000000D+00  0.000000D+00  0.000000D+00  0.000000D+00
    276   0.000000D+00  0.000000D+00  0.000000D+00  0.000000D+00  0.000000D+00
    277   0.000000D+00  0.000000D+00  0.000000D+00  0.000000D+00  0.000000D+00
    278   0.000000D+00  0.000000D+00  0.000000D+00  0.000000D+00  0.000000D+00
    279   0.000000D+00  0.000000D+00  0.000000D+00  0.000000D+00  0.000000D+00
    280   0.000000D+00  0.000000D+00  0.000000D+00  0.000000D+00  0.000000D+00
    281   0.000000D+00  0.000000D+00  0.000000D+00  0.000000D+00  0.000000D+00
    282   0.000000D+00  0.000000D+00  0.000000D+00  0.000000D+00  0.000000D+00
    283   0.000000D+00  0.000000D+00  0.000000D+00  0.000000D+00  0.000000D+00
    284   0.000000D+00  0.000000D+00  0.000000D+00  0.000000D+00  0.000000D+00
    285   0.000000D+00  0.000000D+00  0.000000D+00  0.000000D+00  0.000000D+00
    286   0.000000D+00  0.000000D+00  0.000000D+00  0.000000D+00  0.000000D+00
    287   0.000000D+00  0.000000D+00  0.000000D+00  0.000000D+00  0.000000D+00
    288   0.000000D+00  0.000000D+00  0.000000D+00  0.000000D+00  0.000000D+00
    289   0.000000D+00  0.000000D+00  0.000000D+00  0.000000D+00  0.000000D+00
    290   0.000000D+00  0.000000D+00  0.000000D+00  0.000000D+00  0.000000D+00
    291   0.000000D+00  0.000000D+00  0.000000D+00  0.000000D+00  0.000000D+00
    292   0.000000D+00  0.000000D+00  0.000000D+00  0.000000D+00  0.000000D+00
    293   0.000000D+00  0.000000D+00  0.000000D+00  0.000000D+00  0.000000D+00
    294   0.000000D+00  0.000000D+00  0.000000D+00  0.000000D+00  0.000000D+00
    295   0.000000D+00  0.000000D+00  0.000000D+00  0.000000D+00  0.000000D+00
    296   0.000000D+00  0.000000D+00  0.000000D+00  0.000000D+00  0.000000D+00
    297   0.000000D+00  0.000000D+00  0.000000D+00  0.000000D+00  0.000000D+00
    298   0.000000D+00  0.000000D+00  0.000000D+00  0.000000D+00  0.000000D+00
    299   0.000000D+00  0.000000D+00  0.000000D+00  0.000000D+00  0.000000D+00
    300   0.000000D+00  0.000000D+00  0.000000D+00  0.000000D+00  0.000000D+00
    301   0.000000D+00  0.000000D+00  0.000000D+00  0.000000D+00  0.000000D+00
    302   0.000000D+00  0.000000D+00  0.000000D+00  0.000000D+00  0.000000D+00
    303   0.000000D+00  0.000000D+00  0.000000D+00  0.000000D+00  0.000000D+00
    304   0.000000D+00  0.000000D+00  0.000000D+00  0.000000D+00  0.000000D+00
    305   0.000000D+00  0.000000D+00  0.000000D+00  0.000000D+00  0.000000D+00
    306   0.000000D+00  0.000000D+00  0.000000D+00  0.000000D+00  0.000000D+00
    307   0.000000D+00  0.000000D+00  0.000000D+00  0.000000D+00  0.000000D+00
    308   0.000000D+00  0.000000D+00  0.000000D+00  0.000000D+00  0.000000D+00
    309   0.000000D+00  0.000000D+00  0.000000D+00  0.000000D+00  0.000000D+00
    310   0.000000D+00  0.000000D+00  0.000000D+00  0.000000D+00  0.000000D+00
    311   0.000000D+00  0.000000D+00  0.000000D+00  0.000000D+00  0.000000D+00
    312   0.000000D+00  0.000000D+00  0.000000D+00  0.000000D+00  0.000000D+00
    313   0.000000D+00  0.000000D+00  0.000000D+00  0.000000D+00  0.000000D+00
    314   0.000000D+00  0.000000D+00  0.000000D+00  0.000000D+00  0.000000D+00
    315   0.000000D+00  0.000000D+00  0.000000D+00  0.000000D+00  0.000000D+00
    316   0.000000D+00  0.000000D+00  0.000000D+00  0.000000D+00  0.000000D+00
    317   0.000000D+00  0.000000D+00  0.000000D+00  0.000000D+00  0.000000D+00
    318   0.000000D+00  0.000000D+00  0.000000D+00  0.000000D+00  0.000000D+00
    319   0.000000D+00  0.000000D+00  0.000000D+00  0.000000D+00  0.000000D+00
    320   0.000000D+00  0.000000D+00  0.000000D+00  0.000000D+00  0.000000D+00
    321   0.000000D+00  0.000000D+00  0.000000D+00  0.000000D+00  0.000000D+00
    322   0.000000D+00  0.000000D+00  0.000000D+00  0.000000D+00  0.000000D+00
    323   0.000000D+00  0.000000D+00  0.000000D+00  0.000000D+00  0.000000D+00
    324   0.000000D+00  0.000000D+00  0.000000D+00  0.000000D+00  0.000000D+00
    325   0.000000D+00  0.000000D+00  0.000000D+00  0.000000D+00  0.000000D+00
    326   0.000000D+00  0.000000D+00  0.000000D+00  0.000000D+00  0.000000D+00
    327   0.000000D+00  0.000000D+00  0.000000D+00  0.000000D+00  0.000000D+00
    328   0.000000D+00  0.000000D+00  0.000000D+00  0.000000D+00  0.000000D+00
    329   0.000000D+00  0.000000D+00  0.000000D+00  0.000000D+00  0.000000D+00
    330   0.000000D+00  0.000000D+00  0.000000D+00  0.000000D+00  0.000000D+00
    331   0.000000D+00  0.000000D+00  0.000000D+00  0.000000D+00  0.000000D+00
    332   0.000000D+00  0.000000D+00  0.000000D+00  0.000000D+00  0.000000D+00
    333   0.000000D+00  0.000000D+00  0.000000D+00  0.000000D+00  0.000000D+00
    334   0.000000D+00  0.000000D+00  0.000000D+00  0.000000D+00  0.000000D+00
    335   0.000000D+00  0.000000D+00  0.000000D+00  0.000000D+00  0.000000D+00
    336   0.000000D+00  0.000000D+00  0.000000D+00  0.000000D+00  0.000000D+00
    337   0.000000D+00  0.000000D+00  0.000000D+00  0.000000D+00  0.000000D+00
    338   0.000000D+00  0.000000D+00  0.000000D+00  0.000000D+00  0.000000D+00
    339   0.000000D+00  0.000000D+00  0.000000D+00  0.000000D+00  0.000000D+00
    340   0.000000D+00  0.000000D+00  0.000000D+00  0.000000D+00  0.000000D+00
    341   0.000000D+00  0.000000D+00  0.000000D+00  0.000000D+00  0.000000D+00
    342   0.000000D+00  0.000000D+00  0.000000D+00  0.000000D+00  0.000000D+00
    343   0.000000D+00  0.000000D+00  0.000000D+00  0.000000D+00  0.000000D+00
    344   0.000000D+00  0.000000D+00  0.000000D+00  0.000000D+00  0.000000D+00
    345   0.000000D+00  0.000000D+00  0.000000D+00  0.000000D+00  0.000000D+00
    346   0.000000D+00  0.000000D+00  0.000000D+00  0.000000D+00  0.000000D+00
    347   0.000000D+00  0.000000D+00  0.000000D+00  0.000000D+00  0.000000D+00
    348   0.000000D+00  0.000000D+00  0.000000D+00  0.000000D+00  0.000000D+00
    349   0.000000D+00  0.000000D+00  0.000000D+00  0.000000D+00  0.000000D+00
    350   0.000000D+00  0.000000D+00  0.000000D+00  0.000000D+00  0.000000D+00
    351   0.000000D+00  0.000000D+00  0.000000D+00  0.000000D+00  0.000000D+00
    352   0.000000D+00  0.000000D+00  0.000000D+00  0.000000D+00  0.000000D+00
    353   0.000000D+00  0.000000D+00  0.000000D+00  0.000000D+00  0.000000D+00
    354   0.000000D+00  0.000000D+00  0.000000D+00  0.000000D+00  0.000000D+00
    355   0.000000D+00  0.000000D+00  0.000000D+00  0.000000D+00  0.000000D+00
    356   0.000000D+00  0.000000D+00  0.000000D+00  0.000000D+00  0.000000D+00
    357   0.000000D+00  0.000000D+00  0.000000D+00  0.000000D+00  0.000000D+00
    358   0.000000D+00  0.000000D+00  0.000000D+00  0.000000D+00  0.000000D+00
    359   0.000000D+00  0.000000D+00  0.000000D+00  0.000000D+00  0.000000D+00
    360   0.000000D+00  0.000000D+00  0.000000D+00  0.000000D+00  0.000000D+00
    361   0.000000D+00  0.000000D+00  0.000000D+00  0.000000D+00  0.000000D+00
    362   0.000000D+00  0.000000D+00  0.000000D+00  0.000000D+00  0.000000D+00
    363   0.000000D+00  0.000000D+00  0.000000D+00  0.000000D+00  0.000000D+00
    364   0.127881D-02  0.906108D-02  0.000000D+00  0.000000D+00 -0.385308D-02
    365   0.662380D-02  0.441300D-01  0.000000D+00  0.000000D+00 -0.423443D-02
    366   0.000000D+00  0.000000D+00  0.229009D-02  0.000000D+00  0.000000D+00
    367   0.000000D+00  0.000000D+00  0.000000D+00  0.229009D-02  0.000000D+00
    368   0.389648D-02  0.266317D-01  0.000000D+00  0.000000D+00 -0.859579D-02
    369   0.000000D+00  0.000000D+00  0.446794D-02  0.000000D+00  0.000000D+00
    370   0.000000D+00  0.000000D+00  0.000000D+00  0.446794D-02  0.000000D+00
    371   0.781410D-02  0.518114D-01  0.000000D+00  0.000000D+00  0.814616D-03
    372   0.000000D+00  0.000000D+00  0.000000D+00  0.000000D+00  0.000000D+00
    373   0.000000D+00  0.000000D+00  0.000000D+00  0.000000D+00  0.000000D+00
    374   0.285587D-05  0.639894D-04  0.000000D+00  0.000000D+00 -0.928964D-04
    375   0.285857D-03  0.253806D-02  0.000000D+00  0.000000D+00 -0.214778D-02
    376   0.241503D-02  0.169989D-01  0.000000D+00  0.000000D+00 -0.777484D-02
    377   0.564594D-02  0.378237D-01  0.000000D+00  0.000000D+00 -0.903699D-02
    378   0.000000D+00  0.000000D+00  0.000000D+00  0.000000D+00  0.000000D+00
    379   0.000000D+00  0.000000D+00  0.000000D+00  0.000000D+00  0.000000D+00
    380   0.000000D+00  0.000000D+00  0.000000D+00  0.000000D+00  0.000000D+00
    381   0.000000D+00  0.000000D+00  0.000000D+00  0.000000D+00  0.000000D+00
    382   0.000000D+00  0.000000D+00  0.000000D+00  0.000000D+00  0.000000D+00
    383   0.000000D+00  0.000000D+00  0.000000D+00  0.000000D+00  0.000000D+00
    384   0.000000D+00  0.000000D+00  0.187896D-04  0.000000D+00  0.000000D+00
    385   0.000000D+00  0.000000D+00  0.000000D+00  0.187896D-04  0.000000D+00
    386   0.105529D-04  0.234980D-03  0.000000D+00  0.000000D+00 -0.340040D-03
    387   0.000000D+00  0.000000D+00  0.111556D-02  0.000000D+00  0.000000D+00
    388   0.000000D+00  0.000000D+00  0.000000D+00  0.111556D-02  0.000000D+00
    389   0.164664D-02  0.131464D-01  0.000000D+00  0.000000D+00 -0.955625D-02
    390   0.000000D+00  0.000000D+00  0.572869D-02  0.000000D+00  0.000000D+00
    391   0.000000D+00  0.000000D+00  0.000000D+00  0.572869D-02  0.000000D+00
    392   0.996860D-02  0.664642D-01  0.000000D+00  0.000000D+00 -0.202371D-01
    393   0.000000D+00  0.000000D+00  0.756096D-02  0.000000D+00  0.000000D+00
    394   0.000000D+00  0.000000D+00  0.000000D+00  0.756096D-02  0.000000D+00
    395   0.133399D-01  0.875985D-01  0.000000D+00  0.000000D+00 -0.832248D-02
    396   0.000000D+00  0.000000D+00  0.000000D+00  0.000000D+00  0.000000D+00
    397   0.000000D+00  0.000000D+00  0.000000D+00  0.000000D+00  0.000000D+00
    398   0.000000D+00  0.000000D+00  0.000000D+00  0.000000D+00  0.000000D+00
    399   0.000000D+00  0.000000D+00  0.000000D+00  0.000000D+00  0.000000D+00
    400   0.000000D+00  0.000000D+00  0.000000D+00  0.000000D+00  0.000000D+00
    401   0.000000D+00  0.000000D+00  0.000000D+00  0.000000D+00  0.000000D+00
    402   0.000000D+00  0.000000D+00  0.000000D+00  0.000000D+00  0.000000D+00
    403   0.000000D+00  0.000000D+00  0.000000D+00  0.000000D+00  0.000000D+00
    404   0.000000D+00  0.000000D+00  0.000000D+00  0.000000D+00  0.000000D+00
    405   0.000000D+00  0.000000D+00  0.000000D+00  0.000000D+00  0.000000D+00
    406   0.000000D+00  0.146234D-05  0.000000D+00  0.000000D+00 -0.339566D-05
    407   0.000000D+00  0.000000D+00  0.000000D+00  0.000000D+00  0.000000D+00
    408   0.000000D+00  0.000000D+00  0.000000D+00  0.000000D+00  0.000000D+00
    409   0.000000D+00  0.000000D+00  0.000000D+00  0.000000D+00  0.000000D+00
    410   0.000000D+00  0.000000D+00  0.000000D+00  0.000000D+00  0.000000D+00
    411   0.328321D-04  0.658588D-03  0.000000D+00  0.000000D+00 -0.924696D-03
    412   0.000000D+00  0.000000D+00  0.916334D-04  0.000000D+00  0.000000D+00
    413   0.000000D+00  0.000000D+00  0.000000D+00  0.916334D-04  0.000000D+00
    414   0.000000D+00  0.000000D+00  0.000000D+00  0.000000D+00  0.000000D+00
    415   0.000000D+00  0.000000D+00  0.000000D+00  0.000000D+00  0.000000D+00
    416   0.275790D-02  0.217647D-01  0.000000D+00  0.000000D+00 -0.160723D-01
    417   0.000000D+00  0.000000D+00  0.320237D-02  0.000000D+00  0.000000D+00
    418   0.000000D+00  0.000000D+00  0.000000D+00  0.320237D-02  0.000000D+00
    419   0.000000D+00  0.000000D+00  0.000000D+00  0.000000D+00  0.000000D+00
    420   0.000000D+00  0.000000D+00  0.000000D+00  0.000000D+00  0.000000D+00
    421   0.145442D-01  0.950215D-01  0.000000D+00  0.000000D+00 -0.295000D-01
    422   0.000000D+00  0.000000D+00  0.142132D-01  0.000000D+00  0.000000D+00
    423   0.000000D+00  0.000000D+00  0.000000D+00  0.142132D-01  0.000000D+00
    424   0.000000D+00  0.000000D+00  0.000000D+00  0.000000D+00  0.000000D+00
    425   0.000000D+00  0.000000D+00  0.000000D+00  0.000000D+00  0.000000D+00
    426   0.185681D-01  0.119412D+00  0.000000D+00  0.000000D+00 -0.895735D-02
    427   0.000000D+00  0.000000D+00  0.178877D-01  0.000000D+00  0.000000D+00
    428   0.000000D+00  0.000000D+00  0.000000D+00  0.178877D-01  0.000000D+00
    429   0.000000D+00  0.000000D+00  0.000000D+00  0.000000D+00  0.000000D+00
    430   0.000000D+00  0.000000D+00  0.000000D+00  0.000000D+00  0.000000D+00
    431   0.000000D+00  0.000000D+00  0.000000D+00  0.000000D+00  0.000000D+00
    432   0.000000D+00  0.000000D+00  0.000000D+00  0.000000D+00  0.000000D+00
    433   0.000000D+00  0.000000D+00  0.000000D+00  0.000000D+00  0.000000D+00
    434   0.000000D+00  0.000000D+00  0.000000D+00  0.000000D+00  0.000000D+00
    435   0.000000D+00  0.000000D+00  0.000000D+00  0.000000D+00  0.000000D+00
    436   0.000000D+00  0.000000D+00  0.000000D+00  0.000000D+00  0.000000D+00
    437   0.000000D+00  0.000000D+00  0.000000D+00  0.000000D+00  0.000000D+00
    438   0.000000D+00  0.000000D+00  0.000000D+00  0.000000D+00  0.000000D+00
    439   0.000000D+00  0.000000D+00  0.000000D+00  0.000000D+00  0.000000D+00
    440   0.000000D+00  0.000000D+00  0.000000D+00  0.000000D+00  0.000000D+00
    441   0.000000D+00  0.000000D+00  0.000000D+00  0.000000D+00  0.000000D+00
    442   0.000000D+00  0.000000D+00  0.000000D+00  0.000000D+00  0.000000D+00
    443   0.000000D+00  0.000000D+00  0.000000D+00  0.000000D+00  0.000000D+00
    444   0.000000D+00  0.000000D+00  0.000000D+00  0.000000D+00  0.000000D+00
    445   0.000000D+00  0.692597D-04  0.000000D+00  0.000000D+00 -0.127322D-03
    446   0.000000D+00  0.000000D+00  0.131365D-04  0.000000D+00  0.000000D+00
    447   0.000000D+00  0.000000D+00  0.000000D+00  0.131365D-04  0.000000D+00
    448   0.000000D+00  0.000000D+00  0.000000D+00  0.000000D+00  0.000000D+00
    449   0.000000D+00  0.000000D+00  0.000000D+00  0.000000D+00  0.000000D+00
    450   0.000000D+00  0.000000D+00  0.000000D+00  0.000000D+00  0.000000D+00
    451   0.000000D+00  0.000000D+00  0.000000D+00  0.000000D+00  0.000000D+00
    452   0.772949D-03  0.806668D-02  0.000000D+00  0.000000D+00 -0.842982D-02
    453   0.000000D+00  0.000000D+00  0.164462D-02  0.000000D+00  0.000000D+00
    454   0.000000D+00  0.000000D+00  0.000000D+00  0.164462D-02  0.000000D+00
    455   0.000000D+00  0.000000D+00  0.000000D+00  0.000000D+00  0.000000D+00
    456   0.000000D+00  0.000000D+00  0.000000D+00  0.000000D+00  0.000000D+00
    457   0.000000D+00  0.000000D+00  0.000000D+00  0.000000D+00  0.000000D+00
    458   0.000000D+00  0.000000D+00  0.000000D+00  0.000000D+00  0.000000D+00
    459   0.122573D-01  0.812666D-01  0.000000D+00  0.000000D+00 -0.379219D-01
    460   0.000000D+00  0.000000D+00  0.171694D-01  0.000000D+00  0.000000D+00
    461   0.000000D+00  0.000000D+00  0.000000D+00  0.171694D-01  0.000000D+00
    462   0.000000D+00  0.000000D+00  0.000000D+00  0.000000D+00  0.000000D+00
    463   0.000000D+00  0.000000D+00  0.000000D+00  0.000000D+00  0.000000D+00
    464   0.000000D+00  0.000000D+00  0.000000D+00  0.000000D+00  0.000000D+00
    465   0.000000D+00  0.000000D+00  0.000000D+00  0.000000D+00  0.000000D+00
    466   0.240006D-01  0.149762D+00  0.000000D+00  0.000000D+00 -0.181848D-01
    467   0.000000D+00  0.000000D+00  0.318201D-01  0.000000D+00  0.000000D+00
    468   0.000000D+00  0.000000D+00  0.000000D+00  0.318201D-01  0.000000D+00
    469   0.000000D+00  0.000000D+00  0.000000D+00  0.000000D+00  0.000000D+00
    470   0.000000D+00  0.000000D+00  0.000000D+00  0.000000D+00  0.000000D+00
    471   0.000000D+00  0.000000D+00  0.000000D+00  0.000000D+00  0.000000D+00
    472   0.000000D+00  0.000000D+00  0.000000D+00  0.000000D+00  0.000000D+00
    473   0.000000D+00  0.000000D+00  0.000000D+00  0.000000D+00  0.000000D+00
    474   0.000000D+00  0.000000D+00  0.000000D+00  0.000000D+00  0.000000D+00
    475   0.000000D+00  0.000000D+00  0.000000D+00  0.000000D+00  0.000000D+00
    476   0.000000D+00  0.000000D+00  0.000000D+00  0.000000D+00  0.000000D+00
    477   0.000000D+00  0.000000D+00  0.000000D+00  0.000000D+00  0.000000D+00
    478   0.000000D+00  0.000000D+00  0.000000D+00  0.000000D+00  0.000000D+00
    479   0.000000D+00  0.000000D+00  0.000000D+00  0.000000D+00  0.000000D+00
    480   0.000000D+00  0.000000D+00  0.000000D+00  0.000000D+00  0.000000D+00
    481   0.000000D+00  0.000000D+00  0.000000D+00  0.000000D+00  0.000000D+00
    482   0.000000D+00  0.000000D+00  0.000000D+00  0.000000D+00 -0.153880D-05
    483   0.000000D+00  0.000000D+00  0.000000D+00  0.000000D+00  0.000000D+00
    484   0.000000D+00  0.000000D+00  0.000000D+00  0.000000D+00  0.000000D+00
    485   0.000000D+00  0.000000D+00  0.000000D+00  0.000000D+00  0.000000D+00
    486   0.000000D+00  0.000000D+00  0.000000D+00  0.000000D+00  0.000000D+00
    487   0.000000D+00  0.000000D+00  0.000000D+00  0.000000D+00  0.000000D+00
    488   0.000000D+00  0.000000D+00  0.000000D+00  0.000000D+00  0.000000D+00
    489   0.000000D+00  0.000000D+00  0.000000D+00  0.000000D+00  0.000000D+00
    490   0.000000D+00  0.000000D+00  0.000000D+00  0.000000D+00  0.000000D+00
    491   0.267129D-04  0.742435D-03  0.000000D+00  0.000000D+00 -0.114407D-02
    492   0.000000D+00  0.000000D+00  0.186416D-03  0.000000D+00  0.000000D+00
    493   0.000000D+00  0.000000D+00  0.000000D+00  0.186416D-03  0.000000D+00
    494   0.000000D+00  0.000000D+00  0.000000D+00  0.000000D+00  0.000000D+00
[...]
                                                  ----------
                         Total pair energies =    -0.416189 A.U.

                         Single Excitations  =    -0.000381 A.U.

                          Total second order =    -0.416570 A.U.

                         E2(CBS) - E2(Dir) =      -0.003894 A.U.

 E2(CBS)=      -0.418696 CBS-Int=       0.002127 OIii=       1.631516

 **********************************************************************

            Population analysis using the SCF density.

 **********************************************************************

 Orbital symmetries:
       Occupied  (SG) (SG) (SG) (SG) (PI) (PI) (SG) (SG) (PI) (PI)
                 (SG) (SG) (PI) (PI) (SG) (?A)
       Virtual   (SG) (DLTA) (DLTA) (SG) (PI) (PI) (PI) (PI) (SG)
                 (PI) (PI) (SG) (SG) (?A) (?A) (PI) (PI) (SG) (PI)
                 (PI) (SG) (SG) (?A) (PI) (PI) (DLTA) (DLTA) (SG)
                 (PHI) (PHI) (PI) (PI) (PI) (PI) (SG) (SG) (?A)
                 (?A) (PI) (PI) (PI) (PI) (SG) (SG) (DLTA) (DLTA)
                 (PHI) (PHI) (?B) (?B) (DLTA) (DLTA) (SG) (PI)
                 (PI) (SG) (SG) (PI) (PI) (?C) (?C) (DLTA) (?C)
                 (?C) (DLTA) (SG) (PHI) (PHI) (?D) (?D) (?B) (?B)
                 (SG) (PI) (PI) (?A) (?A) (PI) (PI) (?A) (SG) (?A)
                 (SG) (PI) (PI) (PHI) (PHI) (DLTA) (DLTA) (SG)
                 (PI) (PI) (DLTA) (DLTA) (SG) (SG) (PHI) (PHI)
                 (PI) (PI) (?B) (?B) (SG) (SG) (?D) (?D) (?B) (?B)
                 (PI) (PI) (SG) (DLTA) (DLTA) (PHI) (PHI) (SG)
                 (PI) (PI) (DLTA) (DLTA) (?C) (?C) (?C) (?C) (SG)
                 (SG) (PI) (PI) (?A) (?A) (?E) (?E) (?E) (PHI)
                 (PHI) (?F) (?F) (?G) (?G) (SG) (SG) (?G) (?G)
                 (?A) (SG) (?A) (?A) (?A) (PI) (PI) (?B) (?B) (SG)
                 (?C) (?C) (?C) (?C) (?D) (?D) (SG) (DLTA) (DLTA)
                 (?B) (?B) (PI) (PI) (DLTA) (DLTA) (SG) (PHI) (PHI)
                 (PI) (PI) (SG) (PHI) (PHI) (SG) (PI) (PI) (SG)
                 (DLTA) (DLTA) (DLTA) (DLTA) (PI) (PI) (?D) (?D)
                 (PHI) (PHI) (?B) (?B) (PI) (PI) (?H) (?H) (?H)
                 (DLTA) (DLTA) (SG) (SG) (?I) (?I) (?I) (?I) (?I)
                 (?I) (PHI) (PHI) (SG) (DLTA) (DLTA) (SG) (SG)
                 (?D) (?D) (PI) (PI) (SG) (?B) (?B) (?J) (?J) (?J)
                 (?J) (?C) (?C) (?C) (?C) (SG) (?B) (?B) (DLTA)
                 (DLTA) (SG) (PI) (PI) (PHI) (PHI) (SG) (SG) (SG)
                 (PI) (PI) (SG) (DLTA) (DLTA) (?D) (?D) (PI) (PI)
                 (PHI) (PHI) (SG) (DLTA) (DLTA) (?B) (?B) (SG)
                 (?C) (?C) (?C) (?C) (DLTA) (DLTA) (?G) (?G) (?G)
                 (?G) (?K) (?K) (?K) (DLTA) (DLTA) (?F) (?F) (SG)
                 (SG) (?G) (?G) (?G) (?G) (SG) (SG) (PHI) (PHI)
                 (?C) (?C) (?C) (?C) (DLTA) (DLTA) (PI) (PI) (?L)
                 (?L) (?L) (?L) (?L) (?L) (DLTA) (DLTA) (PI) (PI)
                 (?D) (?D) (SG) (PHI) (PHI) (?B) (?B) (DLTA) (DLTA)
                 (PI) (PI) (PHI) (PHI) (PI) (PI) (SG) (PHI) (PHI)
                 (DLTA) (DLTA) (PI) (PI) (DLTA) (DLTA) (SG) (PI)
                 (PI) (SG) (SG) (?B) (?B) (PI) (PI) (PHI) (PHI)
                 (DLTA) (DLTA) (PI) (PI) (DLTA) (DLTA) (?L) (?L)
                 (?F) (?F) (SG) (SG) (SG) (PHI) (PHI) (?D) (?D)
                 (SG) (?B) (?B) (?L) (?L) (?L) (?L) (?D) (?D) (SG)
                 (PI) (PI) (PHI) (PHI) (?L) (?L) (?L) (PI) (PI)
                 (DLTA) (DLTA) (DLTA) (DLTA) (SG) (?C) (?C) (?C)
                 (?C) (SG) (PI) (PI) (DLTA) (DLTA) (SG) (PI) (PI)
                 (SG) (SG) (SG) (?D) (?D) (?D) (?D) (?B) (?B) (?B)
                 (?B) (PHI) (PHI) (DLTA) (DLTA) (SG) (PI) (PI)
                 (PHI) (PHI) (SG) (DLTA) (DLTA) (PI) (PI) (SG)
                 (?B) (?B) (PHI) (PHI) (PI) (PI) (DLTA) (DLTA)
                 (?D) (?D) (?B) (?B) (PHI) (PHI) (SG) (DLTA) (DLTA)
                 (PI) (PI) (PHI) (PHI) (?L) (?L) (?F) (?F) (?G)
                 (?G) (?G) (?G) (?L) (?L) (?L) (?L) (?L) (?C) (?C)
                 (?C) (?C) (?L) (DLTA) (DLTA) (SG) (?B) (?B) (PHI)
                 (PHI) (PI) (PI) (PHI) (PHI) (DLTA) (DLTA) (SG)
                 (PI) (PI) (DLTA) (DLTA) (SG) (PI) (PI) (PI) (PI)
                 (DLTA) (DLTA) (SG) (PI) (PI) (DLTA) (DLTA) (SG)
                 (PI) (PI) (SG) (SG) (SG) (SG) (?F) (?F) (?D) (?D)
                 (?B) (?B) (PHI) (PHI) (DLTA) (DLTA) (SG) (PI)
                 (PI) (SG) (SG) (?D) (?D) (SG) (SG) (?B) (?B) (PHI)
                 (PHI) (DLTA) (DLTA) (PI) (PI) (SG) (?D) (?D) (?B)
                 (?B) (PHI) (PHI) (DLTA) (DLTA) (SG) (PI) (PI)
                 (SG) (SG) (?D) (?D) (?B) (?B) (PHI) (PHI) (DLTA)
                 (DLTA) (PI) (PI) (SG) (?B) (?B) (PHI) (PHI) (DLTA)
                 (DLTA) (PI) (PI) (SG) (?D) (?D) (?B) (?B) (PHI)
                 (PHI) (DLTA) (DLTA) (PI) (PI) (SG) (PHI) (PHI)
                 (DLTA) (DLTA) (PI) (PI) (PHI) (PHI) (SG) (?B)
                 (?B) (DLTA) (DLTA) (PHI) (PHI) (DLTA) (DLTA) (SG)
                 (PI) (PI) (PI) (PI) (SG) (DLTA) (DLTA) (PI) (PI)
                 (SG) (PI) (PI) (SG) (SG) (SG)
 Unable to determine electronic state:  an orbital has unidentified symmetry.
 Alpha  occ. eigenvalues -- -183.13584 -21.31146 -20.30943 -17.67931 -17.67931
 Alpha  occ. eigenvalues --  -17.67727  -2.76774  -1.70760  -1.70760  -1.69027
 Alpha  occ. eigenvalues --   -0.97162  -0.28674  -0.27439  -0.26396  -0.26396
 Alpha  occ. eigenvalues --   -0.04466
 Alpha virt. eigenvalues --    0.11937   0.12383   0.12394   0.12437   0.12512
 Alpha virt. eigenvalues --    0.12512   0.12933   0.12933   0.13709   0.21673
 Alpha virt. eigenvalues --    0.21673   0.21852   0.24871   0.25262   0.26845
 Alpha virt. eigenvalues --    0.27765   0.27765   0.29929   0.30240   0.30240
 Alpha virt. eigenvalues --    0.30977   0.34034   0.34036   0.36070   0.36070
 Alpha virt. eigenvalues --    0.44137   0.44154   0.45788   0.45788   0.45791
 Alpha virt. eigenvalues --    0.46215   0.46215   0.49926   0.49926   0.50777
 Alpha virt. eigenvalues --    0.52770   0.53720   0.58698   0.59040   0.59040
 Alpha virt. eigenvalues --    0.62195   0.62195   0.64326   0.64887   0.71522
 Alpha virt. eigenvalues --    0.71545   0.72578   0.72578   0.73696   0.73697
 Alpha virt. eigenvalues --    0.74656   0.74768   0.77054   0.78193   0.78193
 Alpha virt. eigenvalues --    0.82055   0.86525   0.90606   0.90606   0.97271
 Alpha virt. eigenvalues --    0.97271   0.98011   0.98099   0.98099   0.98261
 Alpha virt. eigenvalues --    1.01088   1.01781   1.01781   1.06556   1.06556
 Alpha virt. eigenvalues --    1.06859   1.06860   1.08933   1.09113   1.09877
 Alpha virt. eigenvalues --    1.09877   1.12798   1.14414   1.14414   1.15298
 Alpha virt. eigenvalues --    1.15689   1.16812   1.19240   1.19845   1.19845
 Alpha virt. eigenvalues --    1.36853   1.36853   1.42215   1.42240   1.44992
 Alpha virt. eigenvalues --    1.45349   1.45349   1.50039   1.50060   1.51722
 Alpha virt. eigenvalues --    1.54324   1.56783   1.56783   1.58230   1.58230
 Alpha virt. eigenvalues --    1.58717   1.58717   1.59989   1.59989   1.60719
 Alpha virt. eigenvalues --    1.60719   1.65950   1.65955   1.69636   1.69636
 Alpha virt. eigenvalues --    1.71198   1.71815   1.71820   1.80072   1.80072
 Alpha virt. eigenvalues --    1.83757   1.86759   1.86759   1.90992   1.92238
 Alpha virt. eigenvalues --    1.95324   1.95324   2.00617   2.00617   2.01042
 Alpha virt. eigenvalues --    2.04854   2.06868   2.06868   2.07964   2.08206
 Alpha virt. eigenvalues --    2.14038   2.15223   2.15224   2.18218   2.18218
 Alpha virt. eigenvalues --    2.20271   2.20271   2.20525   2.20525   2.21163
 Alpha virt. eigenvalues --    2.21163   2.22365   2.22365   2.27727   2.30384
 Alpha virt. eigenvalues --    2.31100   2.32603   2.33210   2.35883   2.35883
 Alpha virt. eigenvalues --    2.38197   2.38198   2.46398   2.47546   2.47546
 Alpha virt. eigenvalues --    2.47919   2.47919   2.55858   2.55858   2.62123
 Alpha virt. eigenvalues --    2.65701   2.66181   2.69972   2.69972   2.74066
 Alpha virt. eigenvalues --    2.74066   2.74696   2.74732   2.75428   2.76323
 Alpha virt. eigenvalues --    2.76323   2.94907   2.94907   2.95137   3.13000
 Alpha virt. eigenvalues --    3.13000   3.17260   3.23579   3.23579   3.25622
 Alpha virt. eigenvalues --    3.26526   3.26629   3.32999   3.33788   3.44950
 Alpha virt. eigenvalues --    3.44950   3.49829   3.49829   3.50202   3.50202
 Alpha virt. eigenvalues --    3.53129   3.53133   3.55796   3.55796   3.61900
 Alpha virt. eigenvalues --    3.63017   3.63018   3.64013   3.64101   3.76841
 Alpha virt. eigenvalues --    3.87711   3.89579   3.89579   3.91692   3.91692
 Alpha virt. eigenvalues --    3.96785   3.96785   4.16109   4.16109   4.16417
 Alpha virt. eigenvalues --    4.16695   4.17442   4.19691   4.19691   4.20588
 Alpha virt. eigenvalues --    4.20588   4.40484   4.40484   4.46165   4.58584
 Alpha virt. eigenvalues --    4.58584   4.62842   4.64095   4.72172   4.72906
 Alpha virt. eigenvalues --    4.77952   4.77952   4.79577   4.79577   4.81687
 Alpha virt. eigenvalues --    4.85964   4.85964   4.87610   4.89005   4.95966
 Alpha virt. eigenvalues --    5.02927   5.02927   5.17072   5.17072   5.20567
 Alpha virt. eigenvalues --    5.21817   5.21817   5.21855   5.21855   5.31322
 Alpha virt. eigenvalues --    5.32392   5.32548   5.41271   5.41271   5.42493
 Alpha virt. eigenvalues --    5.42493   5.47349   5.47349   5.65259   5.73075
 Alpha virt. eigenvalues --    5.73151   5.75785   5.75785   5.80831   5.82206
 Alpha virt. eigenvalues --    5.82206   5.83234   5.83234   5.91043   5.91233
 Alpha virt. eigenvalues --    5.92073   5.92073   5.93152   5.93152   6.11340
 Alpha virt. eigenvalues --    6.11341   6.17390   6.33081   6.33278   6.42246
 Alpha virt. eigenvalues --    6.42246   6.43818   6.43818   6.59057   6.59057
 Alpha virt. eigenvalues --    6.65906   6.65906   6.71346   6.79868   6.88387
 Alpha virt. eigenvalues --    6.88387   6.99376   6.99376   7.00912   7.00912
 Alpha virt. eigenvalues --    7.07600   7.07732   7.12379   7.12379   7.20785
 Alpha virt. eigenvalues --    7.20786   7.29172   7.54647   7.56021   7.56028
 Alpha virt. eigenvalues --    7.63872   7.64166   7.68407   7.68407   7.92586
 Alpha virt. eigenvalues --    7.92586   7.95262   8.03486   8.03486   8.05401
 Alpha virt. eigenvalues --    8.05402   8.22280   8.22535   8.31198   8.31198
 Alpha virt. eigenvalues --    8.50046   8.50046   8.68584   8.68584   8.70950
 Alpha virt. eigenvalues --    8.74946   8.74946   8.91208   8.91766   9.28193
 Alpha virt. eigenvalues --    9.28193   9.38781   9.39005   9.41105   9.59814
 Alpha virt. eigenvalues --    9.59814   9.62852   9.82658   9.88624   9.88624
 Alpha virt. eigenvalues --    9.93224   9.93224  10.03302  10.03302  10.08036
 Alpha virt. eigenvalues --   10.08304  10.13128  10.13128  10.18808  10.19999
 Alpha virt. eigenvalues --   10.35130  10.35130  10.35554  10.35554  10.38213
 Alpha virt. eigenvalues --   10.38213  10.39080  10.43039  10.43039  10.55225
 Alpha virt. eigenvalues --   10.55225  10.67598  10.77206  10.77206  10.85830
 Alpha virt. eigenvalues --   10.85830  10.86573  10.86736  10.88945  10.88945
 Alpha virt. eigenvalues --   10.89630  11.01623  11.01623  11.14439  11.14439
 Alpha virt. eigenvalues --   11.20601  11.20764  11.22338  11.29798  11.29798
 Alpha virt. eigenvalues --   11.31817  11.31874  11.41685  11.42198  11.53969
 Alpha virt. eigenvalues --   11.58304  11.58304  11.64198  11.64198  11.81323
 Alpha virt. eigenvalues --   12.45309  12.45309  12.62385  12.63005  12.77466
 Alpha virt. eigenvalues --   13.36269  13.36269  13.54612  13.54612  13.58831
 Alpha virt. eigenvalues --   13.61106  13.61106  13.77641  13.77641  13.81039
 Alpha virt. eigenvalues --   13.81040  13.89694  13.89694  14.06128  14.06128
 Alpha virt. eigenvalues --   14.19868  14.20248  14.48822  14.71507  14.71507
 Alpha virt. eigenvalues --   14.83401  14.83401  15.23064  15.63363  15.63649
 Alpha virt. eigenvalues --   15.73938  15.73938  15.74161  16.20348  16.20351
 Alpha virt. eigenvalues --   16.52206  16.52206  17.05687  17.05687  17.09153
 Alpha virt. eigenvalues --   17.09448  17.39721  17.39721  17.52064  17.52064
 Alpha virt. eigenvalues --   17.83190  17.83190  17.86244  18.12469  18.12594
 Alpha virt. eigenvalues --   18.41909  18.41909  18.60557  18.60557  18.91702
 Alpha virt. eigenvalues --   18.91702  18.92151  18.92151  18.94705  18.94705
 Alpha virt. eigenvalues --   18.97398  18.97398  19.01067  19.01096  19.03518
 Alpha virt. eigenvalues --   19.08859  19.08861  19.26962  19.26962  19.35334
 Alpha virt. eigenvalues --   19.35334  19.35908  19.44000  19.44868  19.90241
 Alpha virt. eigenvalues --   20.19546  20.19546  20.25439  20.25439  20.38593
 Alpha virt. eigenvalues --   20.38593  20.54228  20.54228  20.63818  20.63849
 Alpha virt. eigenvalues --   20.87596  21.07239  21.07239  21.39604  21.39641
 Alpha virt. eigenvalues --   21.43327  21.55718  21.55718  22.40354  22.40354
 Alpha virt. eigenvalues --   22.66815  22.66828  22.69037  23.69926  23.69926
 Alpha virt. eigenvalues --   23.89217  23.89572  24.01155  24.49438  24.49438
 Alpha virt. eigenvalues --   24.66211  25.14781  25.53319  25.53319  25.54061
 Alpha virt. eigenvalues --   25.54061  25.55000  25.55000  25.69232  25.69232
 Alpha virt. eigenvalues --   25.92360  25.92360  25.94200  25.94269  26.28410
 Alpha virt. eigenvalues --   26.37392  26.37392  26.68845  28.46368  28.64636
 Alpha virt. eigenvalues --   28.64636  28.64899  28.64899  28.69682  28.69684
 Alpha virt. eigenvalues --   28.80335  28.80335  29.10154  29.11198  29.58998
 Alpha virt. eigenvalues --   29.58998  29.64210  33.10699  33.10699  33.12040
 Alpha virt. eigenvalues --   33.12042  33.33562  33.33562  33.72585  33.73298
 Alpha virt. eigenvalues --   34.00922  34.08484  34.08484  34.16375  34.16375
 Alpha virt. eigenvalues --   34.19500  34.19500  34.28028  34.28028  34.54271
 Alpha virt. eigenvalues --   34.54271  34.90730  34.90827  34.91435  34.91435
 Alpha virt. eigenvalues --   35.13215  36.61953  36.61953  36.81464  36.81464
 Alpha virt. eigenvalues --   37.10504  37.10979  37.42119  37.42119  38.25280
 Alpha virt. eigenvalues --   39.18469  39.18469  39.25714  39.25714  39.42774
 Alpha virt. eigenvalues --   39.42774  39.64758  39.64769  39.77261  39.77261
 Alpha virt. eigenvalues --   39.95978  41.90760  41.90760  42.20706  42.20720
 Alpha virt. eigenvalues --   42.77390  42.77390  42.81603  42.81603  42.99960
 Alpha virt. eigenvalues --   43.09012  43.09012  43.15195  43.15457  43.19133
 Alpha virt. eigenvalues --   43.19133  43.73633  43.73643  43.82719  43.88708
 Alpha virt. eigenvalues --   43.88708  44.25380  44.25380  44.83953  47.12515
 Alpha virt. eigenvalues --   47.12518  47.61763  47.61763  48.41201  53.50569
 Alpha virt. eigenvalues --   53.50569  55.84034 108.86902 469.70034
          Condensed to atoms (all electrons):
              1          2
     1  Ti  24.739282  -2.219872
     2  O   -2.219872  10.700461
 Mulliken atomic charges:
              1
     1  Ti  -0.519410
     2  O   -0.480590
 Sum of Mulliken atomic charges =  -1.00000
 Mulliken charges with hydrogens summed into heavy atoms:
              1
     1  Ti  -0.519410
     2  O   -0.480590
 Sum of Mulliken charges with hydrogens summed into heavy atoms =  -1.00000
          Atomic-Atomic Spin Densities.
              1          2
     1  Ti   0.996920   0.001505
     2  O    0.001505   0.000071
 Mulliken atomic spin densities:
              1
     1  Ti   0.998424
     2  O    0.001576
 Sum of Mulliken atomic spin densities =   1.00000
 Electronic spatial extent (au):  <R**2>=            151.8407
 Charge=             -1.0000 electrons
 Dipole moment (field-independent basis, Debye):
    X=              0.0000    Y=              0.0000    Z=             -1.6173  Tot=              1.6173
 Quadrupole moment (field-independent basis, Debye-Ang):
   XX=            -37.8233   YY=            -37.8233   ZZ=            -52.4245
   XY=              0.0000   XZ=              0.0000   YZ=              0.0000
 Traceless Quadrupole moment (field-independent basis, Debye-Ang):
   XX=              4.8671   YY=              4.8671   ZZ=             -9.7342
   XY=              0.0000   XZ=              0.0000   YZ=              0.0000
 Octapole moment (field-independent basis, Debye-Ang**2):
  XXX=              0.0000  YYY=              0.0000  ZZZ=            -68.9505  XYY=              0.0000
  XXY=              0.0000  XXZ=            -23.8646  XZZ=              0.0000  YZZ=              0.0000
  YYZ=            -23.8646  XYZ=              0.0000
 Hexadecapole moment (field-independent basis, Debye-Ang**3):
 XXXX=           -200.7085 YYYY=           -200.7085 ZZZZ=           -445.1159 XXXY=              0.0000
 XXXZ=              0.0000 YYYX=              0.0000 YYYZ=              0.0000 ZZZX=              0.0000
 ZZZY=              0.0000 XXYY=            -67.3231 XXZZ=           -106.9080 YYZZ=           -106.9080
 XXYZ=              0.0000 YYXZ=              0.0000 ZZXY=              0.0000
 N-N= 5.665157464224D+01 E-N=-3.451357420404D+03  KE= 1.383000010649D+03
                          Isotropic Fermi Contact Couplings
        Atom                 a.u.       MegaHertz       Gauss      10(-4) cm-1
     1  Ti(47)             0.00000       0.00000       0.00000       0.00000
     2  O(17)              0.00000       0.00000       0.00000       0.00000
 --------------------------------------------------------
       Center         ----  Spin Dipole Couplings  ----
                      3XX-RR        3YY-RR        3ZZ-RR
 --------------------------------------------------------
     1   Atom        0.595953      0.595953     -1.191907
     2   Atom       -0.021557     -0.021557      0.043114
 --------------------------------------------------------
                        XY            XZ            YZ
 --------------------------------------------------------
     1   Atom        0.000000      0.000000      0.000000
     2   Atom        0.000000      0.000000      0.000000
 --------------------------------------------------------


 ---------------------------------------------------------------------------------
              Anisotropic Spin Dipole Couplings in Principal Axis System
 ---------------------------------------------------------------------------------

       Atom             a.u.   MegaHertz   Gauss  10(-4) cm-1        Axes

              Baa    -1.1919    35.908    12.813    11.978  0.0000  0.0000  1.0000
     1 Ti(47) Bbb     0.5960   -17.954    -6.406    -5.989  0.0000  1.0000  0.0000
              Bcc     0.5960   -17.954    -6.406    -5.989  1.0000  0.0000  0.0000
 
              Baa    -0.0216     1.560     0.557     0.520  0.0000  1.0000  0.0000
     2 O(17)  Bbb    -0.0216     1.560     0.557     0.520  1.0000  0.0000  0.0000
              Bcc     0.0431    -3.120    -1.113    -1.041  0.0000  0.0000  1.0000
 

 ---------------------------------------------------------------------------------


 Test job not archived.
 1\1\GINC-N35\SP\ROMP2-FC\Gen\O1Ti1(1-,2)\GPETERSSON\23-Oct-2013\0\\# R
 OMP2 Gen GFinput Int=NoBasisTransform Int(Grid=Ultrafine) IOp(3/32=2,5
 /6=10,8/11=1,9/33=1) Maxdisk=128GB CBSextrapolate(Nmin=25,MinPop) SCF=
 Symm Guess=Read\\TiO- 2/\\-1,2\Ti\O,1,1.644\\Version=EM64L-G09RevA.02\
 HF=-923.33669\MP2=-923.7514925\E2(CBS)=-0.4186962\CBS-Int=-0.4165697\O
 Iii=1.6315155\RMSD=3.855e-12\PG=C*V [C*(O1Ti1)]\\@


 HIGGLEDY-PIGGLEDY
 NIC'LAUS COPERNICUS
 LOOKED AT THE UNIVERSE,
 SPOKE TO THE THRONG;
 GIVE UP YOUR PTOLOMY,
 RISE UP AND FOLLOW ME,
 HELIOCENTRICALLY
 PTOLEMY'S WRONG.
   -- NANCY L. STARK
 Job cpu time:  6 days  3 hours 34 minutes 58.8 seconds.
 File lengths (MBytes):  RWF=  38516 Int=      0 D2E=      0 Chk=     34 Scr=      1
 Normal termination of Gaussian 09 at Wed Oct 23 18:25:16 2013.
