 Entering Gaussian System, Link 0=g09
 AtFile(1): 7ZaPa-NR.gbs
 Initial command:
 /share/apps/gaussian/g09root/g09/l1.exe /localscratch/60370/Gau-10494.inp -scrdir=/localscratch/60370/
 Entering Link 1 = /share/apps/gaussian/g09root/g09/l1.exe PID=     10495.
  
 Copyright (c) 1988,1990,1992,1993,1995,1998,2003,2009, Gaussian, Inc.
                  All Rights Reserved.
  
 This is part of the Gaussian(R) 09 program.  It is based on
 the Gaussian(R) 03 system (copyright 2003, Gaussian, Inc.),
 the Gaussian(R) 98 system (copyright 1998, Gaussian, Inc.),
 the Gaussian(R) 94 system (copyright 1995, Gaussian, Inc.),
 the Gaussian 92(TM) system (copyright 1992, Gaussian, Inc.),
 the Gaussian 90(TM) system (copyright 1990, Gaussian, Inc.),
 the Gaussian 88(TM) system (copyright 1988, Gaussian, Inc.),
 the Gaussian 86(TM) system (copyright 1986, Carnegie Mellon
 University), and the Gaussian 82(TM) system (copyright 1983,
 Carnegie Mellon University). Gaussian is a federally registered
 trademark of Gaussian, Inc.
  
 This software contains proprietary and confidential information,
 including trade secrets, belonging to Gaussian, Inc.
  
 This software is provided under written license and may be
 used, copied, transmitted, or stored only in accord with that
 written license.
  
 The following legend is applicable only to US Government
 contracts under FAR:
  
                    RESTRICTED RIGHTS LEGEND
  
 Use, reproduction and disclosure by the US Government is
 subject to restrictions as set forth in subparagraphs (a)
 and (c) of the Commercial Computer Software - Restricted
 Rights clause in FAR 52.227-19.
  
 Gaussian, Inc.
 340 Quinnipiac St., Bldg. 40, Wallingford CT 06492
  
  
 ---------------------------------------------------------------
 Warning -- This program may not be used in any manner that
 competes with the business of Gaussian, Inc. or will provide
 assistance to any competitor of Gaussian, Inc.  The licensee
 of this program is prohibited from giving any competitor of
 Gaussian, Inc. access to this program.  By using this program,
 the user acknowledges that Gaussian, Inc. is engaged in the
 business of creating and licensing software in the field of
 computational chemistry and represents and warrants to the
 licensee that it is not a competitor of Gaussian, Inc. and that
 it will not use this program in any manner prohibited above.
 ---------------------------------------------------------------
  

 Cite this work as:
 Gaussian 09, Revision A.02,
 M. J. Frisch, G. W. Trucks, H. B. Schlegel, G. E. Scuseria, 
 M. A. Robb, J. R. Cheeseman, G. Scalmani, V. Barone, B. Mennucci, 
 G. A. Petersson, H. Nakatsuji, M. Caricato, X. Li, H. P. Hratchian, 
 A. F. Izmaylov, J. Bloino, G. Zheng, J. L. Sonnenberg, M. Hada, 
 M. Ehara, K. Toyota, R. Fukuda, J. Hasegawa, M. Ishida, T. Nakajima, 
 Y. Honda, O. Kitao, H. Nakai, T. Vreven, J. A. Montgomery, Jr., 
 J. E. Peralta, F. Ogliaro, M. Bearpark, J. J. Heyd, E. Brothers, 
 K. N. Kudin, V. N. Staroverov, R. Kobayashi, J. Normand, 
 K. Raghavachari, A. Rendell, J. C. Burant, S. S. Iyengar, J. Tomasi, 
 M. Cossi, N. Rega, J. M. Millam, M. Klene, J. E. Knox, J. B. Cross, 
 V. Bakken, C. Adamo, J. Jaramillo, R. Gomperts, R. E. Stratmann, 
 O. Yazyev, A. J. Austin, R. Cammi, C. Pomelli, J. W. Ochterski, 
 R. L. Martin, K. Morokuma, V. G. Zakrzewski, G. A. Voth, 
 P. Salvador, J. J. Dannenberg, S. Dapprich, A. D. Daniels, 
 O. Farkas, J. B. Foresman, J. V. Ortiz, J. Cioslowski, 
 and D. J. Fox, Gaussian, Inc., Wallingford CT, 2009.
 
 ******************************************
 Gaussian 09:  EM64L-G09RevA.02 11-Jun-2009
                21-Oct-2013 
 ******************************************
 % Mem=64GB
 % Nproc=16
 Will use up to   16 processors via shared memory.
 % Chk=TiO_3D.chk
 ----------------------------------------------------------------------
 # ROMP2 Gen GFinput Int=NoBasisTransform Int(Grid=Ultrafine) IOp(3/32=
 2,5/6=10,8/11=1,9/33=1) Maxdisk=128GB CBSextrapolate(Nmin=25,MinPop) G
 uess=Read
 ----------------------------------------------------------------------
 1/38=1/1;
 2/12=2,17=6,18=5,40=1/2;
 3/5=7,11=2,16=1,24=10,25=1,30=1,32=2,60=-1,75=-5,116=101/1,2,3;
 4/5=1/1;
 5/5=2,6=10,38=6/2;
 8/5=-1,10=1,11=1/1;
 9/16=-3,33=1,75=2,81=25,83=4/6,4;
 6/7=2,8=2,9=2,10=2/1;
 99/5=1,9=1/99;
 -------
 TiO 3/\
 -------
 Symbolic Z-matrix:
 Charge =  0 Multiplicity = 3
 Ti
 O                    1     1.62022 
 
                          Input orientation:                          
 ---------------------------------------------------------------------
 Center     Atomic      Atomic             Coordinates (Angstroms)
 Number     Number       Type             X           Y           Z
 ---------------------------------------------------------------------
      1         22           0        0.000000    0.000000    0.000000
      2          8           0        0.000000    0.000000    1.620220
 ---------------------------------------------------------------------
 Stoichiometry    OTi(3)
 Framework group  C*V[C*(OTi)]
 Deg. of freedom     1
 Full point group                 C*V     NOp   4
 Largest Abelian subgroup         C2V     NOp   4
 Largest concise Abelian subgroup C1      NOp   1
                         Standard orientation:                         
 ---------------------------------------------------------------------
 Center     Atomic      Atomic             Coordinates (Angstroms)
 Number     Number       Type             X           Y           Z
 ---------------------------------------------------------------------
      1         22           0        0.000000    0.000000    0.432059
      2          8           0        0.000000    0.000000   -1.188161
 ---------------------------------------------------------------------
 Rotational constants (GHZ):      0.0000000     16.0512679     16.0512679
 General basis read from cards:  (5D, 7F)
 AO basis set in the form of general basis input (Overlap normalization):
      1 0
 S  19 1.00       0.000000000000
      0.3093397200D+08  0.4234591329D-06
      0.6044953820D+07  0.2500233199D-05
      0.1406439870D+07  0.1416657951D-04
      0.3808742470D+06  0.6480102538D-04
      0.1175827660D+06  0.2541017510D-03
      0.4060237120D+05  0.8692969262D-03
      0.1541310580D+05  0.2654925011D-02
      0.6332181620D+04  0.7360767086D-02
      0.2775933820D+04  0.1874283040D-01
      0.1282232770D+04  0.4395120447D-01
      0.6170838670D+03  0.9384239299D-01
      0.3063608960D+03  0.1766719309D+00
      0.1555492650D+03  0.2737907056D+00
      0.8016593300D+02  0.3028287172D+00
      0.4166923400D+02  0.1848157313D+00
      0.2172715900D+02  0.4184420217D-01
      0.1131405200D+02  0.2667653209D-02
      0.5862761000D+01  0.3696609412D-03
      0.3014652000D+01  0.1806560102D-04
 S  16 1.00       0.000000000000
      0.1541310580D+05 -0.2000068553D-05
      0.6332181620D+04 -0.1628143465D-04
      0.2775933820D+04 -0.9291660553D-04
      0.1282232770D+04 -0.5141120884D-03
      0.6170838670D+03 -0.2238851019D-02
      0.3063608960D+03 -0.8917513766D-02
      0.1555492650D+03 -0.2843936305D-01
      0.8016593300D+02 -0.6831153690D-01
      0.4166923400D+02 -0.7552064941D-01
      0.2172715900D+02  0.7467127219D-01
      0.1131405200D+02  0.4019305211D+00
      0.5862761000D+01  0.4803209291D+00
      0.3014652000D+01  0.1620583712D+00
      0.1535019000D+01  0.1187769476D-01
      0.7728540000D+00  0.1881608481D-02
      0.3844100000D+00  0.1604322276D-03
 P  16 1.00       0.000000000000
      0.4533295070D+05  0.3902315011D-05
      0.1169435910D+05  0.3240199356D-04
      0.3723173810D+04  0.2050784432D-03
      0.1391898900D+04  0.9772377453D-03
      0.5867660470D+03  0.3774748693D-02
      0.2700556900D+03  0.1224652149D-01
      0.1323256660D+03  0.3421394492D-01
      0.6772548500D+02  0.8269378056D-01
      0.3570066100D+02  0.1661146293D+00
      0.1918843900D+02  0.2645001665D+00
      0.1044071500D+02  0.3144652086D+00
      0.5720592000D+01  0.2281751323D+00
      0.3142031000D+01  0.7796544752D-01
      0.1721723000D+01  0.1030149505D-01
      0.9355130000D+00  0.7894200457D-03
      0.4997910000D+00  0.2205735295D-03
 S  14 1.00       0.000000000000
      0.6170838670D+03  0.5322469049D-05
      0.3063608960D+03  0.3005187127D-04
      0.1555492650D+03  0.2469518916D-03
      0.8016593300D+02  0.1165891645D-02
      0.4166923400D+02  0.2681554527D-02
      0.2172715900D+02 -0.1846075520D-02
      0.1131405200D+02 -0.5172498790D-01
      0.5862761000D+01 -0.1934622218D+00
      0.3014652000D+01 -0.7022929944D-01
      0.1535019000D+01  0.4015244198D+00
      0.7728540000D+00  0.5768182565D+00
      0.3844100000D+00  0.2185252618D+00
      0.1888080000D+00  0.7055723508D-02
      0.9157300000D-01  0.2268621534D-02
 P  14 1.00       0.000000000000
      0.5867660470D+03 -0.5867365744D-05
      0.2700556900D+03 -0.3951856726D-04
      0.1323256660D+03 -0.2661521795D-03
      0.6772548500D+02 -0.1222512852D-02
      0.3570066100D+02 -0.4282268841D-02
      0.1918843900D+02 -0.9948508168D-02
      0.1044071500D+02 -0.1916879440D-01
      0.5720592000D+01  0.2122349637D-02
      0.3142031000D+01  0.1276297999D+00
      0.1721723000D+01  0.2999805429D+00
      0.9355130000D+00  0.3706357039D+00
      0.4997910000D+00  0.2535879781D+00
      0.2594200000D+00  0.6770257652D-01
      0.1286960000D+00  0.5000316675D-02
 D  16 1.00       0.000000000000
      0.1491449740D+04  0.4647613080D-05
      0.4676672110D+03  0.4680834861D-04
      0.1802568120D+03  0.3040571320D-03
      0.8026452900D+02  0.1408035394D-02
      0.3937766900D+02  0.5074876400D-02
      0.2055730100D+02  0.1433085417D-01
      0.1114698300D+02  0.3339947961D-01
      0.6180321000D+01  0.7062636521D-01
      0.3471588000D+01  0.1294550321D+00
      0.1966233000D+01  0.1905965255D+00
      0.1120200000D+01  0.2310709511D+00
      0.6406530000D+00  0.2402235480D+00
      0.3664290000D+00  0.2118898932D+00
      0.2080390000D+00  0.1465381738D+00
      0.1156960000D+00  0.6132776033D-01
      0.6170700000D-01  0.8234166991D-02
 D   1 1.00       0.000000000000
      0.4088453399D-01  0.1000000000D+01
 D   1 1.00       0.000000000000
      0.1288000000D-01  0.1000000000D+01
 S  11 1.00       0.000000000000
      0.4166923400D+02 -0.7430173516D-04
      0.2172715900D+02  0.9954373533D-04
      0.1131405200D+02  0.1248266287D-02
      0.5862761000D+01  0.8227221970D-02
      0.3014652000D+01  0.5168787780D-03
      0.1535019000D+01 -0.2799066814D-01
      0.7728540000D+00 -0.1082136524D+00
      0.3844100000D+00 -0.2119039186D+00
      0.1888080000D+00  0.1241661751D+00
      0.9157300000D-01  0.7398507106D+00
      0.4386900000D-01  0.3407873839D+00
 S   1 1.00       0.000000000000
      0.3468066937D-01  0.1000000000D+01
 S   1 1.00       0.000000000000
      0.1302400000D-01  0.1000000000D+01
 P  11 1.00       0.000000000000
      0.3570066100D+02  0.1516553016D-02
      0.1918843900D+02 -0.1055226724D-02
      0.1044071500D+02  0.9369863391D-02
      0.5720592000D+01 -0.1637669940D-01
      0.3142031000D+01  0.2128086630D-01
      0.1721723000D+01 -0.7338130343D-01
      0.9355130000D+00  0.7804168842D-01
      0.4997910000D+00 -0.4834264406D+00
      0.2594200000D+00 -0.1106826475D+00
      0.1286960000D+00 -0.8257091522D-01
      0.5906020050D-01 -0.5694513510D+00
 P   1 1.00       0.000000000000
      0.6188057483D-01  0.1000000000D+01
 P   1 1.00       0.000000000000
      0.1693100000D-01  0.1000000000D+01
 S   1 1.00       0.000000000000
      0.4132324000D+01  0.1000000000D+01
 S   1 1.00       0.000000000000
      0.2139468000D+01  0.1000000000D+01
 S   1 1.00       0.000000000000
      0.1107688000D+01  0.1000000000D+01
 S   1 1.00       0.000000000000
      0.5734940000D+00  0.1000000000D+01
 S   1 1.00       0.000000000000
      0.2969210000D+00  0.1000000000D+01
 S   1 1.00       0.000000000000
      0.1537280000D+00  0.1000000000D+01
 P   1 1.00       0.000000000000
      0.1701521000D+01  0.1000000000D+01
 P   1 1.00       0.000000000000
      0.9998930000D+00  0.1000000000D+01
 P   1 1.00       0.000000000000
      0.5875840000D+00  0.1000000000D+01
 P   1 1.00       0.000000000000
      0.3452920000D+00  0.1000000000D+01
 P   1 1.00       0.000000000000
      0.2029100000D+00  0.1000000000D+01
 P   1 1.00       0.000000000000
      0.1192390000D+00  0.1000000000D+01
 D   1 1.00       0.000000000000
      0.3111776000D+01  0.1000000000D+01
 D   1 1.00       0.000000000000
      0.1566445000D+01  0.1000000000D+01
 D   1 1.00       0.000000000000
      0.7885370000D+00  0.1000000000D+01
 D   1 1.00       0.000000000000
      0.3969430000D+00  0.1000000000D+01
 D   1 1.00       0.000000000000
      0.1998180000D+00  0.1000000000D+01
 D   1 1.00       0.000000000000
      0.1005870000D+00  0.1000000000D+01
 F   1 1.00       0.000000000000
      0.9884164000D+01  0.1000000000D+01
 F   1 1.00       0.000000000000
      0.4462610000D+01  0.1000000000D+01
 F   1 1.00       0.000000000000
      0.2014828000D+01  0.1000000000D+01
 F   1 1.00       0.000000000000
      0.9096760000D+00  0.1000000000D+01
 F   1 1.00       0.000000000000
      0.4107110000D+00  0.1000000000D+01
 F   1 1.00       0.000000000000
      0.1854320000D+00  0.1000000000D+01
 F   1 1.00       0.000000000000
      0.8372000000D-01  0.1000000000D+01
 G   1 1.00       0.000000000000
      0.6789106000D+01  0.1000000000D+01
 G   1 1.00       0.000000000000
      0.3035888000D+01  0.1000000000D+01
 G   1 1.00       0.000000000000
      0.1357559000D+01  0.1000000000D+01
 G   1 1.00       0.000000000000
      0.6070600000D+00  0.1000000000D+01
 G   1 1.00       0.000000000000
      0.2714590000D+00  0.1000000000D+01
 G   1 1.00       0.000000000000
      0.1213880000D+00  0.1000000000D+01
 H   1 1.00       0.000000000000
      0.5309074000D+01  0.1000000000D+01
 H   1 1.00       0.000000000000
      0.2184678000D+01  0.1000000000D+01
 H   1 1.00       0.000000000000
      0.8989930000D+00  0.1000000000D+01
 H   1 1.00       0.000000000000
      0.3699350000D+00  0.1000000000D+01
 H   1 1.00       0.000000000000
      0.1522270000D+00  0.1000000000D+01
 I   1 1.00       0.000000000000
      0.4025066000D+01  0.1000000000D+01
 I   1 1.00       0.000000000000
      0.1486593000D+01  0.1000000000D+01
 I   1 1.00       0.000000000000
      0.5490490000D+00  0.1000000000D+01
 I   1 1.00       0.000000000000
      0.2027820000D+00  0.1000000000D+01
 J   1 1.00       0.000000000000
      0.2320490000D+01  0.1000000000D+01
 J   1 1.00       0.000000000000
      0.7598860000D+00  0.1000000000D+01
 J   1 1.00       0.000000000000
      0.2488380000D+00  0.1000000000D+01
 K   1 1.00       0.000000000000
      0.1127537136D+01  0.1000000000D+01
 ****
      2 0
 S  16 1.00       0.000000000000
      0.1411246410D+07  0.1627429822D-05
      0.2499102240D+06  0.1092621996D-04
      0.5603410580D+05  0.6238741867D-04
      0.1521153640D+05  0.2783303491D-03
      0.4812287750D+04  0.1040541872D-02
      0.1717755460D+04  0.3380392793D-02
      0.6733958240D+03  0.9828484765D-02
      0.2835101840D+03  0.2605310129D-01
      0.1258620070D+03  0.6280818057D-01
      0.5804472200D+02  0.1348202075D+00
      0.2747198500D+02  0.2435563460D+00
      0.1321062900D+02  0.3323287378D+00
      0.6399806000D+01  0.2607930483D+00
      0.3099614000D+01  0.7430834326D-01
      0.1489856000D+01  0.4189538074D-02
      0.7052010000D+00  0.8706455725D-03
 S  11 1.00       0.000000000000
      0.2835101840D+03 -0.1122588094D-03
      0.1258620070D+03 -0.5559335617D-03
      0.5804472200D+02 -0.2851687904D-02
      0.2747198500D+02 -0.1133494995D-01
      0.1321062900D+02 -0.3657977704D-01
      0.6399806000D+01 -0.7288994197D-01
      0.3099614000D+01 -0.1062032356D-01
      0.1489856000D+01  0.2196705572D+00
      0.7052010000D+00  0.4294832072D+00
      0.3258480000D+00  0.3775832849D+00
      0.1454600000D+00  0.9640261255D-01
 S   1 1.00       0.000000000000
      0.5814297870D-01  0.1000000000D+01
 P  13 1.00       0.000000000000
      0.2085279200D+04  0.1447911740D-04
      0.5101470830D+03  0.1283233588D-03
      0.1616811510D+03  0.7792790007D-03
      0.6114945200D+02  0.3400506049D-02
      0.2597660200D+02  0.1157685214D-01
      0.1187542600D+02  0.3269740339D-01
      0.5677133000D+01  0.8011404242D-01
      0.2786475000D+01  0.1605265057D+00
      0.1387844000D+01  0.2460495026D+00
      0.6952810000D+00  0.2898982926D+00
      0.3470020000D+00  0.2606799382D+00
      0.1700990000D+00  0.1479363112D+00
      0.8008000000D-01  0.2980261453D-01
 P   1 1.00       0.000000000000
      0.4261436033D-01  0.1000000000D+01
 S   1 1.00       0.000000000000
      0.4249866000D+01  0.1000000000D+01
 S   1 1.00       0.000000000000
      0.2167470000D+01  0.1000000000D+01
 S   1 1.00       0.000000000000
      0.1105429000D+01  0.1000000000D+01
 S   1 1.00       0.000000000000
      0.5637790000D+00  0.1000000000D+01
 S   1 1.00       0.000000000000
      0.2875320000D+00  0.1000000000D+01
 S   1 1.00       0.000000000000
      0.1466440000D+00  0.1000000000D+01
 P   1 1.00       0.000000000000
      0.5659724000D+01  0.1000000000D+01
 P   1 1.00       0.000000000000
      0.2575878000D+01  0.1000000000D+01
 P   1 1.00       0.000000000000
      0.1172344000D+01  0.1000000000D+01
 P   1 1.00       0.000000000000
      0.5335620000D+00  0.1000000000D+01
 P   1 1.00       0.000000000000
      0.2428370000D+00  0.1000000000D+01
 P   1 1.00       0.000000000000
      0.1105210000D+00  0.1000000000D+01
 D   1 1.00       0.000000000000
      0.9464211000D+01  0.1000000000D+01
 D   1 1.00       0.000000000000
      0.4752286000D+01  0.1000000000D+01
 D   1 1.00       0.000000000000
      0.2386276000D+01  0.1000000000D+01
 D   1 1.00       0.000000000000
      0.1198226000D+01  0.1000000000D+01
 D   1 1.00       0.000000000000
      0.6016680000D+00  0.1000000000D+01
 D   1 1.00       0.000000000000
      0.3021170000D+00  0.1000000000D+01
 D   1 1.00       0.000000000000
      0.1517020000D+00  0.1000000000D+01
 F   1 1.00       0.000000000000
      0.7001836000D+01  0.1000000000D+01
 F   1 1.00       0.000000000000
      0.3552509000D+01  0.1000000000D+01
 F   1 1.00       0.000000000000
      0.1802430000D+01  0.1000000000D+01
 F   1 1.00       0.000000000000
      0.9144960000D+00  0.1000000000D+01
 F   1 1.00       0.000000000000
      0.4639860000D+00  0.1000000000D+01
 F   1 1.00       0.000000000000
      0.2354110000D+00  0.1000000000D+01
 G   1 1.00       0.000000000000
      0.6472481000D+01  0.1000000000D+01
 G   1 1.00       0.000000000000
      0.3119071000D+01  0.1000000000D+01
 G   1 1.00       0.000000000000
      0.1503072000D+01  0.1000000000D+01
 G   1 1.00       0.000000000000
      0.7243260000D+00  0.1000000000D+01
 G   1 1.00       0.000000000000
      0.3490500000D+00  0.1000000000D+01
 H   1 1.00       0.000000000000
      0.5355083000D+01  0.1000000000D+01
 H   1 1.00       0.000000000000
      0.2414696000D+01  0.1000000000D+01
 H   1 1.00       0.000000000000
      0.1088827000D+01  0.1000000000D+01
 H   1 1.00       0.000000000000
      0.4909703000D+00  0.1000000000D+01
 I   1 1.00       0.000000000000
      0.4322113000D+01  0.1000000000D+01
 I   1 1.00       0.000000000000
      0.1716263000D+01  0.1000000000D+01
 I   1 1.00       0.000000000000
      0.6815089000D+00  0.1000000000D+01
 J   1 1.00       0.000000000000
      0.3060973723D+01  0.1000000000D+01
 ****

 There are   207 symmetry adapted basis functions of A1  symmetry.
 There are   106 symmetry adapted basis functions of A2  symmetry.
 There are   151 symmetry adapted basis functions of B1  symmetry.
 There are   151 symmetry adapted basis functions of B2  symmetry.
 Integral buffers will be    131072 words long.
 Raffenetti 2 integral format.
 Two-electron integral symmetry is turned on.
   615 basis functions,  1364 primitive gaussians,  1043 cartesian basis functions
    16 alpha electrons       14 beta electrons
       nuclear repulsion energy        57.4830508893 Hartrees.
 NAtoms=    2 NActive=    2 NUniq=    2 SFac= 7.50D-01 NAtFMM=   80 NAOKFM=F Big=F
 One-electron integrals computed using PRISM.
 NBasis=   615 RedAO= F  NBF=   207   106   151   151
 NBsUse=   615 1.00D-04 NBFU=   207   106   151   151
 Initial guess read from the checkpoint file:  TiO_3D.chk
 B after Tr=     0.000000    0.000000    0.000000
         Rot=    1.000000    0.000000    0.000000    0.000000 Ang=   0.00 deg.
 Initial guess orbital symmetries:
       Occupied  (SG) (SG) (SG) (SG) (PI) (PI) (SG) (SG) (PI) (PI)
                 (SG) (SG) (PI) (PI) (SG) (?A)
       Virtual   (PI) (PI) (SG) (SG) (?A) (?A) (PI) (PI) (SG) (PI)
                 (PI) (SG) (?A) (SG) (?A) (PI) (PI) (SG) (PI) (PI)
                 (SG) (?A) (PI) (PI) (SG) (PI) (PI) (DLTA) (DLTA)
                 (SG) (PHI) (PHI) (PI) (PI) (SG) (SG) (?A) (?A)
                 (PI) (PI) (SG) (PI) (PI) (SG) (PI) (PI) (DLTA)
                 (DLTA) (PHI) (PHI) (?B) (?B) (DLTA) (DLTA) (SG)
                 (SG) (PI) (PI) (SG) (SG) (PI) (PI) (PHI) (PHI)
                 (DLTA) (DLTA) (PHI) (PHI) (?C) (?C) (?B) (?B)
                 (?A) (PI) (PI) (?A) (SG) (PI) (PI) (SG) (?A) (?A)
                 (PI) (PI) (SG) (SG) (PI) (PI) (PHI) (PHI) (SG)
                 (DLTA) (DLTA) (SG) (PI) (PI) (DLTA) (DLTA) (PI)
                 (PI) (?B) (?B) (SG) (SG) (?C) (?C) (PHI) (PHI)
                 (?D) (PI) (PI) (?D) (?D) (SG) (DLTA) (DLTA) (PHI)
                 (PHI) (SG) (DLTA) (DLTA) (?E) (?E) (?E) (?E) (SG)
                 (PI) (PI) (DLTA) (DLTA) (SG) (SG) (?B) (?B) (PI)
                 (PI) (PHI) (PHI) (DLTA) (PI) (PI) (SG) (DLTA)
                 (PI) (PI) (?F) (?F) (SG) (PHI) (PHI) (?F) (?F)
                 (?G) (?C) (?C) (?G) (?G) (PI) (PI) (SG) (PI) (PI)
                 (PHI) (PHI) (DLTA) (DLTA) (SG) (?C) (?C) (PI)
                 (PI) (PI) (PI) (SG) (DLTA) (DLTA) (?B) (?B) (DLTA)
                 (DLTA) (PHI) (PHI) (SG) (?B) (?B) (PI) (PI) (PHI)
                 (PHI) (SG) (SG) (PI) (PI) (DLTA) (DLTA) (PHI)
                 (PHI) (SG) (SG) (?C) (?C) (SG) (?B) (?B) (DLTA)
                 (DLTA) (PI) (PI) (?E) (?E) (?E) (?E) (SG) (SG)
                 (DLTA) (DLTA) (PI) (PI) (?B) (?B) (PHI) (PHI)
                 (PI) (PI) (SG) (SG) (PHI) (PHI) (?F) (?F) (?F)
                 (?F) (SG) (PI) (PI) (SG) (PI) (PI) (DLTA) (DLTA)
                 (DLTA) (DLTA) (SG) (PI) (PI) (?C) (?C) (?H) (?H)
                 (?H) (PI) (PI) (PHI) (PHI) (DLTA) (DLTA) (SG)
                 (PI) (PI) (?I) (?I) (SG) (SG) (?C) (?C) (?B) (?B)
                 (PHI) (PHI) (SG) (DLTA) (DLTA) (SG) (?C) (?C)
                 (?B) (?B) (?B) (?B) (PHI) (PHI) (PI) (PI) (DLTA)
                 (DLTA) (PI) (PI) (PHI) (PHI) (PI) (PI) (SG) (DLTA)
                 (DLTA) (PHI) (PHI) (PI) (PI) (SG) (DLTA) (DLTA)
                 (SG) (PI) (PI) (PHI) (PHI) (SG) (DLTA) (DLTA)
                 (?B) (?B) (PHI) (PHI) (SG) (PI) (PI) (DLTA) (DLTA)
                 (SG) (SG) (PI) (PI) (?C) (?C) (SG) (SG) (?B) (?B)
                 (?E) (?E) (?E) (?E) (DLTA) (DLTA) (SG) (PI) (PI)
                 (SG) (DLTA) (DLTA) (PI) (PI) (DLTA) (DLTA) (SG)
                 (PI) (PI) (SG) (SG) (?C) (?C) (SG) (SG) (?B) (?B)
                 (PHI) (PHI) (DLTA) (DLTA) (PI) (PI) (SG) (?C)
                 (?C) (?B) (?B) (PHI) (PHI) (DLTA) (DLTA) (PI)
                 (PI) (SG) (?C) (?C) (?B) (?B) (PHI) (PHI) (?B)
                 (?B) (DLTA) (DLTA) (PHI) (PHI) (SG) (PI) (PI)
                 (DLTA) (DLTA) (PI) (PI) (SG) (PHI) (PHI) (PHI)
                 (PHI) (DLTA) (DLTA) (DLTA) (DLTA) (SG) (PI) (PI)
                 (PI) (PI) (SG) (?B) (?B) (PHI) (PHI) (DLTA) (DLTA)
                 (PI) (PI) (SG) (PI) (PI) (SG) (DLTA) (DLTA) (PI)
                 (PI) (SG) (SG) (SG) (SG) (PI) (PI) (SG) (SG) (PI)
                 (PI) (DLTA) (DLTA) (SG) (PI) (PI) (SG) (PI) (PI)
                 (SG) (SG) (SG) (SG) (SG) (PI) (PI) (PI) (PI) (PI)
                 (PI) (PI) (PI) (PI) (PI) (DLTA) (DLTA) (SG) (DLTA)
                 (DLTA) (DLTA) (DLTA) (DLTA) (DLTA) (PI) (PI) (DLTA)
                 (DLTA) (PHI) (PHI) (PI) (PI) (PHI) (PHI) (PI)
                 (PI) (PHI) (PHI) (SG) (PI) (PI) (DLTA) (DLTA)
                 (PHI) (PHI) (?B) (?B) (SG) (DLTA) (DLTA) (DLTA)
                 (DLTA) (PHI) (PHI) (?B) (?B) (SG) (PI) (PI) (DLTA)
                 (DLTA) (PHI) (PHI) (?B) (?B) (?C) (?C) (SG) (PHI)
                 (PHI) (?B) (?B) (SG) (DLTA) (DLTA) (SG) (PI) (PI)
                 (DLTA) (DLTA) (PHI) (PHI) (?B) (?B) (?C) (?C)
                 (SG) (SG) (?C) (?C) (PHI) (PHI) (SG) (PI) (PI)
                 (DLTA) (DLTA) (PHI) (PHI) (?B) (?B) (?C) (?C)
                 (SG) (SG) (?I) (?I) (PHI) (PHI) (?B) (?B) (?C)
                 (?C) (SG) (SG) (?I) (?I) (DLTA) (DLTA) (PHI) (PHI)
                 (?B) (?B) (?C) (?C) (SG) (SG) (?I) (?I) (?J) (?J)
                 (DLTA) (DLTA) (?B) (?B) (SG) (?C) (?C) (PI) (PI)
                 (PHI) (PHI) (?B) (?B) (?C) (?C) (SG) (SG) (SG)
                 (SG) (?B) (?B) (?C) (?C) (SG) (SG) (?I) (?I)
 Requested convergence on RMS density matrix=1.00D-10 within 128 cycles.
 Requested convergence on MAX density matrix=1.00D-08.
 Requested convergence on             energy=1.00D-08.
 No special actions if energy rises.
 SCF Done:  E(ROHF) =  -923.320982312     A.U. after   18 cycles
             Convg  =    0.2823D-10             -V/T =  2.0001
 <Sx>= 0.0000 <Sy>= 0.0000 <Sz>= 1.0000 <S**2>= 2.0000 S= 1.0000
 <L.S>= 0.000000000000E+00
 Annihilation of the first spin contaminant:
 S**2 before annihilation     2.0000,   after     2.0000
 DiagDN has N=   615 LTot=  1877 but NE2=     3 cannot use DSYEVD.
 GenMOA:  NOpAll=  4 NOp2=4 NOpUse=  4 JSym2X=1
 <Sx>= 0.0000 <Sy>= 0.0000 <Sz>= 1.0000 <S**2>= 2.0000 S= 1.0000
 ExpMin= 1.29D-02 ExpMax= 3.09D+07 ExpMxC= 2.78D+03 IAcc=3 IRadAn=         5 AccDes= 0.00D+00
 HarFok:  IExCor=  205 AccDes= 0.00D+00 IRadAn=         5 IDoV=-2
 ScaDFX=  1.000000  1.000000  1.000000  1.000000
 Range of M.O.s used for correlation:    11   615
 NBasis=   615 NAE=    16 NBE=    14 NFC=    10 NFV=     0
 NROrb=    605 NOA=     6 NOB=     4 NVA=   599 NVB=   601

 **** Warning!!: The largest alpha MO coefficient is  0.27357075D+03


 **** Warning!!: The largest beta MO coefficient is  0.27388061D+03

 Singles contribution to E2=   -0.5085575706D-03
 Disk-based method using OVN memory for  6 occupieds at a time.
 Permanent disk used for amplitudes and <ij||ab> integrals=    24816582 words.
 Estimated scratch disk usage=  5010848982 words.
 IUseRI=2 ITolRI= 6 IR12RI=0
 Actual    scratch disk usage=  4994166602 words.
 GetIJB would need an additional  4846600050 words of memory to use all  16 processors.
 JobTyp=2 Pass  1:  I=   1 to   6 NPSUse= 10 ParTrn=T ParDer=T DoDerP=F.
 T,EIJ(AA): I=   1 J=   2      0.8418736E-03     -0.3686047E-02
 T,EIJ(AA): I=   1 J=   3      0.1639281E-03     -0.8165257E-03
 T,EIJ(AA): I=   1 J=   4      0.9299188E-03     -0.3810585E-02
 T,EIJ(AA): I=   1 J=   5      0.9299188E-03     -0.3810585E-02
 T,EIJ(AA): I=   1 J=   6      0.1217933E-03     -0.3304416E-03
 T,EIJ(AA): I=   2 J=   3      0.8374510E-03     -0.2470875E-02
 T,EIJ(AA): I=   2 J=   4      0.5522232E-02     -0.1286411E-01
 T,EIJ(AA): I=   2 J=   5      0.5522232E-02     -0.1286411E-01
 T,EIJ(AA): I=   2 J=   6      0.7557357E-03     -0.1374954E-02
 T,EIJ(AA): I=   3 J=   4      0.7187980E-03     -0.1828474E-02
 T,EIJ(AA): I=   3 J=   5      0.7187980E-03     -0.1828474E-02
 T,EIJ(AA): I=   3 J=   6      0.1515715E-02     -0.3247861E-02
 T,EIJ(AA): I=   4 J=   5      0.5055980E-02     -0.1189321E-01
 T,EIJ(AA): I=   4 J=   6      0.8950682E-03     -0.1389460E-02
 T,EIJ(AA): I=   5 J=   6      0.8950682E-03     -0.1389460E-02
 T,EIJ(AB): I=   1 J=   1      0.1956355E-02     -0.1235496E-01
 T,EIJ(AB): I=   1 J=   2      0.2254549E-02     -0.1181475E-01
 T,EIJ(AB): I=   1 J=   3      0.2285652E-02     -0.1171270E-01
 T,EIJ(AB): I=   1 J=   4      0.2285652E-02     -0.1171270E-01
 T,EIJ(AB): I=   2 J=   1      0.2252710E-02     -0.1181573E-01
 T,EIJ(AB): I=   2 J=   2      0.1069549E-01     -0.3035645E-01
 T,EIJ(AB): I=   2 J=   3      0.6359452E-02     -0.1626415E-01
 T,EIJ(AB): I=   2 J=   4      0.6359452E-02     -0.1626415E-01
 T,EIJ(AB): I=   3 J=   1      0.2024439E-03     -0.1079869E-02
 T,EIJ(AB): I=   3 J=   2      0.1169890E-02     -0.3657249E-02
 T,EIJ(AB): I=   3 J=   3      0.8625836E-03     -0.2307262E-02
 T,EIJ(AB): I=   3 J=   4      0.8625836E-03     -0.2307262E-02
 T,EIJ(AB): I=   4 J=   1      0.2288926E-02     -0.1170185E-01
 T,EIJ(AB): I=   4 J=   2      0.6332095E-02     -0.1624990E-01
 T,EIJ(AB): I=   4 J=   3      0.1024614E-01     -0.2806161E-01
 T,EIJ(AB): I=   4 J=   4      0.6365116E-02     -0.1590144E-01
 T,EIJ(AB): I=   5 J=   1      0.2288926E-02     -0.1170185E-01
 T,EIJ(AB): I=   5 J=   2      0.6332095E-02     -0.1624990E-01
 T,EIJ(AB): I=   5 J=   3      0.6365116E-02     -0.1590144E-01
 T,EIJ(AB): I=   5 J=   4      0.1024614E-01     -0.2806161E-01
 T,EIJ(AB): I=   6 J=   1      0.1903586E-03     -0.5440381E-03
 T,EIJ(AB): I=   6 J=   2      0.1375801E-02     -0.2321223E-02
 T,EIJ(AB): I=   6 J=   3      0.1120990E-02     -0.1756063E-02
 T,EIJ(AB): I=   6 J=   4      0.1120990E-02     -0.1756063E-02
 Actual    scratch disk usage=  5010841814 words.
 GetIJB would need an additional  4846568760 words of memory to use all  16 processors.
 JobTyp=3 Pass  1:  I=   1 to   4 NPSUse= 10 ParTrn=T ParDer=T DoDerP=F.
 T,EIJ(BB): I=   1 J=   2      0.8415520E-03     -0.3697369E-02
 T,EIJ(BB): I=   1 J=   3      0.9268682E-03     -0.3809089E-02
 T,EIJ(BB): I=   1 J=   4      0.9268682E-03     -0.3809089E-02
 T,EIJ(BB): I=   2 J=   3      0.5331113E-02     -0.1276511E-01
 T,EIJ(BB): I=   2 J=   4      0.5331113E-02     -0.1276511E-01
 T,EIJ(BB): I=   3 J=   4      0.4921796E-02     -0.1183110E-01
 Spin components of T(2) and E(2):
     alpha-alpha T2 =       0.2542451132D-01 E2=     -0.6360517253D-01
     alpha-beta  T2 =       0.9181951206D-01 E2=     -0.2818542299D+00
     beta-beta   T2 =       0.1827931062D-01 E2=     -0.4867686112D-01
 ANorm=    0.1065929616D+01
 E2 =    -0.3946448211D+00 EUMP2 =    -0.92371562713308D+03

 Complete Basis Set (CBS) Extrapolation:
 M. R. Nyden and G. A. Petersson, JCP 75, 1843 (1981)
 G. A. Petersson and M. A. Al-Laham, JCP 94, 6081 (1991)
 G. A. Petersson, T. Tensfeldt, and J. A. Montgomery, JCP 94, 6091 (1991)
 J. A. Montgomery, J. W. Ochterski, and G. A. Petersson, JCP 101, 5900 (1994)
 
 Minimum Number of PNO for Extrapolation =  25
 Absolute Overlaps: IRadAn =         5
 LocTrn: ILocal=3 LocCor=F DoCore=F.
 Entering OneElI...
 Overlap between basis sets.
 Requested accuracy = 0.1000D-12
 PrsmSu:  NPrtUS=   1 ThrOK=F IAlg=1
 PRISM was handed  8588078585 working-precision words and    47 shell-pairs
 IPart=  0 NShTot=          47 NBatch=          10 AvBLen=         4.7
 CnvPC2: ToCart=F DoDens=F IPureD=0 IPureF=0.
 Transformed matrix in CnvPC2: 
                 1             2             3             4             5 
      1   0.100000D+01  0.371775D+00  0.000000D+00  0.000000D+00  0.000000D+00
      2   0.371775D+00  0.100000D+01  0.000000D+00  0.000000D+00  0.000000D+00
      3   0.000000D+00  0.000000D+00  0.100000D+01  0.000000D+00  0.000000D+00
      4   0.000000D+00  0.000000D+00  0.000000D+00  0.100000D+01  0.000000D+00
      5   0.000000D+00  0.000000D+00  0.000000D+00  0.000000D+00  0.100000D+01
      6   0.223608D-01  0.300384D+00  0.000000D+00  0.000000D+00  0.000000D+00
      7   0.000000D+00  0.000000D+00  0.313309D+00  0.000000D+00  0.000000D+00
      8   0.000000D+00  0.000000D+00  0.000000D+00  0.313309D+00  0.000000D+00
      9   0.000000D+00  0.000000D+00  0.000000D+00  0.000000D+00  0.313309D+00
     10   0.000000D+00  0.000000D+00  0.000000D+00  0.000000D+00  0.000000D+00
     11   0.000000D+00  0.000000D+00  0.000000D+00  0.000000D+00  0.000000D+00
     12   0.000000D+00  0.000000D+00  0.000000D+00  0.000000D+00  0.000000D+00
     13   0.000000D+00  0.000000D+00  0.000000D+00  0.000000D+00  0.000000D+00
     14   0.000000D+00  0.000000D+00  0.000000D+00  0.000000D+00  0.000000D+00
     15  -0.412730D-03  0.136941D-01  0.000000D+00  0.000000D+00  0.000000D+00
     16   0.000000D+00  0.000000D+00  0.250808D-01  0.000000D+00  0.000000D+00
     17   0.000000D+00  0.000000D+00  0.000000D+00  0.250808D-01  0.000000D+00
     18   0.000000D+00  0.000000D+00  0.000000D+00  0.000000D+00  0.250808D-01
     19   0.000000D+00  0.000000D+00  0.000000D+00  0.000000D+00  0.000000D+00
     20   0.952585D-03  0.708797D-02  0.000000D+00  0.000000D+00 -0.417344D-02
     21   0.000000D+00  0.000000D+00  0.124272D-02  0.000000D+00  0.000000D+00
     22   0.000000D+00  0.000000D+00  0.000000D+00  0.124272D-02  0.000000D+00
     23   0.200983D-02  0.142937D-01  0.000000D+00  0.000000D+00 -0.734685D-02
                 6             7             8             9            10 
      1   0.223608D-01  0.000000D+00  0.000000D+00  0.000000D+00  0.000000D+00
      2   0.300384D+00  0.000000D+00  0.000000D+00  0.000000D+00  0.000000D+00
      3   0.000000D+00  0.313309D+00  0.000000D+00  0.000000D+00  0.000000D+00
      4   0.000000D+00  0.000000D+00  0.313309D+00  0.000000D+00  0.000000D+00
      5   0.000000D+00  0.000000D+00  0.000000D+00  0.313309D+00  0.000000D+00
      6   0.100000D+01  0.000000D+00  0.000000D+00  0.000000D+00  0.000000D+00
      7   0.000000D+00  0.100000D+01  0.000000D+00  0.000000D+00  0.000000D+00
      8   0.000000D+00  0.000000D+00  0.100000D+01  0.000000D+00  0.000000D+00
      9   0.000000D+00  0.000000D+00  0.000000D+00  0.100000D+01  0.000000D+00
     10   0.000000D+00  0.000000D+00  0.000000D+00  0.000000D+00  0.100000D+01
     11   0.000000D+00  0.000000D+00  0.000000D+00  0.000000D+00  0.000000D+00
     12   0.000000D+00  0.000000D+00  0.000000D+00  0.000000D+00  0.000000D+00
     13   0.000000D+00  0.000000D+00  0.000000D+00  0.000000D+00  0.000000D+00
     14   0.000000D+00  0.000000D+00  0.000000D+00  0.000000D+00  0.000000D+00
     15   0.395149D+00  0.000000D+00  0.000000D+00  0.000000D+00  0.000000D+00
     16   0.000000D+00  0.407435D+00  0.000000D+00  0.000000D+00  0.000000D+00
     17   0.000000D+00  0.000000D+00  0.407435D+00  0.000000D+00  0.000000D+00
     18   0.000000D+00  0.000000D+00  0.000000D+00  0.407435D+00  0.000000D+00
     19   0.106755D-02  0.000000D+00  0.000000D+00 -0.256025D-02  0.443021D-01
     20   0.766530D-01  0.000000D+00  0.000000D+00 -0.990419D-01  0.311157D+00
     21   0.000000D+00  0.318060D-01  0.000000D+00  0.000000D+00  0.000000D+00
     22   0.000000D+00  0.000000D+00  0.318060D-01  0.000000D+00  0.000000D+00
     23   0.119839D+00  0.000000D+00  0.000000D+00 -0.142519D+00  0.222986D+00
                11            12            13            14            15 
      1   0.000000D+00  0.000000D+00  0.000000D+00  0.000000D+00 -0.412730D-03
      2   0.000000D+00  0.000000D+00  0.000000D+00  0.000000D+00  0.136941D-01
      3   0.000000D+00  0.000000D+00  0.000000D+00  0.000000D+00  0.000000D+00
      4   0.000000D+00  0.000000D+00  0.000000D+00  0.000000D+00  0.000000D+00
      5   0.000000D+00  0.000000D+00  0.000000D+00  0.000000D+00  0.000000D+00
      6   0.000000D+00  0.000000D+00  0.000000D+00  0.000000D+00  0.395149D+00
      7   0.000000D+00  0.000000D+00  0.000000D+00  0.000000D+00  0.000000D+00
      8   0.000000D+00  0.000000D+00  0.000000D+00  0.000000D+00  0.000000D+00
      9   0.000000D+00  0.000000D+00  0.000000D+00  0.000000D+00  0.000000D+00
     10   0.000000D+00  0.000000D+00  0.000000D+00  0.000000D+00  0.000000D+00
     11   0.100000D+01  0.000000D+00  0.000000D+00  0.000000D+00  0.000000D+00
     12   0.000000D+00  0.100000D+01  0.000000D+00  0.000000D+00  0.000000D+00
     13   0.000000D+00  0.000000D+00  0.100000D+01  0.000000D+00  0.000000D+00
     14   0.000000D+00  0.000000D+00  0.000000D+00  0.100000D+01  0.000000D+00
     15   0.000000D+00  0.000000D+00  0.000000D+00  0.000000D+00  0.100000D+01
     16   0.000000D+00  0.000000D+00  0.000000D+00  0.000000D+00  0.000000D+00
     17   0.000000D+00  0.000000D+00  0.000000D+00  0.000000D+00  0.000000D+00
     18   0.000000D+00  0.000000D+00  0.000000D+00  0.000000D+00  0.000000D+00
     19   0.000000D+00  0.000000D+00  0.000000D+00  0.000000D+00  0.349411D-01
     20   0.000000D+00  0.000000D+00  0.000000D+00  0.000000D+00  0.316755D+00
     21  -0.192399D+00  0.000000D+00  0.000000D+00  0.000000D+00  0.000000D+00
     22   0.000000D+00 -0.192399D+00  0.000000D+00  0.000000D+00  0.000000D+00
     23   0.000000D+00  0.000000D+00  0.000000D+00  0.000000D+00  0.171516D+00
                16            17            18            19            20 
      1   0.000000D+00  0.000000D+00  0.000000D+00  0.000000D+00  0.952585D-03
      2   0.000000D+00  0.000000D+00  0.000000D+00  0.000000D+00  0.708797D-02
      3   0.250808D-01  0.000000D+00  0.000000D+00  0.000000D+00  0.000000D+00
      4   0.000000D+00  0.250808D-01  0.000000D+00  0.000000D+00  0.000000D+00
      5   0.000000D+00  0.000000D+00  0.250808D-01  0.000000D+00 -0.417344D-02
      6   0.000000D+00  0.000000D+00  0.000000D+00  0.106755D-02  0.766530D-01
      7   0.407435D+00  0.000000D+00  0.000000D+00  0.000000D+00  0.000000D+00
      8   0.000000D+00  0.407435D+00  0.000000D+00  0.000000D+00  0.000000D+00
      9   0.000000D+00  0.000000D+00  0.407435D+00 -0.256025D-02 -0.990419D-01
     10   0.000000D+00  0.000000D+00  0.000000D+00  0.443021D-01  0.311157D+00
     11   0.000000D+00  0.000000D+00  0.000000D+00  0.000000D+00  0.000000D+00
     12   0.000000D+00  0.000000D+00  0.000000D+00  0.000000D+00  0.000000D+00
     13   0.000000D+00  0.000000D+00  0.000000D+00  0.000000D+00  0.000000D+00
     14   0.000000D+00  0.000000D+00  0.000000D+00  0.000000D+00  0.000000D+00
     15   0.000000D+00  0.000000D+00  0.000000D+00  0.349411D-01  0.316755D+00
     16   0.100000D+01  0.000000D+00  0.000000D+00  0.000000D+00  0.000000D+00
     17   0.000000D+00  0.100000D+01  0.000000D+00  0.000000D+00  0.000000D+00
     18   0.000000D+00  0.000000D+00  0.100000D+01 -0.603651D-01 -0.470274D+00
     19   0.000000D+00  0.000000D+00 -0.603651D-01  0.100000D+01  0.236704D+00
     20   0.000000D+00  0.000000D+00 -0.470274D+00  0.236704D+00  0.100000D+01
     21   0.164366D+00  0.000000D+00  0.000000D+00  0.000000D+00  0.000000D+00
     22   0.000000D+00  0.164366D+00  0.000000D+00  0.000000D+00  0.000000D+00
     23   0.000000D+00  0.000000D+00 -0.223635D+00  0.000000D+00  0.000000D+00
                21            22            23 
      1   0.000000D+00  0.000000D+00  0.200983D-02
      2   0.000000D+00  0.000000D+00  0.142937D-01
      3   0.124272D-02  0.000000D+00  0.000000D+00
      4   0.000000D+00  0.124272D-02  0.000000D+00
      5   0.000000D+00  0.000000D+00 -0.734685D-02
      6   0.000000D+00  0.000000D+00  0.119839D+00
      7   0.318060D-01  0.000000D+00  0.000000D+00
      8   0.000000D+00  0.318060D-01  0.000000D+00
      9   0.000000D+00  0.000000D+00 -0.142519D+00
     10   0.000000D+00  0.000000D+00  0.222986D+00
     11  -0.192399D+00  0.000000D+00  0.000000D+00
     12   0.000000D+00 -0.192399D+00  0.000000D+00
     13   0.000000D+00  0.000000D+00  0.000000D+00
     14   0.000000D+00  0.000000D+00  0.000000D+00
     15   0.000000D+00  0.000000D+00  0.171516D+00
     16   0.164366D+00  0.000000D+00  0.000000D+00
     17   0.000000D+00  0.164366D+00  0.000000D+00
     18   0.000000D+00  0.000000D+00 -0.223635D+00
     19   0.000000D+00  0.000000D+00  0.000000D+00
     20   0.000000D+00  0.000000D+00  0.000000D+00
     21   0.100000D+01  0.000000D+00  0.000000D+00
     22   0.000000D+00  0.100000D+01  0.000000D+00
     23   0.000000D+00  0.000000D+00  0.100000D+01
 Entering OneElI...
 Overlap between basis sets.
 Requested accuracy = 0.1000D-12
 PrsmSu:  NPrtUS=   1 ThrOK=F IAlg=1
 PRISM was handed  8586708992 working-precision words and   703 shell-pairs
 IPart=  0 NShTot=         703 NBatch=          80 AvBLen=         8.8
 CnvPC2: ToCart=F DoDens=F IPureD=0 IPureF=0.
 Transformed matrix in CnvPC2: 
                 1             2             3             4             5 
      1   0.999758D+00  0.383883D+00  0.000000D+00  0.000000D+00  0.000000D+00
      2   0.271108D+00  0.991006D+00  0.000000D+00  0.000000D+00  0.000000D+00
      3   0.000000D+00  0.000000D+00  0.998810D+00  0.000000D+00  0.000000D+00
      4   0.000000D+00  0.000000D+00  0.000000D+00  0.998810D+00  0.000000D+00
      5   0.000000D+00  0.000000D+00  0.000000D+00  0.000000D+00  0.998810D+00
      6   0.832611D-02  0.296541D+00  0.000000D+00  0.000000D+00  0.000000D+00
      7   0.000000D+00  0.000000D+00  0.299493D+00  0.000000D+00  0.000000D+00
      8   0.000000D+00  0.000000D+00  0.000000D+00  0.299493D+00  0.000000D+00
      9   0.000000D+00  0.000000D+00  0.000000D+00  0.000000D+00  0.299493D+00
     10   0.000000D+00  0.000000D+00  0.000000D+00  0.000000D+00  0.000000D+00
     11   0.000000D+00  0.000000D+00  0.000000D+00  0.000000D+00  0.000000D+00
     12   0.000000D+00  0.000000D+00  0.000000D+00  0.000000D+00  0.000000D+00
     13   0.000000D+00  0.000000D+00  0.000000D+00  0.000000D+00  0.000000D+00
     14   0.000000D+00  0.000000D+00  0.000000D+00  0.000000D+00  0.000000D+00
     15   0.000000D+00  0.000000D+00  0.000000D+00  0.000000D+00  0.000000D+00
     16   0.000000D+00  0.000000D+00  0.000000D+00  0.000000D+00  0.000000D+00
     17   0.000000D+00  0.000000D+00  0.000000D+00  0.000000D+00  0.000000D+00
     18   0.000000D+00  0.000000D+00  0.000000D+00  0.000000D+00  0.000000D+00
     19   0.000000D+00  0.000000D+00  0.000000D+00  0.000000D+00  0.000000D+00
     20   0.000000D+00  0.000000D+00  0.000000D+00  0.000000D+00  0.000000D+00
     21   0.000000D+00  0.000000D+00  0.000000D+00  0.000000D+00  0.000000D+00
     22   0.000000D+00  0.000000D+00  0.000000D+00  0.000000D+00  0.000000D+00
     23   0.000000D+00  0.000000D+00  0.000000D+00  0.000000D+00  0.000000D+00
     24   0.000000D+00  0.000000D+00  0.000000D+00  0.000000D+00  0.000000D+00
     25  -0.186227D-03  0.218999D-02  0.000000D+00  0.000000D+00  0.000000D+00
     26   0.788010D-02  0.525191D-01  0.000000D+00  0.000000D+00  0.000000D+00
     27   0.378210D-02  0.253212D-01  0.000000D+00  0.000000D+00  0.000000D+00
     28   0.000000D+00  0.000000D+00 -0.777551D-01  0.000000D+00  0.000000D+00
     29   0.000000D+00  0.000000D+00  0.000000D+00 -0.777551D-01  0.000000D+00
     30   0.000000D+00  0.000000D+00  0.000000D+00  0.000000D+00 -0.777551D-01
     31   0.000000D+00  0.000000D+00  0.106471D-01  0.000000D+00  0.000000D+00
     32   0.000000D+00  0.000000D+00  0.000000D+00  0.106471D-01  0.000000D+00
     33   0.000000D+00  0.000000D+00  0.000000D+00  0.000000D+00  0.106471D-01
     34   0.000000D+00  0.000000D+00  0.214041D-02  0.000000D+00  0.000000D+00
     35   0.000000D+00  0.000000D+00  0.000000D+00  0.214041D-02  0.000000D+00
     36   0.000000D+00  0.000000D+00  0.000000D+00  0.000000D+00  0.214041D-02
     37   0.260505D+00  0.935915D+00  0.000000D+00  0.000000D+00  0.000000D+00
     38   0.165713D+00  0.767013D+00  0.000000D+00  0.000000D+00  0.000000D+00
     39   0.103407D+00  0.562987D+00  0.000000D+00  0.000000D+00  0.000000D+00
     40   0.638550D-01  0.382555D+00  0.000000D+00  0.000000D+00  0.000000D+00
     41   0.392124D-01  0.247787D+00  0.000000D+00  0.000000D+00  0.000000D+00
     42   0.240095D-01  0.156142D+00  0.000000D+00  0.000000D+00  0.000000D+00
     43   0.000000D+00  0.000000D+00  0.410438D+00  0.000000D+00  0.000000D+00
     44   0.000000D+00  0.000000D+00  0.000000D+00  0.410438D+00  0.000000D+00
     45   0.000000D+00  0.000000D+00  0.000000D+00  0.000000D+00  0.410438D+00
     46   0.000000D+00  0.000000D+00  0.255871D+00  0.000000D+00  0.000000D+00
     47   0.000000D+00  0.000000D+00  0.000000D+00  0.255871D+00  0.000000D+00
     48   0.000000D+00  0.000000D+00  0.000000D+00  0.000000D+00  0.255871D+00
     49   0.000000D+00  0.000000D+00  0.149112D+00  0.000000D+00  0.000000D+00
     50   0.000000D+00  0.000000D+00  0.000000D+00  0.149112D+00  0.000000D+00
     51   0.000000D+00  0.000000D+00  0.000000D+00  0.000000D+00  0.149112D+00
     52   0.000000D+00  0.000000D+00  0.829389D-01  0.000000D+00  0.000000D+00
     53   0.000000D+00  0.000000D+00  0.000000D+00  0.829389D-01  0.000000D+00
     54   0.000000D+00  0.000000D+00  0.000000D+00  0.000000D+00  0.829389D-01
     55   0.000000D+00  0.000000D+00  0.447537D-01  0.000000D+00  0.000000D+00
     56   0.000000D+00  0.000000D+00  0.000000D+00  0.447537D-01  0.000000D+00
     57   0.000000D+00  0.000000D+00  0.000000D+00  0.000000D+00  0.447537D-01
     58   0.000000D+00  0.000000D+00  0.236951D-01  0.000000D+00  0.000000D+00
     59   0.000000D+00  0.000000D+00  0.000000D+00  0.236951D-01  0.000000D+00
     60   0.000000D+00  0.000000D+00  0.000000D+00  0.000000D+00  0.236951D-01
     61   0.000000D+00  0.000000D+00  0.000000D+00  0.000000D+00  0.000000D+00
     62   0.000000D+00  0.000000D+00  0.000000D+00  0.000000D+00  0.000000D+00
     63   0.000000D+00  0.000000D+00  0.000000D+00  0.000000D+00  0.000000D+00
     64   0.000000D+00  0.000000D+00  0.000000D+00  0.000000D+00  0.000000D+00
     65   0.000000D+00  0.000000D+00  0.000000D+00  0.000000D+00  0.000000D+00
     66   0.000000D+00  0.000000D+00  0.000000D+00  0.000000D+00  0.000000D+00
     67   0.000000D+00  0.000000D+00  0.000000D+00  0.000000D+00  0.000000D+00
     68   0.000000D+00  0.000000D+00  0.000000D+00  0.000000D+00  0.000000D+00
     69   0.000000D+00  0.000000D+00  0.000000D+00  0.000000D+00  0.000000D+00
     70   0.000000D+00  0.000000D+00  0.000000D+00  0.000000D+00  0.000000D+00
     71   0.000000D+00  0.000000D+00  0.000000D+00  0.000000D+00  0.000000D+00
     72   0.000000D+00  0.000000D+00  0.000000D+00  0.000000D+00  0.000000D+00
     73   0.000000D+00  0.000000D+00  0.000000D+00  0.000000D+00  0.000000D+00
     74   0.000000D+00  0.000000D+00  0.000000D+00  0.000000D+00  0.000000D+00
     75   0.000000D+00  0.000000D+00  0.000000D+00  0.000000D+00  0.000000D+00
     76   0.000000D+00  0.000000D+00  0.000000D+00  0.000000D+00  0.000000D+00
     77   0.000000D+00  0.000000D+00  0.000000D+00  0.000000D+00  0.000000D+00
     78   0.000000D+00  0.000000D+00  0.000000D+00  0.000000D+00  0.000000D+00
     79   0.000000D+00  0.000000D+00  0.000000D+00  0.000000D+00  0.000000D+00
     80   0.000000D+00  0.000000D+00  0.000000D+00  0.000000D+00  0.000000D+00
     81   0.000000D+00  0.000000D+00  0.000000D+00  0.000000D+00  0.000000D+00
     82   0.000000D+00  0.000000D+00  0.000000D+00  0.000000D+00  0.000000D+00
     83   0.000000D+00  0.000000D+00  0.000000D+00  0.000000D+00  0.000000D+00
     84   0.000000D+00  0.000000D+00  0.000000D+00  0.000000D+00  0.000000D+00
     85   0.000000D+00  0.000000D+00  0.000000D+00  0.000000D+00  0.000000D+00
     86   0.000000D+00  0.000000D+00  0.000000D+00  0.000000D+00  0.000000D+00
     87   0.000000D+00  0.000000D+00  0.000000D+00  0.000000D+00  0.000000D+00
     88   0.000000D+00  0.000000D+00  0.000000D+00  0.000000D+00  0.000000D+00
     89   0.000000D+00  0.000000D+00  0.000000D+00  0.000000D+00  0.000000D+00
     90   0.000000D+00  0.000000D+00  0.000000D+00  0.000000D+00  0.000000D+00
     91   0.000000D+00  0.000000D+00  0.000000D+00  0.000000D+00  0.000000D+00
     92   0.000000D+00  0.000000D+00  0.000000D+00  0.000000D+00  0.000000D+00
     93   0.000000D+00  0.000000D+00  0.000000D+00  0.000000D+00  0.000000D+00
     94   0.000000D+00  0.000000D+00  0.000000D+00  0.000000D+00  0.000000D+00
     95   0.000000D+00  0.000000D+00  0.000000D+00  0.000000D+00  0.000000D+00
     96   0.000000D+00  0.000000D+00  0.000000D+00  0.000000D+00  0.000000D+00
     97   0.000000D+00  0.000000D+00  0.000000D+00  0.000000D+00  0.000000D+00
     98   0.000000D+00  0.000000D+00  0.000000D+00  0.000000D+00  0.000000D+00
     99   0.000000D+00  0.000000D+00  0.000000D+00  0.000000D+00  0.000000D+00
    100   0.000000D+00  0.000000D+00  0.000000D+00  0.000000D+00  0.000000D+00
    101   0.000000D+00  0.000000D+00  0.000000D+00  0.000000D+00  0.000000D+00
    102   0.000000D+00  0.000000D+00  0.000000D+00  0.000000D+00  0.000000D+00
    103   0.000000D+00  0.000000D+00  0.000000D+00  0.000000D+00  0.000000D+00
    104   0.000000D+00  0.000000D+00  0.000000D+00  0.000000D+00  0.000000D+00
    105   0.000000D+00  0.000000D+00  0.000000D+00  0.000000D+00  0.000000D+00
    106   0.000000D+00  0.000000D+00  0.000000D+00  0.000000D+00  0.000000D+00
    107   0.000000D+00  0.000000D+00  0.000000D+00  0.000000D+00  0.000000D+00
    108   0.000000D+00  0.000000D+00  0.000000D+00  0.000000D+00  0.000000D+00
    109   0.000000D+00  0.000000D+00  0.000000D+00  0.000000D+00  0.000000D+00
    110   0.000000D+00  0.000000D+00  0.000000D+00  0.000000D+00  0.000000D+00
    111   0.000000D+00  0.000000D+00  0.000000D+00  0.000000D+00  0.000000D+00
    112   0.000000D+00  0.000000D+00  0.000000D+00  0.000000D+00  0.000000D+00
    113   0.000000D+00  0.000000D+00  0.000000D+00  0.000000D+00  0.000000D+00
    114   0.000000D+00  0.000000D+00  0.000000D+00  0.000000D+00  0.000000D+00
    115   0.000000D+00  0.000000D+00  0.000000D+00  0.000000D+00  0.000000D+00
    116   0.000000D+00  0.000000D+00  0.000000D+00  0.000000D+00  0.000000D+00
    117   0.000000D+00  0.000000D+00  0.000000D+00  0.000000D+00  0.000000D+00
    118   0.000000D+00  0.000000D+00  0.000000D+00  0.000000D+00  0.000000D+00
    119   0.000000D+00  0.000000D+00  0.000000D+00  0.000000D+00  0.000000D+00
    120   0.000000D+00  0.000000D+00  0.000000D+00  0.000000D+00  0.000000D+00
    121   0.000000D+00  0.000000D+00  0.000000D+00  0.000000D+00  0.000000D+00
    122   0.000000D+00  0.000000D+00  0.000000D+00  0.000000D+00  0.000000D+00
    123   0.000000D+00  0.000000D+00  0.000000D+00  0.000000D+00  0.000000D+00
    124   0.000000D+00  0.000000D+00  0.000000D+00  0.000000D+00  0.000000D+00
    125   0.000000D+00  0.000000D+00  0.000000D+00  0.000000D+00  0.000000D+00
    126   0.000000D+00  0.000000D+00  0.000000D+00  0.000000D+00  0.000000D+00
    127   0.000000D+00  0.000000D+00  0.000000D+00  0.000000D+00  0.000000D+00
    128   0.000000D+00  0.000000D+00  0.000000D+00  0.000000D+00  0.000000D+00
    129   0.000000D+00  0.000000D+00  0.000000D+00  0.000000D+00  0.000000D+00
    130   0.000000D+00  0.000000D+00  0.000000D+00  0.000000D+00  0.000000D+00
    131   0.000000D+00  0.000000D+00  0.000000D+00  0.000000D+00  0.000000D+00
    132   0.000000D+00  0.000000D+00  0.000000D+00  0.000000D+00  0.000000D+00
    133   0.000000D+00  0.000000D+00  0.000000D+00  0.000000D+00  0.000000D+00
    134   0.000000D+00  0.000000D+00  0.000000D+00  0.000000D+00  0.000000D+00
    135   0.000000D+00  0.000000D+00  0.000000D+00  0.000000D+00  0.000000D+00
    136   0.000000D+00  0.000000D+00  0.000000D+00  0.000000D+00  0.000000D+00
    137   0.000000D+00  0.000000D+00  0.000000D+00  0.000000D+00  0.000000D+00
    138   0.000000D+00  0.000000D+00  0.000000D+00  0.000000D+00  0.000000D+00
    139   0.000000D+00  0.000000D+00  0.000000D+00  0.000000D+00  0.000000D+00
    140   0.000000D+00  0.000000D+00  0.000000D+00  0.000000D+00  0.000000D+00
    141   0.000000D+00  0.000000D+00  0.000000D+00  0.000000D+00  0.000000D+00
    142   0.000000D+00  0.000000D+00  0.000000D+00  0.000000D+00  0.000000D+00
    143   0.000000D+00  0.000000D+00  0.000000D+00  0.000000D+00  0.000000D+00
    144   0.000000D+00  0.000000D+00  0.000000D+00  0.000000D+00  0.000000D+00
    145   0.000000D+00  0.000000D+00  0.000000D+00  0.000000D+00  0.000000D+00
    146   0.000000D+00  0.000000D+00  0.000000D+00  0.000000D+00  0.000000D+00
    147   0.000000D+00  0.000000D+00  0.000000D+00  0.000000D+00  0.000000D+00
    148   0.000000D+00  0.000000D+00  0.000000D+00  0.000000D+00  0.000000D+00
    149   0.000000D+00  0.000000D+00  0.000000D+00  0.000000D+00  0.000000D+00
    150   0.000000D+00  0.000000D+00  0.000000D+00  0.000000D+00  0.000000D+00
    151   0.000000D+00  0.000000D+00  0.000000D+00  0.000000D+00  0.000000D+00
    152   0.000000D+00  0.000000D+00  0.000000D+00  0.000000D+00  0.000000D+00
    153   0.000000D+00  0.000000D+00  0.000000D+00  0.000000D+00  0.000000D+00
    154   0.000000D+00  0.000000D+00  0.000000D+00  0.000000D+00  0.000000D+00
    155   0.000000D+00  0.000000D+00  0.000000D+00  0.000000D+00  0.000000D+00
    156   0.000000D+00  0.000000D+00  0.000000D+00  0.000000D+00  0.000000D+00
    157   0.000000D+00  0.000000D+00  0.000000D+00  0.000000D+00  0.000000D+00
    158   0.000000D+00  0.000000D+00  0.000000D+00  0.000000D+00  0.000000D+00
    159   0.000000D+00  0.000000D+00  0.000000D+00  0.000000D+00  0.000000D+00
    160   0.000000D+00  0.000000D+00  0.000000D+00  0.000000D+00  0.000000D+00
    161   0.000000D+00  0.000000D+00  0.000000D+00  0.000000D+00  0.000000D+00
    162   0.000000D+00  0.000000D+00  0.000000D+00  0.000000D+00  0.000000D+00
    163   0.000000D+00  0.000000D+00  0.000000D+00  0.000000D+00  0.000000D+00
    164   0.000000D+00  0.000000D+00  0.000000D+00  0.000000D+00  0.000000D+00
    165   0.000000D+00  0.000000D+00  0.000000D+00  0.000000D+00  0.000000D+00
    166   0.000000D+00  0.000000D+00  0.000000D+00  0.000000D+00  0.000000D+00
    167   0.000000D+00  0.000000D+00  0.000000D+00  0.000000D+00  0.000000D+00
    168   0.000000D+00  0.000000D+00  0.000000D+00  0.000000D+00  0.000000D+00
    169   0.000000D+00  0.000000D+00  0.000000D+00  0.000000D+00  0.000000D+00
    170   0.000000D+00  0.000000D+00  0.000000D+00  0.000000D+00  0.000000D+00
    171   0.000000D+00  0.000000D+00  0.000000D+00  0.000000D+00  0.000000D+00
    172   0.000000D+00  0.000000D+00  0.000000D+00  0.000000D+00  0.000000D+00
    173   0.000000D+00  0.000000D+00  0.000000D+00  0.000000D+00  0.000000D+00
    174   0.000000D+00  0.000000D+00  0.000000D+00  0.000000D+00  0.000000D+00
    175   0.000000D+00  0.000000D+00  0.000000D+00  0.000000D+00  0.000000D+00
    176   0.000000D+00  0.000000D+00  0.000000D+00  0.000000D+00  0.000000D+00
    177   0.000000D+00  0.000000D+00  0.000000D+00  0.000000D+00  0.000000D+00
    178   0.000000D+00  0.000000D+00  0.000000D+00  0.000000D+00  0.000000D+00
    179   0.000000D+00  0.000000D+00  0.000000D+00  0.000000D+00  0.000000D+00
    180   0.000000D+00  0.000000D+00  0.000000D+00  0.000000D+00  0.000000D+00
    181   0.000000D+00  0.000000D+00  0.000000D+00  0.000000D+00  0.000000D+00
    182   0.000000D+00  0.000000D+00  0.000000D+00  0.000000D+00  0.000000D+00
    183   0.000000D+00  0.000000D+00  0.000000D+00  0.000000D+00  0.000000D+00
    184   0.000000D+00  0.000000D+00  0.000000D+00  0.000000D+00  0.000000D+00
    185   0.000000D+00  0.000000D+00  0.000000D+00  0.000000D+00  0.000000D+00
    186   0.000000D+00  0.000000D+00  0.000000D+00  0.000000D+00  0.000000D+00
    187   0.000000D+00  0.000000D+00  0.000000D+00  0.000000D+00  0.000000D+00
    188   0.000000D+00  0.000000D+00  0.000000D+00  0.000000D+00  0.000000D+00
    189   0.000000D+00  0.000000D+00  0.000000D+00  0.000000D+00  0.000000D+00
    190   0.000000D+00  0.000000D+00  0.000000D+00  0.000000D+00  0.000000D+00
    191   0.000000D+00  0.000000D+00  0.000000D+00  0.000000D+00  0.000000D+00
    192   0.000000D+00  0.000000D+00  0.000000D+00  0.000000D+00  0.000000D+00
    193   0.000000D+00  0.000000D+00  0.000000D+00  0.000000D+00  0.000000D+00
    194   0.000000D+00  0.000000D+00  0.000000D+00  0.000000D+00  0.000000D+00
    195   0.000000D+00  0.000000D+00  0.000000D+00  0.000000D+00  0.000000D+00
    196   0.000000D+00  0.000000D+00  0.000000D+00  0.000000D+00  0.000000D+00
    197   0.000000D+00  0.000000D+00  0.000000D+00  0.000000D+00  0.000000D+00
    198   0.000000D+00  0.000000D+00  0.000000D+00  0.000000D+00  0.000000D+00
    199   0.000000D+00  0.000000D+00  0.000000D+00  0.000000D+00  0.000000D+00
    200   0.000000D+00  0.000000D+00  0.000000D+00  0.000000D+00  0.000000D+00
    201   0.000000D+00  0.000000D+00  0.000000D+00  0.000000D+00  0.000000D+00
    202   0.000000D+00  0.000000D+00  0.000000D+00  0.000000D+00  0.000000D+00
    203   0.000000D+00  0.000000D+00  0.000000D+00  0.000000D+00  0.000000D+00
    204   0.000000D+00  0.000000D+00  0.000000D+00  0.000000D+00  0.000000D+00
    205   0.000000D+00  0.000000D+00  0.000000D+00  0.000000D+00  0.000000D+00
    206   0.000000D+00  0.000000D+00  0.000000D+00  0.000000D+00  0.000000D+00
    207   0.000000D+00  0.000000D+00  0.000000D+00  0.000000D+00  0.000000D+00
    208   0.000000D+00  0.000000D+00  0.000000D+00  0.000000D+00  0.000000D+00
    209   0.000000D+00  0.000000D+00  0.000000D+00  0.000000D+00  0.000000D+00
    210   0.000000D+00  0.000000D+00  0.000000D+00  0.000000D+00  0.000000D+00
    211   0.000000D+00  0.000000D+00  0.000000D+00  0.000000D+00  0.000000D+00
    212   0.000000D+00  0.000000D+00  0.000000D+00  0.000000D+00  0.000000D+00
    213   0.000000D+00  0.000000D+00  0.000000D+00  0.000000D+00  0.000000D+00
    214   0.000000D+00  0.000000D+00  0.000000D+00  0.000000D+00  0.000000D+00
    215   0.000000D+00  0.000000D+00  0.000000D+00  0.000000D+00  0.000000D+00
    216   0.000000D+00  0.000000D+00  0.000000D+00  0.000000D+00  0.000000D+00
    217   0.000000D+00  0.000000D+00  0.000000D+00  0.000000D+00  0.000000D+00
    218   0.000000D+00  0.000000D+00  0.000000D+00  0.000000D+00  0.000000D+00
    219   0.000000D+00  0.000000D+00  0.000000D+00  0.000000D+00  0.000000D+00
    220   0.000000D+00  0.000000D+00  0.000000D+00  0.000000D+00  0.000000D+00
    221   0.000000D+00  0.000000D+00  0.000000D+00  0.000000D+00  0.000000D+00
    222   0.000000D+00  0.000000D+00  0.000000D+00  0.000000D+00  0.000000D+00
    223   0.000000D+00  0.000000D+00  0.000000D+00  0.000000D+00  0.000000D+00
    224   0.000000D+00  0.000000D+00  0.000000D+00  0.000000D+00  0.000000D+00
    225   0.000000D+00  0.000000D+00  0.000000D+00  0.000000D+00  0.000000D+00
    226   0.000000D+00  0.000000D+00  0.000000D+00  0.000000D+00  0.000000D+00
    227   0.000000D+00  0.000000D+00  0.000000D+00  0.000000D+00  0.000000D+00
    228   0.000000D+00  0.000000D+00  0.000000D+00  0.000000D+00  0.000000D+00
    229   0.000000D+00  0.000000D+00  0.000000D+00  0.000000D+00  0.000000D+00
    230   0.000000D+00  0.000000D+00  0.000000D+00  0.000000D+00  0.000000D+00
    231   0.000000D+00  0.000000D+00  0.000000D+00  0.000000D+00  0.000000D+00
    232   0.000000D+00  0.000000D+00  0.000000D+00  0.000000D+00  0.000000D+00
    233   0.000000D+00  0.000000D+00  0.000000D+00  0.000000D+00  0.000000D+00
    234   0.000000D+00  0.000000D+00  0.000000D+00  0.000000D+00  0.000000D+00
    235   0.000000D+00  0.000000D+00  0.000000D+00  0.000000D+00  0.000000D+00
    236   0.000000D+00  0.000000D+00  0.000000D+00  0.000000D+00  0.000000D+00
    237   0.000000D+00  0.000000D+00  0.000000D+00  0.000000D+00  0.000000D+00
    238   0.000000D+00  0.000000D+00  0.000000D+00  0.000000D+00  0.000000D+00
    239   0.000000D+00  0.000000D+00  0.000000D+00  0.000000D+00  0.000000D+00
    240   0.000000D+00  0.000000D+00  0.000000D+00  0.000000D+00  0.000000D+00
    241   0.000000D+00  0.000000D+00  0.000000D+00  0.000000D+00  0.000000D+00
    242   0.000000D+00  0.000000D+00  0.000000D+00  0.000000D+00  0.000000D+00
    243   0.000000D+00  0.000000D+00  0.000000D+00  0.000000D+00  0.000000D+00
    244   0.000000D+00  0.000000D+00  0.000000D+00  0.000000D+00  0.000000D+00
    245   0.000000D+00  0.000000D+00  0.000000D+00  0.000000D+00  0.000000D+00
    246   0.000000D+00  0.000000D+00  0.000000D+00  0.000000D+00  0.000000D+00
    247   0.000000D+00  0.000000D+00  0.000000D+00  0.000000D+00  0.000000D+00
    248   0.000000D+00  0.000000D+00  0.000000D+00  0.000000D+00  0.000000D+00
    249   0.000000D+00  0.000000D+00  0.000000D+00  0.000000D+00  0.000000D+00
    250   0.000000D+00  0.000000D+00  0.000000D+00  0.000000D+00  0.000000D+00
    251   0.000000D+00  0.000000D+00  0.000000D+00  0.000000D+00  0.000000D+00
    252   0.000000D+00  0.000000D+00  0.000000D+00  0.000000D+00  0.000000D+00
    253   0.000000D+00  0.000000D+00  0.000000D+00  0.000000D+00  0.000000D+00
    254   0.000000D+00  0.000000D+00  0.000000D+00  0.000000D+00  0.000000D+00
    255   0.000000D+00  0.000000D+00  0.000000D+00  0.000000D+00  0.000000D+00
    256   0.000000D+00  0.000000D+00  0.000000D+00  0.000000D+00  0.000000D+00
    257   0.000000D+00  0.000000D+00  0.000000D+00  0.000000D+00  0.000000D+00
    258   0.000000D+00  0.000000D+00  0.000000D+00  0.000000D+00  0.000000D+00
    259   0.000000D+00  0.000000D+00  0.000000D+00  0.000000D+00  0.000000D+00
    260   0.000000D+00  0.000000D+00  0.000000D+00  0.000000D+00  0.000000D+00
    261   0.000000D+00  0.000000D+00  0.000000D+00  0.000000D+00  0.000000D+00
    262   0.000000D+00  0.000000D+00  0.000000D+00  0.000000D+00  0.000000D+00
    263   0.000000D+00  0.000000D+00  0.000000D+00  0.000000D+00  0.000000D+00
    264   0.000000D+00  0.000000D+00  0.000000D+00  0.000000D+00  0.000000D+00
    265   0.000000D+00  0.000000D+00  0.000000D+00  0.000000D+00  0.000000D+00
    266   0.000000D+00  0.000000D+00  0.000000D+00  0.000000D+00  0.000000D+00
    267   0.000000D+00  0.000000D+00  0.000000D+00  0.000000D+00  0.000000D+00
    268   0.000000D+00  0.000000D+00  0.000000D+00  0.000000D+00  0.000000D+00
    269   0.000000D+00  0.000000D+00  0.000000D+00  0.000000D+00  0.000000D+00
    270   0.000000D+00  0.000000D+00  0.000000D+00  0.000000D+00  0.000000D+00
    271   0.000000D+00  0.000000D+00  0.000000D+00  0.000000D+00  0.000000D+00
    272   0.000000D+00  0.000000D+00  0.000000D+00  0.000000D+00  0.000000D+00
    273   0.000000D+00  0.000000D+00  0.000000D+00  0.000000D+00  0.000000D+00
    274   0.000000D+00  0.000000D+00  0.000000D+00  0.000000D+00  0.000000D+00
    275   0.000000D+00  0.000000D+00  0.000000D+00  0.000000D+00  0.000000D+00
    276   0.000000D+00  0.000000D+00  0.000000D+00  0.000000D+00  0.000000D+00
    277   0.000000D+00  0.000000D+00  0.000000D+00  0.000000D+00  0.000000D+00
    278   0.000000D+00  0.000000D+00  0.000000D+00  0.000000D+00  0.000000D+00
    279   0.000000D+00  0.000000D+00  0.000000D+00  0.000000D+00  0.000000D+00
    280   0.000000D+00  0.000000D+00  0.000000D+00  0.000000D+00  0.000000D+00
    281   0.000000D+00  0.000000D+00  0.000000D+00  0.000000D+00  0.000000D+00
    282   0.000000D+00  0.000000D+00  0.000000D+00  0.000000D+00  0.000000D+00
    283   0.000000D+00  0.000000D+00  0.000000D+00  0.000000D+00  0.000000D+00
    284   0.000000D+00  0.000000D+00  0.000000D+00  0.000000D+00  0.000000D+00
    285   0.000000D+00  0.000000D+00  0.000000D+00  0.000000D+00  0.000000D+00
    286   0.000000D+00  0.000000D+00  0.000000D+00  0.000000D+00  0.000000D+00
    287   0.000000D+00  0.000000D+00  0.000000D+00  0.000000D+00  0.000000D+00
    288   0.000000D+00  0.000000D+00  0.000000D+00  0.000000D+00  0.000000D+00
    289   0.000000D+00  0.000000D+00  0.000000D+00  0.000000D+00  0.000000D+00
    290   0.000000D+00  0.000000D+00  0.000000D+00  0.000000D+00  0.000000D+00
    291   0.000000D+00  0.000000D+00  0.000000D+00  0.000000D+00  0.000000D+00
    292   0.000000D+00  0.000000D+00  0.000000D+00  0.000000D+00  0.000000D+00
    293   0.000000D+00  0.000000D+00  0.000000D+00  0.000000D+00  0.000000D+00
    294   0.000000D+00  0.000000D+00  0.000000D+00  0.000000D+00  0.000000D+00
    295   0.000000D+00  0.000000D+00  0.000000D+00  0.000000D+00  0.000000D+00
    296   0.000000D+00  0.000000D+00  0.000000D+00  0.000000D+00  0.000000D+00
    297   0.000000D+00  0.000000D+00  0.000000D+00  0.000000D+00  0.000000D+00
    298   0.000000D+00  0.000000D+00  0.000000D+00  0.000000D+00  0.000000D+00
    299   0.000000D+00  0.000000D+00  0.000000D+00  0.000000D+00  0.000000D+00
    300   0.000000D+00  0.000000D+00  0.000000D+00  0.000000D+00  0.000000D+00
    301   0.000000D+00  0.000000D+00  0.000000D+00  0.000000D+00  0.000000D+00
    302   0.000000D+00  0.000000D+00  0.000000D+00  0.000000D+00  0.000000D+00
    303   0.000000D+00  0.000000D+00  0.000000D+00  0.000000D+00  0.000000D+00
    304   0.000000D+00  0.000000D+00  0.000000D+00  0.000000D+00  0.000000D+00
    305   0.000000D+00  0.000000D+00  0.000000D+00  0.000000D+00  0.000000D+00
    306   0.000000D+00  0.000000D+00  0.000000D+00  0.000000D+00  0.000000D+00
    307   0.000000D+00  0.000000D+00  0.000000D+00  0.000000D+00  0.000000D+00
    308   0.000000D+00  0.000000D+00  0.000000D+00  0.000000D+00  0.000000D+00
    309   0.000000D+00  0.000000D+00  0.000000D+00  0.000000D+00  0.000000D+00
    310   0.000000D+00  0.000000D+00  0.000000D+00  0.000000D+00  0.000000D+00
    311   0.000000D+00  0.000000D+00  0.000000D+00  0.000000D+00  0.000000D+00
    312   0.000000D+00  0.000000D+00  0.000000D+00  0.000000D+00  0.000000D+00
    313   0.000000D+00  0.000000D+00  0.000000D+00  0.000000D+00  0.000000D+00
    314   0.000000D+00  0.000000D+00  0.000000D+00  0.000000D+00  0.000000D+00
    315   0.000000D+00  0.000000D+00  0.000000D+00  0.000000D+00  0.000000D+00
    316   0.000000D+00  0.000000D+00  0.000000D+00  0.000000D+00  0.000000D+00
    317   0.000000D+00  0.000000D+00  0.000000D+00  0.000000D+00  0.000000D+00
    318   0.000000D+00  0.000000D+00  0.000000D+00  0.000000D+00  0.000000D+00
    319   0.000000D+00  0.000000D+00  0.000000D+00  0.000000D+00  0.000000D+00
    320   0.000000D+00  0.000000D+00  0.000000D+00  0.000000D+00  0.000000D+00
    321   0.000000D+00  0.000000D+00  0.000000D+00  0.000000D+00  0.000000D+00
    322   0.000000D+00  0.000000D+00  0.000000D+00  0.000000D+00  0.000000D+00
    323   0.000000D+00  0.000000D+00  0.000000D+00  0.000000D+00  0.000000D+00
    324   0.000000D+00  0.000000D+00  0.000000D+00  0.000000D+00  0.000000D+00
    325   0.000000D+00  0.000000D+00  0.000000D+00  0.000000D+00  0.000000D+00
    326   0.000000D+00  0.000000D+00  0.000000D+00  0.000000D+00  0.000000D+00
    327   0.000000D+00  0.000000D+00  0.000000D+00  0.000000D+00  0.000000D+00
    328   0.000000D+00  0.000000D+00  0.000000D+00  0.000000D+00  0.000000D+00
    329   0.000000D+00  0.000000D+00  0.000000D+00  0.000000D+00  0.000000D+00
    330   0.000000D+00  0.000000D+00  0.000000D+00  0.000000D+00  0.000000D+00
    331   0.000000D+00  0.000000D+00  0.000000D+00  0.000000D+00  0.000000D+00
    332   0.000000D+00  0.000000D+00  0.000000D+00  0.000000D+00  0.000000D+00
    333   0.000000D+00  0.000000D+00  0.000000D+00  0.000000D+00  0.000000D+00
    334   0.000000D+00  0.000000D+00  0.000000D+00  0.000000D+00  0.000000D+00
    335   0.000000D+00  0.000000D+00  0.000000D+00  0.000000D+00  0.000000D+00
    336   0.000000D+00  0.000000D+00  0.000000D+00  0.000000D+00  0.000000D+00
    337   0.000000D+00  0.000000D+00  0.000000D+00  0.000000D+00  0.000000D+00
    338   0.000000D+00  0.000000D+00  0.000000D+00  0.000000D+00  0.000000D+00
    339   0.000000D+00  0.000000D+00  0.000000D+00  0.000000D+00  0.000000D+00
    340   0.000000D+00  0.000000D+00  0.000000D+00  0.000000D+00  0.000000D+00
    341   0.000000D+00  0.000000D+00  0.000000D+00  0.000000D+00  0.000000D+00
    342   0.000000D+00  0.000000D+00  0.000000D+00  0.000000D+00  0.000000D+00
    343   0.000000D+00  0.000000D+00  0.000000D+00  0.000000D+00  0.000000D+00
    344   0.000000D+00  0.000000D+00  0.000000D+00  0.000000D+00  0.000000D+00
    345   0.000000D+00  0.000000D+00  0.000000D+00  0.000000D+00  0.000000D+00
    346   0.000000D+00  0.000000D+00  0.000000D+00  0.000000D+00  0.000000D+00
    347   0.000000D+00  0.000000D+00  0.000000D+00  0.000000D+00  0.000000D+00
    348   0.000000D+00  0.000000D+00  0.000000D+00  0.000000D+00  0.000000D+00
    349   0.000000D+00  0.000000D+00  0.000000D+00  0.000000D+00  0.000000D+00
    350   0.000000D+00  0.000000D+00  0.000000D+00  0.000000D+00  0.000000D+00
    351   0.000000D+00  0.000000D+00  0.000000D+00  0.000000D+00  0.000000D+00
    352   0.000000D+00  0.000000D+00  0.000000D+00  0.000000D+00  0.000000D+00
    353   0.000000D+00  0.000000D+00  0.000000D+00  0.000000D+00  0.000000D+00
    354   0.000000D+00  0.000000D+00  0.000000D+00  0.000000D+00  0.000000D+00
    355   0.000000D+00  0.000000D+00  0.000000D+00  0.000000D+00  0.000000D+00
    356   0.000000D+00  0.000000D+00  0.000000D+00  0.000000D+00  0.000000D+00
    357   0.000000D+00  0.000000D+00  0.000000D+00  0.000000D+00  0.000000D+00
    358   0.000000D+00  0.000000D+00  0.000000D+00  0.000000D+00  0.000000D+00
    359   0.000000D+00  0.000000D+00  0.000000D+00  0.000000D+00  0.000000D+00
    360   0.000000D+00  0.000000D+00  0.000000D+00  0.000000D+00  0.000000D+00
    361   0.000000D+00  0.000000D+00  0.000000D+00  0.000000D+00  0.000000D+00
    362   0.000000D+00  0.000000D+00  0.000000D+00  0.000000D+00  0.000000D+00
    363   0.000000D+00  0.101363D-05  0.000000D+00  0.000000D+00 -0.105099D-05
    364   0.137462D-02  0.973482D-02  0.000000D+00  0.000000D+00 -0.414013D-02
    365   0.673132D-02  0.448406D-01  0.000000D+00  0.000000D+00 -0.424043D-02
    366   0.000000D+00  0.000000D+00  0.245342D-02  0.000000D+00  0.000000D+00
    367   0.000000D+00  0.000000D+00  0.000000D+00  0.245342D-02  0.000000D+00
    368   0.411584D-02  0.281170D-01  0.000000D+00  0.000000D+00 -0.908485D-02
    369   0.000000D+00  0.000000D+00  0.452071D-02  0.000000D+00  0.000000D+00
    370   0.000000D+00  0.000000D+00  0.000000D+00  0.452071D-02  0.000000D+00
    371   0.779252D-02  0.516647D-01  0.000000D+00  0.000000D+00  0.930401D-03
    372   0.000000D+00  0.000000D+00  0.000000D+00  0.000000D+00  0.000000D+00
    373   0.000000D+00  0.000000D+00  0.000000D+00  0.000000D+00  0.000000D+00
    374   0.386022D-05  0.829221D-04  0.000000D+00  0.000000D+00 -0.118900D-03
    375   0.333776D-03  0.292986D-02  0.000000D+00  0.000000D+00 -0.244589D-02
    376   0.261451D-02  0.183468D-01  0.000000D+00  0.000000D+00 -0.827237D-02
    377   0.587965D-02  0.393574D-01  0.000000D+00  0.000000D+00 -0.926815D-02
    378   0.000000D+00  0.000000D+00  0.000000D+00  0.000000D+00  0.000000D+00
    379   0.000000D+00  0.000000D+00  0.000000D+00  0.000000D+00  0.000000D+00
    380   0.000000D+00  0.000000D+00  0.000000D+00  0.000000D+00  0.000000D+00
    381   0.000000D+00  0.000000D+00  0.000000D+00  0.000000D+00  0.000000D+00
    382   0.000000D+00  0.000000D+00  0.000000D+00  0.000000D+00  0.000000D+00
    383   0.000000D+00  0.000000D+00  0.000000D+00  0.000000D+00  0.000000D+00
    384   0.000000D+00  0.000000D+00  0.247201D-04  0.000000D+00  0.000000D+00
    385   0.000000D+00  0.000000D+00  0.000000D+00  0.247201D-04  0.000000D+00
    386   0.143120D-04  0.304087D-03  0.000000D+00  0.000000D+00 -0.434059D-03
    387   0.000000D+00  0.000000D+00  0.127984D-02  0.000000D+00  0.000000D+00
    388   0.000000D+00  0.000000D+00  0.000000D+00  0.127984D-02  0.000000D+00
    389   0.187931D-02  0.148518D-01  0.000000D+00  0.000000D+00 -0.106131D-01
    390   0.000000D+00  0.000000D+00  0.611396D-02  0.000000D+00  0.000000D+00
    391   0.000000D+00  0.000000D+00  0.000000D+00  0.611396D-02  0.000000D+00
    392   0.105060D-01  0.698939D-01  0.000000D+00  0.000000D+00 -0.208025D-01
    393   0.000000D+00  0.000000D+00  0.779252D-02  0.000000D+00  0.000000D+00
    394   0.000000D+00  0.000000D+00  0.000000D+00  0.779252D-02  0.000000D+00
    395   0.135552D-01  0.889715D-01  0.000000D+00  0.000000D+00 -0.810724D-02
    396   0.000000D+00  0.000000D+00  0.000000D+00  0.000000D+00  0.000000D+00
    397   0.000000D+00  0.000000D+00  0.000000D+00  0.000000D+00  0.000000D+00
    398   0.000000D+00  0.000000D+00  0.000000D+00  0.000000D+00  0.000000D+00
    399   0.000000D+00  0.000000D+00  0.000000D+00  0.000000D+00  0.000000D+00
    400   0.000000D+00  0.000000D+00  0.000000D+00  0.000000D+00  0.000000D+00
    401   0.000000D+00  0.000000D+00  0.000000D+00  0.000000D+00  0.000000D+00
    402   0.000000D+00  0.000000D+00  0.000000D+00  0.000000D+00  0.000000D+00
    403   0.000000D+00  0.000000D+00  0.000000D+00  0.000000D+00  0.000000D+00
    404   0.000000D+00  0.000000D+00  0.000000D+00  0.000000D+00  0.000000D+00
    405   0.000000D+00  0.000000D+00  0.000000D+00  0.000000D+00  0.000000D+00
    406   0.000000D+00  0.226592D-05  0.000000D+00  0.000000D+00 -0.518135D-05
    407   0.000000D+00  0.000000D+00  0.000000D+00  0.000000D+00  0.000000D+00
    408   0.000000D+00  0.000000D+00  0.000000D+00  0.000000D+00  0.000000D+00
    409   0.000000D+00  0.000000D+00  0.000000D+00  0.000000D+00  0.000000D+00
    410   0.000000D+00  0.000000D+00  0.000000D+00  0.000000D+00  0.000000D+00
    411   0.441888D-04  0.844381D-03  0.000000D+00  0.000000D+00 -0.116778D-02
    412   0.000000D+00  0.000000D+00  0.119465D-03  0.000000D+00  0.000000D+00
    413   0.000000D+00  0.000000D+00  0.000000D+00  0.119465D-03  0.000000D+00
    414   0.000000D+00  0.000000D+00  0.000000D+00  0.000000D+00  0.000000D+00
    415   0.000000D+00  0.000000D+00  0.000000D+00  0.000000D+00  0.000000D+00
    416   0.316019D-02  0.246222D-01  0.000000D+00  0.000000D+00 -0.178195D-01
    417   0.000000D+00  0.000000D+00  0.367989D-02  0.000000D+00  0.000000D+00
    418   0.000000D+00  0.000000D+00  0.000000D+00  0.367989D-02  0.000000D+00
    419   0.000000D+00  0.000000D+00  0.000000D+00  0.000000D+00  0.000000D+00
    420   0.000000D+00  0.000000D+00  0.000000D+00  0.000000D+00  0.000000D+00
    421   0.153547D-01  0.999820D-01  0.000000D+00  0.000000D+00 -0.300983D-01
    422   0.000000D+00  0.000000D+00  0.151795D-01  0.000000D+00  0.000000D+00
    423   0.000000D+00  0.000000D+00  0.000000D+00  0.151795D-01  0.000000D+00
    424   0.000000D+00  0.000000D+00  0.000000D+00  0.000000D+00  0.000000D+00
    425   0.000000D+00  0.000000D+00  0.000000D+00  0.000000D+00  0.000000D+00
    426   0.188076D-01  0.120848D+00  0.000000D+00  0.000000D+00 -0.832553D-02
    427   0.000000D+00  0.000000D+00  0.183700D-01  0.000000D+00  0.000000D+00
    428   0.000000D+00  0.000000D+00  0.000000D+00  0.183700D-01  0.000000D+00
    429   0.000000D+00  0.000000D+00  0.000000D+00  0.000000D+00  0.000000D+00
    430   0.000000D+00  0.000000D+00  0.000000D+00  0.000000D+00  0.000000D+00
    431   0.000000D+00  0.000000D+00  0.000000D+00  0.000000D+00  0.000000D+00
    432   0.000000D+00  0.000000D+00  0.000000D+00  0.000000D+00  0.000000D+00
    433   0.000000D+00  0.000000D+00  0.000000D+00  0.000000D+00  0.000000D+00
    434   0.000000D+00  0.000000D+00  0.000000D+00  0.000000D+00  0.000000D+00
    435   0.000000D+00  0.000000D+00  0.000000D+00  0.000000D+00  0.000000D+00
    436   0.000000D+00  0.000000D+00  0.000000D+00  0.000000D+00  0.000000D+00
    437   0.000000D+00  0.000000D+00  0.000000D+00  0.000000D+00  0.000000D+00
    438   0.000000D+00  0.000000D+00  0.000000D+00  0.000000D+00  0.000000D+00
    439   0.000000D+00  0.000000D+00  0.000000D+00  0.000000D+00  0.000000D+00
    440   0.000000D+00  0.000000D+00  0.000000D+00  0.000000D+00  0.000000D+00
    441   0.000000D+00  0.000000D+00  0.000000D+00  0.000000D+00  0.000000D+00
    442   0.000000D+00  0.000000D+00  0.000000D+00  0.000000D+00  0.000000D+00
    443   0.000000D+00  0.000000D+00  0.000000D+00  0.000000D+00  0.000000D+00
    444   0.000000D+00  0.000000D+00  0.000000D+00  0.000000D+00  0.000000D+00
    445   0.139725D-05  0.971705D-04  0.000000D+00  0.000000D+00 -0.175888D-03
    446   0.000000D+00  0.000000D+00  0.187355D-04  0.000000D+00  0.000000D+00
    447   0.000000D+00  0.000000D+00  0.000000D+00  0.187355D-04  0.000000D+00
    448   0.000000D+00  0.000000D+00  0.000000D+00  0.000000D+00  0.000000D+00
    449   0.000000D+00  0.000000D+00  0.000000D+00  0.000000D+00  0.000000D+00
    450   0.000000D+00  0.000000D+00  0.000000D+00  0.000000D+00  0.000000D+00
    451   0.000000D+00  0.000000D+00  0.000000D+00  0.000000D+00  0.000000D+00
    452   0.950109D-03  0.963572D-02  0.000000D+00  0.000000D+00 -0.987820D-02
    453   0.000000D+00  0.000000D+00  0.199728D-02  0.000000D+00  0.000000D+00
    454   0.000000D+00  0.000000D+00  0.000000D+00  0.199728D-02  0.000000D+00
    455   0.000000D+00  0.000000D+00  0.000000D+00  0.000000D+00  0.000000D+00
    456   0.000000D+00  0.000000D+00  0.000000D+00  0.000000D+00  0.000000D+00
    457   0.000000D+00  0.000000D+00  0.000000D+00  0.000000D+00  0.000000D+00
    458   0.000000D+00  0.000000D+00  0.000000D+00  0.000000D+00  0.000000D+00
    459   0.133317D-01  0.877140D-01  0.000000D+00  0.000000D+00 -0.397100D-01
    460   0.000000D+00  0.000000D+00  0.188170D-01  0.000000D+00  0.000000D+00
    461   0.000000D+00  0.000000D+00  0.000000D+00  0.188170D-01  0.000000D+00
    462   0.000000D+00  0.000000D+00  0.000000D+00  0.000000D+00  0.000000D+00
    463   0.000000D+00  0.000000D+00  0.000000D+00  0.000000D+00  0.000000D+00
    464   0.000000D+00  0.000000D+00  0.000000D+00  0.000000D+00  0.000000D+00
    465   0.000000D+00  0.000000D+00  0.000000D+00  0.000000D+00  0.000000D+00
    466   0.245177D-01  0.152676D+00  0.000000D+00  0.000000D+00 -0.171167D-01
    467   0.000000D+00  0.000000D+00  0.329219D-01  0.000000D+00  0.000000D+00
    468   0.000000D+00  0.000000D+00  0.000000D+00  0.329219D-01  0.000000D+00
    469   0.000000D+00  0.000000D+00  0.000000D+00  0.000000D+00  0.000000D+00
    470   0.000000D+00  0.000000D+00  0.000000D+00  0.000000D+00  0.000000D+00
    471   0.000000D+00  0.000000D+00  0.000000D+00  0.000000D+00  0.000000D+00
    472   0.000000D+00  0.000000D+00  0.000000D+00  0.000000D+00  0.000000D+00
    473   0.000000D+00  0.000000D+00  0.000000D+00  0.000000D+00  0.000000D+00
    474   0.000000D+00  0.000000D+00  0.000000D+00  0.000000D+00  0.000000D+00
    475   0.000000D+00  0.000000D+00  0.000000D+00  0.000000D+00  0.000000D+00
    476   0.000000D+00  0.000000D+00  0.000000D+00  0.000000D+00  0.000000D+00
    477   0.000000D+00  0.000000D+00  0.000000D+00  0.000000D+00  0.000000D+00
    478   0.000000D+00  0.000000D+00  0.000000D+00  0.000000D+00  0.000000D+00
    479   0.000000D+00  0.000000D+00  0.000000D+00  0.000000D+00  0.000000D+00
    480   0.000000D+00  0.000000D+00  0.000000D+00  0.000000D+00  0.000000D+00
    481   0.000000D+00  0.000000D+00  0.000000D+00  0.000000D+00  0.000000D+00
    482   0.000000D+00  0.000000D+00  0.000000D+00  0.000000D+00 -0.249456D-05
    483   0.000000D+00  0.000000D+00  0.000000D+00  0.000000D+00  0.000000D+00
    484   0.000000D+00  0.000000D+00  0.000000D+00  0.000000D+00  0.000000D+00
    485   0.000000D+00  0.000000D+00  0.000000D+00  0.000000D+00  0.000000D+00
    486   0.000000D+00  0.000000D+00  0.000000D+00  0.000000D+00  0.000000D+00
    487   0.000000D+00  0.000000D+00  0.000000D+00  0.000000D+00  0.000000D+00
    488   0.000000D+00  0.000000D+00  0.000000D+00  0.000000D+00  0.000000D+00
    489   0.000000D+00  0.000000D+00  0.000000D+00  0.000000D+00  0.000000D+00
    490   0.000000D+00  0.000000D+00  0.000000D+00  0.000000D+00  0.000000D+00
    491   0.378686D-04  0.977794D-03  0.000000D+00  0.000000D+00 -0.148157D-02
    492   0.000000D+00  0.000000D+00  0.249776D-03  0.000000D+00  0.000000D+00
    493   0.000000D+00  0.000000D+00  0.000000D+00  0.249776D-03  0.000000D+00
    494   0.000000D+00  0.000000D+00  0.000000D+00  0.000000D+00  0.000000D+00
    495   0.000000D+00  0.000000D+00  0.000000D+00  0.000000D+00  0.000000D+00
    496   0.000000D+00  0.000000D+00  0.000000D+00  0.000000D+00  0.000000D+00
    497   0.000000D+00  0.000000D+00  0.000000D+00  0.000000D+00  0.000000D+00
    498   0.000000D+00  0.000000D+00  0.000000D+00  0.000000D+00  0.000000D+00
    499   0.000000D+00  0.000000D+00  0.000000D+00  0.000000D+00  0.000000D+00
    500   0.632254D-02  0.461679D-01  0.000000D+00  0.000000D+00 -0.333407D-01
    501   0.000000D+00  0.000000D+00  0.126718D-01  0.000000D+00  0.000000D+00
    502   0.000000D+00  0.000000D+00  0.000000D+00  0.126718D-01  0.000000D+00
    503   0.000000D+00  0.000000D+00  0.000000D+00  0.000000D+00  0.000000D+00
[...]
           Sum of interorbital pair energies =    -0.286131 A.U.
                                                  ----------
                         Total pair energies =    -0.395807 A.U.

                         Single Excitations  =    -0.000509 A.U.

                          Total second order =    -0.396316 A.U.

                         E2(CBS) - E2(Dir) =      -0.003130 A.U.

 E2(CBS)=      -0.397774 CBS-Int=       0.001458 OIii=       1.584876

 **********************************************************************

            Population analysis using the SCF density.

 **********************************************************************

 Orbital symmetries:
       Occupied  (SG) (SG) (SG) (SG) (PI) (PI) (SG) (SG) (PI) (PI)
                 (SG) (SG) (PI) (PI) (SG) (?A)
       Virtual   (PI) (PI) (SG) (SG) (?A) (?A) (PI) (PI) (SG) (PI)
                 (PI) (SG) (?A) (SG) (?A) (PI) (PI) (SG) (SG) (PI)
                 (PI) (?A) (PI) (PI) (SG) (DLTA) (DLTA) (?B) (?B)
                 (SG) (PI) (PI) (?B) (?B) (SG) (?A) (SG) (?A) (PI)
                 (PI) (PI) (PI) (SG) (SG) (DLTA) (DLTA) (PHI) (PHI)
                 (?C) (?C) (DLTA) (DLTA) (SG) (PI) (PI) (SG) (SG)
                 (PI) (PI) (?B) (?B) (DLTA) (DLTA) (?B) (?B) (PHI)
                 (PHI) (SG) (?D) (?D) (?C) (?C) (SG) (?A) (PI)
                 (PI) (?A) (PI) (PI) (SG) (?A) (?A) (SG) (PI) (PI)
                 (PHI) (PHI) (DLTA) (DLTA) (SG) (PI) (PI) (DLTA)
                 (DLTA) (SG) (SG) (PHI) (PHI) (?C) (?C) (SG) (SG)
                 (?E) (?E) (?E) (?E) (?C) (?C) (PI) (PI) (SG) (DLTA)
                 (DLTA) (PHI) (PHI) (SG) (PI) (PI) (DLTA) (DLTA)
                 (?B) (?B) (SG) (?B) (?B) (SG) (PI) (PI) (?A) (?A)
                 (?F) (?F) (?F) (PHI) (PHI) (?G) (?G) (?E) (?E)
                 (SG) (SG) (?E) (?E) (?A) (SG) (?A) (?A) (?A) (PI)
                 (PI) (?C) (?C) (SG) (?B) (?B) (?B) (?B) (?D) (?D)
                 (SG) (DLTA) (DLTA) (?C) (?C) (PI) (PI) (DLTA)
                 (DLTA) (SG) (PHI) (PHI) (SG) (PI) (PI) (PHI) (PHI)
                 (SG) (PI) (PI) (SG) (DLTA) (DLTA) (DLTA) (DLTA)
                 (?B) (?B) (?B) (?B) (?D) (?D) (?C) (?C) (PI) (PI)
                 (?H) (?H) (?H) (DLTA) (DLTA) (SG) (SG) (?I) (?I)
                 (?I) (?I) (?I) (?I) (SG) (SG) (PHI) (PHI) (SG)
                 (?D) (?D) (DLTA) (DLTA) (PI) (PI) (SG) (?C) (?C)
                 (?J) (?J) (?J) (?J) (?B) (?B) (?B) (?B) (SG) (?C)
                 (?C) (DLTA) (DLTA) (SG) (PI) (PI) (?B) (?B) (?B)
                 (?B) (SG) (SG) (SG) (DLTA) (DLTA) (SG) (?D) (?D)
                 (PI) (PI) (PHI) (PHI) (SG) (DLTA) (DLTA) (?K)
                 (?K) (?B) (?B) (?K) (?B) (?B) (?D) (?D) (DLTA)
                 (DLTA) (PI) (PI) (?L) (?L) (?L) (?L) (?L) (?G)
                 (?G) (?L) (?L) (?E) (?E) (?E) (?E) (SG) (SG) (PHI)
                 (PHI) (?B) (?B) (?B) (?B) (DLTA) (DLTA) (PI) (PI)
                 (?L) (?L) (?L) (?L) (?L) (?L) (DLTA) (DLTA) (PI)
                 (PI) (?D) (?D) (SG) (PHI) (PHI) (?C) (?C) (DLTA)
                 (DLTA) (PI) (PI) (PHI) (PHI) (SG) (PI) (PI) (PHI)
                 (PHI) (DLTA) (DLTA) (PI) (PI) (DLTA) (DLTA) (SG)
                 (PI) (PI) (SG) (SG) (?C) (?C) (PI) (PI) (PHI)
                 (PHI) (DLTA) (DLTA) (PI) (PI) (DLTA) (DLTA) (?L)
                 (?L) (?G) (?G) (SG) (SG) (PHI) (PHI) (SG) (?D)
                 (?D) (SG) (?C) (?C) (SG) (SG) (?D) (?D) (DLTA)
                 (DLTA) (SG) (PI) (PI) (PHI) (PHI) (?L) (?L) (?L)
                 (DLTA) (DLTA) (PI) (PI) (DLTA) (DLTA) (SG) (PHI)
                 (PHI) (PI) (PI) (SG) (PI) (PI) (DLTA) (DLTA) (SG)
                 (PI) (PI) (SG) (SG) (?D) (?D) (SG) (?D) (?D) (?C)
                 (?C) (?C) (?C) (PHI) (PHI) (DLTA) (DLTA) (SG)
                 (PI) (PI) (PHI) (PHI) (SG) (PI) (PI) (DLTA) (DLTA)
                 (SG) (?C) (?C) (PHI) (PHI) (DLTA) (PI) (PI) (DLTA)
                 (?D) (?D) (?C) (?C) (PHI) (PHI) (SG) (DLTA) (DLTA)
                 (PI) (PI) (PHI) (PHI) (?L) (?L) (?G) (?G) (?E)
                 (?E) (?L) (?E) (?E) (?L) (?L) (?L) (?L) (?B) (?B)
                 (?L) (?B) (?B) (DLTA) (DLTA) (SG) (?C) (?C) (PHI)
                 (PHI) (PI) (PI) (PHI) (PHI) (DLTA) (DLTA) (SG)
                 (PI) (PI) (DLTA) (DLTA) (SG) (PI) (PI) (PI) (PI)
                 (DLTA) (DLTA) (SG) (PI) (PI) (DLTA) (DLTA) (SG)
                 (PI) (PI) (SG) (SG) (SG) (SG) (?G) (?G) (?D) (?D)
                 (?C) (?C) (PHI) (PHI) (DLTA) (DLTA) (SG) (PI)
                 (PI) (SG) (SG) (?D) (?D) (SG) (SG) (?C) (?C) (PHI)
                 (PHI) (DLTA) (DLTA) (PI) (PI) (SG) (?D) (?D) (?C)
                 (?C) (PHI) (PHI) (DLTA) (DLTA) (SG) (PI) (PI)
                 (SG) (SG) (?D) (?D) (?C) (?C) (PHI) (PHI) (DLTA)
                 (PI) (PI) (DLTA) (SG) (?C) (?C) (PHI) (PHI) (DLTA)
                 (DLTA) (PI) (PI) (SG) (?D) (?D) (?C) (?C) (PHI)
                 (PHI) (DLTA) (DLTA) (PI) (PI) (SG) (PHI) (PHI)
                 (DLTA) (DLTA) (?B) (?B) (?B) (?B) (SG) (?C) (?C)
                 (DLTA) (DLTA) (PHI) (PHI) (DLTA) (DLTA) (PI) (PI)
                 (SG) (PI) (PI) (SG) (DLTA) (DLTA) (PI) (PI) (SG)
                 (PI) (PI) (SG) (SG) (SG)
 Unable to determine electronic state:  an orbital has unidentified symmetry.
 Alpha  occ. eigenvalues -- -183.32267 -21.49452 -20.49205 -17.86217 -17.86217
 Alpha  occ. eigenvalues --  -17.86071  -2.95578  -1.89494  -1.89494  -1.88471
 Alpha  occ. eigenvalues --   -1.14937  -0.46556  -0.46162  -0.44694  -0.44694
 Alpha  occ. eigenvalues --   -0.26289
 Alpha virt. eigenvalues --    0.00410   0.00410   0.01955   0.02819   0.03838
 Alpha virt. eigenvalues --    0.03932   0.04349   0.04349   0.04740   0.06348
 Alpha virt. eigenvalues --    0.06348   0.06585   0.09404   0.12947   0.13406
 Alpha virt. eigenvalues --    0.15205   0.15205   0.16053   0.17234   0.17519
 Alpha virt. eigenvalues --    0.17622   0.17622   0.18442   0.18442   0.20506
 Alpha virt. eigenvalues --    0.28703   0.28741   0.29727   0.29727   0.31100
 Alpha virt. eigenvalues --    0.31541   0.31541   0.33654   0.33654   0.35007
 Alpha virt. eigenvalues --    0.37025   0.38821   0.41794   0.43192   0.43192
 Alpha virt. eigenvalues --    0.47085   0.47085   0.48070   0.49098   0.54774
 Alpha virt. eigenvalues --    0.54786   0.55927   0.55927   0.56695   0.56696
 Alpha virt. eigenvalues --    0.59943   0.60082   0.61605   0.61948   0.61948
 Alpha virt. eigenvalues --    0.65583   0.71351   0.75763   0.75763   0.78509
 Alpha virt. eigenvalues --    0.78509   0.80401   0.80421   0.80421   0.80661
 Alpha virt. eigenvalues --    0.84181   0.84181   0.85894   0.89095   0.89095
 Alpha virt. eigenvalues --    0.89454   0.89454   0.90451   0.91395   0.92866
 Alpha virt. eigenvalues --    0.92866   0.94095   0.95728   0.95728   0.97329
 Alpha virt. eigenvalues --    0.98118   0.99581   1.02463   1.03276   1.03276
 Alpha virt. eigenvalues --    1.21457   1.21457   1.25189   1.25216   1.28260
 Alpha virt. eigenvalues --    1.28900   1.28900   1.33998   1.34001   1.35635
 Alpha virt. eigenvalues --    1.37894   1.38212   1.38212   1.40469   1.40469
 Alpha virt. eigenvalues --    1.41820   1.41820   1.41970   1.41970   1.42571
 Alpha virt. eigenvalues --    1.42571   1.46602   1.46609   1.52019   1.52019
 Alpha virt. eigenvalues --    1.53479   1.53685   1.53704   1.61632   1.61632
 Alpha virt. eigenvalues --    1.66971   1.68747   1.68747   1.72757   1.73989
 Alpha virt. eigenvalues --    1.75750   1.75750   1.81562   1.82111   1.82111
 Alpha virt. eigenvalues --    1.87126   1.88653   1.88653   1.89338   1.89573
 Alpha virt. eigenvalues --    1.95947   1.97413   1.97414   1.99226   1.99226
 Alpha virt. eigenvalues --    2.01786   2.01786   2.01897   2.01897   2.02708
 Alpha virt. eigenvalues --    2.02708   2.03872   2.03872   2.08844   2.12305
 Alpha virt. eigenvalues --    2.12399   2.14427   2.14765   2.18286   2.18286
 Alpha virt. eigenvalues --    2.19619   2.19619   2.30182   2.30821   2.30821
 Alpha virt. eigenvalues --    2.31287   2.31287   2.36196   2.36196   2.45989
 Alpha virt. eigenvalues --    2.49210   2.49647   2.52830   2.52831   2.55835
 Alpha virt. eigenvalues --    2.55835   2.57886   2.57930   2.59617   2.59921
 Alpha virt. eigenvalues --    2.59921   2.77859   2.78396   2.78396   2.95218
 Alpha virt. eigenvalues --    2.95218   2.99424   3.05601   3.05601   3.07143
 Alpha virt. eigenvalues --    3.09172   3.09264   3.13926   3.14708   3.26984
 Alpha virt. eigenvalues --    3.26984   3.29179   3.29179   3.33489   3.33493
 Alpha virt. eigenvalues --    3.34030   3.34030   3.40722   3.40722   3.45778
 Alpha virt. eigenvalues --    3.45779   3.46987   3.47228   3.47339   3.59274
 Alpha virt. eigenvalues --    3.69681   3.73340   3.73340   3.73801   3.73801
 Alpha virt. eigenvalues --    3.77397   3.77397   3.99815   3.99815   4.00297
 Alpha virt. eigenvalues --    4.00297   4.00430   4.01275   4.01430   4.01430
 Alpha virt. eigenvalues --    4.01950   4.25013   4.25013   4.28091   4.42379
 Alpha virt. eigenvalues --    4.42379   4.43922   4.45208   4.54759   4.55485
 Alpha virt. eigenvalues --    4.60539   4.60539   4.61448   4.61448   4.66373
 Alpha virt. eigenvalues --    4.69304   4.69304   4.69709   4.70978   4.75574
 Alpha virt. eigenvalues --    4.86438   4.86438   4.99340   4.99340   5.01826
 Alpha virt. eigenvalues --    5.01826   5.03742   5.05145   5.05145   5.13462
 Alpha virt. eigenvalues --    5.13621   5.15724   5.25021   5.25021   5.28483
 Alpha virt. eigenvalues --    5.28483   5.32180   5.32180   5.48989   5.53484
 Alpha virt. eigenvalues --    5.53571   5.57139   5.57139   5.60812   5.60812
 Alpha virt. eigenvalues --    5.61284   5.66409   5.66409   5.72642   5.72642
 Alpha virt. eigenvalues --    5.75737   5.75901   5.77564   5.77564   5.95905
 Alpha virt. eigenvalues --    5.95906   6.03504   6.19915   6.20115   6.22386
 Alpha virt. eigenvalues --    6.22386   6.24322   6.24322   6.44156   6.44156
 Alpha virt. eigenvalues --    6.48555   6.48555   6.59450   6.64491   6.71451
 Alpha virt. eigenvalues --    6.71451   6.80795   6.80795   6.85092   6.85092
 Alpha virt. eigenvalues --    6.91847   6.91978   6.98658   6.98658   7.03067
 Alpha virt. eigenvalues --    7.03067   7.13148   7.37906   7.38833   7.38839
 Alpha virt. eigenvalues --    7.45121   7.45414   7.48350   7.48350   7.75814
 Alpha virt. eigenvalues --    7.75814   7.81834   7.86827   7.86827   7.88735
 Alpha virt. eigenvalues --    7.88736   8.06392   8.06664   8.15934   8.15934
 Alpha virt. eigenvalues --    8.33549   8.33549   8.49911   8.54190   8.54190
 Alpha virt. eigenvalues --    8.61106   8.61106   8.77157   8.77615   9.08381
 Alpha virt. eigenvalues --    9.08381   9.18043   9.18250   9.29271   9.45919
 Alpha virt. eigenvalues --    9.45919   9.47504   9.66301   9.71610   9.71610
 Alpha virt. eigenvalues --    9.77127   9.77127   9.86039   9.86039   9.86725
 Alpha virt. eigenvalues --    9.86891   9.97529   9.97529  10.02396  10.03407
 Alpha virt. eigenvalues --   10.15440  10.15440  10.16034  10.16034  10.19176
 Alpha virt. eigenvalues --   10.19176  10.26088  10.26088  10.26999  10.37614
 Alpha virt. eigenvalues --   10.37614  10.46328  10.60974  10.60975  10.66762
 Alpha virt. eigenvalues --   10.66762  10.70406  10.70406  10.73795  10.73965
 Alpha virt. eigenvalues --   10.76487  10.82718  10.82718  10.99281  10.99281
 Alpha virt. eigenvalues --   11.04023  11.04073  11.09186  11.14491  11.14558
 Alpha virt. eigenvalues --   11.15453  11.15453  11.29221  11.29727  11.38697
 Alpha virt. eigenvalues --   11.41771  11.41771  11.55700  11.55700  11.69863
 Alpha virt. eigenvalues --   12.35877  12.35877  12.52220  12.52816  12.71288
 Alpha virt. eigenvalues --   13.20284  13.20284  13.36957  13.36957  13.43728
 Alpha virt. eigenvalues --   13.43728  13.44039  13.59083  13.59083  13.63326
 Alpha virt. eigenvalues --   13.63327  13.76363  13.76363  13.90017  13.90017
 Alpha virt. eigenvalues --   14.06539  14.06918  14.35323  14.65845  14.65845
 Alpha virt. eigenvalues --   14.76373  14.76373  15.09850  15.49495  15.49495
 Alpha virt. eigenvalues --   15.50694  15.51000  15.55232  16.02227  16.02229
 Alpha virt. eigenvalues --   16.37535  16.37535  16.91088  16.91413  16.91800
 Alpha virt. eigenvalues --   16.91800  17.22328  17.22328  17.34840  17.34840
 Alpha virt. eigenvalues --   17.67058  17.67058  17.81671  17.94368  17.94495
 Alpha virt. eigenvalues --   18.28079  18.28079  18.42836  18.42836  18.73131
 Alpha virt. eigenvalues --   18.73131  18.73436  18.73436  18.76592  18.76592
 Alpha virt. eigenvalues --   18.84063  18.84083  18.84668  18.84668  18.88565
 Alpha virt. eigenvalues --   18.91552  18.91556  19.07969  19.07969  19.12838
 Alpha virt. eigenvalues --   19.17785  19.17785  19.31460  19.32316  19.82595
 Alpha virt. eigenvalues --   20.02041  20.02041  20.08394  20.08394  20.26717
 Alpha virt. eigenvalues --   20.26717  20.37646  20.37646  20.49148  20.49181
 Alpha virt. eigenvalues --   20.69194  20.94376  20.94376  21.27802  21.27842
 Alpha virt. eigenvalues --   21.32927  21.40800  21.40800  22.34390  22.34390
 Alpha virt. eigenvalues --   22.50971  22.50987  22.52668  23.53633  23.53633
 Alpha virt. eigenvalues --   23.71259  23.71590  23.90754  24.37731  24.37731
 Alpha virt. eigenvalues --   24.60124  24.99464  25.35267  25.35267  25.36050
 Alpha virt. eigenvalues --   25.36050  25.37528  25.37528  25.53927  25.53927
 Alpha virt. eigenvalues --   25.76387  25.76387  25.80739  25.80821  26.09933
 Alpha virt. eigenvalues --   26.30059  26.30059  26.77162  28.31267  28.46479
 Alpha virt. eigenvalues --   28.46479  28.46649  28.46649  28.51828  28.51830
 Alpha virt. eigenvalues --   28.63411  28.63411  29.00499  29.01520  29.50283
 Alpha virt. eigenvalues --   29.50283  29.53337  32.92553  32.92553  32.94277
 Alpha virt. eigenvalues --   32.94279  33.18526  33.18526  33.59240  33.59950
 Alpha virt. eigenvalues --   33.83627  33.90765  33.90765  33.98403  33.98403
 Alpha virt. eigenvalues --   34.01549  34.01549  34.11010  34.11010  34.39931
 Alpha virt. eigenvalues --   34.39931  34.76004  34.76077  34.76077  34.76106
 Alpha virt. eigenvalues --   35.02742  36.43973  36.43973  36.65385  36.65385
 Alpha virt. eigenvalues --   36.92195  36.92667  37.33485  37.33485  38.23196
 Alpha virt. eigenvalues --   39.00715  39.00715  39.07975  39.07975  39.25711
 Alpha virt. eigenvalues --   39.25711  39.47656  39.47668  39.60102  39.60102
 Alpha virt. eigenvalues --   39.76726  41.72994  41.72994  42.03686  42.03700
 Alpha virt. eigenvalues --   42.63211  42.63211  42.63911  42.63911  42.82156
 Alpha virt. eigenvalues --   42.91256  42.91256  42.98905  42.99166  43.02187
 Alpha virt. eigenvalues --   43.02187  43.61573  43.61583  43.69962  43.69962
 Alpha virt. eigenvalues --   43.77320  44.19230  44.19230  44.67743  46.95712
 Alpha virt. eigenvalues --   46.95716  47.44973  47.44973  48.39850  53.43744
 Alpha virt. eigenvalues --   53.43744  55.71745 108.83185 469.62324
          Condensed to atoms (all electrons):
              1          2
     1  Ti  22.694604  -1.254887
     2  O   -1.254887   9.815169
 Mulliken atomic charges:
              1
     1  Ti   0.560283
     2  O   -0.560283
 Sum of Mulliken atomic charges =   0.00000
 Mulliken charges with hydrogens summed into heavy atoms:
              1
     1  Ti   0.560283
     2  O   -0.560283
 Sum of Mulliken charges with hydrogens summed into heavy atoms =   0.00000
          Atomic-Atomic Spin Densities.
              1          2
     1  Ti   3.962974  -1.614267
     2  O   -1.614267   1.265560
 Mulliken atomic spin densities:
              1
     1  Ti   2.348707
     2  O   -0.348707
 Sum of Mulliken atomic spin densities =   2.00000
 Electronic spatial extent (au):  <R**2>=            109.8733
 Charge=              0.0000 electrons
 Dipole moment (field-independent basis, Debye):
    X=              0.0000    Y=              0.0000    Z=              4.2398  Tot=              4.2398
 Quadrupole moment (field-independent basis, Debye-Ang):
   XX=            -21.9844   YY=            -21.9844   ZZ=            -29.8420
   XY=              0.0000   XZ=              0.0000   YZ=              0.0000
 Traceless Quadrupole moment (field-independent basis, Debye-Ang):
   XX=              2.6192   YY=              2.6192   ZZ=             -5.2384
   XY=              0.0000   XZ=              0.0000   YZ=              0.0000
 Octapole moment (field-independent basis, Debye-Ang**2):
  XXX=              0.0000  YYY=              0.0000  ZZZ=             -4.8156  XYY=              0.0000
  XXY=              0.0000  XXZ=             -2.1040  XZZ=              0.0000  YZZ=              0.0000
  YYZ=             -2.1040  XYZ=              0.0000
 Hexadecapole moment (field-independent basis, Debye-Ang**3):
 XXXX=            -39.6040 YYYY=            -39.6040 ZZZZ=           -150.9127 XXXY=              0.0000
 XXXZ=              0.0000 YYYX=              0.0000 YYYZ=              0.0000 ZZZX=              0.0000
 ZZZY=              0.0000 XXYY=            -13.6726 XXZZ=            -31.0607 YYZZ=            -31.0607
 XXYZ=              0.0000 YYXZ=              0.0000 ZZXY=              0.0000
 N-N= 5.748305088929D+01 E-N=-3.440848861445D+03  KE= 1.382551786764D+03
                          Isotropic Fermi Contact Couplings
        Atom                 a.u.       MegaHertz       Gauss      10(-4) cm-1
     1  Ti(47)             1.57670    -198.97105     -70.99782     -66.36960
     2  O(17)              0.02117      -6.41730      -2.28985      -2.14058
 --------------------------------------------------------
       Center         ----  Spin Dipole Couplings  ----
                      3XX-RR        3YY-RR        3ZZ-RR
 --------------------------------------------------------
     1   Atom        0.436977      0.436977     -0.873953
     2   Atom       -0.027434     -0.027434      0.054868
 --------------------------------------------------------
                        XY            XZ            YZ
 --------------------------------------------------------
     1   Atom        0.000000      0.000000      0.000000
     2   Atom        0.000000      0.000000      0.000000
 --------------------------------------------------------


 ---------------------------------------------------------------------------------
              Anisotropic Spin Dipole Couplings in Principal Axis System
 ---------------------------------------------------------------------------------

       Atom             a.u.   MegaHertz   Gauss  10(-4) cm-1        Axes

              Baa    -0.8740    26.329     9.395     8.783  0.0000  0.0000  1.0000
     1 Ti(47) Bbb     0.4370   -13.165    -4.697    -4.391  1.0000  0.0000  0.0000
              Bcc     0.4370   -13.165    -4.697    -4.391  0.0000  1.0000  0.0000
 
              Baa    -0.0274     1.985     0.708     0.662  0.0000  1.0000  0.0000
     2 O(17)  Bbb    -0.0274     1.985     0.708     0.662  1.0000  0.0000  0.0000
              Bcc     0.0549    -3.970    -1.417    -1.324  0.0000  0.0000  1.0000
 

 ---------------------------------------------------------------------------------


 Test job not archived.
 1\1\GINC-N34\SP\ROMP2-FC\Gen\O1Ti1(3)\ROOT\21-Oct-2013\0\\# ROMP2 Gen 
 GFinput Int=NoBasisTransform Int(Grid=Ultrafine) IOp(3/32=2,5/6=10,8/1
 1=1,9/33=1) Maxdisk=128GB CBSextrapolate(Nmin=25,MinPop) Guess=Read\\T
 iO 3/\\0,3\Ti\O,1,1.62022\\Version=EM64L-G09RevA.02\HF=-923.3209823\MP
 2=-923.7156271\E2(CBS)=-0.3977745\CBS-Int=-0.396316\OIii=1.5848761\RMS
 D=2.823e-11\PG=C*V [C*(O1Ti1)]\\@


 BE CAREFUL NOT TO BECOME TOO GOOD OF A SONGBIRD OR 
 THEY'LL THROW YOU INTO A CAGE.

                                    -- SNOOPY TO WOODSTOCK
 Job cpu time:  7 days  1 hours 15 minutes  0.6 seconds.
 File lengths (MBytes):  RWF=  38564 Int=      0 D2E=      0 Chk=     37 Scr=      1
 Normal termination of Gaussian 09 at Mon Oct 21 22:18:53 2013.
