 Entering Gaussian System, Link 0=g09
 AtFile(1): 6ZaPa-NR.gbs
 Initial command:
 /share/apps/gaussian/g09root/g09/l1.exe /localscratch/62752/Gau-5539.inp -scrdir=/localscratch/62752/
 Entering Link 1 = /share/apps/gaussian/g09root/g09/l1.exe PID=      5540.
  
 Copyright (c) 1988,1990,1992,1993,1995,1998,2003,2009, Gaussian, Inc.
                  All Rights Reserved.
  
 This is part of the Gaussian(R) 09 program.  It is based on
 the Gaussian(R) 03 system (copyright 2003, Gaussian, Inc.),
 the Gaussian(R) 98 system (copyright 1998, Gaussian, Inc.),
 the Gaussian(R) 94 system (copyright 1995, Gaussian, Inc.),
 the Gaussian 92(TM) system (copyright 1992, Gaussian, Inc.),
 the Gaussian 90(TM) system (copyright 1990, Gaussian, Inc.),
 the Gaussian 88(TM) system (copyright 1988, Gaussian, Inc.),
 the Gaussian 86(TM) system (copyright 1986, Carnegie Mellon
 University), and the Gaussian 82(TM) system (copyright 1983,
 Carnegie Mellon University). Gaussian is a federally registered
 trademark of Gaussian, Inc.
  
 This software contains proprietary and confidential information,
 including trade secrets, belonging to Gaussian, Inc.
  
 This software is provided under written license and may be
 used, copied, transmitted, or stored only in accord with that
 written license.
  
 The following legend is applicable only to US Government
 contracts under FAR:
  
                    RESTRICTED RIGHTS LEGEND
  
 Use, reproduction and disclosure by the US Government is
 subject to restrictions as set forth in subparagraphs (a)
 and (c) of the Commercial Computer Software - Restricted
 Rights clause in FAR 52.227-19.
  
 Gaussian, Inc.
 340 Quinnipiac St., Bldg. 40, Wallingford CT 06492
  
  
 ---------------------------------------------------------------
 Warning -- This program may not be used in any manner that
 competes with the business of Gaussian, Inc. or will provide
 assistance to any competitor of Gaussian, Inc.  The licensee
 of this program is prohibited from giving any competitor of
 Gaussian, Inc. access to this program.  By using this program,
 the user acknowledges that Gaussian, Inc. is engaged in the
 business of creating and licensing software in the field of
 computational chemistry and represents and warrants to the
 licensee that it is not a competitor of Gaussian, Inc. and that
 it will not use this program in any manner prohibited above.
 ---------------------------------------------------------------
  

 Cite this work as:
 Gaussian 09, Revision A.02,
 M. J. Frisch, G. W. Trucks, H. B. Schlegel, G. E. Scuseria, 
 M. A. Robb, J. R. Cheeseman, G. Scalmani, V. Barone, B. Mennucci, 
 G. A. Petersson, H. Nakatsuji, M. Caricato, X. Li, H. P. Hratchian, 
 A. F. Izmaylov, J. Bloino, G. Zheng, J. L. Sonnenberg, M. Hada, 
 M. Ehara, K. Toyota, R. Fukuda, J. Hasegawa, M. Ishida, T. Nakajima, 
 Y. Honda, O. Kitao, H. Nakai, T. Vreven, J. A. Montgomery, Jr., 
 J. E. Peralta, F. Ogliaro, M. Bearpark, J. J. Heyd, E. Brothers, 
 K. N. Kudin, V. N. Staroverov, R. Kobayashi, J. Normand, 
 K. Raghavachari, A. Rendell, J. C. Burant, S. S. Iyengar, J. Tomasi, 
 M. Cossi, N. Rega, J. M. Millam, M. Klene, J. E. Knox, J. B. Cross, 
 V. Bakken, C. Adamo, J. Jaramillo, R. Gomperts, R. E. Stratmann, 
 O. Yazyev, A. J. Austin, R. Cammi, C. Pomelli, J. W. Ochterski, 
 R. L. Martin, K. Morokuma, V. G. Zakrzewski, G. A. Voth, 
 P. Salvador, J. J. Dannenberg, S. Dapprich, A. D. Daniels, 
 O. Farkas, J. B. Foresman, J. V. Ortiz, J. Cioslowski, 
 and D. J. Fox, Gaussian, Inc., Wallingford CT, 2009.
 
 ******************************************
 Gaussian 09:  EM64L-G09RevA.02 11-Jun-2009
                 3-Nov-2013 
 ******************************************
 % Mem=64GB
 % Nproc=16
 Will use up to   16 processors via shared memory.
 % Chk=VCl_5Dlt.chk
 ----------------------------------------------------------------------
 # ROMP2 Gen GFinput Int=NoBasisTransform Int(Grid=Ultrafine) IOp(3/32=
 2,5/6=10,8/11=1,9/33=1) Maxdisk=128GB CBSextrapolate(Nmin=20,MinPop) S
 CF=Symm Guess=Read
 ----------------------------------------------------------------------
 1/38=1/1;
 2/12=2,17=6,18=5,40=1/2;
 3/5=7,11=2,16=1,24=10,25=1,30=1,32=2,60=-1,75=-5,116=101/1,2,3;
 4/5=1,9=4/1;
 5/5=2,6=10,15=2,38=6/2;
 8/5=-1,10=1,11=1/1;
 9/16=-3,33=1,75=2,81=20,83=4/6,4;
 6/7=2,8=2,9=2,10=2/1;
 99/5=1,9=1/99;
 -------
 VCl 5/\
 -------
 Symbolic Z-matrix:
 Charge =  0 Multiplicity = 5
 V
 Cl                   1     2.21379 
 
                          Input orientation:                          
 ---------------------------------------------------------------------
 Center     Atomic      Atomic             Coordinates (Angstroms)
 Number     Number       Type             X           Y           Z
 ---------------------------------------------------------------------
      1         23           0        0.000000    0.000000    0.000000
      2         17           0        0.000000    0.000000    2.213790
 ---------------------------------------------------------------------
 Stoichiometry    ClV(5)
 Framework group  C*V[C*(ClV)]
 Deg. of freedom     1
 Full point group                 C*V     NOp   4
 Largest Abelian subgroup         C2V     NOp   4
 Largest concise Abelian subgroup C1      NOp   1
                         Standard orientation:                         
 ---------------------------------------------------------------------
 Center     Atomic      Atomic             Coordinates (Angstroms)
 Number     Number       Type             X           Y           Z
 ---------------------------------------------------------------------
      1         23           0        0.000000    0.000000    0.940861
      2         17           0        0.000000    0.000000   -1.272929
 ---------------------------------------------------------------------
 Rotational constants (GHZ):      0.0000000      4.9731115      4.9731115
 General basis read from cards:  (5D, 7F)
 AO basis set in the form of general basis input (Overlap normalization):
      1 0
 S  17 1.00       0.000000000000
      0.1404140820D+08  0.1300633174D-05
      0.2596086450D+07  0.8275958961D-05
      0.5897406840D+06  0.4733208104D-04
      0.1592105900D+06  0.2148876492D-03
      0.4959786030D+05  0.8253155427D-03
      0.1737435030D+05  0.2755145867D-02
      0.6691666470D+04  0.8206425363D-02
      0.2779099050D+04  0.2217264457D-01
      0.1224074470D+04  0.5447162778D-01
      0.5638316810D+03  0.1197342308D+00
      0.2684318040D+03  0.2240566345D+00
      0.1308143080D+03  0.3214078638D+00
      0.6474164300D+02  0.2823889091D+00
      0.3233358400D+02  0.1048278433D+00
      0.1621256700D+02  0.8707321150D-02
      0.8128361000D+01  0.5031177735D-03
      0.4061249000D+01 -0.4802813534D-03
 S  14 1.00       0.000000000000
      0.1737435030D+05 -0.2493245501D-05
      0.6691666470D+04 -0.1745418945D-04
      0.2779099050D+04 -0.1312870066D-03
      0.1224074470D+04 -0.7163279357D-03
      0.5638316810D+03 -0.3567594831D-02
      0.2684318040D+03 -0.1429576335D-01
      0.1308143080D+03 -0.4618170869D-01
      0.6474164300D+02 -0.8875391613D-01
      0.3233358400D+02 -0.2479276945D-01
      0.1621256700D+02  0.2858551441D+00
      0.8128361000D+01  0.5430440973D+00
      0.4061249000D+01  0.2694181420D+00
      0.2016455000D+01  0.2462092353D-01
      0.9923350000D+00  0.3386574816D-02
 P  14 1.00       0.000000000000
      0.2922825140D+05  0.1042404667D-04
      0.7123266120D+04  0.9332531371D-04
      0.2255826270D+04  0.5753137231D-03
      0.8556545410D+03  0.2605551024D-02
      0.3660098930D+03  0.9570288955D-02
      0.1692351090D+03  0.2969197966D-01
      0.8226347300D+02  0.7899238224D-01
      0.4134467600D+02  0.1712589791D+00
      0.2129678300D+02  0.2834478970D+00
      0.1119521500D+02  0.3304071993D+00
      0.5987159000D+01  0.2179650860D+00
      0.3240232000D+01  0.6308296355D-01
      0.1755472000D+01  0.6853193668D-02
      0.9335040000D+00  0.3757155467D-03
 S  10 1.00       0.000000000000
      0.1308143080D+03  0.2246180290D-03
      0.6474164300D+02  0.1954369151D-02
      0.3233358400D+02  0.1383161592D-02
      0.1621256700D+02 -0.1983297289D-01
      0.8128361000D+01 -0.1579960041D+00
      0.4061249000D+01 -0.1573041969D+00
      0.2016455000D+01  0.3075799503D+00
      0.9923350000D+00  0.6118915865D+00
      0.4827560000D+00  0.2906359272D+00
      0.2314900000D+00  0.1741842029D-01
 P  10 1.00       0.000000000000
      0.8226347300D+02 -0.9753917855D-03
      0.4134467600D+02 -0.3483862024D-02
      0.2129678300D+02 -0.1041195730D-01
      0.1119521500D+02 -0.1923949401D-01
      0.5987159000D+01  0.1311702002D-01
      0.3240232000D+01  0.1621121645D+00
      0.1755472000D+01  0.3296893879D+00
      0.9335040000D+00  0.3785196401D+00
      0.4719310000D+00  0.2138963006D+00
      0.2163000000D+00  0.3205405682D-01
 D  14 1.00       0.000000000000
      0.1002915300D+04  0.1544528061D-04
      0.3105291620D+03  0.1541149644D-03
      0.1191328590D+03  0.9750433679D-03
      0.5281781600D+02  0.4327583296D-02
      0.2569066700D+02  0.1416189326D-01
      0.1321057600D+02  0.3610497685D-01
      0.7004629000D+01  0.8093542321D-01
      0.3770270000D+01  0.1527041541D+00
      0.2041332000D+01  0.2236977146D+00
      0.1105713000D+01  0.2632923697D+00
      0.5964550000D+00  0.2561287839D+00
      0.3183500000D+00  0.1970330050D+00
      0.1662480000D+00  0.9754409182D-01
      0.8336700000D-01  0.1734478796D-01
 D   1 1.00       0.000000000000
      0.5097761132D-01  0.1000000000D+01
 S   9 1.00       0.000000000000
      0.1621256700D+02  0.7431784137D-04
      0.8128361000D+01  0.3735628050D-02
      0.4061249000D+01  0.3617355152D-02
      0.2016455000D+01 -0.1648357733D-01
      0.9923350000D+00 -0.7986885232D-01
      0.4827560000D+00 -0.1979543204D+00
      0.2314900000D+00  0.4027820538D-01
      0.1090360000D+00  0.7148808046D+00
      0.5023400000D-01  0.4119975788D+00
 S   1 1.00       0.000000000000
      0.3873600000D-01  0.1000000000D+01
 S   1 1.00       0.000000000000
      0.1455900000D-01  0.1000000000D+01
 S   1 1.00       0.000000000000
      0.4701000000D-02  0.1000000000D+01
 P   9 1.00       0.000000000000
      0.2129678300D+02 -0.9583255273D-03
      0.1119521500D+02 -0.6247534790D-03
      0.5987159000D+01 -0.3813595095D-02
      0.3240232000D+01  0.4638767195D-01
      0.1755472000D+01  0.7141190762D-01
      0.9335040000D+00  0.4525557291D-01
      0.4719310000D+00 -0.4391911345D+00
      0.2163000000D+00 -0.5668345761D+00
      0.1081698100D+00 -0.1291760239D+00
 P   1 1.00       0.000000000000
      0.1009447269D+00  0.1000000000D+01
 S   1 1.00       0.000000000000
      0.3312011000D+01  0.1000000000D+01
 S   1 1.00       0.000000000000
      0.1592377000D+01  0.1000000000D+01
 S   1 1.00       0.000000000000
      0.7655960000D+00  0.1000000000D+01
 S   1 1.00       0.000000000000
      0.3680900000D+00  0.1000000000D+01
 S   1 1.00       0.000000000000
      0.1769730000D+00  0.1000000000D+01
 P   1 1.00       0.000000000000
      0.1952337000D+01  0.1000000000D+01
 P   1 1.00       0.000000000000
      0.1079593000D+01  0.1000000000D+01
 P   1 1.00       0.000000000000
      0.5969880000D+00  0.1000000000D+01
 P   1 1.00       0.000000000000
      0.3301190000D+00  0.1000000000D+01
 P   1 1.00       0.000000000000
      0.1825480000D+00  0.1000000000D+01
 D   1 1.00       0.000000000000
      0.3098060000D+01  0.1000000000D+01
 D   1 1.00       0.000000000000
      0.1393763000D+01  0.1000000000D+01
 D   1 1.00       0.000000000000
      0.6270290000D+00  0.1000000000D+01
 D   1 1.00       0.000000000000
      0.2820890000D+00  0.1000000000D+01
 D   1 1.00       0.000000000000
      0.1269070000D+00  0.1000000000D+01
 F   1 1.00       0.000000000000
      0.8531316000D+01  0.1000000000D+01
 F   1 1.00       0.000000000000
      0.3524057000D+01  0.1000000000D+01
 F   1 1.00       0.000000000000
      0.1455693000D+01  0.1000000000D+01
 F   1 1.00       0.000000000000
      0.6013080000D+00  0.1000000000D+01
 F   1 1.00       0.000000000000
      0.2483840000D+00  0.1000000000D+01
 F   1 1.00       0.000000000000
      0.1026000000D+00  0.1000000000D+01
 G   1 1.00       0.000000000000
      0.5935509000D+01  0.1000000000D+01
 G   1 1.00       0.000000000000
      0.2395669000D+01  0.1000000000D+01
 G   1 1.00       0.000000000000
      0.9669320000D+00  0.1000000000D+01
 G   1 1.00       0.000000000000
      0.3902700000D+00  0.1000000000D+01
 G   1 1.00       0.000000000000
      0.1575190000D+00  0.1000000000D+01
 H   1 1.00       0.000000000000
      0.4367447000D+01  0.1000000000D+01
 H   1 1.00       0.000000000000
      0.1622784000D+01  0.1000000000D+01
 H   1 1.00       0.000000000000
      0.6029680000D+00  0.1000000000D+01
 H   1 1.00       0.000000000000
      0.2240410000D+00  0.1000000000D+01
 I   1 1.00       0.000000000000
      0.3236022000D+01  0.1000000000D+01
 I   1 1.00       0.000000000000
      0.1037846000D+01  0.1000000000D+01
 I   1 1.00       0.000000000000
      0.3328540000D+00  0.1000000000D+01
 J   1 1.00       0.000000000000
      0.2218606281D+01  0.1000000000D+01
 ****
      2 0
 S  16 1.00       0.000000000000
      0.5318794213D+07  0.2087506525D-05
      0.9374028503D+06  0.1409075946D-04
      0.2099328815D+06  0.8045229457D-04
      0.5699224286D+05  0.3587072731D-03
      0.1802456268D+05  0.1342429318D-02
      0.6424506240D+04  0.4368982553D-02
      0.2511423070D+04  0.1274090005D-01
      0.1053265800D+04  0.3374895264D-01
      0.4656587630D+03  0.8079562464D-01
      0.2140478620D+03  0.1690375599D+00
      0.1012007850D+03  0.2865580459D+00
      0.4879836800D+02  0.3330111614D+00
      0.2383322100D+02  0.1931269476D+00
      0.1171925100D+02  0.3428301432D-01
      0.5767712000D+01  0.2147878771D-02
      0.2822869000D+01  0.1446905038D-03
 S  12 1.00       0.000000000000
      0.2511423068D+04 -0.3538917350D-04
      0.1053265795D+04 -0.2384973559D-03
      0.4656587630D+03 -0.1347306678D-02
      0.2140478620D+03 -0.6523555892D-02
      0.1012007850D+03 -0.2441274848D-01
      0.4879836800D+02 -0.6731290528D-01
      0.2383322100D+02 -0.7602485343D-01
      0.1171925100D+02  0.9834439030D-01
      0.5767712000D+01  0.4392003543D+00
      0.2822869000D+01  0.4716246001D+00
      0.1363313000D+01  0.1182506784D+00
      0.6433940000D+00  0.3749139732D-02
 P  14 1.00       0.000000000000
      0.1219948551D+05  0.1427430425D-04
      0.3101553246D+04  0.1208584263D-03
      0.9832474350D+03  0.7583393812D-03
      0.3674988750D+03  0.3509042790D-02
      0.1547962950D+03  0.1281725507D-01
      0.7091209200D+02  0.3838700163D-01
      0.3437361600D+02  0.9605778936D-01
      0.1727092600D+02  0.1918413765D+00
      0.8859030000D+01  0.2929190055D+00
      0.4587647000D+01  0.3226630823D+00
      0.2378170000D+01  0.1983270817D+00
      0.1225256000D+01  0.4682764860D-01
      0.6228670000D+00  0.3553397664D-02
      0.3097250000D+00  0.2939584522D-03
 D   1 1.00       0.000000000000
      0.1499555721D+02  0.1000000000D+01
 S   9 1.00       0.000000000000
      0.4879836800D+02  0.4332487711D-03
      0.2383322100D+02  0.1705109367D-02
      0.1171925100D+02 -0.2598449136D-02
      0.5767712000D+01 -0.3820420053D-01
      0.2822869000D+01 -0.1721874432D+00
      0.1363313000D+01 -0.4615773825D-01
      0.6433940000D+00  0.4218740590D+00
      0.2930250000D+00  0.5649326769D+00
      0.1267500000D+00  0.1888049229D+00
 S   1 1.00       0.000000000000
      0.6526282440D-01  0.1000000000D+01
 P  10 1.00       0.000000000000
      0.3437361600D+02 -0.8779760742D-03
      0.1727092600D+02 -0.2587705156D-02
      0.8859030000D+01 -0.6750732757D-02
      0.4587647000D+01 -0.1348819151D-01
      0.2378170000D+01  0.7915071357D-02
      0.1225256000D+01  0.1421546500D+00
      0.6228670000D+00  0.3122545730D+00
      0.3097250000D+00  0.3719998980D+00
      0.1489280000D+00  0.2575076252D+00
      0.6816900000D-01  0.6205820349D-01
 P   1 1.00       0.000000000000
      0.4897339439D-01  0.1000000000D+01
 S   1 1.00       0.000000000000
      0.6456710000D+01  0.1000000000D+01
 S   1 1.00       0.000000000000
      0.3213776000D+01  0.1000000000D+01
 S   1 1.00       0.000000000000
      0.1599632000D+01  0.1000000000D+01
 S   1 1.00       0.000000000000
      0.7962040000D+00  0.1000000000D+01
 S   1 1.00       0.000000000000
      0.3963040000D+00  0.1000000000D+01
 P   1 1.00       0.000000000000
      0.3859972000D+01  0.1000000000D+01
 P   1 1.00       0.000000000000
      0.1990128000D+01  0.1000000000D+01
 P   1 1.00       0.000000000000
      0.1026072000D+01  0.1000000000D+01
 P   1 1.00       0.000000000000
      0.5290230000D+00  0.1000000000D+01
 P   1 1.00       0.000000000000
      0.2727540000D+00  0.1000000000D+01
 D   1 1.00       0.000000000000
      0.5318611000D+01  0.1000000000D+01
 D   1 1.00       0.000000000000
      0.2406816000D+01  0.1000000000D+01
 D   1 1.00       0.000000000000
      0.1089150000D+01  0.1000000000D+01
 D   1 1.00       0.000000000000
      0.4928700000D+00  0.1000000000D+01
 D   1 1.00       0.000000000000
      0.2230370000D+00  0.1000000000D+01
 D   1 1.00       0.000000000000
      0.1009300000D+00  0.1000000000D+01
 F   1 1.00       0.000000000000
      0.2536010000D+01  0.1000000000D+01
 F   1 1.00       0.000000000000
      0.1276516000D+01  0.1000000000D+01
 F   1 1.00       0.000000000000
      0.6425420000D+00  0.1000000000D+01
 F   1 1.00       0.000000000000
      0.3234270000D+00  0.1000000000D+01
 F   1 1.00       0.000000000000
      0.1627980000D+00  0.1000000000D+01
 G   1 1.00       0.000000000000
      0.1539597000D+01  0.1000000000D+01
 G   1 1.00       0.000000000000
      0.8199240000D+00  0.1000000000D+01
 G   1 1.00       0.000000000000
      0.4366570000D+00  0.1000000000D+01
 G   1 1.00       0.000000000000
      0.2325450000D+00  0.1000000000D+01
 H   1 1.00       0.000000000000
      0.1576638000D+01  0.1000000000D+01
 H   1 1.00       0.000000000000
      0.7281370000D+00  0.1000000000D+01
 H   1 1.00       0.000000000000
      0.3362740000D+00  0.1000000000D+01
 I   1 1.00       0.000000000000
      0.1242441885D+01  0.1000000000D+01
 ****

 There are   156 symmetry adapted basis functions of A1  symmetry.
 There are    72 symmetry adapted basis functions of A2  symmetry.
 There are   108 symmetry adapted basis functions of B1  symmetry.
 There are   108 symmetry adapted basis functions of B2  symmetry.
 Integral buffers will be    131072 words long.
 Raffenetti 2 integral format.
 Two-electron integral symmetry is turned on.
   444 basis functions,  1010 primitive gaussians,   696 cartesian basis functions
    22 alpha electrons       18 beta electrons
       nuclear repulsion energy        93.4633766340 Hartrees.
 NAtoms=    2 NActive=    2 NUniq=    2 SFac= 7.50D-01 NAtFMM=   80 NAOKFM=F Big=F
 One-electron integrals computed using PRISM.
 NBasis=   444 RedAO= F  NBF=   156    72   108   108
 NBsUse=   444 1.00D-04 NBFU=   156    72   108   108
 Initial guess read from the checkpoint file:  VCl_5Dlt.chk
 B after Tr=     0.000000    0.000000    0.000000
         Rot=    1.000000    0.000000    0.000000    0.000000 Ang=   0.00 deg.
 Initial guess orbital symmetries:
       Occupied  (SG) (SG) (SG) (PI) (PI) (SG) (SG) (SG) (PI) (PI)
                 (SG) (PI) (PI) (SG) (SG) (SG) (PI) (PI) (?A) (SG)
                 (PI) (PI)
       Virtual   (PI) (PI) (SG) (?A) (?A) (PI) (PI) (SG) (SG) (?A)
                 (SG) (PI) (PI) (SG) (PI) (PI) (?A) (SG) (PI) (PI)
                 (SG) (?A) (SG) (SG) (DLTA) (DLTA) (PI) (PI) (PI)
                 (PI) (SG) (PI) (PI) (SG) (?A) (SG) (PI) (PI) (?A)
                 (SG) (SG) (DLTA) (DLTA) (?B) (?B) (?B) (?B) (?B)
                 (?B) (SG) (SG) (DLTA) (DLTA) (PI) (PI) (SG) (SG)
                 (SG) (SG) (PI) (PI) (SG) (SG) (PI) (PI) (DLTA)
                 (DLTA) (SG) (PI) (PI) (DLTA) (DLTA) (SG) (SG)
                 (SG) (SG) (PI) (PI) (SG) (PI) (PI) (SG) (SG) (SG)
                 (SG) (SG) (PI) (PI) (SG) (PI) (PI) (SG) (PI) (PI)
                 (SG) (PI) (PI) (SG) (PI) (PI) (SG) (SG) (PI) (PI)
                 (DLTA) (DLTA) (SG) (PI) (PI) (DLTA) (DLTA) (DLTA)
                 (DLTA) (PI) (PI) (DLTA) (DLTA) (SG) (PI) (PI)
                 (DLTA) (DLTA) (PHI) (PHI) (SG) (PI) (PI) (DLTA)
                 (DLTA) (PHI) (PHI) (SG) (PI) (PI) (DLTA) (DLTA)
                 (PHI) (PHI) (PI) (PI) (DLTA) (DLTA) (PHI) (PHI)
                 (SG) (PI) (PI) (DLTA) (DLTA) (PHI) (PHI) (SG)
                 (PI) (PI) (DLTA) (DLTA) (PHI) (PHI) (SG) (PI)
                 (PI) (DLTA) (DLTA) (PHI) (PHI) (?C) (?C) (SG)
                 (PI) (PI) (DLTA) (DLTA) (PHI) (PHI) (?C) (?C)
                 (SG) (PI) (PI) (DLTA) (DLTA) (PHI) (PHI) (?C)
                 (?C) (SG) (PI) (PI) (DLTA) (DLTA) (PHI) (PHI)
                 (?C) (?C) (SG) (PI) (PI) (DLTA) (DLTA) (PHI) (PHI)
                 (?C) (?C) (SG) (PI) (PI) (DLTA) (DLTA) (PHI) (PHI)
                 (?C) (?C) (?D) (?D) (SG) (PI) (PI) (DLTA) (DLTA)
                 (PHI) (PHI) (?C) (?C) (?D) (?D) (SG) (PI) (PI)
                 (DLTA) (DLTA) (PHI) (PHI) (?C) (?C) (?D) (?D)
                 (SG) (PI) (PI) (DLTA) (DLTA) (PHI) (PHI) (?C)
                 (?C) (?D) (?D) (SG) (PI) (PI) (DLTA) (DLTA) (PHI)
                 (PHI) (?C) (?C) (?D) (?D) (SG) (SG) (SG) (PI)
                 (PI) (DLTA) (DLTA) (PHI) (PHI) (?C) (?C) (?D)
                 (?D) (SG) (SG) (SG) (PI) (PI) (DLTA) (DLTA) (PHI)
                 (PHI) (?C) (?C) (?D) (?D) (SG) (SG) (SG) (PI)
                 (PI) (DLTA) (DLTA) (PHI) (PHI) (?C) (?C) (?D)
                 (?D) (SG) (SG) (?E) (?E) (SG) (SG) (PI) (PI) (SG)
                 (SG) (PI) (PI) (DLTA) (DLTA) (SG) (SG) (SG) (PI)
                 (PI) (SG) (PI) (PI) (SG) (PI) (PI) (SG) (PI) (PI)
                 (DLTA) (DLTA) (PI) (PI) (DLTA) (DLTA) (DLTA) (DLTA)
                 (PI) (PI) (DLTA) (DLTA) (DLTA) (DLTA) (SG) (PI)
                 (PI) (DLTA) (DLTA) (PHI) (PHI) (SG) (PI) (PI)
                 (DLTA) (DLTA) (PHI) (PHI) (SG) (PI) (PI) (DLTA)
                 (DLTA) (PHI) (PHI) (PI) (PI) (DLTA) (DLTA) (PHI)
                 (PHI) (PHI) (PHI) (SG) (PI) (PI) (DLTA) (DLTA)
                 (PHI) (PHI) (?C) (?C) (PI) (PI) (DLTA) (DLTA)
                 (PHI) (PHI) (?C) (?C) (SG) (DLTA) (DLTA) (PHI)
                 (PHI) (?C) (?C) (DLTA) (DLTA) (PHI) (PHI) (?C)
                 (?C) (PHI) (PHI) (?C) (?C) (?D) (?D) (PHI) (PHI)
                 (?C) (?C) (?D) (?D) (?C) (?C) (?D) (?D) (PHI)
                 (PHI) (?C) (?C) (?D) (?D) (SG) (SG)
 Requested convergence on RMS density matrix=1.00D-10 within 128 cycles.
 Requested convergence on MAX density matrix=1.00D-08.
 Requested convergence on             energy=1.00D-08.
 No special actions if energy rises.
 Restarting incremental Fock formation.
 SCF Done:  E(ROHF) =  -1402.50578257     A.U. after   22 cycles
             Convg  =    0.4651D-10             -V/T =  1.9999
 <Sx>= 0.0000 <Sy>= 0.0000 <Sz>= 2.0000 <S**2>= 6.0000 S= 2.0000
 <L.S>= 0.000000000000E+00
 Annihilation of the first spin contaminant:
 S**2 before annihilation     6.0000,   after     6.0000
 GenMOA:  NOpAll=  4 NOp2=4 NOpUse=  4 JSym2X=1
 <Sx>= 0.0000 <Sy>= 0.0000 <Sz>= 2.0000 <S**2>= 6.0000 S= 2.0000
 ExpMin= 4.70D-03 ExpMax= 1.40D+07 ExpMxC= 2.78D+03 IAcc=3 IRadAn=         5 AccDes= 0.00D+00
 HarFok:  IExCor=  205 AccDes= 0.00D+00 IRadAn=         5 IDoV=-2
 ScaDFX=  1.000000  1.000000  1.000000  1.000000
 Range of M.O.s used for correlation:    15   444
 NBasis=   444 NAE=    22 NBE=    18 NFC=    14 NFV=     0
 NROrb=    430 NOA=     8 NOB=     4 NVA=   422 NVB=   426

 **** Warning!!: The largest alpha MO coefficient is  0.10433368D+04


 **** Warning!!: The largest beta MO coefficient is  0.10430145D+04

 Singles contribution to E2=   -0.5687642562D-03
 Disk-based method using OVN memory for  8 occupieds at a time.
 Permanent disk used for amplitudes and <ij||ab> integrals=    17566244 words.
 Estimated scratch disk usage=  2111275360 words.
 IUseRI=2 ITolRI= 6 IR12RI=0
 Actual    scratch disk usage=  2090177440 words.
 JobTyp=2 Pass  1:  I=   1 to   8 NPSUse= 16 ParTrn=T ParDer=T DoDerP=F.
 (rs|ai) integrals will be sorted in core.
 T,EIJ(AA): I=   1 J=   2      0.1352951E-03     -0.5035083E-03
 T,EIJ(AA): I=   1 J=   3      0.1352951E-03     -0.5035083E-03
 T,EIJ(AA): I=   1 J=   4      0.3824412E-04     -0.1519563E-03
 T,EIJ(AA): I=   1 J=   5      0.4641409E-03     -0.1676134E-02
 T,EIJ(AA): I=   1 J=   6      0.4414748E-03     -0.1577594E-02
 T,EIJ(AA): I=   1 J=   7      0.4414748E-03     -0.1577594E-02
 T,EIJ(AA): I=   1 J=   8      0.5227841E-04     -0.1421543E-03
 T,EIJ(AA): I=   2 J=   3      0.1222178E-02     -0.5337467E-02
 T,EIJ(AA): I=   2 J=   4      0.1353100E-02     -0.6128584E-02
 T,EIJ(AA): I=   2 J=   5      0.6710180E-03     -0.1903039E-02
 T,EIJ(AA): I=   2 J=   6      0.1356905E-03     -0.3547648E-03
 T,EIJ(AA): I=   2 J=   7      0.6399766E-03     -0.2041508E-02
 T,EIJ(AA): I=   2 J=   8      0.1145993E-02     -0.2716959E-02
 T,EIJ(AA): I=   3 J=   4      0.1353100E-02     -0.6128584E-02
 T,EIJ(AA): I=   3 J=   5      0.6710180E-03     -0.1903039E-02
 T,EIJ(AA): I=   3 J=   6      0.6399766E-03     -0.2041508E-02
 T,EIJ(AA): I=   3 J=   7      0.1356905E-03     -0.3547648E-03
 T,EIJ(AA): I=   3 J=   8      0.1145993E-02     -0.2716959E-02
 T,EIJ(AA): I=   4 J=   5      0.3097405E-03     -0.8990484E-03
 T,EIJ(AA): I=   4 J=   6      0.3681366E-03     -0.1457861E-02
 T,EIJ(AA): I=   4 J=   7      0.3681366E-03     -0.1457861E-02
 T,EIJ(AA): I=   4 J=   8      0.1291823E-02     -0.3069403E-02
 T,EIJ(AA): I=   5 J=   6      0.2737748E-02     -0.6440904E-02
 T,EIJ(AA): I=   5 J=   7      0.2737748E-02     -0.6440904E-02
 T,EIJ(AA): I=   5 J=   8      0.5317799E-03     -0.8376384E-03
 T,EIJ(AA): I=   6 J=   7      0.2467929E-02     -0.5790754E-02
 T,EIJ(AA): I=   6 J=   8      0.6288156E-03     -0.1110175E-02
 T,EIJ(AA): I=   7 J=   8      0.6288156E-03     -0.1110175E-02
 T,EIJ(AB): I=   1 J=   1      0.2190038E-02     -0.1042356E-01
 T,EIJ(AB): I=   1 J=   2      0.1925953E-02     -0.8363362E-02
 T,EIJ(AB): I=   1 J=   3      0.1972727E-02     -0.8315010E-02
 T,EIJ(AB): I=   1 J=   4      0.1972727E-02     -0.8315010E-02
 T,EIJ(AB): I=   2 J=   1      0.3468512E-03     -0.1497142E-02
 T,EIJ(AB): I=   2 J=   2      0.9561574E-03     -0.2851725E-02
 T,EIJ(AB): I=   2 J=   3      0.6206758E-03     -0.1674919E-02
 T,EIJ(AB): I=   2 J=   4      0.1266889E-02     -0.3475573E-02
 T,EIJ(AB): I=   3 J=   1      0.3468512E-03     -0.1497142E-02
 T,EIJ(AB): I=   3 J=   2      0.9561574E-03     -0.2851725E-02
 T,EIJ(AB): I=   3 J=   3      0.1266889E-02     -0.3475573E-02
 T,EIJ(AB): I=   3 J=   4      0.6206758E-03     -0.1674919E-02
 T,EIJ(AB): I=   4 J=   1      0.4849162E-04     -0.2063919E-03
 T,EIJ(AB): I=   4 J=   2      0.4152352E-03     -0.1223127E-02
 T,EIJ(AB): I=   4 J=   3      0.1649240E-03     -0.4123879E-03
 T,EIJ(AB): I=   4 J=   4      0.1649240E-03     -0.4123879E-03
 T,EIJ(AB): I=   5 J=   1      0.1907675E-02     -0.8274171E-02
 T,EIJ(AB): I=   5 J=   2      0.7432140E-02     -0.2050663E-01
 T,EIJ(AB): I=   5 J=   3      0.3631531E-02     -0.9551648E-02
 T,EIJ(AB): I=   5 J=   4      0.3631531E-02     -0.9551648E-02
 T,EIJ(AB): I=   6 J=   1      0.1759859E-02     -0.7348224E-02
 T,EIJ(AB): I=   6 J=   2      0.3266532E-02     -0.8539484E-02
 T,EIJ(AB): I=   6 J=   3      0.3423700E-02     -0.8680752E-02
 T,EIJ(AB): I=   6 J=   4      0.7043029E-02     -0.1848794E-01
 T,EIJ(AB): I=   7 J=   1      0.1759859E-02     -0.7348224E-02
 T,EIJ(AB): I=   7 J=   2      0.3266532E-02     -0.8539484E-02
 T,EIJ(AB): I=   7 J=   3      0.7043029E-02     -0.1848794E-01
 T,EIJ(AB): I=   7 J=   4      0.3423700E-02     -0.8680752E-02
 T,EIJ(AB): I=   8 J=   1      0.1382989E-03     -0.4553064E-03
 T,EIJ(AB): I=   8 J=   2      0.1029720E-02     -0.1784676E-02
 T,EIJ(AB): I=   8 J=   3      0.6757705E-03     -0.1015107E-02
 T,EIJ(AB): I=   8 J=   4      0.6757705E-03     -0.1015107E-02
 Actual    scratch disk usage=  2109989728 words.
 JobTyp=3 Pass  1:  I=   1 to   4 NPSUse= 16 ParTrn=T ParDer=T DoDerP=F.
 (rs|ai) integrals will be sorted in core.
 T,EIJ(BB): I=   1 J=   2      0.5049550E-03     -0.1780356E-02
 T,EIJ(BB): I=   1 J=   3      0.5307705E-03     -0.1857627E-02
 T,EIJ(BB): I=   1 J=   4      0.5307705E-03     -0.1857627E-02
 T,EIJ(BB): I=   2 J=   3      0.3112712E-02     -0.7236943E-02
 T,EIJ(BB): I=   2 J=   4      0.3112712E-02     -0.7236943E-02
 T,EIJ(BB): I=   3 J=   4      0.3131299E-02     -0.7238030E-02
 Spin components of T(2) and E(2):
     alpha-alpha T2 =       0.2289261003D-01 E2=     -0.6637434954D-01
     alpha-beta  T2 =       0.6534484634D-01 E2=     -0.1949370567D+00
     beta-beta   T2 =       0.1092321903D-01 E2=     -0.2720752630D-01
 ANorm=    0.1048749583D+01
 E2 =    -0.2890876968D+00 EUMP2 =    -0.14027948702622D+04

 Complete Basis Set (CBS) Extrapolation:
 M. R. Nyden and G. A. Petersson, JCP 75, 1843 (1981)
 G. A. Petersson and M. A. Al-Laham, JCP 94, 6081 (1991)
 G. A. Petersson, T. Tensfeldt, and J. A. Montgomery, JCP 94, 6091 (1991)
 J. A. Montgomery, J. W. Ochterski, and G. A. Petersson, JCP 101, 5900 (1994)
 
 Minimum Number of PNO for Extrapolation =  20
 Absolute Overlaps: IRadAn =         5
 LocTrn: ILocal=3 LocCor=F DoCore=F.
 Entering OneElI...
 Overlap between basis sets.
 Requested accuracy = 0.1000D-12
 PrsmSu:  NPrtUS=   1 ThrOK=F IAlg=1
 PRISM was handed  8589039093 working-precision words and    75 shell-pairs
 IPart=  0 NShTot=          75 NBatch=          15 AvBLen=         5.0
 CnvPC2: ToCart=F DoDens=F IPureD=0 IPureF=0.
 Transformed matrix in CnvPC2: 
                 1             2             3             4             5 
      1   0.100000D+01  0.376096D+00  0.000000D+00  0.000000D+00  0.000000D+00
      2   0.376096D+00  0.100000D+01  0.000000D+00  0.000000D+00  0.000000D+00
      3   0.000000D+00  0.000000D+00  0.100000D+01  0.000000D+00  0.000000D+00
      4   0.000000D+00  0.000000D+00  0.000000D+00  0.100000D+01  0.000000D+00
      5   0.000000D+00  0.000000D+00  0.000000D+00  0.000000D+00  0.100000D+01
      6   0.232663D-01  0.306441D+00  0.000000D+00  0.000000D+00  0.000000D+00
      7   0.000000D+00  0.000000D+00  0.319378D+00  0.000000D+00  0.000000D+00
      8   0.000000D+00  0.000000D+00  0.000000D+00  0.319378D+00  0.000000D+00
      9   0.000000D+00  0.000000D+00  0.000000D+00  0.000000D+00  0.319378D+00
     10   0.000000D+00  0.000000D+00  0.000000D+00  0.000000D+00  0.000000D+00
     11   0.000000D+00  0.000000D+00  0.000000D+00  0.000000D+00  0.000000D+00
     12   0.000000D+00  0.000000D+00  0.000000D+00  0.000000D+00  0.000000D+00
     13   0.000000D+00  0.000000D+00  0.000000D+00  0.000000D+00  0.000000D+00
     14   0.000000D+00  0.000000D+00  0.000000D+00  0.000000D+00  0.000000D+00
     15  -0.409949D-03  0.111392D-01  0.000000D+00  0.000000D+00  0.000000D+00
     16   0.000000D+00  0.000000D+00  0.218094D-01  0.000000D+00  0.000000D+00
     17   0.000000D+00  0.000000D+00  0.000000D+00  0.218094D-01  0.000000D+00
     18   0.000000D+00  0.000000D+00  0.000000D+00  0.000000D+00  0.218094D-01
     19   0.000000D+00  0.000000D+00  0.000000D+00  0.000000D+00  0.000000D+00
     20   0.000000D+00  0.000000D+00  0.000000D+00  0.000000D+00  0.000000D+00
     21   0.000000D+00  0.000000D+00  0.000000D+00  0.000000D+00  0.000000D+00
     22   0.000000D+00  0.000000D+00  0.000000D+00  0.000000D+00  0.000000D+00
     23   0.000000D+00  0.000000D+00  0.000000D+00  0.000000D+00  0.000000D+00
     24   0.476850D-03  0.339634D-02  0.000000D+00  0.000000D+00 -0.162028D-02
     25   0.000000D+00  0.000000D+00  0.415651D-03  0.000000D+00  0.000000D+00
     26   0.000000D+00  0.000000D+00  0.000000D+00  0.415651D-03  0.000000D+00
     27   0.990857D-03  0.688681D-02  0.000000D+00  0.000000D+00 -0.292797D-02
     28   0.788408D-03  0.606137D-02  0.000000D+00  0.000000D+00 -0.398829D-02
     29   0.000000D+00  0.000000D+00  0.628167D-03  0.000000D+00  0.000000D+00
     30   0.000000D+00  0.000000D+00  0.000000D+00  0.628167D-03  0.000000D+00
     31   0.000000D+00  0.000000D+00  0.000000D+00  0.000000D+00  0.000000D+00
     32   0.000000D+00  0.000000D+00  0.000000D+00  0.000000D+00  0.000000D+00
                 6             7             8             9            10 
      1   0.232663D-01  0.000000D+00  0.000000D+00  0.000000D+00  0.000000D+00
      2   0.306441D+00  0.000000D+00  0.000000D+00  0.000000D+00  0.000000D+00
      3   0.000000D+00  0.319378D+00  0.000000D+00  0.000000D+00  0.000000D+00
      4   0.000000D+00  0.000000D+00  0.319378D+00  0.000000D+00  0.000000D+00
      5   0.000000D+00  0.000000D+00  0.000000D+00  0.319378D+00  0.000000D+00
      6   0.100000D+01  0.000000D+00  0.000000D+00  0.000000D+00  0.000000D+00
      7   0.000000D+00  0.100000D+01  0.000000D+00  0.000000D+00  0.000000D+00
      8   0.000000D+00  0.000000D+00  0.100000D+01  0.000000D+00  0.000000D+00
      9   0.000000D+00  0.000000D+00  0.000000D+00  0.100000D+01  0.000000D+00
     10   0.000000D+00  0.000000D+00  0.000000D+00  0.000000D+00  0.100000D+01
     11   0.000000D+00  0.000000D+00  0.000000D+00  0.000000D+00  0.000000D+00
     12   0.000000D+00  0.000000D+00  0.000000D+00  0.000000D+00  0.000000D+00
     13   0.000000D+00  0.000000D+00  0.000000D+00  0.000000D+00  0.000000D+00
     14   0.000000D+00  0.000000D+00  0.000000D+00  0.000000D+00  0.000000D+00
     15   0.347708D+00  0.000000D+00  0.000000D+00  0.000000D+00  0.000000D+00
     16   0.000000D+00  0.361074D+00  0.000000D+00  0.000000D+00  0.000000D+00
     17   0.000000D+00  0.000000D+00  0.361074D+00  0.000000D+00  0.000000D+00
     18   0.000000D+00  0.000000D+00  0.000000D+00  0.361074D+00  0.000000D+00
     19   0.000000D+00  0.000000D+00  0.000000D+00 -0.153870D-05  0.616595D-03
     20   0.187686D-04  0.000000D+00  0.000000D+00 -0.571675D-04  0.558784D-02
     21   0.000000D+00  0.465363D-05  0.000000D+00  0.000000D+00  0.000000D+00
     22   0.000000D+00  0.000000D+00  0.465363D-05  0.000000D+00  0.000000D+00
     23   0.313032D-04  0.000000D+00  0.000000D+00 -0.914193D-04  0.450492D-02
     24   0.325470D-01  0.000000D+00  0.000000D+00 -0.376255D-01  0.827076D-01
     25   0.000000D+00  0.102923D-01  0.000000D+00  0.000000D+00  0.000000D+00
     26   0.000000D+00  0.000000D+00  0.102923D-01  0.000000D+00  0.000000D+00
     27   0.567613D-01  0.000000D+00  0.000000D+00 -0.613180D-01  0.114631D+00
     28   0.712159D-01  0.000000D+00  0.000000D+00 -0.923274D-01  0.151398D+00
     29   0.000000D+00  0.217409D-01  0.000000D+00  0.000000D+00  0.000000D+00
     30   0.000000D+00  0.000000D+00  0.217409D-01  0.000000D+00  0.000000D+00
     31   0.000000D+00  0.000000D+00  0.000000D+00  0.000000D+00  0.000000D+00
     32   0.000000D+00  0.000000D+00  0.000000D+00  0.000000D+00  0.000000D+00
                11            12            13            14            15 
      1   0.000000D+00  0.000000D+00  0.000000D+00  0.000000D+00 -0.409949D-03
      2   0.000000D+00  0.000000D+00  0.000000D+00  0.000000D+00  0.111392D-01
      3   0.000000D+00  0.000000D+00  0.000000D+00  0.000000D+00  0.000000D+00
      4   0.000000D+00  0.000000D+00  0.000000D+00  0.000000D+00  0.000000D+00
      5   0.000000D+00  0.000000D+00  0.000000D+00  0.000000D+00  0.000000D+00
      6   0.000000D+00  0.000000D+00  0.000000D+00  0.000000D+00  0.347708D+00
      7   0.000000D+00  0.000000D+00  0.000000D+00  0.000000D+00  0.000000D+00
      8   0.000000D+00  0.000000D+00  0.000000D+00  0.000000D+00  0.000000D+00
      9   0.000000D+00  0.000000D+00  0.000000D+00  0.000000D+00  0.000000D+00
     10   0.000000D+00  0.000000D+00  0.000000D+00  0.000000D+00  0.000000D+00
     11   0.100000D+01  0.000000D+00  0.000000D+00  0.000000D+00  0.000000D+00
     12   0.000000D+00  0.100000D+01  0.000000D+00  0.000000D+00  0.000000D+00
     13   0.000000D+00  0.000000D+00  0.100000D+01  0.000000D+00  0.000000D+00
     14   0.000000D+00  0.000000D+00  0.000000D+00  0.100000D+01  0.000000D+00
     15   0.000000D+00  0.000000D+00  0.000000D+00  0.000000D+00  0.100000D+01
     16   0.000000D+00  0.000000D+00  0.000000D+00  0.000000D+00  0.000000D+00
     17   0.000000D+00  0.000000D+00  0.000000D+00  0.000000D+00  0.000000D+00
     18   0.000000D+00  0.000000D+00  0.000000D+00  0.000000D+00  0.000000D+00
     19   0.000000D+00  0.000000D+00  0.000000D+00  0.000000D+00  0.436194D-02
     20   0.000000D+00  0.000000D+00  0.000000D+00  0.000000D+00  0.324647D-01
     21  -0.845226D-03  0.000000D+00  0.000000D+00  0.000000D+00  0.000000D+00
     22   0.000000D+00 -0.845226D-03  0.000000D+00  0.000000D+00  0.000000D+00
     23   0.000000D+00  0.000000D+00  0.000000D+00  0.000000D+00  0.113806D-01
     24   0.000000D+00  0.000000D+00  0.000000D+00  0.000000D+00  0.250937D+00
     25  -0.460466D-01  0.000000D+00  0.000000D+00  0.000000D+00  0.000000D+00
     26   0.000000D+00 -0.460466D-01  0.000000D+00  0.000000D+00  0.000000D+00
     27   0.000000D+00  0.000000D+00  0.000000D+00  0.000000D+00  0.233219D+00
     28   0.000000D+00  0.000000D+00  0.000000D+00  0.000000D+00  0.131158D+00
     29  -0.982348D-01  0.000000D+00  0.000000D+00  0.000000D+00  0.000000D+00
     30   0.000000D+00 -0.982348D-01  0.000000D+00  0.000000D+00  0.000000D+00
     31   0.000000D+00  0.000000D+00  0.155840D-01  0.000000D+00  0.000000D+00
     32   0.000000D+00  0.000000D+00  0.000000D+00  0.155840D-01  0.000000D+00
                16            17            18            19            20 
      1   0.000000D+00  0.000000D+00  0.000000D+00  0.000000D+00  0.000000D+00
      2   0.000000D+00  0.000000D+00  0.000000D+00  0.000000D+00  0.000000D+00
      3   0.218094D-01  0.000000D+00  0.000000D+00  0.000000D+00  0.000000D+00
      4   0.000000D+00  0.218094D-01  0.000000D+00  0.000000D+00  0.000000D+00
      5   0.000000D+00  0.000000D+00  0.218094D-01  0.000000D+00  0.000000D+00
      6   0.000000D+00  0.000000D+00  0.000000D+00  0.000000D+00  0.187686D-04
      7   0.361074D+00  0.000000D+00  0.000000D+00  0.000000D+00  0.000000D+00
      8   0.000000D+00  0.361074D+00  0.000000D+00  0.000000D+00  0.000000D+00
      9   0.000000D+00  0.000000D+00  0.361074D+00 -0.153870D-05 -0.571675D-04
     10   0.000000D+00  0.000000D+00  0.000000D+00  0.616595D-03  0.558784D-02
     11   0.000000D+00  0.000000D+00  0.000000D+00  0.000000D+00  0.000000D+00
     12   0.000000D+00  0.000000D+00  0.000000D+00  0.000000D+00  0.000000D+00
     13   0.000000D+00  0.000000D+00  0.000000D+00  0.000000D+00  0.000000D+00
     14   0.000000D+00  0.000000D+00  0.000000D+00  0.000000D+00  0.000000D+00
     15   0.000000D+00  0.000000D+00  0.000000D+00  0.436194D-02  0.324647D-01
     16   0.100000D+01  0.000000D+00  0.000000D+00  0.000000D+00  0.000000D+00
     17   0.000000D+00  0.100000D+01  0.000000D+00  0.000000D+00  0.000000D+00
     18   0.000000D+00  0.000000D+00  0.100000D+01 -0.736312D-02 -0.546391D-01
     19   0.000000D+00  0.000000D+00 -0.736312D-02  0.100000D+01  0.343801D+00
     20   0.000000D+00  0.000000D+00 -0.546391D-01  0.343801D+00  0.100000D+01
     21   0.485178D-02  0.000000D+00  0.000000D+00  0.000000D+00  0.000000D+00
     22   0.000000D+00  0.485178D-02  0.000000D+00  0.000000D+00  0.000000D+00
     23   0.000000D+00  0.000000D+00 -0.188415D-01  0.000000D+00  0.000000D+00
     24   0.000000D+00  0.000000D+00 -0.364485D+00  0.132695D-01  0.218484D+00
     25   0.124523D+00  0.000000D+00  0.000000D+00  0.000000D+00  0.000000D+00
     26   0.000000D+00  0.124523D+00  0.000000D+00  0.000000D+00  0.000000D+00
     27   0.000000D+00  0.000000D+00 -0.315124D+00  0.000000D+00  0.000000D+00
     28   0.000000D+00  0.000000D+00 -0.188873D+00  0.000000D+00  0.000000D+00
     29   0.158204D+00  0.000000D+00  0.000000D+00  0.000000D+00  0.000000D+00
     30   0.000000D+00  0.158204D+00  0.000000D+00  0.000000D+00  0.000000D+00
     31   0.000000D+00  0.000000D+00  0.000000D+00  0.000000D+00  0.000000D+00
     32   0.000000D+00  0.000000D+00  0.000000D+00  0.000000D+00  0.000000D+00
                21            22            23            24            25 
      1   0.000000D+00  0.000000D+00  0.000000D+00  0.476850D-03  0.000000D+00
      2   0.000000D+00  0.000000D+00  0.000000D+00  0.339634D-02  0.000000D+00
      3   0.000000D+00  0.000000D+00  0.000000D+00  0.000000D+00  0.415651D-03
      4   0.000000D+00  0.000000D+00  0.000000D+00  0.000000D+00  0.000000D+00
      5   0.000000D+00  0.000000D+00  0.000000D+00 -0.162028D-02  0.000000D+00
      6   0.000000D+00  0.000000D+00  0.313032D-04  0.325470D-01  0.000000D+00
      7   0.465363D-05  0.000000D+00  0.000000D+00  0.000000D+00  0.102923D-01
      8   0.000000D+00  0.465363D-05  0.000000D+00  0.000000D+00  0.000000D+00
      9   0.000000D+00  0.000000D+00 -0.914193D-04 -0.376255D-01  0.000000D+00
     10   0.000000D+00  0.000000D+00  0.450492D-02  0.827076D-01  0.000000D+00
     11  -0.845226D-03  0.000000D+00  0.000000D+00  0.000000D+00 -0.460466D-01
     12   0.000000D+00 -0.845226D-03  0.000000D+00  0.000000D+00  0.000000D+00
     13   0.000000D+00  0.000000D+00  0.000000D+00  0.000000D+00  0.000000D+00
     14   0.000000D+00  0.000000D+00  0.000000D+00  0.000000D+00  0.000000D+00
     15   0.000000D+00  0.000000D+00  0.113806D-01  0.250937D+00  0.000000D+00
     16   0.485178D-02  0.000000D+00  0.000000D+00  0.000000D+00  0.124523D+00
     17   0.000000D+00  0.485178D-02  0.000000D+00  0.000000D+00  0.000000D+00
     18   0.000000D+00  0.000000D+00 -0.188415D-01 -0.364485D+00  0.000000D+00
     19   0.000000D+00  0.000000D+00  0.000000D+00  0.132695D-01  0.000000D+00
     20   0.000000D+00  0.000000D+00  0.000000D+00  0.218484D+00  0.000000D+00
     21   0.100000D+01  0.000000D+00  0.000000D+00  0.000000D+00  0.232586D+00
     22   0.000000D+00  0.100000D+01  0.000000D+00  0.000000D+00  0.000000D+00
     23   0.000000D+00  0.000000D+00  0.100000D+01  0.000000D+00  0.000000D+00
     24   0.000000D+00  0.000000D+00  0.000000D+00  0.100000D+01  0.000000D+00
     25   0.232586D+00  0.000000D+00  0.000000D+00  0.000000D+00  0.100000D+01
     26   0.000000D+00  0.232586D+00  0.000000D+00  0.000000D+00  0.000000D+00
     27   0.000000D+00  0.000000D+00  0.232586D+00  0.000000D+00  0.000000D+00
     28   0.000000D+00  0.000000D+00  0.000000D+00  0.000000D+00  0.000000D+00
     29   0.000000D+00  0.000000D+00  0.000000D+00  0.000000D+00  0.000000D+00
     30   0.000000D+00  0.000000D+00  0.000000D+00  0.000000D+00  0.000000D+00
     31   0.000000D+00  0.000000D+00  0.000000D+00  0.000000D+00  0.000000D+00
     32   0.000000D+00  0.000000D+00  0.000000D+00  0.000000D+00  0.000000D+00
                26            27            28            29            30 
      1   0.000000D+00  0.990857D-03  0.788408D-03  0.000000D+00  0.000000D+00
      2   0.000000D+00  0.688681D-02  0.606137D-02  0.000000D+00  0.000000D+00
      3   0.000000D+00  0.000000D+00  0.000000D+00  0.628167D-03  0.000000D+00
      4   0.415651D-03  0.000000D+00  0.000000D+00  0.000000D+00  0.628167D-03
      5   0.000000D+00 -0.292797D-02 -0.398829D-02  0.000000D+00  0.000000D+00
      6   0.000000D+00  0.567613D-01  0.712159D-01  0.000000D+00  0.000000D+00
      7   0.000000D+00  0.000000D+00  0.000000D+00  0.217409D-01  0.000000D+00
      8   0.102923D-01  0.000000D+00  0.000000D+00  0.000000D+00  0.217409D-01
      9   0.000000D+00 -0.613180D-01 -0.923274D-01  0.000000D+00  0.000000D+00
     10   0.000000D+00  0.114631D+00  0.151398D+00  0.000000D+00  0.000000D+00
     11   0.000000D+00  0.000000D+00  0.000000D+00 -0.982348D-01  0.000000D+00
     12  -0.460466D-01  0.000000D+00  0.000000D+00  0.000000D+00 -0.982348D-01
     13   0.000000D+00  0.000000D+00  0.000000D+00  0.000000D+00  0.000000D+00
     14   0.000000D+00  0.000000D+00  0.000000D+00  0.000000D+00  0.000000D+00
     15   0.000000D+00  0.233219D+00  0.131158D+00  0.000000D+00  0.000000D+00
     16   0.000000D+00  0.000000D+00  0.000000D+00  0.158204D+00  0.000000D+00
     17   0.124523D+00  0.000000D+00  0.000000D+00  0.000000D+00  0.158204D+00
     18   0.000000D+00 -0.315124D+00 -0.188873D+00  0.000000D+00  0.000000D+00
     19   0.000000D+00  0.000000D+00  0.000000D+00  0.000000D+00  0.000000D+00
     20   0.000000D+00  0.000000D+00  0.000000D+00  0.000000D+00  0.000000D+00
     21   0.000000D+00  0.000000D+00  0.000000D+00  0.000000D+00  0.000000D+00
     22   0.232586D+00  0.000000D+00  0.000000D+00  0.000000D+00  0.000000D+00
     23   0.000000D+00  0.232586D+00  0.000000D+00  0.000000D+00  0.000000D+00
     24   0.000000D+00  0.000000D+00  0.000000D+00  0.000000D+00  0.000000D+00
     25   0.000000D+00  0.000000D+00  0.000000D+00  0.000000D+00  0.000000D+00
     26   0.100000D+01  0.000000D+00  0.000000D+00  0.000000D+00  0.000000D+00
     27   0.000000D+00  0.100000D+01  0.000000D+00  0.000000D+00  0.000000D+00
     28   0.000000D+00  0.000000D+00  0.100000D+01  0.000000D+00  0.000000D+00
     29   0.000000D+00  0.000000D+00  0.000000D+00  0.100000D+01  0.000000D+00
     30   0.000000D+00  0.000000D+00  0.000000D+00  0.000000D+00  0.100000D+01
     31   0.000000D+00  0.000000D+00  0.000000D+00  0.000000D+00  0.000000D+00
     32   0.000000D+00  0.000000D+00  0.000000D+00  0.000000D+00  0.000000D+00
                31            32 
      1   0.000000D+00  0.000000D+00
      2   0.000000D+00  0.000000D+00
      3   0.000000D+00  0.000000D+00
      4   0.000000D+00  0.000000D+00
      5   0.000000D+00  0.000000D+00
      6   0.000000D+00  0.000000D+00
      7   0.000000D+00  0.000000D+00
      8   0.000000D+00  0.000000D+00
      9   0.000000D+00  0.000000D+00
     10   0.000000D+00  0.000000D+00
     11   0.000000D+00  0.000000D+00
     12   0.000000D+00  0.000000D+00
     13   0.155840D-01  0.000000D+00
     14   0.000000D+00  0.155840D-01
     15   0.000000D+00  0.000000D+00
     16   0.000000D+00  0.000000D+00
     17   0.000000D+00  0.000000D+00
     18   0.000000D+00  0.000000D+00
     19   0.000000D+00  0.000000D+00
     20   0.000000D+00  0.000000D+00
     21   0.000000D+00  0.000000D+00
     22   0.000000D+00  0.000000D+00
     23   0.000000D+00  0.000000D+00
     24   0.000000D+00  0.000000D+00
     25   0.000000D+00  0.000000D+00
     26   0.000000D+00  0.000000D+00
     27   0.000000D+00  0.000000D+00
     28   0.000000D+00  0.000000D+00
     29   0.000000D+00  0.000000D+00
     30   0.000000D+00  0.000000D+00
     31   0.100000D+01  0.000000D+00
     32   0.000000D+00  0.100000D+01
 Entering OneElI...
 Overlap between basis sets.
 Requested accuracy = 0.1000D-12
 PrsmSu:  NPrtUS=   1 ThrOK=F IAlg=1
 PRISM was handed  8588344600 working-precision words and   739 shell-pairs
 IPart=  0 NShTot=         739 NBatch=         108 AvBLen=         6.8
 CnvPC2: ToCart=F DoDens=F IPureD=0 IPureF=0.
 Transformed matrix in CnvPC2: 
                 1             2             3             4             5 
      1   0.999776D+00  0.386781D+00  0.000000D+00  0.000000D+00  0.000000D+00
      2   0.273443D+00  0.990638D+00  0.000000D+00  0.000000D+00  0.000000D+00
      3   0.000000D+00  0.000000D+00  0.998909D+00  0.000000D+00  0.000000D+00
      4   0.000000D+00  0.000000D+00  0.000000D+00  0.998909D+00  0.000000D+00
      5   0.000000D+00  0.000000D+00  0.000000D+00  0.000000D+00  0.998909D+00
      6   0.103294D-01  0.304676D+00  0.000000D+00  0.000000D+00  0.000000D+00
      7   0.000000D+00  0.000000D+00  0.309314D+00  0.000000D+00  0.000000D+00
      8   0.000000D+00  0.000000D+00  0.000000D+00  0.309314D+00  0.000000D+00
      9   0.000000D+00  0.000000D+00  0.000000D+00  0.000000D+00  0.309314D+00
     10   0.000000D+00  0.000000D+00  0.000000D+00  0.000000D+00  0.000000D+00
     11   0.000000D+00  0.000000D+00  0.000000D+00  0.000000D+00  0.000000D+00
     12   0.000000D+00  0.000000D+00  0.000000D+00  0.000000D+00  0.000000D+00
     13   0.000000D+00  0.000000D+00  0.000000D+00  0.000000D+00  0.000000D+00
     14   0.000000D+00  0.000000D+00  0.000000D+00  0.000000D+00  0.000000D+00
     15   0.000000D+00  0.000000D+00  0.000000D+00  0.000000D+00  0.000000D+00
     16   0.000000D+00  0.000000D+00  0.000000D+00  0.000000D+00  0.000000D+00
     17   0.000000D+00  0.000000D+00  0.000000D+00  0.000000D+00  0.000000D+00
     18   0.000000D+00  0.000000D+00  0.000000D+00  0.000000D+00  0.000000D+00
     19   0.000000D+00  0.000000D+00  0.000000D+00  0.000000D+00  0.000000D+00
     20  -0.291684D-04  0.687608D-02  0.000000D+00  0.000000D+00  0.000000D+00
     21   0.800335D-02  0.526431D-01  0.000000D+00  0.000000D+00  0.000000D+00
     22   0.384368D-02  0.253971D-01  0.000000D+00  0.000000D+00  0.000000D+00
     23   0.164675D-02  0.109011D-01  0.000000D+00  0.000000D+00  0.000000D+00
     24   0.000000D+00  0.000000D+00 -0.117116D-01  0.000000D+00  0.000000D+00
     25   0.000000D+00  0.000000D+00  0.000000D+00 -0.117116D-01  0.000000D+00
     26   0.000000D+00  0.000000D+00  0.000000D+00  0.000000D+00 -0.117116D-01
     27   0.000000D+00  0.000000D+00  0.169914D-01  0.000000D+00  0.000000D+00
     28   0.000000D+00  0.000000D+00  0.000000D+00  0.169914D-01  0.000000D+00
     29   0.000000D+00  0.000000D+00  0.000000D+00  0.000000D+00  0.169914D-01
     30   0.211022D+00  0.860789D+00  0.000000D+00  0.000000D+00  0.000000D+00
     31   0.125960D+00  0.641815D+00  0.000000D+00  0.000000D+00  0.000000D+00
     32   0.739303D-01  0.428067D+00  0.000000D+00  0.000000D+00  0.000000D+00
     33   0.430285D-01  0.266606D+00  0.000000D+00  0.000000D+00  0.000000D+00
     34   0.249401D-01  0.159915D+00  0.000000D+00  0.000000D+00  0.000000D+00
     35   0.000000D+00  0.000000D+00  0.420522D+00  0.000000D+00  0.000000D+00
     36   0.000000D+00  0.000000D+00  0.000000D+00  0.420522D+00  0.000000D+00
     37   0.000000D+00  0.000000D+00  0.000000D+00  0.000000D+00  0.420522D+00
     38   0.000000D+00  0.000000D+00  0.248413D+00  0.000000D+00  0.000000D+00
     39   0.000000D+00  0.000000D+00  0.000000D+00  0.248413D+00  0.000000D+00
     40   0.000000D+00  0.000000D+00  0.000000D+00  0.000000D+00  0.248413D+00
     41   0.000000D+00  0.000000D+00  0.135167D+00  0.000000D+00  0.000000D+00
     42   0.000000D+00  0.000000D+00  0.000000D+00  0.135167D+00  0.000000D+00
     43   0.000000D+00  0.000000D+00  0.000000D+00  0.000000D+00  0.135167D+00
     44   0.000000D+00  0.000000D+00  0.696742D-01  0.000000D+00  0.000000D+00
     45   0.000000D+00  0.000000D+00  0.000000D+00  0.696742D-01  0.000000D+00
     46   0.000000D+00  0.000000D+00  0.000000D+00  0.000000D+00  0.696742D-01
     47   0.000000D+00  0.000000D+00  0.347436D-01  0.000000D+00  0.000000D+00
     48   0.000000D+00  0.000000D+00  0.000000D+00  0.347436D-01  0.000000D+00
     49   0.000000D+00  0.000000D+00  0.000000D+00  0.000000D+00  0.347436D-01
     50   0.000000D+00  0.000000D+00  0.000000D+00  0.000000D+00  0.000000D+00
     51   0.000000D+00  0.000000D+00  0.000000D+00  0.000000D+00  0.000000D+00
     52   0.000000D+00  0.000000D+00  0.000000D+00  0.000000D+00  0.000000D+00
     53   0.000000D+00  0.000000D+00  0.000000D+00  0.000000D+00  0.000000D+00
     54   0.000000D+00  0.000000D+00  0.000000D+00  0.000000D+00  0.000000D+00
     55   0.000000D+00  0.000000D+00  0.000000D+00  0.000000D+00  0.000000D+00
     56   0.000000D+00  0.000000D+00  0.000000D+00  0.000000D+00  0.000000D+00
     57   0.000000D+00  0.000000D+00  0.000000D+00  0.000000D+00  0.000000D+00
     58   0.000000D+00  0.000000D+00  0.000000D+00  0.000000D+00  0.000000D+00
     59   0.000000D+00  0.000000D+00  0.000000D+00  0.000000D+00  0.000000D+00
     60   0.000000D+00  0.000000D+00  0.000000D+00  0.000000D+00  0.000000D+00
     61   0.000000D+00  0.000000D+00  0.000000D+00  0.000000D+00  0.000000D+00
     62   0.000000D+00  0.000000D+00  0.000000D+00  0.000000D+00  0.000000D+00
     63   0.000000D+00  0.000000D+00  0.000000D+00  0.000000D+00  0.000000D+00
     64   0.000000D+00  0.000000D+00  0.000000D+00  0.000000D+00  0.000000D+00
     65   0.000000D+00  0.000000D+00  0.000000D+00  0.000000D+00  0.000000D+00
     66   0.000000D+00  0.000000D+00  0.000000D+00  0.000000D+00  0.000000D+00
     67   0.000000D+00  0.000000D+00  0.000000D+00  0.000000D+00  0.000000D+00
     68   0.000000D+00  0.000000D+00  0.000000D+00  0.000000D+00  0.000000D+00
     69   0.000000D+00  0.000000D+00  0.000000D+00  0.000000D+00  0.000000D+00
     70   0.000000D+00  0.000000D+00  0.000000D+00  0.000000D+00  0.000000D+00
     71   0.000000D+00  0.000000D+00  0.000000D+00  0.000000D+00  0.000000D+00
     72   0.000000D+00  0.000000D+00  0.000000D+00  0.000000D+00  0.000000D+00
     73   0.000000D+00  0.000000D+00  0.000000D+00  0.000000D+00  0.000000D+00
     74   0.000000D+00  0.000000D+00  0.000000D+00  0.000000D+00  0.000000D+00
     75   0.000000D+00  0.000000D+00  0.000000D+00  0.000000D+00  0.000000D+00
     76   0.000000D+00  0.000000D+00  0.000000D+00  0.000000D+00  0.000000D+00
     77   0.000000D+00  0.000000D+00  0.000000D+00  0.000000D+00  0.000000D+00
     78   0.000000D+00  0.000000D+00  0.000000D+00  0.000000D+00  0.000000D+00
     79   0.000000D+00  0.000000D+00  0.000000D+00  0.000000D+00  0.000000D+00
     80   0.000000D+00  0.000000D+00  0.000000D+00  0.000000D+00  0.000000D+00
     81   0.000000D+00  0.000000D+00  0.000000D+00  0.000000D+00  0.000000D+00
     82   0.000000D+00  0.000000D+00  0.000000D+00  0.000000D+00  0.000000D+00
     83   0.000000D+00  0.000000D+00  0.000000D+00  0.000000D+00  0.000000D+00
     84   0.000000D+00  0.000000D+00  0.000000D+00  0.000000D+00  0.000000D+00
     85   0.000000D+00  0.000000D+00  0.000000D+00  0.000000D+00  0.000000D+00
     86   0.000000D+00  0.000000D+00  0.000000D+00  0.000000D+00  0.000000D+00
     87   0.000000D+00  0.000000D+00  0.000000D+00  0.000000D+00  0.000000D+00
     88   0.000000D+00  0.000000D+00  0.000000D+00  0.000000D+00  0.000000D+00
     89   0.000000D+00  0.000000D+00  0.000000D+00  0.000000D+00  0.000000D+00
     90   0.000000D+00  0.000000D+00  0.000000D+00  0.000000D+00  0.000000D+00
     91   0.000000D+00  0.000000D+00  0.000000D+00  0.000000D+00  0.000000D+00
     92   0.000000D+00  0.000000D+00  0.000000D+00  0.000000D+00  0.000000D+00
     93   0.000000D+00  0.000000D+00  0.000000D+00  0.000000D+00  0.000000D+00
     94   0.000000D+00  0.000000D+00  0.000000D+00  0.000000D+00  0.000000D+00
     95   0.000000D+00  0.000000D+00  0.000000D+00  0.000000D+00  0.000000D+00
     96   0.000000D+00  0.000000D+00  0.000000D+00  0.000000D+00  0.000000D+00
     97   0.000000D+00  0.000000D+00  0.000000D+00  0.000000D+00  0.000000D+00
     98   0.000000D+00  0.000000D+00  0.000000D+00  0.000000D+00  0.000000D+00
     99   0.000000D+00  0.000000D+00  0.000000D+00  0.000000D+00  0.000000D+00
    100   0.000000D+00  0.000000D+00  0.000000D+00  0.000000D+00  0.000000D+00
    101   0.000000D+00  0.000000D+00  0.000000D+00  0.000000D+00  0.000000D+00
    102   0.000000D+00  0.000000D+00  0.000000D+00  0.000000D+00  0.000000D+00
    103   0.000000D+00  0.000000D+00  0.000000D+00  0.000000D+00  0.000000D+00
    104   0.000000D+00  0.000000D+00  0.000000D+00  0.000000D+00  0.000000D+00
    105   0.000000D+00  0.000000D+00  0.000000D+00  0.000000D+00  0.000000D+00
    106   0.000000D+00  0.000000D+00  0.000000D+00  0.000000D+00  0.000000D+00
    107   0.000000D+00  0.000000D+00  0.000000D+00  0.000000D+00  0.000000D+00
    108   0.000000D+00  0.000000D+00  0.000000D+00  0.000000D+00  0.000000D+00
    109   0.000000D+00  0.000000D+00  0.000000D+00  0.000000D+00  0.000000D+00
    110   0.000000D+00  0.000000D+00  0.000000D+00  0.000000D+00  0.000000D+00
    111   0.000000D+00  0.000000D+00  0.000000D+00  0.000000D+00  0.000000D+00
    112   0.000000D+00  0.000000D+00  0.000000D+00  0.000000D+00  0.000000D+00
    113   0.000000D+00  0.000000D+00  0.000000D+00  0.000000D+00  0.000000D+00
    114   0.000000D+00  0.000000D+00  0.000000D+00  0.000000D+00  0.000000D+00
    115   0.000000D+00  0.000000D+00  0.000000D+00  0.000000D+00  0.000000D+00
    116   0.000000D+00  0.000000D+00  0.000000D+00  0.000000D+00  0.000000D+00
    117   0.000000D+00  0.000000D+00  0.000000D+00  0.000000D+00  0.000000D+00
    118   0.000000D+00  0.000000D+00  0.000000D+00  0.000000D+00  0.000000D+00
    119   0.000000D+00  0.000000D+00  0.000000D+00  0.000000D+00  0.000000D+00
    120   0.000000D+00  0.000000D+00  0.000000D+00  0.000000D+00  0.000000D+00
    121   0.000000D+00  0.000000D+00  0.000000D+00  0.000000D+00  0.000000D+00
    122   0.000000D+00  0.000000D+00  0.000000D+00  0.000000D+00  0.000000D+00
    123   0.000000D+00  0.000000D+00  0.000000D+00  0.000000D+00  0.000000D+00
    124   0.000000D+00  0.000000D+00  0.000000D+00  0.000000D+00  0.000000D+00
    125   0.000000D+00  0.000000D+00  0.000000D+00  0.000000D+00  0.000000D+00
    126   0.000000D+00  0.000000D+00  0.000000D+00  0.000000D+00  0.000000D+00
    127   0.000000D+00  0.000000D+00  0.000000D+00  0.000000D+00  0.000000D+00
    128   0.000000D+00  0.000000D+00  0.000000D+00  0.000000D+00  0.000000D+00
    129   0.000000D+00  0.000000D+00  0.000000D+00  0.000000D+00  0.000000D+00
    130   0.000000D+00  0.000000D+00  0.000000D+00  0.000000D+00  0.000000D+00
    131   0.000000D+00  0.000000D+00  0.000000D+00  0.000000D+00  0.000000D+00
    132   0.000000D+00  0.000000D+00  0.000000D+00  0.000000D+00  0.000000D+00
    133   0.000000D+00  0.000000D+00  0.000000D+00  0.000000D+00  0.000000D+00
    134   0.000000D+00  0.000000D+00  0.000000D+00  0.000000D+00  0.000000D+00
    135   0.000000D+00  0.000000D+00  0.000000D+00  0.000000D+00  0.000000D+00
    136   0.000000D+00  0.000000D+00  0.000000D+00  0.000000D+00  0.000000D+00
    137   0.000000D+00  0.000000D+00  0.000000D+00  0.000000D+00  0.000000D+00
    138   0.000000D+00  0.000000D+00  0.000000D+00  0.000000D+00  0.000000D+00
    139   0.000000D+00  0.000000D+00  0.000000D+00  0.000000D+00  0.000000D+00
    140   0.000000D+00  0.000000D+00  0.000000D+00  0.000000D+00  0.000000D+00
    141   0.000000D+00  0.000000D+00  0.000000D+00  0.000000D+00  0.000000D+00
    142   0.000000D+00  0.000000D+00  0.000000D+00  0.000000D+00  0.000000D+00
    143   0.000000D+00  0.000000D+00  0.000000D+00  0.000000D+00  0.000000D+00
    144   0.000000D+00  0.000000D+00  0.000000D+00  0.000000D+00  0.000000D+00
    145   0.000000D+00  0.000000D+00  0.000000D+00  0.000000D+00  0.000000D+00
    146   0.000000D+00  0.000000D+00  0.000000D+00  0.000000D+00  0.000000D+00
    147   0.000000D+00  0.000000D+00  0.000000D+00  0.000000D+00  0.000000D+00
    148   0.000000D+00  0.000000D+00  0.000000D+00  0.000000D+00  0.000000D+00
    149   0.000000D+00  0.000000D+00  0.000000D+00  0.000000D+00  0.000000D+00
    150   0.000000D+00  0.000000D+00  0.000000D+00  0.000000D+00  0.000000D+00
    151   0.000000D+00  0.000000D+00  0.000000D+00  0.000000D+00  0.000000D+00
    152   0.000000D+00  0.000000D+00  0.000000D+00  0.000000D+00  0.000000D+00
    153   0.000000D+00  0.000000D+00  0.000000D+00  0.000000D+00  0.000000D+00
    154   0.000000D+00  0.000000D+00  0.000000D+00  0.000000D+00  0.000000D+00
    155   0.000000D+00  0.000000D+00  0.000000D+00  0.000000D+00  0.000000D+00
    156   0.000000D+00  0.000000D+00  0.000000D+00  0.000000D+00  0.000000D+00
    157   0.000000D+00  0.000000D+00  0.000000D+00  0.000000D+00  0.000000D+00
    158   0.000000D+00  0.000000D+00  0.000000D+00  0.000000D+00  0.000000D+00
    159   0.000000D+00  0.000000D+00  0.000000D+00  0.000000D+00  0.000000D+00
    160   0.000000D+00  0.000000D+00  0.000000D+00  0.000000D+00  0.000000D+00
    161   0.000000D+00  0.000000D+00  0.000000D+00  0.000000D+00  0.000000D+00
    162   0.000000D+00  0.000000D+00  0.000000D+00  0.000000D+00  0.000000D+00
    163   0.000000D+00  0.000000D+00  0.000000D+00  0.000000D+00  0.000000D+00
    164   0.000000D+00  0.000000D+00  0.000000D+00  0.000000D+00  0.000000D+00
    165   0.000000D+00  0.000000D+00  0.000000D+00  0.000000D+00  0.000000D+00
    166   0.000000D+00  0.000000D+00  0.000000D+00  0.000000D+00  0.000000D+00
    167   0.000000D+00  0.000000D+00  0.000000D+00  0.000000D+00  0.000000D+00
    168   0.000000D+00  0.000000D+00  0.000000D+00  0.000000D+00  0.000000D+00
    169   0.000000D+00  0.000000D+00  0.000000D+00  0.000000D+00  0.000000D+00
    170   0.000000D+00  0.000000D+00  0.000000D+00  0.000000D+00  0.000000D+00
    171   0.000000D+00  0.000000D+00  0.000000D+00  0.000000D+00  0.000000D+00
    172   0.000000D+00  0.000000D+00  0.000000D+00  0.000000D+00  0.000000D+00
    173   0.000000D+00  0.000000D+00  0.000000D+00  0.000000D+00  0.000000D+00
    174   0.000000D+00  0.000000D+00  0.000000D+00  0.000000D+00  0.000000D+00
    175   0.000000D+00  0.000000D+00  0.000000D+00  0.000000D+00  0.000000D+00
    176   0.000000D+00  0.000000D+00  0.000000D+00  0.000000D+00  0.000000D+00
    177   0.000000D+00  0.000000D+00  0.000000D+00  0.000000D+00  0.000000D+00
    178   0.000000D+00  0.000000D+00  0.000000D+00  0.000000D+00  0.000000D+00
    179   0.000000D+00  0.000000D+00  0.000000D+00  0.000000D+00  0.000000D+00
    180   0.000000D+00  0.000000D+00  0.000000D+00  0.000000D+00  0.000000D+00
    181   0.000000D+00  0.000000D+00  0.000000D+00  0.000000D+00  0.000000D+00
    182   0.000000D+00  0.000000D+00  0.000000D+00  0.000000D+00  0.000000D+00
    183   0.000000D+00  0.000000D+00  0.000000D+00  0.000000D+00  0.000000D+00
    184   0.000000D+00  0.000000D+00  0.000000D+00  0.000000D+00  0.000000D+00
    185   0.000000D+00  0.000000D+00  0.000000D+00  0.000000D+00  0.000000D+00
    186   0.000000D+00  0.000000D+00  0.000000D+00  0.000000D+00  0.000000D+00
    187   0.000000D+00  0.000000D+00  0.000000D+00  0.000000D+00  0.000000D+00
    188   0.000000D+00  0.000000D+00  0.000000D+00  0.000000D+00  0.000000D+00
    189   0.000000D+00  0.000000D+00  0.000000D+00  0.000000D+00  0.000000D+00
    190   0.000000D+00  0.000000D+00  0.000000D+00  0.000000D+00  0.000000D+00
    191   0.000000D+00  0.000000D+00  0.000000D+00  0.000000D+00  0.000000D+00
    192   0.000000D+00  0.000000D+00  0.000000D+00  0.000000D+00  0.000000D+00
    193   0.000000D+00  0.000000D+00  0.000000D+00  0.000000D+00  0.000000D+00
    194   0.000000D+00  0.000000D+00  0.000000D+00  0.000000D+00  0.000000D+00
    195   0.000000D+00  0.000000D+00  0.000000D+00  0.000000D+00  0.000000D+00
    196   0.000000D+00  0.000000D+00  0.000000D+00  0.000000D+00  0.000000D+00
    197   0.000000D+00  0.000000D+00  0.000000D+00  0.000000D+00  0.000000D+00
    198   0.000000D+00  0.000000D+00  0.000000D+00  0.000000D+00  0.000000D+00
    199   0.000000D+00  0.000000D+00  0.000000D+00  0.000000D+00  0.000000D+00
    200   0.000000D+00  0.000000D+00  0.000000D+00  0.000000D+00  0.000000D+00
    201   0.000000D+00  0.000000D+00  0.000000D+00  0.000000D+00  0.000000D+00
    202   0.000000D+00  0.000000D+00  0.000000D+00  0.000000D+00  0.000000D+00
    203   0.000000D+00  0.000000D+00  0.000000D+00  0.000000D+00  0.000000D+00
    204   0.000000D+00  0.000000D+00  0.000000D+00  0.000000D+00  0.000000D+00
    205   0.000000D+00  0.000000D+00  0.000000D+00  0.000000D+00  0.000000D+00
    206   0.000000D+00  0.000000D+00  0.000000D+00  0.000000D+00  0.000000D+00
    207   0.000000D+00  0.000000D+00  0.000000D+00  0.000000D+00  0.000000D+00
    208   0.000000D+00  0.000000D+00  0.000000D+00  0.000000D+00  0.000000D+00
    209   0.000000D+00  0.000000D+00  0.000000D+00  0.000000D+00  0.000000D+00
    210   0.000000D+00  0.000000D+00  0.000000D+00  0.000000D+00  0.000000D+00
    211   0.000000D+00  0.000000D+00  0.000000D+00  0.000000D+00  0.000000D+00
    212   0.000000D+00  0.000000D+00  0.000000D+00  0.000000D+00  0.000000D+00
    213   0.000000D+00  0.000000D+00  0.000000D+00  0.000000D+00  0.000000D+00
    214   0.000000D+00  0.000000D+00  0.000000D+00  0.000000D+00  0.000000D+00
    215   0.000000D+00  0.000000D+00  0.000000D+00  0.000000D+00  0.000000D+00
    216   0.000000D+00  0.000000D+00  0.000000D+00  0.000000D+00  0.000000D+00
    217   0.000000D+00  0.000000D+00  0.000000D+00  0.000000D+00  0.000000D+00
    218   0.000000D+00  0.000000D+00  0.000000D+00  0.000000D+00  0.000000D+00
    219   0.000000D+00  0.000000D+00  0.000000D+00  0.000000D+00  0.000000D+00
    220   0.000000D+00  0.000000D+00  0.000000D+00  0.000000D+00  0.000000D+00
    221   0.000000D+00  0.000000D+00  0.000000D+00  0.000000D+00  0.000000D+00
    222   0.000000D+00  0.000000D+00  0.000000D+00  0.000000D+00  0.000000D+00
    223   0.000000D+00  0.000000D+00  0.000000D+00  0.000000D+00  0.000000D+00
    224   0.000000D+00  0.000000D+00  0.000000D+00  0.000000D+00  0.000000D+00
    225   0.000000D+00  0.000000D+00  0.000000D+00  0.000000D+00  0.000000D+00
    226   0.000000D+00  0.000000D+00  0.000000D+00  0.000000D+00  0.000000D+00
    227   0.000000D+00  0.000000D+00  0.000000D+00  0.000000D+00  0.000000D+00
    228   0.000000D+00  0.000000D+00  0.000000D+00  0.000000D+00  0.000000D+00
    229   0.000000D+00  0.000000D+00  0.000000D+00  0.000000D+00  0.000000D+00
    230   0.000000D+00  0.000000D+00  0.000000D+00  0.000000D+00  0.000000D+00
    231   0.000000D+00  0.000000D+00  0.000000D+00  0.000000D+00  0.000000D+00
    232   0.000000D+00  0.000000D+00  0.000000D+00  0.000000D+00  0.000000D+00
    233   0.000000D+00  0.000000D+00  0.000000D+00  0.000000D+00  0.000000D+00
    234   0.000000D+00  0.000000D+00  0.000000D+00  0.000000D+00  0.000000D+00
    235   0.000000D+00  0.000000D+00  0.000000D+00  0.000000D+00  0.000000D+00
    236   0.000000D+00  0.000000D+00  0.000000D+00  0.000000D+00  0.000000D+00
    237   0.000000D+00  0.000000D+00  0.000000D+00  0.000000D+00  0.000000D+00
    238   0.000000D+00  0.000000D+00  0.000000D+00  0.000000D+00  0.000000D+00
    239   0.000000D+00  0.000000D+00  0.000000D+00  0.000000D+00  0.000000D+00
    240   0.000000D+00  0.000000D+00  0.000000D+00  0.000000D+00  0.000000D+00
    241   0.000000D+00  0.000000D+00  0.000000D+00  0.000000D+00  0.000000D+00
    242   0.000000D+00  0.000000D+00  0.000000D+00  0.000000D+00  0.000000D+00
    243   0.000000D+00  0.000000D+00  0.000000D+00  0.000000D+00  0.000000D+00
    244   0.000000D+00  0.000000D+00  0.000000D+00  0.000000D+00  0.000000D+00
    245   0.000000D+00  0.000000D+00  0.000000D+00  0.000000D+00  0.000000D+00
    246   0.000000D+00  0.000000D+00  0.000000D+00  0.000000D+00  0.000000D+00
    247   0.000000D+00  0.000000D+00  0.000000D+00  0.000000D+00  0.000000D+00
    248   0.000000D+00  0.000000D+00  0.000000D+00  0.000000D+00  0.000000D+00
    249   0.000000D+00  0.000000D+00  0.000000D+00  0.000000D+00  0.000000D+00
    250   0.000000D+00  0.000000D+00  0.000000D+00  0.000000D+00  0.000000D+00
    251   0.000000D+00  0.000000D+00  0.000000D+00  0.000000D+00  0.000000D+00
    252   0.000000D+00  0.000000D+00  0.000000D+00  0.000000D+00  0.000000D+00
    253   0.000000D+00  0.000000D+00  0.000000D+00  0.000000D+00  0.000000D+00
    254   0.000000D+00  0.000000D+00  0.000000D+00  0.000000D+00  0.000000D+00
    255   0.000000D+00  0.000000D+00  0.000000D+00  0.000000D+00  0.000000D+00
    256   0.000000D+00  0.000000D+00  0.000000D+00  0.000000D+00  0.000000D+00
    257   0.000000D+00  0.000000D+00  0.000000D+00  0.000000D+00  0.000000D+00
    258   0.000000D+00  0.000000D+00  0.000000D+00  0.000000D+00  0.000000D+00
    259   0.000000D+00  0.000000D+00  0.000000D+00  0.000000D+00  0.000000D+00
    260   0.000000D+00  0.000000D+00  0.000000D+00  0.000000D+00  0.000000D+00
    261   0.000000D+00  0.000000D+00  0.000000D+00  0.000000D+00  0.000000D+00
    262   0.000000D+00  0.000000D+00  0.000000D+00  0.000000D+00  0.000000D+00
    263   0.000000D+00  0.000000D+00  0.000000D+00  0.000000D+00  0.000000D+00
    264   0.000000D+00  0.208341D-05  0.000000D+00  0.000000D+00 -0.137767D-05
    265   0.000000D+00  0.000000D+00  0.000000D+00  0.000000D+00  0.000000D+00
    266   0.000000D+00  0.000000D+00  0.000000D+00  0.000000D+00  0.000000D+00
    267   0.000000D+00  0.000000D+00  0.000000D+00  0.000000D+00  0.000000D+00
    268   0.000000D+00  0.000000D+00  0.000000D+00  0.000000D+00  0.000000D+00
    269   0.000000D+00  0.000000D+00  0.000000D+00  0.000000D+00  0.000000D+00
    270   0.525247D-03  0.362311D-02  0.000000D+00  0.000000D+00 -0.126902D-02
    271   0.377872D-02  0.249621D-01  0.000000D+00  0.000000D+00 -0.342927D-02
    272   0.000000D+00  0.000000D+00  0.875165D-03  0.000000D+00  0.000000D+00
    273   0.000000D+00  0.000000D+00  0.000000D+00  0.875165D-03  0.000000D+00
    274   0.215038D-02  0.144564D-01  0.000000D+00  0.000000D+00 -0.377433D-02
    275   0.000000D+00  0.000000D+00  0.298344D-02  0.000000D+00  0.000000D+00
    276   0.000000D+00  0.000000D+00  0.000000D+00  0.298344D-02  0.000000D+00
    277   0.749612D-02  0.491686D-01  0.000000D+00  0.000000D+00 -0.209917D-02
    278   0.000000D+00  0.000000D+00  0.000000D+00  0.000000D+00  0.000000D+00
    279   0.000000D+00  0.000000D+00  0.000000D+00  0.000000D+00  0.000000D+00
    280   0.000000D+00  0.000000D+00  0.000000D+00  0.000000D+00  0.000000D+00
    281   0.000000D+00  0.161356D-05  0.000000D+00  0.000000D+00 -0.227746D-05
    282   0.458644D-04  0.391824D-03  0.000000D+00  0.000000D+00 -0.306523D-03
    283   0.000000D+00  0.000000D+00  0.000000D+00  0.000000D+00  0.000000D+00
    284   0.000000D+00  0.000000D+00  0.000000D+00  0.000000D+00  0.000000D+00
    285   0.000000D+00  0.000000D+00  0.000000D+00  0.000000D+00  0.000000D+00
    286   0.000000D+00  0.000000D+00  0.000000D+00  0.000000D+00  0.000000D+00
    287   0.000000D+00  0.000000D+00  0.000000D+00  0.000000D+00  0.000000D+00
    288   0.000000D+00  0.000000D+00  0.000000D+00  0.000000D+00  0.000000D+00
    289   0.000000D+00  0.000000D+00  0.000000D+00  0.000000D+00  0.000000D+00
    290   0.000000D+00  0.000000D+00  0.000000D+00  0.000000D+00  0.000000D+00
    291   0.000000D+00  0.000000D+00  0.000000D+00  0.000000D+00 -0.101143D-05
    292   0.000000D+00  0.000000D+00  0.203287D-04  0.000000D+00  0.000000D+00
    293   0.000000D+00  0.000000D+00  0.000000D+00  0.203287D-04  0.000000D+00
    294   0.346268D-04  0.346700D-03  0.000000D+00  0.000000D+00 -0.331332D-03
    295   0.000000D+00  0.000000D+00  0.553260D-03  0.000000D+00  0.000000D+00
    296   0.000000D+00  0.000000D+00  0.000000D+00  0.553260D-03  0.000000D+00
    297   0.128916D-02  0.918706D-02  0.000000D+00  0.000000D+00 -0.455066D-02
    298   0.000000D+00  0.000000D+00  0.000000D+00  0.000000D+00  0.000000D+00
    299   0.000000D+00  0.000000D+00  0.000000D+00  0.000000D+00  0.000000D+00
    300   0.000000D+00  0.000000D+00  0.000000D+00  0.000000D+00  0.000000D+00
    301   0.000000D+00  0.000000D+00  0.000000D+00  0.000000D+00  0.000000D+00
    302   0.000000D+00  0.000000D+00  0.000000D+00  0.000000D+00  0.000000D+00
    303   0.000000D+00  0.000000D+00  0.000000D+00  0.000000D+00  0.000000D+00
    304   0.000000D+00  0.000000D+00  0.000000D+00  0.000000D+00  0.000000D+00
    305   0.000000D+00  0.000000D+00  0.000000D+00  0.000000D+00  0.000000D+00
    306   0.000000D+00  0.000000D+00  0.000000D+00  0.000000D+00  0.000000D+00
    307   0.000000D+00  0.000000D+00  0.000000D+00  0.000000D+00  0.000000D+00
    308   0.000000D+00  0.121978D-05  0.000000D+00  0.000000D+00 -0.207099D-05
    309   0.000000D+00  0.000000D+00  0.000000D+00  0.000000D+00  0.000000D+00
    310   0.000000D+00  0.000000D+00  0.000000D+00  0.000000D+00  0.000000D+00
    311   0.000000D+00  0.000000D+00  0.000000D+00  0.000000D+00  0.000000D+00
    312   0.000000D+00  0.000000D+00  0.000000D+00  0.000000D+00  0.000000D+00
    313   0.199513D-03  0.176410D-02  0.000000D+00  0.000000D+00 -0.148266D-02
    314   0.000000D+00  0.000000D+00  0.180799D-03  0.000000D+00  0.000000D+00
    315   0.000000D+00  0.000000D+00  0.000000D+00  0.180799D-03  0.000000D+00
    316   0.000000D+00  0.000000D+00  0.000000D+00  0.000000D+00  0.000000D+00
    317   0.000000D+00  0.000000D+00  0.000000D+00  0.000000D+00  0.000000D+00
    318   0.542043D-02  0.362445D-01  0.000000D+00  0.000000D+00 -0.122765D-01
    319   0.000000D+00  0.000000D+00  0.380244D-02  0.000000D+00  0.000000D+00
    320   0.000000D+00  0.000000D+00  0.000000D+00  0.380244D-02  0.000000D+00
    321   0.000000D+00  0.000000D+00  0.000000D+00  0.000000D+00  0.000000D+00
    322   0.000000D+00  0.000000D+00  0.000000D+00  0.000000D+00  0.000000D+00
    323   0.114278D-01  0.740735D-01  0.000000D+00  0.000000D+00 -0.669667D-02
    324   0.000000D+00  0.000000D+00  0.779367D-02  0.000000D+00  0.000000D+00
    325   0.000000D+00  0.000000D+00  0.000000D+00  0.779367D-02  0.000000D+00
    326   0.000000D+00  0.000000D+00  0.000000D+00  0.000000D+00  0.000000D+00
    327   0.000000D+00  0.000000D+00  0.000000D+00  0.000000D+00  0.000000D+00
    328   0.000000D+00  0.000000D+00  0.000000D+00  0.000000D+00  0.000000D+00
    329   0.000000D+00  0.000000D+00  0.000000D+00  0.000000D+00  0.000000D+00
    330   0.000000D+00  0.000000D+00  0.000000D+00  0.000000D+00  0.000000D+00
    331   0.000000D+00  0.000000D+00  0.000000D+00  0.000000D+00  0.000000D+00
    332   0.000000D+00  0.000000D+00  0.000000D+00  0.000000D+00  0.000000D+00
    333   0.000000D+00  0.000000D+00  0.000000D+00  0.000000D+00  0.000000D+00
    334   0.000000D+00  0.000000D+00  0.000000D+00  0.000000D+00  0.000000D+00
    335   0.000000D+00  0.000000D+00  0.000000D+00  0.000000D+00  0.000000D+00
    336   0.000000D+00  0.000000D+00  0.000000D+00  0.000000D+00  0.000000D+00
    337   0.000000D+00  0.000000D+00  0.000000D+00  0.000000D+00  0.000000D+00
    338   0.000000D+00  0.000000D+00  0.000000D+00  0.000000D+00  0.000000D+00
    339   0.000000D+00  0.000000D+00  0.000000D+00  0.000000D+00  0.000000D+00
    340   0.000000D+00  0.000000D+00  0.000000D+00  0.000000D+00  0.000000D+00
    341   0.000000D+00  0.000000D+00  0.000000D+00  0.000000D+00  0.000000D+00
    342   0.710360D-04  0.763424D-03  0.000000D+00  0.000000D+00 -0.789042D-03
    343   0.000000D+00  0.000000D+00  0.109144D-03  0.000000D+00  0.000000D+00
    344   0.000000D+00  0.000000D+00  0.000000D+00  0.109144D-03  0.000000D+00
    345   0.000000D+00  0.000000D+00  0.000000D+00  0.000000D+00  0.000000D+00
    346   0.000000D+00  0.000000D+00  0.000000D+00  0.000000D+00  0.000000D+00
    347   0.000000D+00  0.000000D+00  0.000000D+00  0.000000D+00  0.000000D+00
    348   0.000000D+00  0.000000D+00  0.000000D+00  0.000000D+00  0.000000D+00
    349   0.382887D-02  0.264094D-01  0.000000D+00  0.000000D+00 -0.125595D-01
    350   0.000000D+00  0.000000D+00  0.390737D-02  0.000000D+00  0.000000D+00
    351   0.000000D+00  0.000000D+00  0.000000D+00  0.390737D-02  0.000000D+00
    352   0.000000D+00  0.000000D+00  0.000000D+00  0.000000D+00  0.000000D+00
    353   0.000000D+00  0.000000D+00  0.000000D+00  0.000000D+00  0.000000D+00
    354   0.000000D+00  0.000000D+00  0.000000D+00  0.000000D+00  0.000000D+00
    355   0.000000D+00  0.000000D+00  0.000000D+00  0.000000D+00  0.000000D+00
    356   0.134717D-01  0.862770D-01  0.000000D+00  0.000000D+00 -0.135566D-01
    357   0.000000D+00  0.000000D+00  0.128526D-01  0.000000D+00  0.000000D+00
    358   0.000000D+00  0.000000D+00  0.000000D+00  0.128526D-01  0.000000D+00
    359   0.000000D+00  0.000000D+00  0.000000D+00  0.000000D+00  0.000000D+00
    360   0.000000D+00  0.000000D+00  0.000000D+00  0.000000D+00  0.000000D+00
    361   0.000000D+00  0.000000D+00  0.000000D+00  0.000000D+00  0.000000D+00
    362   0.000000D+00  0.000000D+00  0.000000D+00  0.000000D+00  0.000000D+00
    363   0.000000D+00  0.000000D+00  0.000000D+00  0.000000D+00  0.000000D+00
    364   0.000000D+00  0.000000D+00  0.000000D+00  0.000000D+00  0.000000D+00
    365   0.000000D+00  0.000000D+00  0.000000D+00  0.000000D+00  0.000000D+00
    366   0.000000D+00  0.000000D+00  0.000000D+00  0.000000D+00  0.000000D+00
    367   0.000000D+00  0.000000D+00  0.000000D+00  0.000000D+00  0.000000D+00
    368   0.000000D+00  0.000000D+00  0.000000D+00  0.000000D+00  0.000000D+00
    369   0.000000D+00  0.000000D+00  0.000000D+00  0.000000D+00  0.000000D+00
    370   0.000000D+00  0.000000D+00  0.000000D+00  0.000000D+00  0.000000D+00
    371   0.000000D+00  0.000000D+00  0.000000D+00  0.000000D+00  0.000000D+00
    372   0.164226D-04  0.240014D-03  0.000000D+00  0.000000D+00 -0.299700D-03
    373   0.000000D+00  0.000000D+00  0.435041D-04  0.000000D+00  0.000000D+00
    374   0.000000D+00  0.000000D+00  0.000000D+00  0.435041D-04  0.000000D+00
    375   0.000000D+00  0.000000D+00  0.000000D+00  0.000000D+00  0.000000D+00
    376   0.000000D+00  0.000000D+00  0.000000D+00  0.000000D+00  0.000000D+00
    377   0.000000D+00  0.000000D+00  0.000000D+00  0.000000D+00  0.000000D+00
    378   0.000000D+00  0.000000D+00  0.000000D+00  0.000000D+00  0.000000D+00
    379   0.000000D+00  0.000000D+00  0.000000D+00  0.000000D+00  0.000000D+00
    380   0.000000D+00  0.000000D+00  0.000000D+00  0.000000D+00  0.000000D+00
    381   0.218320D-02  0.159854D-01  0.000000D+00  0.000000D+00 -0.100617D-01
    382   0.000000D+00  0.000000D+00  0.303753D-02  0.000000D+00  0.000000D+00
    383   0.000000D+00  0.000000D+00  0.000000D+00  0.303753D-02  0.000000D+00
    384   0.000000D+00  0.000000D+00  0.000000D+00  0.000000D+00  0.000000D+00
    385   0.000000D+00  0.000000D+00  0.000000D+00  0.000000D+00  0.000000D+00
    386   0.000000D+00  0.000000D+00  0.000000D+00  0.000000D+00  0.000000D+00
    387   0.000000D+00  0.000000D+00  0.000000D+00  0.000000D+00  0.000000D+00
    388   0.000000D+00  0.000000D+00  0.000000D+00  0.000000D+00  0.000000D+00
    389   0.000000D+00  0.000000D+00  0.000000D+00  0.000000D+00  0.000000D+00
    390   0.135087D-01  0.857348D-01  0.000000D+00  0.000000D+00 -0.203962D-01
    391   0.000000D+00  0.000000D+00  0.165031D-01  0.000000D+00  0.000000D+00
    392   0.000000D+00  0.000000D+00  0.000000D+00  0.165031D-01  0.000000D+00
    393   0.000000D+00  0.000000D+00  0.000000D+00  0.000000D+00  0.000000D+00
    394   0.000000D+00  0.000000D+00  0.000000D+00  0.000000D+00  0.000000D+00
    395   0.000000D+00  0.000000D+00  0.000000D+00  0.000000D+00  0.000000D+00
    396   0.000000D+00  0.000000D+00  0.000000D+00  0.000000D+00  0.000000D+00
    397   0.000000D+00  0.000000D+00  0.000000D+00  0.000000D+00  0.000000D+00
    398   0.000000D+00  0.000000D+00  0.000000D+00  0.000000D+00  0.000000D+00
    399   0.000000D+00  0.000000D+00  0.000000D+00  0.000000D+00  0.000000D+00
    400   0.000000D+00  0.000000D+00  0.000000D+00  0.000000D+00  0.000000D+00
    401   0.000000D+00  0.000000D+00  0.000000D+00  0.000000D+00  0.000000D+00
    402   0.000000D+00  0.000000D+00  0.000000D+00  0.000000D+00  0.000000D+00
    403   0.000000D+00  0.000000D+00  0.000000D+00  0.000000D+00  0.000000D+00
    404   0.000000D+00  0.000000D+00  0.000000D+00  0.000000D+00  0.000000D+00
    405   0.000000D+00  0.000000D+00  0.000000D+00  0.000000D+00  0.000000D+00
    406   0.000000D+00  0.000000D+00  0.000000D+00  0.000000D+00  0.000000D+00
    407   0.000000D+00  0.000000D+00  0.000000D+00  0.000000D+00  0.000000D+00
    408   0.000000D+00  0.000000D+00  0.000000D+00  0.000000D+00  0.000000D+00
    409   0.000000D+00  0.000000D+00  0.000000D+00  0.000000D+00  0.000000D+00
    410   0.135489D-03  0.146103D-02  0.000000D+00  0.000000D+00 -0.155417D-02
    411   0.000000D+00  0.000000D+00  0.330285D-03  0.000000D+00  0.000000D+00
    412   0.000000D+00  0.000000D+00  0.000000D+00  0.330285D-03  0.000000D+00
    413   0.000000D+00  0.000000D+00  0.000000D+00  0.000000D+00  0.000000D+00
    414   0.000000D+00  0.000000D+00  0.000000D+00  0.000000D+00  0.000000D+00
    415   0.000000D+00  0.000000D+00  0.000000D+00  0.000000D+00  0.000000D+00
    416   0.000000D+00  0.000000D+00  0.000000D+00  0.000000D+00  0.000000D+00
    417   0.000000D+00  0.000000D+00  0.000000D+00  0.000000D+00  0.000000D+00
[...]
         |

 AB - AA |     21        22
 BA - BB |     21        22
------------------------------
   15    | -0.000092 -0.000074
   15    |  0.000000  0.000000
         |
   16    | -0.000376 -0.000662
   16    |  0.000000  0.000000
         |
   17    | -0.000417 -0.000662
   17    |  0.000000  0.000000
         |
   18    | -0.001788 -0.000913
   18    |  0.000000  0.000000
         |
   19    | -0.007406 -0.003094
   19    |  0.000000  0.000000
         |
   20    | -0.007337 -0.003110
   20    |  0.000000  0.000000
         |
   21    |  0.000000 -0.003094
   21    |  0.000000  0.000000
         |
   22    |  0.000000  0.000000
   22    |  0.000000  0.000000
         |

                     Sum of ab pair energies =    -0.148681 A.U.
                     Sum of ba pair energies =    -0.053457 A.U.
                     Sum of aa pair energies =    -0.066947 A.U.
                     Sum of bb pair energies =    -0.027516 A.U.

           Sum of intraorbital pair energies =    -0.080562 A.U.
           Sum of interorbital pair energies =    -0.216039 A.U.
                                                  ----------
                         Total pair energies =    -0.296601 A.U.

                         Single Excitations  =    -0.000569 A.U.

                          Total second order =    -0.297170 A.U.



            MP2(CBS) (With Interference Correction) 
            ---------------------------------------

 AB - AA |     15        16        17        18        19        20
 BA - BB |     15        16        17        18        19        20
----------------------------------------------------------------------
   15    | -0.014531 -0.002486 -0.002486 -0.001755 -0.000091 -0.000020
   15    |  0.000000 -0.002590 -0.002590 -0.001839  0.000000  0.000000
         |
   16    | -0.008908 -0.021223 -0.007021 -0.006259 -0.000417 -0.000268
   16    | -0.008818  0.000000 -0.007265 -0.006585  0.000000  0.000000
         |
   17    | -0.008908 -0.009893 -0.021223 -0.006259 -0.000375 -0.000268
   17    | -0.008818 -0.009893  0.000000 -0.006585  0.000000  0.000000
         |
   18    | -0.006376 -0.009547 -0.009547 -0.021759 -0.001787 -0.001028
   18    | -0.006316 -0.009382 -0.009382  0.000000  0.000000  0.000000
         |
   19    | -0.000272 -0.000619 -0.001019 -0.002112  0.000000 -0.007333
   19    |  0.000000  0.000000  0.000000  0.000000  0.000000  0.000000
         |
   20    | -0.000030 -0.000419 -0.000419 -0.001415  0.000000  0.000000
   20    |  0.000000  0.000000  0.000000  0.000000  0.000000  0.000000
         |
   21    | -0.000272 -0.001019 -0.000619 -0.002112  0.000000  0.000000
   21    |  0.000000  0.000000  0.000000  0.000000  0.000000  0.000000
         |
   22    | -0.000171 -0.000919 -0.000919 -0.001702  0.000000  0.000000
   22    |  0.000000  0.000000  0.000000  0.000000  0.000000  0.000000
         |

 AB - AA |     21        22
 BA - BB |     21        22
------------------------------
   15    | -0.000091 -0.000074
   15    |  0.000000  0.000000
         |
   16    | -0.000375 -0.000661
   16    |  0.000000  0.000000
         |
   17    | -0.000417 -0.000661
   17    |  0.000000  0.000000
         |
   18    | -0.001787 -0.000910
   18    |  0.000000  0.000000
         |
   19    | -0.007403 -0.003089
   19    |  0.000000  0.000000
         |
   20    | -0.007333 -0.003103
   20    |  0.000000  0.000000
         |
   21    |  0.000000 -0.003089
   21    |  0.000000  0.000000
         |
   22    |  0.000000  0.000000
   22    |  0.000000  0.000000
         |

                     Sum of ab pair energies =    -0.145953 A.U.
                     Sum of ba pair energies =    -0.052609 A.U.
                     Sum of aa pair energies =    -0.066846 A.U.
                     Sum of bb pair energies =    -0.027454 A.U.

           Sum of intraorbital pair energies =    -0.078737 A.U.
           Sum of interorbital pair energies =    -0.214127 A.U.
                                                  ----------
                         Total pair energies =    -0.292863 A.U.

                         Single Excitations  =    -0.000569 A.U.

                          Total second order =    -0.293432 A.U.

                         E2(CBS) - E2(Dir) =      -0.008082 A.U.

 E2(CBS)=      -0.297170 CBS-Int=       0.003738 OIii=       1.576374

 **********************************************************************

            Population analysis using the SCF density.

 **********************************************************************

 Orbital symmetries:
       Occupied  (SG) (SG) (SG) (PI) (PI) (SG) (SG) (SG) (PI) (PI)
                 (SG) (PI) (PI) (SG) (SG) (SG) (PI) (PI) (?A) (SG)
                 (PI) (PI)
       Virtual   (SG) (SG) (PI) (PI) (SG) (?A) (SG) (?A) (PI) (PI)
                 (PI) (PI) (SG) (?A) (SG) (SG) (?A) (?A) (SG) (?B)
                 (?B) (?B) (?B) (SG) (PI) (PI) (?A) (?A) (SG) (?A)
                 (PI) (PI) (?A) (PI) (PI) (SG) (PHI) (PHI) (SG)
                 (SG) (DLTA) (DLTA) (PI) (PI) (PI) (PI) (SG) (?C)
                 (?C) (DLTA) (DLTA) (PHI) (PHI) (DLTA) (DLTA) (SG)
                 (SG) (PI) (PI) (PI) (PI) (PHI) (PHI) (SG) (?A)
                 (?A) (?C) (?C) (PI) (PI) (SG) (PHI) (PHI) (?A)
                 (?A) (?D) (?D) (?D) (?D) (SG) (?C) (?C) (?A) (?A)
                 (SG) (DLTA) (DLTA) (PI) (PI) (PI) (PI) (PHI) (PHI)
                 (SG) (PI) (PI) (PHI) (PHI) (SG) (DLTA) (DLTA)
                 (SG) (DLTA) (DLTA) (SG) (PI) (PI) (PI) (PI) (PHI)
                 (PHI) (?E) (?E) (?C) (?C) (SG) (DLTA) (DLTA) (?C)
                 (?C) (PI) (PI) (SG) (SG) (SG) (PI) (PI) (?E) (?E)
                 (PHI) (PHI) (SG) (PHI) (PHI) (DLTA) (DLTA) (SG)
                 (?F) (?F) (?F) (PI) (PI) (?F) (?F) (PHI) (PHI)
                 (DLTA) (DLTA) (DLTA) (DLTA) (PI) (PI) (?B) (?B)
                 (SG) (SG) (?B) (?B) (?G) (?G) (PI) (PI) (PHI)
                 (PHI) (SG) (?G) (?G) (SG) (?G) (?G) (PI) (PI)
                 (PI) (PI) (DLTA) (DLTA) (SG) (PI) (PI) (?E) (?E)
                 (?C) (?C) (PHI) (PHI) (SG) (SG) (DLTA) (DLTA)
                 (PI) (PI) (PI) (PI) (PI) (PI) (SG) (SG) (?E) (?E)
                 (?C) (?C) (?C) (?C) (PHI) (PHI) (PHI) (PHI) (DLTA)
                 (DLTA) (SG) (?C) (?C) (PI) (PI) (DLTA) (DLTA)
                 (PHI) (PHI) (SG) (SG) (?B) (?B) (?B) (?B) (DLTA)
                 (DLTA) (SG) (PI) (PI) (DLTA) (DLTA) (SG) (PI)
                 (PI) (PHI) (PHI) (DLTA) (DLTA) (SG) (PI) (PI)
                 (SG) (SG) (SG) (?E) (?E) (?C) (?C) (PI) (PI) (DLTA)
                 (DLTA) (?B) (?B) (DLTA) (DLTA) (?B) (?B) (SG)
                 (SG) (DLTA) (DLTA) (PI) (PI) (PI) (PI) (SG) (?E)
                 (?E) (SG) (SG) (?C) (?C) (PHI) (PHI) (SG) (DLTA)
                 (DLTA) (PI) (PI) (SG) (PI) (PI) (SG) (?E) (?E)
                 (?H) (?H) (PHI) (PHI) (?H) (?C) (?C) (DLTA) (PHI)
                 (PHI) (DLTA) (DLTA) (DLTA) (PI) (PI) (SG) (PI)
                 (PI) (?E) (?E) (?C) (?C) (PHI) (PHI) (SG) (DLTA)
                 (DLTA) (PI) (PI) (SG) (?C) (?C) (PHI) (PHI) (DLTA)
                 (DLTA) (PI) (PI) (SG) (PHI) (PHI) (DLTA) (DLTA)
                 (PI) (PI) (SG) (PHI) (PHI) (DLTA) (DLTA) (PI)
                 (PI) (SG) (PI) (PI) (SG) (SG) (?I) (?I) (?J) (?J)
                 (?I) (?I) (?K) (?K) (?I) (?I) (?J) (?J) (?I) (?I)
                 (?K) (DLTA) (DLTA) (PI) (PI) (SG) (DLTA) (DLTA)
                 (PI) (PI) (SG) (?J) (?J) (?L) (?L) (?L) (?L) (?L)
                 (?L) (?J) (?J) (?L) (?L) (?L) (SG) (PI) (PI) (SG)
                 (?E) (?E) (?L) (?L) (?B) (?B) (DLTA) (DLTA) (?B)
                 (?B) (?L) (?C) (?C) (?B) (?B) (DLTA) (DLTA) (?B)
                 (?B) (SG) (PHI) (PHI) (DLTA) (DLTA) (PI) (PI)
                 (SG) (PI) (PI) (SG) (DLTA) (DLTA) (PI) (PI) (SG)
                 (SG) (SG)
 Unable to determine electronic state:  an orbital has unidentified symmetry.
 Alpha  occ. eigenvalues -- -201.50548-104.77113 -23.90650 -20.05517 -20.05517
 Alpha  occ. eigenvalues --  -20.05451 -10.49879  -7.96550  -7.96495  -7.96495
 Alpha  occ. eigenvalues --   -3.29265  -2.15775  -2.15488  -2.15488  -1.02822
 Alpha  occ. eigenvalues --   -0.52983  -0.52983  -0.52042  -0.47536  -0.41017
 Alpha  occ. eigenvalues --   -0.41017  -0.26722
 Alpha virt. eigenvalues --    0.00859   0.03672   0.03672   0.04733   0.05018
 Alpha virt. eigenvalues --    0.08461   0.11829   0.13115   0.14776   0.14776
 Alpha virt. eigenvalues --    0.17330   0.17523   0.17523   0.17597   0.19695
 Alpha virt. eigenvalues --    0.22339   0.30099   0.30177   0.32215   0.33490
 Alpha virt. eigenvalues --    0.33490   0.36482   0.36482   0.39687   0.39713
 Alpha virt. eigenvalues --    0.39713   0.40570   0.41072   0.42167   0.45094
 Alpha virt. eigenvalues --    0.48467   0.48467   0.50126   0.55994   0.55994
 Alpha virt. eigenvalues --    0.57705   0.63994   0.64058   0.64058   0.64122
 Alpha virt. eigenvalues --    0.66939   0.66992   0.70379   0.70379   0.72862
 Alpha virt. eigenvalues --    0.72862   0.73938   0.74075   0.74078   0.78079
 Alpha virt. eigenvalues --    0.78093   0.82846   0.82846   0.85776   0.86033
 Alpha virt. eigenvalues --    0.86310   0.88622   0.89221   0.89221   0.98770
 Alpha virt. eigenvalues --    0.98770   1.00527   1.00527   1.04093   1.05606
 Alpha virt. eigenvalues --    1.06149   1.11615   1.11615   1.22122   1.22122
 Alpha virt. eigenvalues --    1.22971   1.23961   1.25018   1.25018   1.29146
 Alpha virt. eigenvalues --    1.30734   1.30734   1.31057   1.31057   1.35356
 Alpha virt. eigenvalues --    1.39617   1.39617   1.43650   1.44293   1.44551
 Alpha virt. eigenvalues --    1.50892   1.50912   1.50937   1.50937   1.53467
 Alpha virt. eigenvalues --    1.53467   1.56866   1.56866   1.59195   1.59702
 Alpha virt. eigenvalues --    1.59702   1.61932   1.61965   1.61965   1.66993
 Alpha virt. eigenvalues --    1.67216   1.69078   1.71478   1.71831   1.71998
 Alpha virt. eigenvalues --    1.72337   1.72337   1.92311   1.92311   1.99428
 Alpha virt. eigenvalues --    1.99428   2.02543   2.02543   2.03810   2.03810
 Alpha virt. eigenvalues --    2.08744   2.09824   2.09936   2.12485   2.12485
 Alpha virt. eigenvalues --    2.15490   2.15490   2.27566   2.32048   2.32048
 Alpha virt. eigenvalues --    2.33464   2.33464   2.38181   2.38181   2.39350
 Alpha virt. eigenvalues --    2.39350   2.42297   2.44800   2.44800   2.45201
 Alpha virt. eigenvalues --    2.45908   2.50431   2.61761   2.61765   2.62205
 Alpha virt. eigenvalues --    2.63854   2.63854   2.64119   2.64120   2.74210
 Alpha virt. eigenvalues --    2.74210   2.75363   2.75688   2.79948   2.80905
 Alpha virt. eigenvalues --    2.84621   2.84621   2.96212   2.96652   2.96652
 Alpha virt. eigenvalues --    2.98770   3.00914   3.00914   3.04823   3.05945
 Alpha virt. eigenvalues --    3.12359   3.12359   3.24733   3.24733   3.24745
 Alpha virt. eigenvalues --    3.25613   3.28517   3.36091   3.38439   3.39085
 Alpha virt. eigenvalues --    3.44424   3.44424   3.50670   3.50670   3.56745
 Alpha virt. eigenvalues --    3.57075   3.62799   3.64492   3.64492   3.74692
 Alpha virt. eigenvalues --    3.74692   3.77661   3.77661   3.86216   3.86216
 Alpha virt. eigenvalues --    3.90990   4.03370   4.06545   4.06645   4.25324
 Alpha virt. eigenvalues --    4.25324   4.34756   4.34756   4.48151   4.48151
 Alpha virt. eigenvalues --    4.54236   4.94998   4.98222   4.98222   5.03134
 Alpha virt. eigenvalues --    5.03137   5.03507   5.03510   5.05294   5.05294
 Alpha virt. eigenvalues --    5.13710   5.13710   5.16631   5.16634   5.17125
 Alpha virt. eigenvalues --    5.26250   5.26250   5.27986   5.27986   5.32084
 Alpha virt. eigenvalues --    5.32649   5.37694   5.37694   5.50035   5.55780
 Alpha virt. eigenvalues --    5.61662   5.61662   5.63117   5.63117   5.69836
 Alpha virt. eigenvalues --    5.69896   5.75704   5.80840   5.80840   5.87193
 Alpha virt. eigenvalues --    5.89225   6.20867   6.26277   6.26277   6.43998
 Alpha virt. eigenvalues --    6.43998   6.53703   6.53706   6.63928   6.67255
 Alpha virt. eigenvalues --    6.67255   7.06926   7.34696   7.34696   7.36458
 Alpha virt. eigenvalues --    7.36458   7.41092   7.41093   7.43812   7.43812
 Alpha virt. eigenvalues --    7.45827   7.46339   7.48721   7.48721   7.63750
 Alpha virt. eigenvalues --    7.63754   7.66615   7.66615   7.67151   7.86222
 Alpha virt. eigenvalues --    7.97300   8.00239   8.28428   8.28428   8.34733
 Alpha virt. eigenvalues --    8.34733   8.62280   8.76107   8.76107   8.76369
 Alpha virt. eigenvalues --    8.76369   8.78111   8.78111   8.85844   8.85844
 Alpha virt. eigenvalues --    8.91315   9.07567   9.07644   9.35275   9.35275
 Alpha virt. eigenvalues --    9.36226   9.50552   9.50552   9.80460   9.89630
 Alpha virt. eigenvalues --    9.89630   9.91363   9.91366   9.97081   9.97081
 Alpha virt. eigenvalues --    9.98432  10.15070  10.15070  10.19562  10.19990
 Alpha virt. eigenvalues --   10.21094  10.21094  10.27086  10.27086  10.27269
 Alpha virt. eigenvalues --   10.27289  10.43472  10.66321  10.66321  11.00530
 Alpha virt. eigenvalues --   11.00530  11.04188  11.04188  11.11730  11.11730
 Alpha virt. eigenvalues --   11.14189  11.30670  11.30696  11.49390  11.49390
 Alpha virt. eigenvalues --   11.64692  12.02791  12.02796  12.07474  12.07474
 Alpha virt. eigenvalues --   12.27441  12.27622  12.44448  12.44448  12.63291
 Alpha virt. eigenvalues --   12.86652  12.86652  12.95450  12.95456  13.18328
 Alpha virt. eigenvalues --   13.18328  13.26187  13.31681  13.31681  13.48793
 Alpha virt. eigenvalues --   13.50071  13.81803  13.81803  14.32238  14.64354
 Alpha virt. eigenvalues --   14.64354  15.02436  16.52347  17.33060  17.33060
 Alpha virt. eigenvalues --   17.34587  17.34597  17.35278  17.35278  17.35438
 Alpha virt. eigenvalues --   17.35488  17.35610  17.35610  17.36835  17.37943
 Alpha virt. eigenvalues --   17.39824  17.39824  17.44447  17.88313  17.88317
 Alpha virt. eigenvalues --   18.37494  18.37494  18.88403  21.23230  21.24320
 Alpha virt. eigenvalues --   21.51536  21.51536  22.07297  22.36011  22.36012
 Alpha virt. eigenvalues --   22.37626  22.37626  22.39197  22.39218  22.41313
 Alpha virt. eigenvalues --   22.41313  22.42354  22.43416  22.53954  22.53954
 Alpha virt. eigenvalues --   22.54655  23.24444  24.40133  24.40133  25.27642
 Alpha virt. eigenvalues --   26.05501  26.05501  26.07019  26.07023  26.09424
 Alpha virt. eigenvalues --   26.09424  26.16372  26.17082  26.30417  26.30417
 Alpha virt. eigenvalues --   26.41689  29.61072  29.61073  29.64092  29.64092
 Alpha virt. eigenvalues --   29.76074  29.76300  29.83950  29.83950  29.90067
 Alpha virt. eigenvalues --   33.22000  33.22000  33.34349  33.34485  33.50126
 Alpha virt. eigenvalues --   33.50126  33.84832  36.50001  36.50001  39.56344
 Alpha virt. eigenvalues --   47.17843  47.17844  47.51478  47.51478  47.86740
 Alpha virt. eigenvalues --  252.55038 272.27359
          Condensed to atoms (all electrons):
              1          2
     1  V   22.591225  -0.086013
     2  Cl  -0.086013  17.580802
 Mulliken atomic charges:
              1
     1  V    0.494789
     2  Cl  -0.494789
 Sum of Mulliken atomic charges =   0.00000
 Mulliken charges with hydrogens summed into heavy atoms:
              1
     1  V    0.494789
     2  Cl  -0.494789
 Sum of Mulliken charges with hydrogens summed into heavy atoms =   0.00000
          Atomic-Atomic Spin Densities.
              1          2
     1  V    4.421787  -0.380194
     2  Cl  -0.380194   0.338600
 Mulliken atomic spin densities:
              1
     1  V    4.041594
     2  Cl  -0.041594
 Sum of Mulliken atomic spin densities =   4.00000
 Electronic spatial extent (au):  <R**2>=            241.1717
 Charge=              0.0000 electrons
 Dipole moment (field-independent basis, Debye):
    X=              0.0000    Y=              0.0000    Z=              3.5022  Tot=              3.5022
 Quadrupole moment (field-independent basis, Debye-Ang):
   XX=            -29.5183   YY=            -29.5183   ZZ=            -35.2453
   XY=              0.0000   XZ=              0.0000   YZ=              0.0000
 Traceless Quadrupole moment (field-independent basis, Debye-Ang):
   XX=              1.9090   YY=              1.9090   ZZ=             -3.8180
   XY=              0.0000   XZ=              0.0000   YZ=              0.0000
 Octapole moment (field-independent basis, Debye-Ang**2):
  XXX=              0.0000  YYY=              0.0000  ZZZ=             -4.5803  XYY=              0.0000
  XXY=              0.0000  XXZ=              0.6116  XZZ=              0.0000  YZZ=              0.0000
  YYZ=              0.6116  XYZ=              0.0000
 Hexadecapole moment (field-independent basis, Debye-Ang**3):
 XXXX=            -48.9177 YYYY=            -48.9177 ZZZZ=           -315.7389 XXXY=              0.0000
 XXXZ=              0.0000 YYYX=              0.0000 YYYZ=              0.0000 ZZZX=              0.0000
 ZZZY=              0.0000 XXYY=            -16.6526 XXZZ=            -60.3123 YYZZ=            -60.3123
 XXYZ=              0.0000 YYXZ=              0.0000 ZZXY=              0.0000
 N-N= 9.346337663405D+01 E-N=-5.234679318728D+03  KE= 2.096528649089D+03
                          Isotropic Fermi Contact Couplings
        Atom                 a.u.       MegaHertz       Gauss      10(-4) cm-1
     1  V(51)              1.83559     540.49574     192.86231     180.28997
     2  Cl(35)             0.04072       4.46375       1.59278       1.48895
 --------------------------------------------------------
       Center         ----  Spin Dipole Couplings  ----
                      3XX-RR        3YY-RR        3ZZ-RR
 --------------------------------------------------------
     1   Atom       -0.166742     -0.166742      0.333484
     2   Atom       -0.040024     -0.040024      0.080048
 --------------------------------------------------------
                        XY            XZ            YZ
 --------------------------------------------------------
     1   Atom        0.000000      0.000000      0.000000
     2   Atom        0.000000      0.000000      0.000000
 --------------------------------------------------------


 ---------------------------------------------------------------------------------
              Anisotropic Spin Dipole Couplings in Principal Axis System
 ---------------------------------------------------------------------------------

       Atom             a.u.   MegaHertz   Gauss  10(-4) cm-1        Axes

              Baa    -0.1667   -23.442    -8.365    -7.820  0.0000  1.0000  0.0000
     1 V(51)  Bbb    -0.1667   -23.442    -8.365    -7.820  1.0000  0.0000  0.0000
              Bcc     0.3335    46.885    16.730    15.639  0.0000  0.0000  1.0000
 
              Baa    -0.0400    -2.095    -0.747    -0.699  0.0000  1.0000  0.0000
     2 Cl(35) Bbb    -0.0400    -2.095    -0.747    -0.699  1.0000  0.0000  0.0000
              Bcc     0.0800     4.190     1.495     1.397  0.0000  0.0000  1.0000
 

 ---------------------------------------------------------------------------------


 Test job not archived.
 1\1\GINC-N35\SP\ROMP2-FC\Gen\Cl1V1(5)\GPETERSSON\03-Nov-2013\0\\# ROMP
 2 Gen GFinput Int=NoBasisTransform Int(Grid=Ultrafine) IOp(3/32=2,5/6=
 10,8/11=1,9/33=1) Maxdisk=128GB CBSextrapolate(Nmin=20,MinPop) SCF=Sym
 m Guess=Read\\VCl 5/\\0,5\V\Cl,1,2.21379\\Version=EM64L-G09RevA.02\HF=
 -1402.5057826\MP2=-1402.7948703\E2(CBS)=-0.2971699\CBS-Int=-0.2934319\
 OIii=1.5763739\RMSD=4.651e-11\PG=C*V [C*(Cl1V1)]\\@


 IT IS UNWORTHY OF EXCELLENT MEN TO LOSE HOURS LIKE SLAVES IN THE LABOR
 OF CALCULATION WHICH COULD BE SAFELY RELEGATED TO ANYONE ELSE
 IF A MACHINE WERE USED.
    -- G.W. VON LEIBNIZ
 Job cpu time:  1 days 10 hours 28 minutes  7.7 seconds.
 File lengths (MBytes):  RWF=  16284 Int=      0 D2E=      0 Chk=     17 Scr=      1
 Normal termination of Gaussian 09 at Sun Nov  3 11:25:44 2013.
