 Entering Gaussian System, Link 0=g09
 AtFile(1): 7ZaPa-NR.gbs
 Initial command:
 /share/apps/gaussian/g09root/g09/l1.exe /localscratch/62634/Gau-28455.inp -scrdir=/localscratch/62634/
 Entering Link 1 = /share/apps/gaussian/g09root/g09/l1.exe PID=     28456.
  
 Copyright (c) 1988,1990,1992,1993,1995,1998,2003,2009, Gaussian, Inc.
                  All Rights Reserved.
  
 This is part of the Gaussian(R) 09 program.  It is based on
 the Gaussian(R) 03 system (copyright 2003, Gaussian, Inc.),
 the Gaussian(R) 98 system (copyright 1998, Gaussian, Inc.),
 the Gaussian(R) 94 system (copyright 1995, Gaussian, Inc.),
 the Gaussian 92(TM) system (copyright 1992, Gaussian, Inc.),
 the Gaussian 90(TM) system (copyright 1990, Gaussian, Inc.),
 the Gaussian 88(TM) system (copyright 1988, Gaussian, Inc.),
 the Gaussian 86(TM) system (copyright 1986, Carnegie Mellon
 University), and the Gaussian 82(TM) system (copyright 1983,
 Carnegie Mellon University). Gaussian is a federally registered
 trademark of Gaussian, Inc.
  
 This software contains proprietary and confidential information,
 including trade secrets, belonging to Gaussian, Inc.
  
 This software is provided under written license and may be
 used, copied, transmitted, or stored only in accord with that
 written license.
  
 The following legend is applicable only to US Government
 contracts under FAR:
  
                    RESTRICTED RIGHTS LEGEND
  
 Use, reproduction and disclosure by the US Government is
 subject to restrictions as set forth in subparagraphs (a)
 and (c) of the Commercial Computer Software - Restricted
 Rights clause in FAR 52.227-19.
  
 Gaussian, Inc.
 340 Quinnipiac St., Bldg. 40, Wallingford CT 06492
  
  
 ---------------------------------------------------------------
 Warning -- This program may not be used in any manner that
 competes with the business of Gaussian, Inc. or will provide
 assistance to any competitor of Gaussian, Inc.  The licensee
 of this program is prohibited from giving any competitor of
 Gaussian, Inc. access to this program.  By using this program,
 the user acknowledges that Gaussian, Inc. is engaged in the
 business of creating and licensing software in the field of
 computational chemistry and represents and warrants to the
 licensee that it is not a competitor of Gaussian, Inc. and that
 it will not use this program in any manner prohibited above.
 ---------------------------------------------------------------
  

 Cite this work as:
 Gaussian 09, Revision A.02,
 M. J. Frisch, G. W. Trucks, H. B. Schlegel, G. E. Scuseria, 
 M. A. Robb, J. R. Cheeseman, G. Scalmani, V. Barone, B. Mennucci, 
 G. A. Petersson, H. Nakatsuji, M. Caricato, X. Li, H. P. Hratchian, 
 A. F. Izmaylov, J. Bloino, G. Zheng, J. L. Sonnenberg, M. Hada, 
 M. Ehara, K. Toyota, R. Fukuda, J. Hasegawa, M. Ishida, T. Nakajima, 
 Y. Honda, O. Kitao, H. Nakai, T. Vreven, J. A. Montgomery, Jr., 
 J. E. Peralta, F. Ogliaro, M. Bearpark, J. J. Heyd, E. Brothers, 
 K. N. Kudin, V. N. Staroverov, R. Kobayashi, J. Normand, 
 K. Raghavachari, A. Rendell, J. C. Burant, S. S. Iyengar, J. Tomasi, 
 M. Cossi, N. Rega, J. M. Millam, M. Klene, J. E. Knox, J. B. Cross, 
 V. Bakken, C. Adamo, J. Jaramillo, R. Gomperts, R. E. Stratmann, 
 O. Yazyev, A. J. Austin, R. Cammi, C. Pomelli, J. W. Ochterski, 
 R. L. Martin, K. Morokuma, V. G. Zakrzewski, G. A. Voth, 
 P. Salvador, J. J. Dannenberg, S. Dapprich, A. D. Daniels, 
 O. Farkas, J. B. Foresman, J. V. Ortiz, J. Cioslowski, 
 and D. J. Fox, Gaussian, Inc., Wallingford CT, 2009.
 
 ******************************************
 Gaussian 09:  EM64L-G09RevA.02 11-Jun-2009
                 2-Nov-2013 
 ******************************************
 % Mem=64GB
 % Nproc=16
 Will use up to   16 processors via shared memory.
 % Chk=VCl_5Dlt.chk
 ----------------------------------------------------------------------
 # ROMP2 Gen GFinput Int=NoBasisTransform Int(Grid=Ultrafine) IOp(3/32=
 2,5/6=10,8/11=1,9/33=1) Maxdisk=128GB CBSextrapolate(Nmin=25,MinPop) S
 CF=Symm Guess=Read
 ----------------------------------------------------------------------
 1/38=1/1;
 2/12=2,17=6,18=5,40=1/2;
 3/5=7,11=2,16=1,24=10,25=1,30=1,32=2,60=-1,75=-5,116=101/1,2,3;
 4/5=1,9=4/1;
 5/5=2,6=10,15=2,38=6/2;
 8/5=-1,10=1,11=1/1;
 9/16=-3,33=1,75=2,81=25,83=4/6,4;
 6/7=2,8=2,9=2,10=2/1;
 99/5=1,9=1/99;
 -------
 VCl 5/\
 -------
 Symbolic Z-matrix:
 Charge =  0 Multiplicity = 5
 V
 Cl                   1     2.21379 
 
                          Input orientation:                          
 ---------------------------------------------------------------------
 Center     Atomic      Atomic             Coordinates (Angstroms)
 Number     Number       Type             X           Y           Z
 ---------------------------------------------------------------------
      1         23           0        0.000000    0.000000    0.000000
      2         17           0        0.000000    0.000000    2.213790
 ---------------------------------------------------------------------
 Stoichiometry    ClV(5)
 Framework group  C*V[C*(ClV)]
 Deg. of freedom     1
 Full point group                 C*V     NOp   4
 Largest Abelian subgroup         C2V     NOp   4
 Largest concise Abelian subgroup C1      NOp   1
                         Standard orientation:                         
 ---------------------------------------------------------------------
 Center     Atomic      Atomic             Coordinates (Angstroms)
 Number     Number       Type             X           Y           Z
 ---------------------------------------------------------------------
      1         23           0        0.000000    0.000000    0.940861
      2         17           0        0.000000    0.000000   -1.272929
 ---------------------------------------------------------------------
 Rotational constants (GHZ):      0.0000000      4.9731115      4.9731115
 General basis read from cards:  (5D, 7F)
 AO basis set in the form of general basis input (Overlap normalization):
      1 0
 S  19 1.00       0.000000000000
      0.3479338350D+08  0.4056629188D-06
      0.6914692640D+07  0.2339342439D-05
      0.1621343920D+07  0.1321165413D-04
      0.4396002670D+06  0.6056905383D-04
      0.1352720610D+06  0.2392777872D-03
      0.4643274850D+05  0.8267296352D-03
      0.1749835110D+05  0.2552064807D-02
      0.7134898380D+04  0.7147933075D-02
      0.3106051320D+04  0.1836138649D-01
      0.1426271630D+04  0.4335626345D-01
      0.6833154180D+03  0.9303444533D-01
      0.3382265700D+03  0.1757196352D+00
      0.1714640560D+03  0.2728849718D+00
      0.8834408300D+02  0.3026106738D+00
      0.4595252500D+02  0.1857703588D+00
      0.2399193900D+02  0.4297759996D-01
      0.1251208100D+02  0.4470121114D-02
      0.6491623000D+01  0.2528610235D-02
      0.3339910000D+01  0.6987135339D-03
 S  15 1.00       0.000000000000
      0.1749835110D+05 -0.1883513065D-05
      0.7134898380D+04 -0.1552788062D-04
      0.3106051320D+04 -0.9054969632D-04
      0.1426271630D+04 -0.5049415240D-03
      0.6833154180D+03 -0.2226844033D-02
      0.3382265700D+03 -0.8912198446D-02
      0.1714640560D+03 -0.2854731852D-01
      0.8834408300D+02 -0.6867407409D-01
      0.4595252500D+02 -0.7656135678D-01
      0.2399193900D+02  0.7437354372D-01
      0.1251208100D+02  0.4054588741D+00
      0.6491623000D+01  0.4806974888D+00
      0.3339910000D+01  0.1599827787D+00
      0.1699802000D+01  0.1128530592D-01
      0.8542310000D+00  0.1120376697D-02
 P  16 1.00       0.000000000000
      0.5172927360D+05  0.3683635374D-05
      0.1327764530D+05  0.3093662226D-04
      0.4204030870D+04  0.1978279514D-03
      0.1563663650D+04  0.9518396247D-03
      0.6564525800D+03  0.3705368216D-02
      0.3012554960D+03  0.1209572570D-01
      0.1473763590D+03  0.3394128848D-01
      0.7539345600D+02  0.8230969871D-01
      0.3975831100D+02  0.1659379124D+00
      0.2138805700D+02  0.2652702379D+00
      0.1164853500D+02  0.3154946174D+00
      0.6386217000D+01  0.2275831195D+00
      0.3507309000D+01  0.7687592488D-01
      0.1919904000D+01  0.9918457259D-02
      0.1041046000D+01  0.6926354578D-03
      0.5545110000D+00  0.1262326856D-03
 S  11 1.00       0.000000000000
      0.1714640560D+03  0.1719430211D-03
      0.8834408300D+02  0.9669296383D-03
      0.4595252500D+02  0.2556998424D-02
      0.2399193900D+02 -0.1627786595D-02
      0.1251208100D+02 -0.5338230403D-01
      0.6491623000D+01 -0.1955815426D+00
      0.3339910000D+01 -0.5950571001D-01
      0.1699802000D+01  0.4143453065D+00
      0.8542310000D+00  0.5713775625D+00
      0.4234290000D+00  0.2070624018D+00
      0.2069180000D+00  0.8078448787D-02
 P  12 1.00       0.000000000000
      0.1473763590D+03 -0.2402327613D-03
      0.7539345600D+02 -0.1035383815D-02
      0.3975831100D+02 -0.4172303736D-02
      0.2138805700D+02 -0.9809132038D-02
      0.1164853500D+02 -0.1920994428D-01
      0.6386217000D+01  0.4779357553D-02
      0.3507309000D+01  0.1344903647D+00
      0.1919904000D+01  0.3067070245D+00
      0.1041046000D+01  0.3689423576D+00
      0.5545110000D+00  0.2452029700D+00
      0.2868010000D+00  0.6344737218D-01
      0.1417880000D+00  0.4575119008D-02
 D  16 1.00       0.000000000000
      0.1619367570D+04  0.5187972126D-05
      0.5115172270D+03  0.5197349697D-04
      0.1960607140D+03  0.3458082836D-03
      0.8639877300D+02  0.1644062019D-02
      0.4196046600D+02  0.6017726151D-02
      0.2174826300D+02  0.1699158725D-01
      0.1175037800D+02  0.3948231327D-01
      0.6510556000D+01  0.8232040639D-01
      0.3659930000D+01  0.1452868867D+00
      0.2073804000D+01  0.2051360229D+00
      0.1179794000D+01  0.2393803676D+00
      0.6720330000D+00  0.2379013738D+00
      0.3820970000D+00  0.1968959518D+00
      0.2157770000D+00  0.1234881402D+00
      0.1200280000D+00  0.4449517807D-01
      0.6490800000D-01  0.5001921865D-02
 D   1 1.00       0.000000000000
      0.4773987036D-01  0.1000000000D+01
 D   1 1.00       0.000000000000
      0.1502500000D-01  0.1000000000D+01
 S  10 1.00       0.000000000000
      0.2399193900D+02  0.2314495562D-04
      0.1251208100D+02  0.1596571840D-03
      0.6491623000D+01  0.3548661894D-02
      0.3339910000D+01 -0.8602354203D-03
      0.1699802000D+01 -0.2011336988D-01
      0.8542310000D+00 -0.9636907813D-01
      0.4234290000D+00 -0.1927970785D+00
      0.2069180000D+00  0.1340008015D+00
      0.9969000000D-01  0.7196546315D+00
      0.4738000000D-01  0.3392867058D+00
 S   1 1.00       0.000000000000
      0.3707600000D-01  0.1000000000D+01
 S   1 1.00       0.000000000000
      0.1409900000D-01  0.1000000000D+01
 P  10 1.00       0.000000000000
      0.2138805700D+02 -0.4325468243D-05
      0.1164853500D+02 -0.1646659261D-02
      0.6386217000D+01 -0.4510941903D-03
      0.3507309000D+01  0.2251426496D-01
      0.1919904000D+01  0.7097698916D-01
      0.1041046000D+01  0.2808895795D-01
      0.5545110000D+00 -0.2502915560D+00
      0.2868010000D+00 -0.5609722984D+00
      0.1417880000D+00 -0.2910696374D+00
      0.7133559130D-01 -0.1616308340D-01
 P   1 1.00       0.000000000000
      0.9707300000D-01  0.1000000000D+01
 P   1 1.00       0.000000000000
      0.4687600000D-01  0.1000000000D+01
 P   1 1.00       0.000000000000
      0.2263500000D-01  0.1000000000D+01
 S   1 1.00       0.000000000000
      0.4829004000D+01  0.1000000000D+01
 S   1 1.00       0.000000000000
      0.2452509000D+01  0.1000000000D+01
 S   1 1.00       0.000000000000
      0.1245557000D+01  0.1000000000D+01
 S   1 1.00       0.000000000000
      0.6325810000D+00  0.1000000000D+01
 S   1 1.00       0.000000000000
      0.3212690000D+00  0.1000000000D+01
 S   1 1.00       0.000000000000
      0.1631630000D+00  0.1000000000D+01
 P   1 1.00       0.000000000000
      0.1983553000D+01  0.1000000000D+01
 P   1 1.00       0.000000000000
      0.1221335000D+01  0.1000000000D+01
 P   1 1.00       0.000000000000
      0.7520130000D+00  0.1000000000D+01
 P   1 1.00       0.000000000000
      0.4630380000D+00  0.1000000000D+01
 P   1 1.00       0.000000000000
      0.2851070000D+00  0.1000000000D+01
 P   1 1.00       0.000000000000
      0.1755490000D+00  0.1000000000D+01
 D   1 1.00       0.000000000000
      0.4465620000D+01  0.1000000000D+01
 D   1 1.00       0.000000000000
      0.2147949000D+01  0.1000000000D+01
 D   1 1.00       0.000000000000
      0.1033156000D+01  0.1000000000D+01
 D   1 1.00       0.000000000000
      0.4969450000D+00  0.1000000000D+01
 D   1 1.00       0.000000000000
      0.2390290000D+00  0.1000000000D+01
 D   1 1.00       0.000000000000
      0.1149720000D+00  0.1000000000D+01
 F   1 1.00       0.000000000000
      0.1179749300D+02  0.1000000000D+01
 F   1 1.00       0.000000000000
      0.5327804000D+01  0.1000000000D+01
 F   1 1.00       0.000000000000
      0.2406062000D+01  0.1000000000D+01
 F   1 1.00       0.000000000000
      0.1086589000D+01  0.1000000000D+01
 F   1 1.00       0.000000000000
      0.4907090000D+00  0.1000000000D+01
 F   1 1.00       0.000000000000
      0.2216060000D+00  0.1000000000D+01
 F   1 1.00       0.000000000000
      0.1000780000D+00  0.1000000000D+01
 G   1 1.00       0.000000000000
      0.9953572000D+01  0.1000000000D+01
 G   1 1.00       0.000000000000
      0.4247405000D+01  0.1000000000D+01
 G   1 1.00       0.000000000000
      0.1812460000D+01  0.1000000000D+01
 G   1 1.00       0.000000000000
      0.7734160000D+00  0.1000000000D+01
 G   1 1.00       0.000000000000
      0.3300330000D+00  0.1000000000D+01
 G   1 1.00       0.000000000000
      0.1408320000D+00  0.1000000000D+01
 H   1 1.00       0.000000000000
      0.6068727000D+01  0.1000000000D+01
 H   1 1.00       0.000000000000
      0.2580072000D+01  0.1000000000D+01
 H   1 1.00       0.000000000000
      0.1096898000D+01  0.1000000000D+01
 H   1 1.00       0.000000000000
      0.4663370000D+00  0.1000000000D+01
 H   1 1.00       0.000000000000
      0.1982590000D+00  0.1000000000D+01
 I   1 1.00       0.000000000000
      0.4946577000D+01  0.1000000000D+01
 I   1 1.00       0.000000000000
      0.1900678000D+01  0.1000000000D+01
 I   1 1.00       0.000000000000
      0.7303190000D+00  0.1000000000D+01
 I   1 1.00       0.000000000000
      0.2806180000D+00  0.1000000000D+01
 J   1 1.00       0.000000000000
      0.3643489000D+01  0.1000000000D+01
 J   1 1.00       0.000000000000
      0.1231745000D+01  0.1000000000D+01
 J   1 1.00       0.000000000000
      0.4164120000D+00  0.1000000000D+01
 K   1 1.00       0.000000000000
      0.2526345113D+01  0.1000000000D+01
 ****
      2 0
 S  18 1.00       0.000000000000
      0.1309664890D+08  0.6709383931D-06
      0.2354480470D+07  0.4413363027D-05
      0.5316863956D+06  0.2511516560D-04
      0.1444171627D+06  0.1124587160D-03
      0.4547971350D+05  0.4253512376D-03
      0.1610206896D+05  0.1405059280D-02
      0.6248526359D+04  0.4183214157D-02
      0.2603459819D+04  0.1144286852D-01
      0.1145687894D+04  0.2902874970D-01
      0.5257135380D+03  0.6776823672D-01
      0.2490726090D+03  0.1414887775D+00
      0.1209387980D+03  0.2481557560D+00
      0.5984396800D+02  0.3227236998D+00
      0.3004461100D+02  0.2437036796D+00
      0.1524564800D+02  0.7403184184D-01
      0.7789438000D+01  0.6262394843D-02
      0.3989717000D+01  0.1349071004D-02
      0.2037216000D+01  0.3417216349D-03
 S  13 1.00       0.000000000000
      0.2603459819D+04 -0.3395093462D-04
      0.1145687894D+04 -0.1789850092D-03
      0.5257135380D+03 -0.1022872671D-02
      0.2490726090D+03 -0.4604607705D-02
      0.1209387980D+03 -0.1750032003D-01
      0.5984396800D+02 -0.5096994913D-01
      0.3004461100D+02 -0.8290239694D-01
      0.1524564800D+02  0.6057264062D-02
      0.7789438000D+01  0.2771583897D+00
      0.3989717000D+01  0.4982842660D+00
      0.2037216000D+01  0.2918194237D+00
      0.1029444000D+01  0.3714264569D-01
      0.5098250000D+00  0.2295584873D-02
 P  16 1.00       0.000000000000
      0.2682792626D+05  0.3509809160D-05
      0.7069939112D+04  0.2821081396D-04
      0.2258045317D+04  0.1798760404D-03
      0.8386179600D+03  0.8721451991D-03
      0.3498425050D+03  0.3432514902D-02
      0.1593112000D+03  0.1124641667D-01
      0.7737302300D+02  0.3147376622D-01
      0.3933798300D+02  0.7590380359D-01
      0.2063093700D+02  0.1527106270D+00
      0.1103316800D+02  0.2444829839D+00
      0.5962398000D+01  0.3044969569D+00
      0.3232292000D+01  0.2555637705D+00
      0.1746839000D+01  0.1087711303D+00
      0.9355700000D+00  0.1748635807D-01
      0.4934490000D+00  0.1307184697D-02
      0.2544110000D+00  0.1883271334D-03
 D   1 1.00       0.000000000000
      0.2395837259D+02  0.1000000000D+01
 S  10 1.00       0.000000000000
      0.5984396800D+02  0.2789153118D-03
      0.3004461100D+02  0.1374501127D-02
      0.1524564800D+02  0.1698392926D-03
      0.7789438000D+01 -0.1306268989D-01
      0.3989717000D+01 -0.9668339911D-01
      0.2037216000D+01 -0.1687235725D+00
      0.1029444000D+01  0.1164284904D+00
      0.5098250000D+00  0.4831810127D+00
      0.2443350000D+00  0.4725431994D+00
      0.1114920000D+00  0.1224966561D+00
 S   1 1.00       0.000000000000
      0.6870782948D-01  0.1000000000D+01
 P  11 1.00       0.000000000000
      0.3933798300D+02 -0.6579553193D-03
      0.2063093700D+02 -0.1779070974D-02
      0.1103316800D+02 -0.5113507882D-02
      0.5962398000D+01 -0.9657145048D-02
      0.3232292000D+01 -0.1137216930D-01
      0.1746839000D+01  0.5231884176D-01
      0.9355700000D+00  0.2021242491D+00
      0.4934490000D+00  0.3271831674D+00
      0.2544110000D+00  0.3358512554D+00
      0.1270450000D+00  0.2009072636D+00
      0.6073100000D-01  0.4005487164D-01
 P   1 1.00       0.000000000000
      0.4633347570D-01  0.1000000000D+01
 S   1 1.00       0.000000000000
      0.8195467000D+01  0.1000000000D+01
 S   1 1.00       0.000000000000
      0.4377615000D+01  0.1000000000D+01
 S   1 1.00       0.000000000000
      0.2338307000D+01  0.1000000000D+01
 S   1 1.00       0.000000000000
      0.1249008000D+01  0.1000000000D+01
 S   1 1.00       0.000000000000
      0.6671590000D+00  0.1000000000D+01
 S   1 1.00       0.000000000000
      0.3563630000D+00  0.1000000000D+01
 P   1 1.00       0.000000000000
      0.5395611000D+01  0.1000000000D+01
 P   1 1.00       0.000000000000
      0.2932136000D+01  0.1000000000D+01
 P   1 1.00       0.000000000000
      0.1593410000D+01  0.1000000000D+01
 P   1 1.00       0.000000000000
      0.8659070000D+00  0.1000000000D+01
 P   1 1.00       0.000000000000
      0.4705600000D+00  0.1000000000D+01
 P   1 1.00       0.000000000000
      0.2557160000D+00  0.1000000000D+01
 D   1 1.00       0.000000000000
      0.7682464000D+01  0.1000000000D+01
 D   1 1.00       0.000000000000
      0.3694579000D+01  0.1000000000D+01
 D   1 1.00       0.000000000000
      0.1776763000D+01  0.1000000000D+01
 D   1 1.00       0.000000000000
      0.8544640000D+00  0.1000000000D+01
 D   1 1.00       0.000000000000
      0.4109210000D+00  0.1000000000D+01
 D   1 1.00       0.000000000000
      0.1976160000D+00  0.1000000000D+01
 D   1 1.00       0.000000000000
      0.9503550000D-01  0.1000000000D+01
 F   1 1.00       0.000000000000
      0.3621741000D+01  0.1000000000D+01
 F   1 1.00       0.000000000000
      0.1919120000D+01  0.1000000000D+01
 F   1 1.00       0.000000000000
      0.1016921000D+01  0.1000000000D+01
 F   1 1.00       0.000000000000
      0.5388550000D+00  0.1000000000D+01
 F   1 1.00       0.000000000000
      0.2855330000D+00  0.1000000000D+01
 F   1 1.00       0.000000000000
      0.1513000000D+00  0.1000000000D+01
 G   1 1.00       0.000000000000
      0.1841547000D+01  0.1000000000D+01
 G   1 1.00       0.000000000000
      0.1105244000D+01  0.1000000000D+01
 G   1 1.00       0.000000000000
      0.6633360000D+00  0.1000000000D+01
 G   1 1.00       0.000000000000
      0.3981150000D+00  0.1000000000D+01
 G   1 1.00       0.000000000000
      0.2389370000D+00  0.1000000000D+01
 H   1 1.00       0.000000000000
      0.1942025000D+01  0.1000000000D+01
 H   1 1.00       0.000000000000
      0.1083461000D+01  0.1000000000D+01
 H   1 1.00       0.000000000000
      0.6044650000D+00  0.1000000000D+01
 H   1 1.00       0.000000000000
      0.3372320000D+00  0.1000000000D+01
 I   1 1.00       0.000000000000
      0.1796289000D+01  0.1000000000D+01
 I   1 1.00       0.000000000000
      0.8719090000D+00  0.1000000000D+01
 I   1 1.00       0.000000000000
      0.4232190000D+00  0.1000000000D+01
 J   1 1.00       0.000000000000
      0.1430231735D+01  0.1000000000D+01
 ****

 There are   212 symmetry adapted basis functions of A1  symmetry.
 There are   107 symmetry adapted basis functions of A2  symmetry.
 There are   154 symmetry adapted basis functions of B1  symmetry.
 There are   154 symmetry adapted basis functions of B2  symmetry.
 Integral buffers will be    131072 words long.
 Raffenetti 2 integral format.
 Two-electron integral symmetry is turned on.
   627 basis functions,  1415 primitive gaussians,  1056 cartesian basis functions
    22 alpha electrons       18 beta electrons
       nuclear repulsion energy        93.4633766340 Hartrees.
 NAtoms=    2 NActive=    2 NUniq=    2 SFac= 7.50D-01 NAtFMM=   80 NAOKFM=F Big=F
 One-electron integrals computed using PRISM.
 NBasis=   627 RedAO= F  NBF=   212   107   154   154
 NBsUse=   627 1.00D-04 NBFU=   212   107   154   154
 Initial guess read from the checkpoint file:  VCl_5Dlt.chk
 B after Tr=     0.000000    0.000000    0.000000
         Rot=    1.000000    0.000000    0.000000    0.000000 Ang=   0.00 deg.
 Initial guess orbital symmetries:
       Occupied  (SG) (SG) (SG) (PI) (PI) (SG) (SG) (SG) (PI) (PI)
                 (SG) (PI) (PI) (SG) (SG) (SG) (PI) (PI) (?A) (SG)
                 (PI) (PI)
       Virtual   (PI) (PI) (SG) (?A) (?A) (PI) (PI) (SG) (SG) (?A)
                 (SG) (PI) (PI) (SG) (PI) (PI) (?A) (SG) (PI) (PI)
                 (SG) (?A) (SG) (SG) (DLTA) (DLTA) (PI) (PI) (PI)
                 (PI) (SG) (PI) (PI) (SG) (?A) (SG) (PI) (PI) (?A)
                 (SG) (SG) (DLTA) (DLTA) (?B) (?B) (?B) (?B) (?B)
                 (?B) (SG) (SG) (DLTA) (DLTA) (PI) (PI) (SG) (SG)
                 (SG) (SG) (PI) (PI) (SG) (SG) (PI) (PI) (DLTA)
                 (DLTA) (SG) (PI) (PI) (DLTA) (DLTA) (SG) (PI)
                 (PI) (DLTA) (DLTA) (SG) (SG) (SG) (PI) (PI) (SG)
                 (PI) (PI) (SG) (PI) (PI) (SG) (PI) (PI) (SG) (SG)
                 (SG) (SG) (SG) (SG) (PI) (PI) (SG) (PI) (PI) (SG)
                 (PI) (PI) (SG) (PI) (PI) (SG) (PI) (PI) (SG) (PI)
                 (PI) (SG) (SG) (PI) (PI) (DLTA) (DLTA) (SG) (PI)
                 (PI) (DLTA) (DLTA) (SG) (PI) (PI) (DLTA) (DLTA)
                 (PI) (PI) (DLTA) (DLTA) (PI) (PI) (DLTA) (DLTA)
                 (SG) (PI) (PI) (DLTA) (DLTA) (PHI) (PHI) (SG)
                 (PI) (PI) (DLTA) (DLTA) (PHI) (PHI) (SG) (PI)
                 (PI) (DLTA) (DLTA) (PHI) (PHI) (SG) (PI) (PI)
                 (DLTA) (DLTA) (PHI) (PHI) (SG) (PI) (PI) (DLTA)
                 (DLTA) (PHI) (PHI) (SG) (PI) (PI) (DLTA) (DLTA)
                 (PHI) (PHI) (SG) (PI) (PI) (DLTA) (DLTA) (PHI)
                 (PHI) (SG) (PI) (PI) (DLTA) (DLTA) (PHI) (PHI)
                 (?C) (?C) (SG) (PI) (PI) (DLTA) (DLTA) (PHI) (PHI)
                 (?C) (?C) (SG) (PI) (PI) (DLTA) (DLTA) (PHI) (PHI)
                 (?C) (?C) (SG) (PI) (PI) (DLTA) (DLTA) (PHI) (PHI)
                 (?C) (?C) (SG) (PI) (PI) (DLTA) (DLTA) (PHI) (PHI)
                 (?C) (?C) (SG) (PI) (PI) (DLTA) (DLTA) (PHI) (PHI)
                 (?C) (?C) (SG) (PI) (PI) (DLTA) (DLTA) (PHI) (PHI)
                 (?C) (?C) (?D) (?D) (SG) (PI) (PI) (DLTA) (DLTA)
                 (PHI) (PHI) (?C) (?C) (?D) (?D) (SG) (PI) (PI)
                 (DLTA) (DLTA) (PHI) (PHI) (?C) (?C) (?D) (?D)
                 (SG) (PI) (PI) (DLTA) (DLTA) (PHI) (PHI) (?C)
                 (?C) (?D) (?D) (SG) (PI) (PI) (DLTA) (DLTA) (PHI)
                 (PHI) (?C) (?C) (?D) (?D) (SG) (PI) (PI) (DLTA)
                 (DLTA) (PHI) (PHI) (?C) (?C) (?D) (?D) (SG) (SG)
                 (SG) (PI) (PI) (DLTA) (DLTA) (PHI) (PHI) (?C)
                 (?C) (?D) (?D) (SG) (SG) (SG) (PI) (PI) (DLTA)
                 (DLTA) (PHI) (PHI) (?C) (?C) (?D) (?D) (SG) (SG)
                 (SG) (PI) (PI) (DLTA) (DLTA) (PHI) (PHI) (?C)
                 (?C) (?D) (?D) (SG) (SG) (SG) (PI) (PI) (DLTA)
                 (DLTA) (PHI) (PHI) (?C) (?C) (?D) (?D) (SG) (SG)
                 (?E) (?E) (SG) (PI) (PI) (DLTA) (DLTA) (PHI) (PHI)
                 (?C) (?C) (?D) (?D) (SG) (SG) (?E) (?E) (SG) (PI)
                 (PI) (DLTA) (DLTA) (PHI) (PHI) (?C) (?C) (?D)
                 (?D) (SG) (SG) (?E) (?E) (SG) (PI) (PI) (DLTA)
                 (DLTA) (PHI) (PHI) (?C) (?C) (?D) (?D) (SG) (SG)
                 (?E) (?E) (?F) (?F) (SG) (SG) (PI) (PI) (SG) (SG)
                 (PI) (PI) (DLTA) (DLTA) (SG) (PI) (PI) (SG) (SG)
                 (SG) (SG) (PI) (PI) (SG) (PI) (PI) (SG) (PI) (PI)
                 (SG) (PI) (PI) (SG) (PI) (PI) (DLTA) (DLTA) (SG)
                 (PI) (PI) (DLTA) (DLTA) (PI) (PI) (DLTA) (DLTA)
                 (DLTA) (DLTA) (DLTA) (DLTA) (SG) (PI) (PI) (DLTA)
                 (DLTA) (PHI) (PHI) (SG) (PI) (PI) (DLTA) (DLTA)
                 (PHI) (PHI) (SG) (PI) (PI) (DLTA) (DLTA) (PHI)
                 (PHI) (SG) (PI) (PI) (DLTA) (DLTA) (PHI) (PHI)
                 (PI) (PI) (DLTA) (DLTA) (PHI) (PHI) (DLTA) (DLTA)
                 (PHI) (PHI) (SG) (PI) (PI) (DLTA) (DLTA) (PHI)
                 (PHI) (?C) (?C) (SG) (PI) (PI) (DLTA) (DLTA) (PHI)
                 (PHI) (?C) (?C) (SG) (PI) (PI) (DLTA) (DLTA) (PHI)
                 (PHI) (?C) (?C) (SG) (DLTA) (DLTA) (PHI) (PHI)
                 (?C) (?C) (PHI) (PHI) (?C) (?C) (SG) (PI) (PI)
                 (DLTA) (DLTA) (PHI) (PHI) (?C) (?C) (?D) (?D)
                 (PI) (PI) (DLTA) (DLTA) (PHI) (PHI) (?C) (?C)
                 (?D) (?D) (DLTA) (DLTA) (PHI) (PHI) (?C) (?C)
                 (?D) (?D) (PHI) (PHI) (?C) (?C) (?D) (?D) (PI)
                 (PI) (DLTA) (DLTA) (PHI) (PHI) (?C) (?C) (?D)
                 (?D) (SG) (SG) (DLTA) (DLTA) (PHI) (PHI) (?C)
                 (?C) (?D) (?D) (SG) (SG) (?C) (?C) (?D) (?D) (SG)
                 (SG) (PHI) (PHI) (?C) (?C) (?D) (?D) (SG) (SG)
                 (?E) (?E)
 Requested convergence on RMS density matrix=1.00D-10 within 128 cycles.
 Requested convergence on MAX density matrix=1.00D-08.
 Requested convergence on             energy=1.00D-08.
 No special actions if energy rises.
 EnCoef did     4 forward-backward iterations
 EnCoef did     2 forward-backward iterations
 EnCoef did   100 forward-backward iterations
 Restarting incremental Fock formation.
 SCF Done:  E(ROHF) =  -1402.50592970     A.U. after   25 cycles
             Convg  =    0.3298D-10             -V/T =  1.9999
 <Sx>= 0.0000 <Sy>= 0.0000 <Sz>= 2.0000 <S**2>= 6.0000 S= 2.0000
 <L.S>= 0.000000000000E+00
 Annihilation of the first spin contaminant:
 S**2 before annihilation     6.0000,   after     6.0000
 DiagDN has N=   627 LTot=  1913 but NE2=     3 cannot use DSYEVD.
 GenMOA:  NOpAll=  4 NOp2=4 NOpUse=  4 JSym2X=1
 <Sx>= 0.0000 <Sy>= 0.0000 <Sz>= 2.0000 <S**2>= 6.0000 S= 2.0000
 ExpMin= 1.41D-02 ExpMax= 3.48D+07 ExpMxC= 3.11D+03 IAcc=3 IRadAn=         5 AccDes= 0.00D+00
 HarFok:  IExCor=  205 AccDes= 0.00D+00 IRadAn=         5 IDoV=-2
 ScaDFX=  1.000000  1.000000  1.000000  1.000000
 Range of M.O.s used for correlation:    15   627
 NBasis=   627 NAE=    22 NBE=    18 NFC=    14 NFV=     0
 NROrb=    613 NOA=     8 NOB=     4 NVA=   605 NVB=   609

 **** Warning!!: The largest alpha MO coefficient is  0.17037465D+04


 **** Warning!!: The largest beta MO coefficient is  0.17019912D+04

 Singles contribution to E2=   -0.5689847436D-03
 Disk-based method using OVN memory for  8 occupieds at a time.
 Permanent disk used for amplitudes and <ij||ab> integrals=    36033872 words.
 Estimated scratch disk usage=  8300503232 words.
 IUseRI=2 ITolRI= 6 IR12RI=0
 Actual    scratch disk usage=  8245978560 words.
 GetIJB would need an additional  4989076913 words of memory to use all  16 processors.
 JobTyp=2 Pass  1:  I=   1 to   8 NPSUse= 10 ParTrn=T ParDer=T DoDerP=F.
 T,EIJ(AA): I=   1 J=   2      0.1355189E-03     -0.5060533E-03
 T,EIJ(AA): I=   1 J=   3      0.1355189E-03     -0.5060533E-03
 T,EIJ(AA): I=   1 J=   4      0.3831008E-04     -0.1527215E-03
 T,EIJ(AA): I=   1 J=   5      0.4645590E-03     -0.1681642E-02
 T,EIJ(AA): I=   1 J=   6      0.4421064E-03     -0.1583440E-02
 T,EIJ(AA): I=   1 J=   7      0.4421064E-03     -0.1583440E-02
 T,EIJ(AA): I=   1 J=   8      0.5216020E-04     -0.1421515E-03
 T,EIJ(AA): I=   2 J=   3      0.1222987E-02     -0.5354465E-02
 T,EIJ(AA): I=   2 J=   4      0.1353662E-02     -0.6147214E-02
 T,EIJ(AA): I=   2 J=   5      0.6715910E-03     -0.1908534E-02
 T,EIJ(AA): I=   2 J=   6      0.1359749E-03     -0.3564725E-03
 T,EIJ(AA): I=   2 J=   7      0.6402345E-03     -0.2045999E-02
 T,EIJ(AA): I=   2 J=   8      0.1145084E-02     -0.2717466E-02
 T,EIJ(AA): I=   3 J=   4      0.1353662E-02     -0.6147214E-02
 T,EIJ(AA): I=   3 J=   5      0.6715910E-03     -0.1908534E-02
 T,EIJ(AA): I=   3 J=   6      0.6402345E-03     -0.2045999E-02
 T,EIJ(AA): I=   3 J=   7      0.1359749E-03     -0.3564725E-03
 T,EIJ(AA): I=   3 J=   8      0.1145084E-02     -0.2717466E-02
 T,EIJ(AA): I=   4 J=   5      0.3098744E-03     -0.9014485E-03
 T,EIJ(AA): I=   4 J=   6      0.3681482E-03     -0.1461242E-02
 T,EIJ(AA): I=   4 J=   7      0.3681482E-03     -0.1461242E-02
 T,EIJ(AA): I=   4 J=   8      0.1290419E-02     -0.3069825E-02
 T,EIJ(AA): I=   5 J=   6      0.2739256E-02     -0.6450833E-02
 T,EIJ(AA): I=   5 J=   7      0.2739256E-02     -0.6450833E-02
 T,EIJ(AA): I=   5 J=   8      0.5312587E-03     -0.8367733E-03
 T,EIJ(AA): I=   6 J=   7      0.2470281E-02     -0.5800476E-02
 T,EIJ(AA): I=   6 J=   8      0.6289854E-03     -0.1109547E-02
 T,EIJ(AA): I=   7 J=   8      0.6289854E-03     -0.1109547E-02
 T,EIJ(AB): I=   1 J=   1      0.2195120E-02     -0.1055630E-01
 T,EIJ(AB): I=   1 J=   2      0.1933481E-02     -0.8506834E-02
 T,EIJ(AB): I=   1 J=   3      0.1980440E-02     -0.8454622E-02
 T,EIJ(AB): I=   1 J=   4      0.1980440E-02     -0.8454622E-02
 T,EIJ(AB): I=   2 J=   1      0.3484439E-03     -0.1523701E-02
 T,EIJ(AB): I=   2 J=   2      0.9592833E-03     -0.2888666E-02
 T,EIJ(AB): I=   2 J=   3      0.6223527E-03     -0.1693008E-02
 T,EIJ(AB): I=   2 J=   4      0.1270064E-02     -0.3516406E-02
 T,EIJ(AB): I=   3 J=   1      0.3484439E-03     -0.1523701E-02
 T,EIJ(AB): I=   3 J=   2      0.9592833E-03     -0.2888666E-02
 T,EIJ(AB): I=   3 J=   3      0.1270064E-02     -0.3516406E-02
 T,EIJ(AB): I=   3 J=   4      0.6223527E-03     -0.1693008E-02
 T,EIJ(AB): I=   4 J=   1      0.4864682E-04     -0.2086182E-03
 T,EIJ(AB): I=   4 J=   2      0.4156890E-03     -0.1231726E-02
 T,EIJ(AB): I=   4 J=   3      0.1652827E-03     -0.4156018E-03
 T,EIJ(AB): I=   4 J=   4      0.1652827E-03     -0.4156018E-03
 T,EIJ(AB): I=   5 J=   1      0.1915068E-02     -0.8415247E-02
 T,EIJ(AB): I=   5 J=   2      0.7447605E-02     -0.2073504E-01
 T,EIJ(AB): I=   5 J=   3      0.3639826E-02     -0.9649404E-02
 T,EIJ(AB): I=   5 J=   4      0.3639826E-02     -0.9649404E-02
 T,EIJ(AB): I=   6 J=   1      0.1766408E-02     -0.7468560E-02
 T,EIJ(AB): I=   6 J=   2      0.3273173E-02     -0.8620008E-02
 T,EIJ(AB): I=   6 J=   3      0.3432548E-02     -0.8767145E-02
 T,EIJ(AB): I=   6 J=   4      0.7060845E-02     -0.1869113E-01
 T,EIJ(AB): I=   7 J=   1      0.1766408E-02     -0.7468560E-02
 T,EIJ(AB): I=   7 J=   2      0.3273173E-02     -0.8620008E-02
 T,EIJ(AB): I=   7 J=   3      0.7060845E-02     -0.1869113E-01
 T,EIJ(AB): I=   7 J=   4      0.3432548E-02     -0.8767145E-02
 T,EIJ(AB): I=   8 J=   1      0.1381564E-03     -0.4592593E-03
 T,EIJ(AB): I=   8 J=   2      0.1028207E-02     -0.1789807E-02
 T,EIJ(AB): I=   8 J=   3      0.6758732E-03     -0.1017831E-02
 T,EIJ(AB): I=   8 J=   4      0.6758732E-03     -0.1017831E-02
 Actual    scratch disk usage=  8300497600 words.
 GetIJB would need an additional  4989013553 words of memory to use all  16 processors.
 JobTyp=3 Pass  1:  I=   1 to   4 NPSUse= 10 ParTrn=T ParDer=T DoDerP=F.
 T,EIJ(BB): I=   1 J=   2      0.5053045E-03     -0.1785761E-02
 T,EIJ(BB): I=   1 J=   3      0.5313954E-03     -0.1864023E-02
 T,EIJ(BB): I=   1 J=   4      0.5313954E-03     -0.1864023E-02
 T,EIJ(BB): I=   2 J=   3      0.3114292E-02     -0.7247449E-02
 T,EIJ(BB): I=   2 J=   4      0.3114292E-02     -0.7247449E-02
 T,EIJ(BB): I=   3 J=   4      0.3133724E-02     -0.7249626E-02
 Spin components of T(2) and E(2):
     alpha-alpha T2 =       0.2290097195D-01 E2=     -0.6651310583D-01
     alpha-beta  T2 =       0.6551105136D-01 E2=     -0.1973149907D+00
     beta-beta   T2 =       0.1093040325D-01 E2=     -0.2725833193D-01
 ANorm=    0.1048836904D+01
 E2 =    -0.2916554132D+00 EUMP2 =    -0.14027975851105D+04

 Complete Basis Set (CBS) Extrapolation:
 M. R. Nyden and G. A. Petersson, JCP 75, 1843 (1981)
 G. A. Petersson and M. A. Al-Laham, JCP 94, 6081 (1991)
 G. A. Petersson, T. Tensfeldt, and J. A. Montgomery, JCP 94, 6091 (1991)
 J. A. Montgomery, J. W. Ochterski, and G. A. Petersson, JCP 101, 5900 (1994)
 
 Minimum Number of PNO for Extrapolation =  25
 Absolute Overlaps: IRadAn =         5
 LocTrn: ILocal=3 LocCor=F DoCore=F.
 Entering OneElI...
 Overlap between basis sets.
 Requested accuracy = 0.1000D-12
 PrsmSu:  NPrtUS=   1 ThrOK=F IAlg=1
 PRISM was handed  8588016204 working-precision words and    75 shell-pairs
 IPart=  0 NShTot=          75 NBatch=          15 AvBLen=         5.0
 CnvPC2: ToCart=F DoDens=F IPureD=0 IPureF=0.
 Transformed matrix in CnvPC2: 
                 1             2             3             4             5 
      1   0.100000D+01  0.376096D+00  0.000000D+00  0.000000D+00  0.000000D+00
      2   0.376096D+00  0.100000D+01  0.000000D+00  0.000000D+00  0.000000D+00
      3   0.000000D+00  0.000000D+00  0.100000D+01  0.000000D+00  0.000000D+00
      4   0.000000D+00  0.000000D+00  0.000000D+00  0.100000D+01  0.000000D+00
      5   0.000000D+00  0.000000D+00  0.000000D+00  0.000000D+00  0.100000D+01
      6   0.232663D-01  0.306441D+00  0.000000D+00  0.000000D+00  0.000000D+00
      7   0.000000D+00  0.000000D+00  0.319378D+00  0.000000D+00  0.000000D+00
      8   0.000000D+00  0.000000D+00  0.000000D+00  0.319378D+00  0.000000D+00
      9   0.000000D+00  0.000000D+00  0.000000D+00  0.000000D+00  0.319378D+00
     10   0.000000D+00  0.000000D+00  0.000000D+00  0.000000D+00  0.000000D+00
     11   0.000000D+00  0.000000D+00  0.000000D+00  0.000000D+00  0.000000D+00
     12   0.000000D+00  0.000000D+00  0.000000D+00  0.000000D+00  0.000000D+00
     13   0.000000D+00  0.000000D+00  0.000000D+00  0.000000D+00  0.000000D+00
     14   0.000000D+00  0.000000D+00  0.000000D+00  0.000000D+00  0.000000D+00
     15  -0.409949D-03  0.111392D-01  0.000000D+00  0.000000D+00  0.000000D+00
     16   0.000000D+00  0.000000D+00  0.218094D-01  0.000000D+00  0.000000D+00
     17   0.000000D+00  0.000000D+00  0.000000D+00  0.218094D-01  0.000000D+00
     18   0.000000D+00  0.000000D+00  0.000000D+00  0.000000D+00  0.218094D-01
     19   0.000000D+00  0.000000D+00  0.000000D+00  0.000000D+00  0.000000D+00
     20   0.000000D+00  0.000000D+00  0.000000D+00  0.000000D+00  0.000000D+00
     21   0.000000D+00  0.000000D+00  0.000000D+00  0.000000D+00  0.000000D+00
     22   0.000000D+00  0.000000D+00  0.000000D+00  0.000000D+00  0.000000D+00
     23   0.000000D+00  0.000000D+00  0.000000D+00  0.000000D+00  0.000000D+00
     24   0.476850D-03  0.339634D-02  0.000000D+00  0.000000D+00 -0.162028D-02
     25   0.000000D+00  0.000000D+00  0.415651D-03  0.000000D+00  0.000000D+00
     26   0.000000D+00  0.000000D+00  0.000000D+00  0.415651D-03  0.000000D+00
     27   0.990857D-03  0.688681D-02  0.000000D+00  0.000000D+00 -0.292797D-02
     28   0.788408D-03  0.606137D-02  0.000000D+00  0.000000D+00 -0.398829D-02
     29   0.000000D+00  0.000000D+00  0.628167D-03  0.000000D+00  0.000000D+00
     30   0.000000D+00  0.000000D+00  0.000000D+00  0.628167D-03  0.000000D+00
     31   0.000000D+00  0.000000D+00  0.000000D+00  0.000000D+00  0.000000D+00
     32   0.000000D+00  0.000000D+00  0.000000D+00  0.000000D+00  0.000000D+00
                 6             7             8             9            10 
      1   0.232663D-01  0.000000D+00  0.000000D+00  0.000000D+00  0.000000D+00
      2   0.306441D+00  0.000000D+00  0.000000D+00  0.000000D+00  0.000000D+00
      3   0.000000D+00  0.319378D+00  0.000000D+00  0.000000D+00  0.000000D+00
      4   0.000000D+00  0.000000D+00  0.319378D+00  0.000000D+00  0.000000D+00
      5   0.000000D+00  0.000000D+00  0.000000D+00  0.319378D+00  0.000000D+00
      6   0.100000D+01  0.000000D+00  0.000000D+00  0.000000D+00  0.000000D+00
      7   0.000000D+00  0.100000D+01  0.000000D+00  0.000000D+00  0.000000D+00
      8   0.000000D+00  0.000000D+00  0.100000D+01  0.000000D+00  0.000000D+00
      9   0.000000D+00  0.000000D+00  0.000000D+00  0.100000D+01  0.000000D+00
     10   0.000000D+00  0.000000D+00  0.000000D+00  0.000000D+00  0.100000D+01
     11   0.000000D+00  0.000000D+00  0.000000D+00  0.000000D+00  0.000000D+00
     12   0.000000D+00  0.000000D+00  0.000000D+00  0.000000D+00  0.000000D+00
     13   0.000000D+00  0.000000D+00  0.000000D+00  0.000000D+00  0.000000D+00
     14   0.000000D+00  0.000000D+00  0.000000D+00  0.000000D+00  0.000000D+00
     15   0.347708D+00  0.000000D+00  0.000000D+00  0.000000D+00  0.000000D+00
     16   0.000000D+00  0.361074D+00  0.000000D+00  0.000000D+00  0.000000D+00
     17   0.000000D+00  0.000000D+00  0.361074D+00  0.000000D+00  0.000000D+00
     18   0.000000D+00  0.000000D+00  0.000000D+00  0.361074D+00  0.000000D+00
     19   0.000000D+00  0.000000D+00  0.000000D+00 -0.153870D-05  0.616595D-03
     20   0.187686D-04  0.000000D+00  0.000000D+00 -0.571675D-04  0.558784D-02
     21   0.000000D+00  0.465363D-05  0.000000D+00  0.000000D+00  0.000000D+00
     22   0.000000D+00  0.000000D+00  0.465363D-05  0.000000D+00  0.000000D+00
     23   0.313032D-04  0.000000D+00  0.000000D+00 -0.914193D-04  0.450492D-02
     24   0.325470D-01  0.000000D+00  0.000000D+00 -0.376255D-01  0.827076D-01
     25   0.000000D+00  0.102923D-01  0.000000D+00  0.000000D+00  0.000000D+00
     26   0.000000D+00  0.000000D+00  0.102923D-01  0.000000D+00  0.000000D+00
     27   0.567613D-01  0.000000D+00  0.000000D+00 -0.613180D-01  0.114631D+00
     28   0.712159D-01  0.000000D+00  0.000000D+00 -0.923274D-01  0.151398D+00
     29   0.000000D+00  0.217409D-01  0.000000D+00  0.000000D+00  0.000000D+00
     30   0.000000D+00  0.000000D+00  0.217409D-01  0.000000D+00  0.000000D+00
     31   0.000000D+00  0.000000D+00  0.000000D+00  0.000000D+00  0.000000D+00
     32   0.000000D+00  0.000000D+00  0.000000D+00  0.000000D+00  0.000000D+00
                11            12            13            14            15 
      1   0.000000D+00  0.000000D+00  0.000000D+00  0.000000D+00 -0.409949D-03
      2   0.000000D+00  0.000000D+00  0.000000D+00  0.000000D+00  0.111392D-01
      3   0.000000D+00  0.000000D+00  0.000000D+00  0.000000D+00  0.000000D+00
      4   0.000000D+00  0.000000D+00  0.000000D+00  0.000000D+00  0.000000D+00
      5   0.000000D+00  0.000000D+00  0.000000D+00  0.000000D+00  0.000000D+00
      6   0.000000D+00  0.000000D+00  0.000000D+00  0.000000D+00  0.347708D+00
      7   0.000000D+00  0.000000D+00  0.000000D+00  0.000000D+00  0.000000D+00
      8   0.000000D+00  0.000000D+00  0.000000D+00  0.000000D+00  0.000000D+00
      9   0.000000D+00  0.000000D+00  0.000000D+00  0.000000D+00  0.000000D+00
     10   0.000000D+00  0.000000D+00  0.000000D+00  0.000000D+00  0.000000D+00
     11   0.100000D+01  0.000000D+00  0.000000D+00  0.000000D+00  0.000000D+00
     12   0.000000D+00  0.100000D+01  0.000000D+00  0.000000D+00  0.000000D+00
     13   0.000000D+00  0.000000D+00  0.100000D+01  0.000000D+00  0.000000D+00
     14   0.000000D+00  0.000000D+00  0.000000D+00  0.100000D+01  0.000000D+00
     15   0.000000D+00  0.000000D+00  0.000000D+00  0.000000D+00  0.100000D+01
     16   0.000000D+00  0.000000D+00  0.000000D+00  0.000000D+00  0.000000D+00
     17   0.000000D+00  0.000000D+00  0.000000D+00  0.000000D+00  0.000000D+00
     18   0.000000D+00  0.000000D+00  0.000000D+00  0.000000D+00  0.000000D+00
     19   0.000000D+00  0.000000D+00  0.000000D+00  0.000000D+00  0.436194D-02
     20   0.000000D+00  0.000000D+00  0.000000D+00  0.000000D+00  0.324647D-01
     21  -0.845226D-03  0.000000D+00  0.000000D+00  0.000000D+00  0.000000D+00
     22   0.000000D+00 -0.845226D-03  0.000000D+00  0.000000D+00  0.000000D+00
     23   0.000000D+00  0.000000D+00  0.000000D+00  0.000000D+00  0.113806D-01
     24   0.000000D+00  0.000000D+00  0.000000D+00  0.000000D+00  0.250937D+00
     25  -0.460466D-01  0.000000D+00  0.000000D+00  0.000000D+00  0.000000D+00
     26   0.000000D+00 -0.460466D-01  0.000000D+00  0.000000D+00  0.000000D+00
     27   0.000000D+00  0.000000D+00  0.000000D+00  0.000000D+00  0.233219D+00
     28   0.000000D+00  0.000000D+00  0.000000D+00  0.000000D+00  0.131158D+00
     29  -0.982348D-01  0.000000D+00  0.000000D+00  0.000000D+00  0.000000D+00
     30   0.000000D+00 -0.982348D-01  0.000000D+00  0.000000D+00  0.000000D+00
     31   0.000000D+00  0.000000D+00  0.155840D-01  0.000000D+00  0.000000D+00
     32   0.000000D+00  0.000000D+00  0.000000D+00  0.155840D-01  0.000000D+00
                16            17            18            19            20 
      1   0.000000D+00  0.000000D+00  0.000000D+00  0.000000D+00  0.000000D+00
      2   0.000000D+00  0.000000D+00  0.000000D+00  0.000000D+00  0.000000D+00
      3   0.218094D-01  0.000000D+00  0.000000D+00  0.000000D+00  0.000000D+00
      4   0.000000D+00  0.218094D-01  0.000000D+00  0.000000D+00  0.000000D+00
      5   0.000000D+00  0.000000D+00  0.218094D-01  0.000000D+00  0.000000D+00
      6   0.000000D+00  0.000000D+00  0.000000D+00  0.000000D+00  0.187686D-04
      7   0.361074D+00  0.000000D+00  0.000000D+00  0.000000D+00  0.000000D+00
      8   0.000000D+00  0.361074D+00  0.000000D+00  0.000000D+00  0.000000D+00
      9   0.000000D+00  0.000000D+00  0.361074D+00 -0.153870D-05 -0.571675D-04
     10   0.000000D+00  0.000000D+00  0.000000D+00  0.616595D-03  0.558784D-02
     11   0.000000D+00  0.000000D+00  0.000000D+00  0.000000D+00  0.000000D+00
     12   0.000000D+00  0.000000D+00  0.000000D+00  0.000000D+00  0.000000D+00
     13   0.000000D+00  0.000000D+00  0.000000D+00  0.000000D+00  0.000000D+00
     14   0.000000D+00  0.000000D+00  0.000000D+00  0.000000D+00  0.000000D+00
     15   0.000000D+00  0.000000D+00  0.000000D+00  0.436194D-02  0.324647D-01
     16   0.100000D+01  0.000000D+00  0.000000D+00  0.000000D+00  0.000000D+00
     17   0.000000D+00  0.100000D+01  0.000000D+00  0.000000D+00  0.000000D+00
     18   0.000000D+00  0.000000D+00  0.100000D+01 -0.736312D-02 -0.546391D-01
     19   0.000000D+00  0.000000D+00 -0.736312D-02  0.100000D+01  0.343801D+00
     20   0.000000D+00  0.000000D+00 -0.546391D-01  0.343801D+00  0.100000D+01
     21   0.485178D-02  0.000000D+00  0.000000D+00  0.000000D+00  0.000000D+00
     22   0.000000D+00  0.485178D-02  0.000000D+00  0.000000D+00  0.000000D+00
     23   0.000000D+00  0.000000D+00 -0.188415D-01  0.000000D+00  0.000000D+00
     24   0.000000D+00  0.000000D+00 -0.364485D+00  0.132695D-01  0.218484D+00
     25   0.124523D+00  0.000000D+00  0.000000D+00  0.000000D+00  0.000000D+00
     26   0.000000D+00  0.124523D+00  0.000000D+00  0.000000D+00  0.000000D+00
     27   0.000000D+00  0.000000D+00 -0.315124D+00  0.000000D+00  0.000000D+00
     28   0.000000D+00  0.000000D+00 -0.188873D+00  0.000000D+00  0.000000D+00
     29   0.158204D+00  0.000000D+00  0.000000D+00  0.000000D+00  0.000000D+00
     30   0.000000D+00  0.158204D+00  0.000000D+00  0.000000D+00  0.000000D+00
     31   0.000000D+00  0.000000D+00  0.000000D+00  0.000000D+00  0.000000D+00
     32   0.000000D+00  0.000000D+00  0.000000D+00  0.000000D+00  0.000000D+00
                21            22            23            24            25 
      1   0.000000D+00  0.000000D+00  0.000000D+00  0.476850D-03  0.000000D+00
      2   0.000000D+00  0.000000D+00  0.000000D+00  0.339634D-02  0.000000D+00
      3   0.000000D+00  0.000000D+00  0.000000D+00  0.000000D+00  0.415651D-03
      4   0.000000D+00  0.000000D+00  0.000000D+00  0.000000D+00  0.000000D+00
      5   0.000000D+00  0.000000D+00  0.000000D+00 -0.162028D-02  0.000000D+00
      6   0.000000D+00  0.000000D+00  0.313032D-04  0.325470D-01  0.000000D+00
      7   0.465363D-05  0.000000D+00  0.000000D+00  0.000000D+00  0.102923D-01
      8   0.000000D+00  0.465363D-05  0.000000D+00  0.000000D+00  0.000000D+00
      9   0.000000D+00  0.000000D+00 -0.914193D-04 -0.376255D-01  0.000000D+00
     10   0.000000D+00  0.000000D+00  0.450492D-02  0.827076D-01  0.000000D+00
     11  -0.845226D-03  0.000000D+00  0.000000D+00  0.000000D+00 -0.460466D-01
     12   0.000000D+00 -0.845226D-03  0.000000D+00  0.000000D+00  0.000000D+00
     13   0.000000D+00  0.000000D+00  0.000000D+00  0.000000D+00  0.000000D+00
     14   0.000000D+00  0.000000D+00  0.000000D+00  0.000000D+00  0.000000D+00
     15   0.000000D+00  0.000000D+00  0.113806D-01  0.250937D+00  0.000000D+00
     16   0.485178D-02  0.000000D+00  0.000000D+00  0.000000D+00  0.124523D+00
     17   0.000000D+00  0.485178D-02  0.000000D+00  0.000000D+00  0.000000D+00
     18   0.000000D+00  0.000000D+00 -0.188415D-01 -0.364485D+00  0.000000D+00
     19   0.000000D+00  0.000000D+00  0.000000D+00  0.132695D-01  0.000000D+00
     20   0.000000D+00  0.000000D+00  0.000000D+00  0.218484D+00  0.000000D+00
     21   0.100000D+01  0.000000D+00  0.000000D+00  0.000000D+00  0.232586D+00
     22   0.000000D+00  0.100000D+01  0.000000D+00  0.000000D+00  0.000000D+00
     23   0.000000D+00  0.000000D+00  0.100000D+01  0.000000D+00  0.000000D+00
     24   0.000000D+00  0.000000D+00  0.000000D+00  0.100000D+01  0.000000D+00
     25   0.232586D+00  0.000000D+00  0.000000D+00  0.000000D+00  0.100000D+01
     26   0.000000D+00  0.232586D+00  0.000000D+00  0.000000D+00  0.000000D+00
     27   0.000000D+00  0.000000D+00  0.232586D+00  0.000000D+00  0.000000D+00
     28   0.000000D+00  0.000000D+00  0.000000D+00  0.000000D+00  0.000000D+00
     29   0.000000D+00  0.000000D+00  0.000000D+00  0.000000D+00  0.000000D+00
     30   0.000000D+00  0.000000D+00  0.000000D+00  0.000000D+00  0.000000D+00
     31   0.000000D+00  0.000000D+00  0.000000D+00  0.000000D+00  0.000000D+00
     32   0.000000D+00  0.000000D+00  0.000000D+00  0.000000D+00  0.000000D+00
                26            27            28            29            30 
      1   0.000000D+00  0.990857D-03  0.788408D-03  0.000000D+00  0.000000D+00
      2   0.000000D+00  0.688681D-02  0.606137D-02  0.000000D+00  0.000000D+00
      3   0.000000D+00  0.000000D+00  0.000000D+00  0.628167D-03  0.000000D+00
      4   0.415651D-03  0.000000D+00  0.000000D+00  0.000000D+00  0.628167D-03
      5   0.000000D+00 -0.292797D-02 -0.398829D-02  0.000000D+00  0.000000D+00
      6   0.000000D+00  0.567613D-01  0.712159D-01  0.000000D+00  0.000000D+00
      7   0.000000D+00  0.000000D+00  0.000000D+00  0.217409D-01  0.000000D+00
      8   0.102923D-01  0.000000D+00  0.000000D+00  0.000000D+00  0.217409D-01
      9   0.000000D+00 -0.613180D-01 -0.923274D-01  0.000000D+00  0.000000D+00
     10   0.000000D+00  0.114631D+00  0.151398D+00  0.000000D+00  0.000000D+00
     11   0.000000D+00  0.000000D+00  0.000000D+00 -0.982348D-01  0.000000D+00
     12  -0.460466D-01  0.000000D+00  0.000000D+00  0.000000D+00 -0.982348D-01
     13   0.000000D+00  0.000000D+00  0.000000D+00  0.000000D+00  0.000000D+00
     14   0.000000D+00  0.000000D+00  0.000000D+00  0.000000D+00  0.000000D+00
     15   0.000000D+00  0.233219D+00  0.131158D+00  0.000000D+00  0.000000D+00
     16   0.000000D+00  0.000000D+00  0.000000D+00  0.158204D+00  0.000000D+00
     17   0.124523D+00  0.000000D+00  0.000000D+00  0.000000D+00  0.158204D+00
     18   0.000000D+00 -0.315124D+00 -0.188873D+00  0.000000D+00  0.000000D+00
     19   0.000000D+00  0.000000D+00  0.000000D+00  0.000000D+00  0.000000D+00
     20   0.000000D+00  0.000000D+00  0.000000D+00  0.000000D+00  0.000000D+00
     21   0.000000D+00  0.000000D+00  0.000000D+00  0.000000D+00  0.000000D+00
     22   0.232586D+00  0.000000D+00  0.000000D+00  0.000000D+00  0.000000D+00
     23   0.000000D+00  0.232586D+00  0.000000D+00  0.000000D+00  0.000000D+00
     24   0.000000D+00  0.000000D+00  0.000000D+00  0.000000D+00  0.000000D+00
     25   0.000000D+00  0.000000D+00  0.000000D+00  0.000000D+00  0.000000D+00
     26   0.100000D+01  0.000000D+00  0.000000D+00  0.000000D+00  0.000000D+00
     27   0.000000D+00  0.100000D+01  0.000000D+00  0.000000D+00  0.000000D+00
     28   0.000000D+00  0.000000D+00  0.100000D+01  0.000000D+00  0.000000D+00
     29   0.000000D+00  0.000000D+00  0.000000D+00  0.100000D+01  0.000000D+00
     30   0.000000D+00  0.000000D+00  0.000000D+00  0.000000D+00  0.100000D+01
     31   0.000000D+00  0.000000D+00  0.000000D+00  0.000000D+00  0.000000D+00
     32   0.000000D+00  0.000000D+00  0.000000D+00  0.000000D+00  0.000000D+00
                31            32 
      1   0.000000D+00  0.000000D+00
      2   0.000000D+00  0.000000D+00
      3   0.000000D+00  0.000000D+00
      4   0.000000D+00  0.000000D+00
      5   0.000000D+00  0.000000D+00
      6   0.000000D+00  0.000000D+00
      7   0.000000D+00  0.000000D+00
      8   0.000000D+00  0.000000D+00
      9   0.000000D+00  0.000000D+00
     10   0.000000D+00  0.000000D+00
     11   0.000000D+00  0.000000D+00
     12   0.000000D+00  0.000000D+00
     13   0.155840D-01  0.000000D+00
     14   0.000000D+00  0.155840D-01
     15   0.000000D+00  0.000000D+00
     16   0.000000D+00  0.000000D+00
     17   0.000000D+00  0.000000D+00
     18   0.000000D+00  0.000000D+00
     19   0.000000D+00  0.000000D+00
     20   0.000000D+00  0.000000D+00
     21   0.000000D+00  0.000000D+00
     22   0.000000D+00  0.000000D+00
     23   0.000000D+00  0.000000D+00
     24   0.000000D+00  0.000000D+00
     25   0.000000D+00  0.000000D+00
     26   0.000000D+00  0.000000D+00
     27   0.000000D+00  0.000000D+00
     28   0.000000D+00  0.000000D+00
     29   0.000000D+00  0.000000D+00
     30   0.000000D+00  0.000000D+00
     31   0.100000D+01  0.000000D+00
     32   0.000000D+00  0.100000D+01
 Entering OneElI...
 Overlap between basis sets.
 Requested accuracy = 0.1000D-12
 PrsmSu:  NPrtUS=   1 ThrOK=F IAlg=1
 PRISM was handed  8586603254 working-precision words and   923 shell-pairs
 IPart=  0 NShTot=         923 NBatch=         118 AvBLen=         7.8
 CnvPC2: ToCart=F DoDens=F IPureD=0 IPureF=0.
 Transformed matrix in CnvPC2: 
                 1             2             3             4             5 
      1   0.999701D+00  0.391661D+00  0.000000D+00  0.000000D+00  0.000000D+00
      2   0.273566D+00  0.990698D+00  0.000000D+00  0.000000D+00  0.000000D+00
      3   0.000000D+00  0.000000D+00  0.998902D+00  0.000000D+00  0.000000D+00
      4   0.000000D+00  0.000000D+00  0.000000D+00  0.998902D+00  0.000000D+00
      5   0.000000D+00  0.000000D+00  0.000000D+00  0.000000D+00  0.998902D+00
      6   0.964035D-02  0.302522D+00  0.000000D+00  0.000000D+00  0.000000D+00
      7   0.000000D+00  0.000000D+00  0.307539D+00  0.000000D+00  0.000000D+00
      8   0.000000D+00  0.000000D+00  0.000000D+00  0.307539D+00  0.000000D+00
      9   0.000000D+00  0.000000D+00  0.000000D+00  0.000000D+00  0.307539D+00
     10   0.000000D+00  0.000000D+00  0.000000D+00  0.000000D+00  0.000000D+00
     11   0.000000D+00  0.000000D+00  0.000000D+00  0.000000D+00  0.000000D+00
     12   0.000000D+00  0.000000D+00  0.000000D+00  0.000000D+00  0.000000D+00
     13   0.000000D+00  0.000000D+00  0.000000D+00  0.000000D+00  0.000000D+00
     14   0.000000D+00  0.000000D+00  0.000000D+00  0.000000D+00  0.000000D+00
     15   0.000000D+00  0.000000D+00  0.000000D+00  0.000000D+00  0.000000D+00
     16   0.000000D+00  0.000000D+00  0.000000D+00  0.000000D+00  0.000000D+00
     17   0.000000D+00  0.000000D+00  0.000000D+00  0.000000D+00  0.000000D+00
     18   0.000000D+00  0.000000D+00  0.000000D+00  0.000000D+00  0.000000D+00
     19   0.000000D+00  0.000000D+00  0.000000D+00  0.000000D+00  0.000000D+00
     20   0.000000D+00  0.000000D+00  0.000000D+00  0.000000D+00  0.000000D+00
     21   0.000000D+00  0.000000D+00  0.000000D+00  0.000000D+00  0.000000D+00
     22   0.000000D+00  0.000000D+00  0.000000D+00  0.000000D+00  0.000000D+00
     23   0.000000D+00  0.000000D+00  0.000000D+00  0.000000D+00  0.000000D+00
     24   0.000000D+00  0.000000D+00  0.000000D+00  0.000000D+00  0.000000D+00
     25   0.101918D-03  0.976865D-02  0.000000D+00  0.000000D+00  0.000000D+00
     26   0.774497D-02  0.509594D-01  0.000000D+00  0.000000D+00  0.000000D+00
     27   0.375227D-02  0.247952D-01  0.000000D+00  0.000000D+00  0.000000D+00
     28   0.000000D+00  0.000000D+00 -0.236046D-01  0.000000D+00  0.000000D+00
     29   0.000000D+00  0.000000D+00  0.000000D+00 -0.236046D-01  0.000000D+00
     30   0.000000D+00  0.000000D+00  0.000000D+00  0.000000D+00 -0.236046D-01
     31   0.000000D+00  0.000000D+00  0.162003D-01  0.000000D+00  0.000000D+00
     32   0.000000D+00  0.000000D+00  0.000000D+00  0.162003D-01  0.000000D+00
     33   0.000000D+00  0.000000D+00  0.000000D+00  0.000000D+00  0.162003D-01
     34   0.000000D+00  0.000000D+00  0.662486D-02  0.000000D+00  0.000000D+00
     35   0.000000D+00  0.000000D+00  0.000000D+00  0.662486D-02  0.000000D+00
     36   0.000000D+00  0.000000D+00  0.000000D+00  0.000000D+00  0.662486D-02
     37   0.000000D+00  0.000000D+00  0.268714D-02  0.000000D+00  0.000000D+00
     38   0.000000D+00  0.000000D+00  0.000000D+00  0.268714D-02  0.000000D+00
     39   0.000000D+00  0.000000D+00  0.000000D+00  0.000000D+00  0.268714D-02
     40   0.272153D+00  0.944841D+00  0.000000D+00  0.000000D+00  0.000000D+00
     41   0.171247D+00  0.775790D+00  0.000000D+00  0.000000D+00  0.000000D+00
     42   0.105486D+00  0.565981D+00  0.000000D+00  0.000000D+00  0.000000D+00
     43   0.642417D-01  0.380308D+00  0.000000D+00  0.000000D+00  0.000000D+00
     44   0.388913D-01  0.242977D+00  0.000000D+00  0.000000D+00  0.000000D+00
     45   0.234723D-01  0.150883D+00  0.000000D+00  0.000000D+00  0.000000D+00
     46   0.000000D+00  0.000000D+00  0.425887D+00  0.000000D+00  0.000000D+00
     47   0.000000D+00  0.000000D+00  0.000000D+00  0.425887D+00  0.000000D+00
     48   0.000000D+00  0.000000D+00  0.000000D+00  0.000000D+00  0.425887D+00
     49   0.000000D+00  0.000000D+00  0.279361D+00  0.000000D+00  0.000000D+00
     50   0.000000D+00  0.000000D+00  0.000000D+00  0.279361D+00  0.000000D+00
     51   0.000000D+00  0.000000D+00  0.000000D+00  0.000000D+00  0.279361D+00
     52   0.000000D+00  0.000000D+00  0.172690D+00  0.000000D+00  0.000000D+00
     53   0.000000D+00  0.000000D+00  0.000000D+00  0.172690D+00  0.000000D+00
     54   0.000000D+00  0.000000D+00  0.000000D+00  0.000000D+00  0.172690D+00
     55   0.000000D+00  0.000000D+00  0.102260D+00  0.000000D+00  0.000000D+00
     56   0.000000D+00  0.000000D+00  0.000000D+00  0.102260D+00  0.000000D+00
     57   0.000000D+00  0.000000D+00  0.000000D+00  0.000000D+00  0.102260D+00
     58   0.000000D+00  0.000000D+00  0.587978D-01  0.000000D+00  0.000000D+00
     59   0.000000D+00  0.000000D+00  0.000000D+00  0.587978D-01  0.000000D+00
     60   0.000000D+00  0.000000D+00  0.000000D+00  0.000000D+00  0.587978D-01
     61   0.000000D+00  0.000000D+00  0.331578D-01  0.000000D+00  0.000000D+00
     62   0.000000D+00  0.000000D+00  0.000000D+00  0.331578D-01  0.000000D+00
     63   0.000000D+00  0.000000D+00  0.000000D+00  0.000000D+00  0.331578D-01
     64   0.000000D+00  0.000000D+00  0.000000D+00  0.000000D+00  0.000000D+00
     65   0.000000D+00  0.000000D+00  0.000000D+00  0.000000D+00  0.000000D+00
     66   0.000000D+00  0.000000D+00  0.000000D+00  0.000000D+00  0.000000D+00
     67   0.000000D+00  0.000000D+00  0.000000D+00  0.000000D+00  0.000000D+00
     68   0.000000D+00  0.000000D+00  0.000000D+00  0.000000D+00  0.000000D+00
     69   0.000000D+00  0.000000D+00  0.000000D+00  0.000000D+00  0.000000D+00
     70   0.000000D+00  0.000000D+00  0.000000D+00  0.000000D+00  0.000000D+00
     71   0.000000D+00  0.000000D+00  0.000000D+00  0.000000D+00  0.000000D+00
     72   0.000000D+00  0.000000D+00  0.000000D+00  0.000000D+00  0.000000D+00
     73   0.000000D+00  0.000000D+00  0.000000D+00  0.000000D+00  0.000000D+00
     74   0.000000D+00  0.000000D+00  0.000000D+00  0.000000D+00  0.000000D+00
     75   0.000000D+00  0.000000D+00  0.000000D+00  0.000000D+00  0.000000D+00
     76   0.000000D+00  0.000000D+00  0.000000D+00  0.000000D+00  0.000000D+00
     77   0.000000D+00  0.000000D+00  0.000000D+00  0.000000D+00  0.000000D+00
     78   0.000000D+00  0.000000D+00  0.000000D+00  0.000000D+00  0.000000D+00
     79   0.000000D+00  0.000000D+00  0.000000D+00  0.000000D+00  0.000000D+00
     80   0.000000D+00  0.000000D+00  0.000000D+00  0.000000D+00  0.000000D+00
     81   0.000000D+00  0.000000D+00  0.000000D+00  0.000000D+00  0.000000D+00
     82   0.000000D+00  0.000000D+00  0.000000D+00  0.000000D+00  0.000000D+00
     83   0.000000D+00  0.000000D+00  0.000000D+00  0.000000D+00  0.000000D+00
     84   0.000000D+00  0.000000D+00  0.000000D+00  0.000000D+00  0.000000D+00
     85   0.000000D+00  0.000000D+00  0.000000D+00  0.000000D+00  0.000000D+00
     86   0.000000D+00  0.000000D+00  0.000000D+00  0.000000D+00  0.000000D+00
     87   0.000000D+00  0.000000D+00  0.000000D+00  0.000000D+00  0.000000D+00
     88   0.000000D+00  0.000000D+00  0.000000D+00  0.000000D+00  0.000000D+00
     89   0.000000D+00  0.000000D+00  0.000000D+00  0.000000D+00  0.000000D+00
     90   0.000000D+00  0.000000D+00  0.000000D+00  0.000000D+00  0.000000D+00
     91   0.000000D+00  0.000000D+00  0.000000D+00  0.000000D+00  0.000000D+00
     92   0.000000D+00  0.000000D+00  0.000000D+00  0.000000D+00  0.000000D+00
     93   0.000000D+00  0.000000D+00  0.000000D+00  0.000000D+00  0.000000D+00
     94   0.000000D+00  0.000000D+00  0.000000D+00  0.000000D+00  0.000000D+00
     95   0.000000D+00  0.000000D+00  0.000000D+00  0.000000D+00  0.000000D+00
     96   0.000000D+00  0.000000D+00  0.000000D+00  0.000000D+00  0.000000D+00
     97   0.000000D+00  0.000000D+00  0.000000D+00  0.000000D+00  0.000000D+00
     98   0.000000D+00  0.000000D+00  0.000000D+00  0.000000D+00  0.000000D+00
     99   0.000000D+00  0.000000D+00  0.000000D+00  0.000000D+00  0.000000D+00
    100   0.000000D+00  0.000000D+00  0.000000D+00  0.000000D+00  0.000000D+00
    101   0.000000D+00  0.000000D+00  0.000000D+00  0.000000D+00  0.000000D+00
    102   0.000000D+00  0.000000D+00  0.000000D+00  0.000000D+00  0.000000D+00
    103   0.000000D+00  0.000000D+00  0.000000D+00  0.000000D+00  0.000000D+00
    104   0.000000D+00  0.000000D+00  0.000000D+00  0.000000D+00  0.000000D+00
    105   0.000000D+00  0.000000D+00  0.000000D+00  0.000000D+00  0.000000D+00
    106   0.000000D+00  0.000000D+00  0.000000D+00  0.000000D+00  0.000000D+00
    107   0.000000D+00  0.000000D+00  0.000000D+00  0.000000D+00  0.000000D+00
    108   0.000000D+00  0.000000D+00  0.000000D+00  0.000000D+00  0.000000D+00
    109   0.000000D+00  0.000000D+00  0.000000D+00  0.000000D+00  0.000000D+00
    110   0.000000D+00  0.000000D+00  0.000000D+00  0.000000D+00  0.000000D+00
    111   0.000000D+00  0.000000D+00  0.000000D+00  0.000000D+00  0.000000D+00
    112   0.000000D+00  0.000000D+00  0.000000D+00  0.000000D+00  0.000000D+00
    113   0.000000D+00  0.000000D+00  0.000000D+00  0.000000D+00  0.000000D+00
    114   0.000000D+00  0.000000D+00  0.000000D+00  0.000000D+00  0.000000D+00
    115   0.000000D+00  0.000000D+00  0.000000D+00  0.000000D+00  0.000000D+00
    116   0.000000D+00  0.000000D+00  0.000000D+00  0.000000D+00  0.000000D+00
    117   0.000000D+00  0.000000D+00  0.000000D+00  0.000000D+00  0.000000D+00
    118   0.000000D+00  0.000000D+00  0.000000D+00  0.000000D+00  0.000000D+00
    119   0.000000D+00  0.000000D+00  0.000000D+00  0.000000D+00  0.000000D+00
    120   0.000000D+00  0.000000D+00  0.000000D+00  0.000000D+00  0.000000D+00
    121   0.000000D+00  0.000000D+00  0.000000D+00  0.000000D+00  0.000000D+00
    122   0.000000D+00  0.000000D+00  0.000000D+00  0.000000D+00  0.000000D+00
    123   0.000000D+00  0.000000D+00  0.000000D+00  0.000000D+00  0.000000D+00
    124   0.000000D+00  0.000000D+00  0.000000D+00  0.000000D+00  0.000000D+00
    125   0.000000D+00  0.000000D+00  0.000000D+00  0.000000D+00  0.000000D+00
    126   0.000000D+00  0.000000D+00  0.000000D+00  0.000000D+00  0.000000D+00
    127   0.000000D+00  0.000000D+00  0.000000D+00  0.000000D+00  0.000000D+00
    128   0.000000D+00  0.000000D+00  0.000000D+00  0.000000D+00  0.000000D+00
    129   0.000000D+00  0.000000D+00  0.000000D+00  0.000000D+00  0.000000D+00
    130   0.000000D+00  0.000000D+00  0.000000D+00  0.000000D+00  0.000000D+00
    131   0.000000D+00  0.000000D+00  0.000000D+00  0.000000D+00  0.000000D+00
    132   0.000000D+00  0.000000D+00  0.000000D+00  0.000000D+00  0.000000D+00
    133   0.000000D+00  0.000000D+00  0.000000D+00  0.000000D+00  0.000000D+00
    134   0.000000D+00  0.000000D+00  0.000000D+00  0.000000D+00  0.000000D+00
    135   0.000000D+00  0.000000D+00  0.000000D+00  0.000000D+00  0.000000D+00
    136   0.000000D+00  0.000000D+00  0.000000D+00  0.000000D+00  0.000000D+00
    137   0.000000D+00  0.000000D+00  0.000000D+00  0.000000D+00  0.000000D+00
    138   0.000000D+00  0.000000D+00  0.000000D+00  0.000000D+00  0.000000D+00
    139   0.000000D+00  0.000000D+00  0.000000D+00  0.000000D+00  0.000000D+00
    140   0.000000D+00  0.000000D+00  0.000000D+00  0.000000D+00  0.000000D+00
    141   0.000000D+00  0.000000D+00  0.000000D+00  0.000000D+00  0.000000D+00
    142   0.000000D+00  0.000000D+00  0.000000D+00  0.000000D+00  0.000000D+00
    143   0.000000D+00  0.000000D+00  0.000000D+00  0.000000D+00  0.000000D+00
    144   0.000000D+00  0.000000D+00  0.000000D+00  0.000000D+00  0.000000D+00
    145   0.000000D+00  0.000000D+00  0.000000D+00  0.000000D+00  0.000000D+00
    146   0.000000D+00  0.000000D+00  0.000000D+00  0.000000D+00  0.000000D+00
    147   0.000000D+00  0.000000D+00  0.000000D+00  0.000000D+00  0.000000D+00
    148   0.000000D+00  0.000000D+00  0.000000D+00  0.000000D+00  0.000000D+00
    149   0.000000D+00  0.000000D+00  0.000000D+00  0.000000D+00  0.000000D+00
    150   0.000000D+00  0.000000D+00  0.000000D+00  0.000000D+00  0.000000D+00
    151   0.000000D+00  0.000000D+00  0.000000D+00  0.000000D+00  0.000000D+00
    152   0.000000D+00  0.000000D+00  0.000000D+00  0.000000D+00  0.000000D+00
    153   0.000000D+00  0.000000D+00  0.000000D+00  0.000000D+00  0.000000D+00
    154   0.000000D+00  0.000000D+00  0.000000D+00  0.000000D+00  0.000000D+00
    155   0.000000D+00  0.000000D+00  0.000000D+00  0.000000D+00  0.000000D+00
    156   0.000000D+00  0.000000D+00  0.000000D+00  0.000000D+00  0.000000D+00
    157   0.000000D+00  0.000000D+00  0.000000D+00  0.000000D+00  0.000000D+00
    158   0.000000D+00  0.000000D+00  0.000000D+00  0.000000D+00  0.000000D+00
    159   0.000000D+00  0.000000D+00  0.000000D+00  0.000000D+00  0.000000D+00
    160   0.000000D+00  0.000000D+00  0.000000D+00  0.000000D+00  0.000000D+00
    161   0.000000D+00  0.000000D+00  0.000000D+00  0.000000D+00  0.000000D+00
    162   0.000000D+00  0.000000D+00  0.000000D+00  0.000000D+00  0.000000D+00
    163   0.000000D+00  0.000000D+00  0.000000D+00  0.000000D+00  0.000000D+00
    164   0.000000D+00  0.000000D+00  0.000000D+00  0.000000D+00  0.000000D+00
    165   0.000000D+00  0.000000D+00  0.000000D+00  0.000000D+00  0.000000D+00
    166   0.000000D+00  0.000000D+00  0.000000D+00  0.000000D+00  0.000000D+00
    167   0.000000D+00  0.000000D+00  0.000000D+00  0.000000D+00  0.000000D+00
    168   0.000000D+00  0.000000D+00  0.000000D+00  0.000000D+00  0.000000D+00
    169   0.000000D+00  0.000000D+00  0.000000D+00  0.000000D+00  0.000000D+00
    170   0.000000D+00  0.000000D+00  0.000000D+00  0.000000D+00  0.000000D+00
    171   0.000000D+00  0.000000D+00  0.000000D+00  0.000000D+00  0.000000D+00
    172   0.000000D+00  0.000000D+00  0.000000D+00  0.000000D+00  0.000000D+00
    173   0.000000D+00  0.000000D+00  0.000000D+00  0.000000D+00  0.000000D+00
    174   0.000000D+00  0.000000D+00  0.000000D+00  0.000000D+00  0.000000D+00
    175   0.000000D+00  0.000000D+00  0.000000D+00  0.000000D+00  0.000000D+00
    176   0.000000D+00  0.000000D+00  0.000000D+00  0.000000D+00  0.000000D+00
    177   0.000000D+00  0.000000D+00  0.000000D+00  0.000000D+00  0.000000D+00
    178   0.000000D+00  0.000000D+00  0.000000D+00  0.000000D+00  0.000000D+00
    179   0.000000D+00  0.000000D+00  0.000000D+00  0.000000D+00  0.000000D+00
    180   0.000000D+00  0.000000D+00  0.000000D+00  0.000000D+00  0.000000D+00
    181   0.000000D+00  0.000000D+00  0.000000D+00  0.000000D+00  0.000000D+00
    182   0.000000D+00  0.000000D+00  0.000000D+00  0.000000D+00  0.000000D+00
    183   0.000000D+00  0.000000D+00  0.000000D+00  0.000000D+00  0.000000D+00
    184   0.000000D+00  0.000000D+00  0.000000D+00  0.000000D+00  0.000000D+00
    185   0.000000D+00  0.000000D+00  0.000000D+00  0.000000D+00  0.000000D+00
    186   0.000000D+00  0.000000D+00  0.000000D+00  0.000000D+00  0.000000D+00
    187   0.000000D+00  0.000000D+00  0.000000D+00  0.000000D+00  0.000000D+00
    188   0.000000D+00  0.000000D+00  0.000000D+00  0.000000D+00  0.000000D+00
    189   0.000000D+00  0.000000D+00  0.000000D+00  0.000000D+00  0.000000D+00
    190   0.000000D+00  0.000000D+00  0.000000D+00  0.000000D+00  0.000000D+00
    191   0.000000D+00  0.000000D+00  0.000000D+00  0.000000D+00  0.000000D+00
    192   0.000000D+00  0.000000D+00  0.000000D+00  0.000000D+00  0.000000D+00
    193   0.000000D+00  0.000000D+00  0.000000D+00  0.000000D+00  0.000000D+00
    194   0.000000D+00  0.000000D+00  0.000000D+00  0.000000D+00  0.000000D+00
    195   0.000000D+00  0.000000D+00  0.000000D+00  0.000000D+00  0.000000D+00
    196   0.000000D+00  0.000000D+00  0.000000D+00  0.000000D+00  0.000000D+00
    197   0.000000D+00  0.000000D+00  0.000000D+00  0.000000D+00  0.000000D+00
    198   0.000000D+00  0.000000D+00  0.000000D+00  0.000000D+00  0.000000D+00
    199   0.000000D+00  0.000000D+00  0.000000D+00  0.000000D+00  0.000000D+00
    200   0.000000D+00  0.000000D+00  0.000000D+00  0.000000D+00  0.000000D+00
    201   0.000000D+00  0.000000D+00  0.000000D+00  0.000000D+00  0.000000D+00
    202   0.000000D+00  0.000000D+00  0.000000D+00  0.000000D+00  0.000000D+00
    203   0.000000D+00  0.000000D+00  0.000000D+00  0.000000D+00  0.000000D+00
    204   0.000000D+00  0.000000D+00  0.000000D+00  0.000000D+00  0.000000D+00
    205   0.000000D+00  0.000000D+00  0.000000D+00  0.000000D+00  0.000000D+00
    206   0.000000D+00  0.000000D+00  0.000000D+00  0.000000D+00  0.000000D+00
    207   0.000000D+00  0.000000D+00  0.000000D+00  0.000000D+00  0.000000D+00
    208   0.000000D+00  0.000000D+00  0.000000D+00  0.000000D+00  0.000000D+00
    209   0.000000D+00  0.000000D+00  0.000000D+00  0.000000D+00  0.000000D+00
    210   0.000000D+00  0.000000D+00  0.000000D+00  0.000000D+00  0.000000D+00
    211   0.000000D+00  0.000000D+00  0.000000D+00  0.000000D+00  0.000000D+00
    212   0.000000D+00  0.000000D+00  0.000000D+00  0.000000D+00  0.000000D+00
    213   0.000000D+00  0.000000D+00  0.000000D+00  0.000000D+00  0.000000D+00
    214   0.000000D+00  0.000000D+00  0.000000D+00  0.000000D+00  0.000000D+00
    215   0.000000D+00  0.000000D+00  0.000000D+00  0.000000D+00  0.000000D+00
    216   0.000000D+00  0.000000D+00  0.000000D+00  0.000000D+00  0.000000D+00
    217   0.000000D+00  0.000000D+00  0.000000D+00  0.000000D+00  0.000000D+00
    218   0.000000D+00  0.000000D+00  0.000000D+00  0.000000D+00  0.000000D+00
    219   0.000000D+00  0.000000D+00  0.000000D+00  0.000000D+00  0.000000D+00
    220   0.000000D+00  0.000000D+00  0.000000D+00  0.000000D+00  0.000000D+00
    221   0.000000D+00  0.000000D+00  0.000000D+00  0.000000D+00  0.000000D+00
    222   0.000000D+00  0.000000D+00  0.000000D+00  0.000000D+00  0.000000D+00
    223   0.000000D+00  0.000000D+00  0.000000D+00  0.000000D+00  0.000000D+00
    224   0.000000D+00  0.000000D+00  0.000000D+00  0.000000D+00  0.000000D+00
    225   0.000000D+00  0.000000D+00  0.000000D+00  0.000000D+00  0.000000D+00
    226   0.000000D+00  0.000000D+00  0.000000D+00  0.000000D+00  0.000000D+00
    227   0.000000D+00  0.000000D+00  0.000000D+00  0.000000D+00  0.000000D+00
    228   0.000000D+00  0.000000D+00  0.000000D+00  0.000000D+00  0.000000D+00
    229   0.000000D+00  0.000000D+00  0.000000D+00  0.000000D+00  0.000000D+00
    230   0.000000D+00  0.000000D+00  0.000000D+00  0.000000D+00  0.000000D+00
    231   0.000000D+00  0.000000D+00  0.000000D+00  0.000000D+00  0.000000D+00
    232   0.000000D+00  0.000000D+00  0.000000D+00  0.000000D+00  0.000000D+00
    233   0.000000D+00  0.000000D+00  0.000000D+00  0.000000D+00  0.000000D+00
    234   0.000000D+00  0.000000D+00  0.000000D+00  0.000000D+00  0.000000D+00
    235   0.000000D+00  0.000000D+00  0.000000D+00  0.000000D+00  0.000000D+00
    236   0.000000D+00  0.000000D+00  0.000000D+00  0.000000D+00  0.000000D+00
    237   0.000000D+00  0.000000D+00  0.000000D+00  0.000000D+00  0.000000D+00
    238   0.000000D+00  0.000000D+00  0.000000D+00  0.000000D+00  0.000000D+00
    239   0.000000D+00  0.000000D+00  0.000000D+00  0.000000D+00  0.000000D+00
    240   0.000000D+00  0.000000D+00  0.000000D+00  0.000000D+00  0.000000D+00
    241   0.000000D+00  0.000000D+00  0.000000D+00  0.000000D+00  0.000000D+00
    242   0.000000D+00  0.000000D+00  0.000000D+00  0.000000D+00  0.000000D+00
    243   0.000000D+00  0.000000D+00  0.000000D+00  0.000000D+00  0.000000D+00
    244   0.000000D+00  0.000000D+00  0.000000D+00  0.000000D+00  0.000000D+00
    245   0.000000D+00  0.000000D+00  0.000000D+00  0.000000D+00  0.000000D+00
    246   0.000000D+00  0.000000D+00  0.000000D+00  0.000000D+00  0.000000D+00
    247   0.000000D+00  0.000000D+00  0.000000D+00  0.000000D+00  0.000000D+00
    248   0.000000D+00  0.000000D+00  0.000000D+00  0.000000D+00  0.000000D+00
    249   0.000000D+00  0.000000D+00  0.000000D+00  0.000000D+00  0.000000D+00
    250   0.000000D+00  0.000000D+00  0.000000D+00  0.000000D+00  0.000000D+00
    251   0.000000D+00  0.000000D+00  0.000000D+00  0.000000D+00  0.000000D+00
    252   0.000000D+00  0.000000D+00  0.000000D+00  0.000000D+00  0.000000D+00
    253   0.000000D+00  0.000000D+00  0.000000D+00  0.000000D+00  0.000000D+00
    254   0.000000D+00  0.000000D+00  0.000000D+00  0.000000D+00  0.000000D+00
    255   0.000000D+00  0.000000D+00  0.000000D+00  0.000000D+00  0.000000D+00
    256   0.000000D+00  0.000000D+00  0.000000D+00  0.000000D+00  0.000000D+00
    257   0.000000D+00  0.000000D+00  0.000000D+00  0.000000D+00  0.000000D+00
    258   0.000000D+00  0.000000D+00  0.000000D+00  0.000000D+00  0.000000D+00
    259   0.000000D+00  0.000000D+00  0.000000D+00  0.000000D+00  0.000000D+00
    260   0.000000D+00  0.000000D+00  0.000000D+00  0.000000D+00  0.000000D+00
    261   0.000000D+00  0.000000D+00  0.000000D+00  0.000000D+00  0.000000D+00
    262   0.000000D+00  0.000000D+00  0.000000D+00  0.000000D+00  0.000000D+00
    263   0.000000D+00  0.000000D+00  0.000000D+00  0.000000D+00  0.000000D+00
    264   0.000000D+00  0.000000D+00  0.000000D+00  0.000000D+00  0.000000D+00
    265   0.000000D+00  0.000000D+00  0.000000D+00  0.000000D+00  0.000000D+00
    266   0.000000D+00  0.000000D+00  0.000000D+00  0.000000D+00  0.000000D+00
    267   0.000000D+00  0.000000D+00  0.000000D+00  0.000000D+00  0.000000D+00
    268   0.000000D+00  0.000000D+00  0.000000D+00  0.000000D+00  0.000000D+00
    269   0.000000D+00  0.000000D+00  0.000000D+00  0.000000D+00  0.000000D+00
    270   0.000000D+00  0.000000D+00  0.000000D+00  0.000000D+00  0.000000D+00
    271   0.000000D+00  0.000000D+00  0.000000D+00  0.000000D+00  0.000000D+00
    272   0.000000D+00  0.000000D+00  0.000000D+00  0.000000D+00  0.000000D+00
    273   0.000000D+00  0.000000D+00  0.000000D+00  0.000000D+00  0.000000D+00
    274   0.000000D+00  0.000000D+00  0.000000D+00  0.000000D+00  0.000000D+00
    275   0.000000D+00  0.000000D+00  0.000000D+00  0.000000D+00  0.000000D+00
    276   0.000000D+00  0.000000D+00  0.000000D+00  0.000000D+00  0.000000D+00
    277   0.000000D+00  0.000000D+00  0.000000D+00  0.000000D+00  0.000000D+00
    278   0.000000D+00  0.000000D+00  0.000000D+00  0.000000D+00  0.000000D+00
    279   0.000000D+00  0.000000D+00  0.000000D+00  0.000000D+00  0.000000D+00
    280   0.000000D+00  0.000000D+00  0.000000D+00  0.000000D+00  0.000000D+00
    281   0.000000D+00  0.000000D+00  0.000000D+00  0.000000D+00  0.000000D+00
    282   0.000000D+00  0.000000D+00  0.000000D+00  0.000000D+00  0.000000D+00
    283   0.000000D+00  0.000000D+00  0.000000D+00  0.000000D+00  0.000000D+00
    284   0.000000D+00  0.000000D+00  0.000000D+00  0.000000D+00  0.000000D+00
    285   0.000000D+00  0.000000D+00  0.000000D+00  0.000000D+00  0.000000D+00
    286   0.000000D+00  0.000000D+00  0.000000D+00  0.000000D+00  0.000000D+00
    287   0.000000D+00  0.000000D+00  0.000000D+00  0.000000D+00  0.000000D+00
    288   0.000000D+00  0.000000D+00  0.000000D+00  0.000000D+00  0.000000D+00
    289   0.000000D+00  0.000000D+00  0.000000D+00  0.000000D+00  0.000000D+00
    290   0.000000D+00  0.000000D+00  0.000000D+00  0.000000D+00  0.000000D+00
    291   0.000000D+00  0.000000D+00  0.000000D+00  0.000000D+00  0.000000D+00
    292   0.000000D+00  0.000000D+00  0.000000D+00  0.000000D+00  0.000000D+00
    293   0.000000D+00  0.000000D+00  0.000000D+00  0.000000D+00  0.000000D+00
    294   0.000000D+00  0.000000D+00  0.000000D+00  0.000000D+00  0.000000D+00
    295   0.000000D+00  0.000000D+00  0.000000D+00  0.000000D+00  0.000000D+00
    296   0.000000D+00  0.000000D+00  0.000000D+00  0.000000D+00  0.000000D+00
    297   0.000000D+00  0.000000D+00  0.000000D+00  0.000000D+00  0.000000D+00
    298   0.000000D+00  0.000000D+00  0.000000D+00  0.000000D+00  0.000000D+00
    299   0.000000D+00  0.000000D+00  0.000000D+00  0.000000D+00  0.000000D+00
    300   0.000000D+00  0.000000D+00  0.000000D+00  0.000000D+00  0.000000D+00
    301   0.000000D+00  0.000000D+00  0.000000D+00  0.000000D+00  0.000000D+00
    302   0.000000D+00  0.000000D+00  0.000000D+00  0.000000D+00  0.000000D+00
    303   0.000000D+00  0.000000D+00  0.000000D+00  0.000000D+00  0.000000D+00
    304   0.000000D+00  0.000000D+00  0.000000D+00  0.000000D+00  0.000000D+00
    305   0.000000D+00  0.000000D+00  0.000000D+00  0.000000D+00  0.000000D+00
    306   0.000000D+00  0.000000D+00  0.000000D+00  0.000000D+00  0.000000D+00
    307   0.000000D+00  0.000000D+00  0.000000D+00  0.000000D+00  0.000000D+00
    308   0.000000D+00  0.000000D+00  0.000000D+00  0.000000D+00  0.000000D+00
    309   0.000000D+00  0.000000D+00  0.000000D+00  0.000000D+00  0.000000D+00
    310   0.000000D+00  0.000000D+00  0.000000D+00  0.000000D+00  0.000000D+00
    311   0.000000D+00  0.000000D+00  0.000000D+00  0.000000D+00  0.000000D+00
    312   0.000000D+00  0.000000D+00  0.000000D+00  0.000000D+00  0.000000D+00
    313   0.000000D+00  0.000000D+00  0.000000D+00  0.000000D+00  0.000000D+00
    314   0.000000D+00  0.000000D+00  0.000000D+00  0.000000D+00  0.000000D+00
    315   0.000000D+00  0.000000D+00  0.000000D+00  0.000000D+00  0.000000D+00
    316   0.000000D+00  0.000000D+00  0.000000D+00  0.000000D+00  0.000000D+00
    317   0.000000D+00  0.000000D+00  0.000000D+00  0.000000D+00  0.000000D+00
    318   0.000000D+00  0.000000D+00  0.000000D+00  0.000000D+00  0.000000D+00
    319   0.000000D+00  0.000000D+00  0.000000D+00  0.000000D+00  0.000000D+00
    320   0.000000D+00  0.000000D+00  0.000000D+00  0.000000D+00  0.000000D+00
    321   0.000000D+00  0.000000D+00  0.000000D+00  0.000000D+00  0.000000D+00
    322   0.000000D+00  0.000000D+00  0.000000D+00  0.000000D+00  0.000000D+00
    323   0.000000D+00  0.000000D+00  0.000000D+00  0.000000D+00  0.000000D+00
    324   0.000000D+00  0.000000D+00  0.000000D+00  0.000000D+00  0.000000D+00
    325   0.000000D+00  0.000000D+00  0.000000D+00  0.000000D+00  0.000000D+00
    326   0.000000D+00  0.000000D+00  0.000000D+00  0.000000D+00  0.000000D+00
    327   0.000000D+00  0.000000D+00  0.000000D+00  0.000000D+00  0.000000D+00
    328   0.000000D+00  0.000000D+00  0.000000D+00  0.000000D+00  0.000000D+00
    329   0.000000D+00  0.000000D+00  0.000000D+00  0.000000D+00  0.000000D+00
    330   0.000000D+00  0.000000D+00  0.000000D+00  0.000000D+00  0.000000D+00
    331   0.000000D+00  0.000000D+00  0.000000D+00  0.000000D+00  0.000000D+00
    332   0.000000D+00  0.000000D+00  0.000000D+00  0.000000D+00  0.000000D+00
    333   0.000000D+00  0.000000D+00  0.000000D+00  0.000000D+00  0.000000D+00
    334   0.000000D+00  0.000000D+00  0.000000D+00  0.000000D+00  0.000000D+00
    335   0.000000D+00  0.000000D+00  0.000000D+00  0.000000D+00  0.000000D+00
    336   0.000000D+00  0.000000D+00  0.000000D+00  0.000000D+00  0.000000D+00
    337   0.000000D+00  0.000000D+00  0.000000D+00  0.000000D+00  0.000000D+00
    338   0.000000D+00  0.000000D+00  0.000000D+00  0.000000D+00  0.000000D+00
    339   0.000000D+00  0.000000D+00  0.000000D+00  0.000000D+00  0.000000D+00
    340   0.000000D+00  0.000000D+00  0.000000D+00  0.000000D+00  0.000000D+00
    341   0.000000D+00  0.000000D+00  0.000000D+00  0.000000D+00  0.000000D+00
    342   0.000000D+00  0.000000D+00  0.000000D+00  0.000000D+00  0.000000D+00
    343   0.000000D+00  0.000000D+00  0.000000D+00  0.000000D+00  0.000000D+00
    344   0.000000D+00  0.000000D+00  0.000000D+00  0.000000D+00  0.000000D+00
    345   0.000000D+00  0.000000D+00  0.000000D+00  0.000000D+00  0.000000D+00
    346   0.000000D+00  0.000000D+00  0.000000D+00  0.000000D+00  0.000000D+00
    347   0.000000D+00  0.000000D+00  0.000000D+00  0.000000D+00  0.000000D+00
    348   0.000000D+00  0.000000D+00  0.000000D+00  0.000000D+00  0.000000D+00
    349   0.000000D+00  0.000000D+00  0.000000D+00  0.000000D+00  0.000000D+00
    350   0.000000D+00  0.000000D+00  0.000000D+00  0.000000D+00  0.000000D+00
    351   0.000000D+00  0.000000D+00  0.000000D+00  0.000000D+00  0.000000D+00
    352   0.000000D+00  0.000000D+00  0.000000D+00  0.000000D+00  0.000000D+00
    353   0.000000D+00  0.000000D+00  0.000000D+00  0.000000D+00  0.000000D+00
    354   0.000000D+00  0.000000D+00  0.000000D+00  0.000000D+00  0.000000D+00
    355   0.000000D+00  0.000000D+00  0.000000D+00  0.000000D+00  0.000000D+00
    356   0.000000D+00  0.000000D+00  0.000000D+00  0.000000D+00  0.000000D+00
    357   0.000000D+00  0.000000D+00  0.000000D+00  0.000000D+00  0.000000D+00
    358   0.000000D+00  0.000000D+00  0.000000D+00  0.000000D+00  0.000000D+00
    359   0.000000D+00  0.000000D+00  0.000000D+00  0.000000D+00  0.000000D+00
    360   0.000000D+00  0.000000D+00  0.000000D+00  0.000000D+00  0.000000D+00
    361   0.000000D+00  0.000000D+00  0.000000D+00  0.000000D+00  0.000000D+00
    362   0.000000D+00  0.000000D+00  0.000000D+00  0.000000D+00  0.000000D+00
    363   0.000000D+00  0.000000D+00  0.000000D+00  0.000000D+00  0.000000D+00
    364   0.000000D+00  0.000000D+00  0.000000D+00  0.000000D+00  0.000000D+00
    365   0.000000D+00  0.000000D+00  0.000000D+00  0.000000D+00  0.000000D+00
    366   0.000000D+00  0.000000D+00  0.000000D+00  0.000000D+00  0.000000D+00
    367   0.000000D+00  0.000000D+00  0.000000D+00  0.000000D+00  0.000000D+00
[...]

                         Single Excitations  =    -0.000569 A.U.

                          Total second order =    -0.294381 A.U.

                         E2(CBS) - E2(Dir) =      -0.005281 A.U.

 E2(CBS)=      -0.296936 CBS-Int=       0.002555 OIii=       1.490722

 **********************************************************************

            Population analysis using the SCF density.

 **********************************************************************

 Orbital symmetries:
       Occupied  (SG) (SG) (SG) (PI) (PI) (SG) (SG) (SG) (PI) (PI)
                 (SG) (PI) (PI) (SG) (SG) (SG) (PI) (PI) (?A) (SG)
                 (PI) (PI)
       Virtual   (PI) (PI) (SG) (SG) (?A) (?A) (PI) (PI) (SG) (PI)
                 (PI) (SG) (?A) (SG) (?A) (SG) (PI) (PI) (SG) (PI)
                 (PI) (?A) (SG) (PI) (PI) (?A) (?A) (SG) (PHI)
                 (PHI) (PI) (PI) (SG) (SG) (?A) (?A) (PI) (PI)
                 (SG) (?A) (?A) (PI) (PI) (SG) (PHI) (PHI) (PI)
                 (PI) (DLTA) (DLTA) (SG) (?B) (?B) (?B) (PI) (PI)
                 (PI) (PI) (DLTA) (DLTA) (PHI) (PHI) (SG) (DLTA)
                 (DLTA) (SG) (PI) (PI) (SG) (?C) (?C) (?C) (?C)
                 (?A) (?A) (SG) (?D) (?D) (?A) (?A) (?E) (?E) (SG)
                 (?C) (?C) (?C) (?C) (PI) (PI) (?D) (?D) (?A) (?A)
                 (SG) (SG) (DLTA) (DLTA) (PI) (PI) (PHI) (PHI)
                 (PHI) (PHI) (SG) (SG) (PI) (PI) (PI) (PI) (DLTA)
                 (DLTA) (SG) (DLTA) (DLTA) (PI) (PI) (SG) (?C)
                 (?C) (?C) (?C) (?D) (?D) (?E) (?E) (DLTA) (DLTA)
                 (?F) (?F) (?F) (SG) (SG) (SG) (PI) (PI) (?E) (?E)
                 (?C) (?C) (DLTA) (DLTA) (?C) (?C) (PHI) (PHI)
                 (SG) (?D) (?D) (SG) (SG) (PI) (PI) (?D) (?D) (?G)
                 (?G) (PHI) (PHI) (?G) (?G) (SG) (?C) (?C) (?G)
                 (?G) (?C) (?C) (SG) (PI) (PI) (?G) (?G) (PI) (PI)
                 (PHI) (PHI) (SG) (DLTA) (DLTA) (PI) (PI) (SG)
                 (?C) (?C) (?H) (?H) (SG) (SG) (?C) (?C) (?E) (?E)
                 (?H) (?E) (?E) (DLTA) (DLTA) (PI) (PI) (?I) (?I)
                 (?I) (?J) (?J) (?K) (?K) (?K) (?K) (SG) (?L) (?L)
                 (?L) (?L) (PHI) (PHI) (PI) (PI) (PHI) (PHI) (SG)
                 (DLTA) (DLTA) (PI) (PI) (SG) (?D) (?D) (DLTA)
                 (DLTA) (PI) (PI) (?D) (?D) (?E) (?E) (SG) (?L)
                 (?L) (?L) (SG) (?D) (?D) (?L) (?L) (?L) (?L) (DLTA)
                 (DLTA) (?L) (?L) (PI) (PI) (PHI) (PHI) (SG) (PHI)
                 (PHI) (DLTA) (DLTA) (SG) (DLTA) (DLTA) (SG) (PI)
                 (PI) (DLTA) (DLTA) (PI) (PI) (PHI) (PHI) (SG)
                 (SG) (?E) (?E) (?L) (?L) (?L) (PI) (PI) (PI) (PI)
                 (PHI) (PHI) (DLTA) (DLTA) (SG) (SG) (DLTA) (DLTA)
                 (DLTA) (DLTA) (SG) (DLTA) (DLTA) (PI) (PI) (PI)
                 (PI) (SG) (PI) (PI) (SG) (SG) (SG) (?E) (?E) (?D)
                 (?D) (?E) (?E) (PHI) (PHI) (?D) (?D) (PI) (PI)
                 (DLTA) (DLTA) (SG) (PHI) (PHI) (PI) (PI) (SG)
                 (DLTA) (DLTA) (SG) (PI) (PI) (?D) (?D) (PHI) (PHI)
                 (SG) (?E) (?E) (DLTA) (DLTA) (?D) (?D) (PHI) (PHI)
                 (PI) (PI) (PI) (PI) (SG) (DLTA) (DLTA) (SG) (?D)
                 (?D) (PHI) (PHI) (?C) (?C) (?C) (?C) (DLTA) (DLTA)
                 (?K) (?K) (?L) (?J) (?J) (?K) (?K) (?L) (?L) (?L)
                 (?L) (PHI) (PHI) (?L) (?L) (?C) (?C) (?L) (DLTA)
                 (DLTA) (?C) (?C) (PI) (PI) (DLTA) (DLTA) (SG)
                 (SG) (PI) (PI) (SG) (SG) (SG) (?J) (?J) (?E) (?E)
                 (?D) (?D) (?C) (?C) (?C) (?C) (SG) (DLTA) (DLTA)
                 (SG) (PI) (PI) (SG) (DLTA) (DLTA) (DLTA) (DLTA)
                 (PI) (PI) (SG) (SG) (?E) (?E) (?D) (?D) (?C) (?C)
                 (?D) (?D) (?C) (?C) (PHI) (PHI) (DLTA) (DLTA)
                 (SG) (SG) (PI) (PI) (DLTA) (DLTA) (PI) (PI) (SG)
                 (SG) (?E) (?E) (?L) (?L) (?L) (PHI) (PHI) (SG)
                 (DLTA) (DLTA) (?E) (?E) (SG) (PI) (PI) (?D) (?D)
                 (PHI) (PHI) (PI) (PI) (DLTA) (DLTA) (SG) (?L)
                 (?E) (?E) (?L) (?L) (?C) (?C) (DLTA) (DLTA) (?C)
                 (?C) (PI) (PI) (SG) (PI) (PI) (SG) (PHI) (PHI)
                 (SG) (DLTA) (DLTA) (PI) (PI) (SG) (?D) (?D) (PHI)
                 (PHI) (PHI) (PHI) (DLTA) (DLTA) (PI) (PI) (DLTA)
                 (DLTA) (?L) (?L) (?L) (?L) (?L) (?K) (?K) (?L)
                 (?L) (?L) (?L) (?L) (?L) (?K) (?K) (?L) (?L) (?L)
                 (PI) (PI) (SG) (DLTA) (DLTA) (SG) (?L) (?L) (?K)
                 (?K) (?L) (?L) (?L) (?L) (?L) (?L) (?L) (?L) (?K)
                 (?K) (?L) (?L) (?L) (SG) (PI) (PI) (DLTA) (DLTA)
                 (PI) (PI) (?L) (SG) (SG) (?E) (?E) (?L) (?L) (?C)
                 (?C) (DLTA) (DLTA) (?L) (?C) (?C) (SG) (?E) (?E)
                 (?L) (?L) (?C) (?C) (DLTA) (DLTA) (?C) (?C) (?L)
                 (SG) (PI) (PI) (SG) (PHI) (PHI) (DLTA) (DLTA)
                 (PI) (PI) (SG) (?D) (?D) (?C) (?C) (DLTA) (DLTA)
                 (?C) (?C) (SG) (DLTA) (DLTA) (PI) (PI) (SG) (SG)
                 (SG)
 Unable to determine electronic state:  an orbital has unidentified symmetry.
 Alpha  occ. eigenvalues -- -201.50581-104.77135 -23.90681 -20.05549 -20.05549
 Alpha  occ. eigenvalues --  -20.05484 -10.49913  -7.96583  -7.96530  -7.96530
 Alpha  occ. eigenvalues --   -3.29294  -2.15803  -2.15519  -2.15519  -1.02849
 Alpha  occ. eigenvalues --   -0.53012  -0.53012  -0.52073  -0.47563  -0.41042
 Alpha  occ. eigenvalues --   -0.41042  -0.26728
 Alpha virt. eigenvalues --    0.01480   0.01480   0.02745   0.03018   0.04352
 Alpha virt. eigenvalues --    0.04520   0.04988   0.04988   0.05222   0.08185
 Alpha virt. eigenvalues --    0.08185   0.08201   0.09385   0.14738   0.15246
 Alpha virt. eigenvalues --    0.16192   0.16244   0.16244   0.17416   0.17950
 Alpha virt. eigenvalues --    0.17950   0.19051   0.20963   0.26307   0.26307
 Alpha virt. eigenvalues --    0.28360   0.28423   0.33652   0.34915   0.34915
 Alpha virt. eigenvalues --    0.36593   0.36593   0.36803   0.39084   0.39693
 Alpha virt. eigenvalues --    0.40074   0.40209   0.40209   0.41879   0.43159
 Alpha virt. eigenvalues --    0.47664   0.50478   0.50478   0.54160   0.58294
 Alpha virt. eigenvalues --    0.58294   0.61354   0.61354   0.61625   0.61667
 Alpha virt. eigenvalues --    0.62430   0.64705   0.65934   0.65936   0.67365
 Alpha virt. eigenvalues --    0.67365   0.68415   0.68415   0.71546   0.71566
 Alpha virt. eigenvalues --    0.73776   0.73776   0.77486   0.78563   0.78724
 Alpha virt. eigenvalues --    0.78741   0.81613   0.81613   0.84118   0.92526
 Alpha virt. eigenvalues --    0.92526   0.95947   0.95947   0.97449   0.97939
 Alpha virt. eigenvalues --    1.02088   1.04576   1.04576   1.07881   1.12957
 Alpha virt. eigenvalues --    1.14281   1.14281   1.14484   1.14681   1.14681
 Alpha virt. eigenvalues --    1.16008   1.16008   1.20869   1.20869   1.24864
 Alpha virt. eigenvalues --    1.24864   1.29966   1.30160   1.30306   1.34635
 Alpha virt. eigenvalues --    1.35601   1.35607   1.36695   1.36695   1.40781
 Alpha virt. eigenvalues --    1.40781   1.41121   1.41683   1.41683   1.42595
 Alpha virt. eigenvalues --    1.43649   1.43649   1.46320   1.46320   1.46462
 Alpha virt. eigenvalues --    1.46606   1.48909   1.54391   1.54578   1.55534
 Alpha virt. eigenvalues --    1.55534   1.56948   1.71044   1.71044   1.72117
 Alpha virt. eigenvalues --    1.72117   1.75393   1.75397   1.84453   1.84453
 Alpha virt. eigenvalues --    1.89110   1.89609   1.90444   1.92184   1.92185
 Alpha virt. eigenvalues --    1.93818   1.93818   2.01538   2.02031   2.02031
 Alpha virt. eigenvalues --    2.05992   2.05992   2.09217   2.09217   2.12278
 Alpha virt. eigenvalues --    2.12706   2.13076   2.13076   2.17117   2.17117
 Alpha virt. eigenvalues --    2.20172   2.32324   2.32324   2.36628   2.36881
 Alpha virt. eigenvalues --    2.37140   2.37140   2.39608   2.39608   2.42911
 Alpha virt. eigenvalues --    2.44290   2.45526   2.45526   2.51115   2.53247
 Alpha virt. eigenvalues --    2.57473   2.59128   2.59128   2.59378   2.59378
 Alpha virt. eigenvalues --    2.59785   2.59787   2.61194   2.62567   2.62567
 Alpha virt. eigenvalues --    2.67762   2.69753   2.80277   2.80277   2.81930
 Alpha virt. eigenvalues --    2.81930   2.83368   2.87870   2.87870   2.88885
 Alpha virt. eigenvalues --    2.88889   2.90580   2.90877   2.90877   2.93646
 Alpha virt. eigenvalues --    2.93650   2.95288   2.95288   2.96102   2.96189
 Alpha virt. eigenvalues --    2.96189   2.96813   2.96813   3.00288   3.00288
 Alpha virt. eigenvalues --    3.02949   3.03095   3.13631   3.13631   3.29215
 Alpha virt. eigenvalues --    3.30263   3.30271   3.33640   3.33640   3.37195
 Alpha virt. eigenvalues --    3.37224   3.37541   3.37542   3.49828   3.59114
 Alpha virt. eigenvalues --    3.59114   3.59630   3.59630   3.71313   3.71313
 Alpha virt. eigenvalues --    3.74563   3.74563   3.76737   3.76737   3.78098
 Alpha virt. eigenvalues --    3.80560   3.80782   3.83533   3.83533   3.88592
 Alpha virt. eigenvalues --    3.94397   3.94398   4.07695   4.07988   4.17675
 Alpha virt. eigenvalues --    4.17675   4.20062   4.20064   4.23750   4.23750
 Alpha virt. eigenvalues --    4.28615   4.34069   4.34783   4.34785   4.44942
 Alpha virt. eigenvalues --    4.47382   4.47382   4.48123   4.48123   4.49142
 Alpha virt. eigenvalues --    4.49142   4.49583   4.49848   4.51673   4.51673
 Alpha virt. eigenvalues --    4.60322   4.60322   4.63068   4.63068   4.67633
 Alpha virt. eigenvalues --    4.69423   4.69423   4.71767   4.72132   4.83724
 Alpha virt. eigenvalues --    4.83863   4.84105   4.93195   4.95502   4.95502
 Alpha virt. eigenvalues --    5.02033   5.02919   5.21041   5.21041   5.31755
 Alpha virt. eigenvalues --    5.31755   5.32288   5.32288   5.34764   5.34764
 Alpha virt. eigenvalues --    5.41455   5.41692   5.41734   5.49593   5.49593
 Alpha virt. eigenvalues --    5.51061   5.51061   5.60502   5.60502   5.63314
 Alpha virt. eigenvalues --    5.63421   5.70358   5.77062   5.84505   5.84564
 Alpha virt. eigenvalues --    5.90876   5.93810   6.06523   6.13114   6.13157
 Alpha virt. eigenvalues --    6.25914   6.25914   6.43893   6.43893   6.63731
 Alpha virt. eigenvalues --    6.72030   6.72030   6.84025   6.88233   6.88233
 Alpha virt. eigenvalues --    6.92781   6.92781   6.98317   6.98317   7.03667
 Alpha virt. eigenvalues --    7.03667   7.08984   7.08984   7.10196   7.10196
 Alpha virt. eigenvalues --    7.16055   7.16055   7.27281   7.27443   7.33877
 Alpha virt. eigenvalues --    7.35049   7.35049   7.55683   7.55683   7.68327
 Alpha virt. eigenvalues --    7.69490   7.69812   7.80306   7.85069   7.85069
 Alpha virt. eigenvalues --    7.91726   7.91726   7.98343   7.98343   8.14867
 Alpha virt. eigenvalues --    8.17036   8.17036   8.18444   8.18506   8.26434
 Alpha virt. eigenvalues --    8.26434   8.44374   8.44374   8.46859   8.46859
 Alpha virt. eigenvalues --    8.57884   8.57884   8.63876   8.64072   8.64093
 Alpha virt. eigenvalues --    9.00526   9.43945   9.43951   9.59893   9.59893
 Alpha virt. eigenvalues --    9.71223   9.71223   9.75119   9.75119   9.86325
 Alpha virt. eigenvalues --    9.86678   9.97407   9.98644  10.01298  10.04676
 Alpha virt. eigenvalues --   10.04676  10.06240  10.06241  10.09687  10.09687
 Alpha virt. eigenvalues --   10.12450  10.12450  10.17494  10.17494  10.17922
 Alpha virt. eigenvalues --   10.17934  10.23572  10.23572  10.24177  10.24731
 Alpha virt. eigenvalues --   10.25313  10.39299  10.39299  10.42331  10.42331
 Alpha virt. eigenvalues --   10.49542  10.49617  10.63526  10.70582  11.07747
 Alpha virt. eigenvalues --   11.07747  11.08636  11.61476  11.61476  11.61866
 Alpha virt. eigenvalues --   11.61866  11.62169  11.62169  11.67111  11.67111
 Alpha virt. eigenvalues --   11.79097  11.79097  11.79321  11.79321  11.80536
 Alpha virt. eigenvalues --   12.11367  12.11456  12.46267  12.57576  12.57576
 Alpha virt. eigenvalues --   12.58900  12.99143  12.99151  13.37786  13.39102
 Alpha virt. eigenvalues --   13.49786  13.49786  13.70008  13.70008  13.71881
 Alpha virt. eigenvalues --   13.71881  13.74939  13.74944  13.84675  13.84675
 Alpha virt. eigenvalues --   13.86839  13.86839  13.89419  13.89419  13.94175
 Alpha virt. eigenvalues --   13.94175  13.95605  13.95957  13.97264  14.08885
 Alpha virt. eigenvalues --   14.12290  14.12290  14.17905  14.18331  14.42932
 Alpha virt. eigenvalues --   14.42932  14.70454  14.70454  14.73150  14.73150
 Alpha virt. eigenvalues --   14.77740  14.78015  14.78016  14.82614  14.82614
 Alpha virt. eigenvalues --   15.00524  15.07653  15.07745  15.41016  15.41016
 Alpha virt. eigenvalues --   15.42159  15.46634  15.46634  15.48330  15.48330
 Alpha virt. eigenvalues --   15.61707  15.61707  15.77888  15.77888  15.81047
 Alpha virt. eigenvalues --   15.81060  15.88253  16.19944  16.21258  16.21258
 Alpha virt. eigenvalues --   16.24342  16.24364  16.39634  16.39634  16.56849
 Alpha virt. eigenvalues --   16.57573  16.69957  16.69957  17.06165  17.06165
 Alpha virt. eigenvalues --   17.53512  18.62984  18.62984  18.91695  19.63544
 Alpha virt. eigenvalues --   19.63544  19.68809  19.85128  19.85134  20.31981
 Alpha virt. eigenvalues --   20.31981  20.34772  21.60650  21.60651  21.72638
 Alpha virt. eigenvalues --   21.72638  21.87951  21.87951  21.89042  21.89215
 Alpha virt. eigenvalues --   22.07567  22.07567  22.07748  22.08049  22.39301
 Alpha virt. eigenvalues --   22.47907  22.47907  22.49503  22.49503  22.50320
 Alpha virt. eigenvalues --   22.50337  22.50557  22.50590  22.50590  22.50634
 Alpha virt. eigenvalues --   22.50929  22.50929  22.53115  22.54403  22.55530
 Alpha virt. eigenvalues --   22.55530  22.55715  22.77840  22.77840  23.38400
 Alpha virt. eigenvalues --   28.90094  28.90095  29.12138  29.29928  29.29928
 Alpha virt. eigenvalues --   29.31710  29.31713  29.33027  29.33027  29.34447
 Alpha virt. eigenvalues --   29.34447  29.35068  29.35132  29.35987  29.35987
 Alpha virt. eigenvalues --   29.38489  29.39855  29.45219  29.59133  29.59133
 Alpha virt. eigenvalues --   30.20824  33.91974  33.91974  33.93587  33.93783
 Alpha virt. eigenvalues --   34.35929  34.35929  35.24864  35.26813  35.26813
 Alpha virt. eigenvalues --   35.28595  35.28595  35.30079  35.30099  35.33390
 Alpha virt. eigenvalues --   35.33390  35.42419  35.43596  35.50632  35.55122
 Alpha virt. eigenvalues --   35.55122  36.49969  38.14589  38.14589  38.16747
 Alpha virt. eigenvalues --   38.16752  38.24972  38.24972  38.34324  38.35169
 Alpha virt. eigenvalues --   38.37108  38.37108  38.46977  40.47280  41.12087
 Alpha virt. eigenvalues --   41.12087  43.71490  50.83851  50.83851  50.97537
 Alpha virt. eigenvalues --   50.97816  51.39168  51.39168  51.62274  51.92782
 Alpha virt. eigenvalues --   51.92782  52.00895  52.00895  52.11396  52.11882
 Alpha virt. eigenvalues --   52.22284  52.22284  52.53162  77.02626  77.02626
 Alpha virt. eigenvalues --   77.40224  77.40224  77.87270 261.18850 531.86275
          Condensed to atoms (all electrons):
              1          2
     1  V   22.185237   0.378895
     2  Cl   0.378895  17.056974
 Mulliken atomic charges:
              1
     1  V    0.435868
     2  Cl  -0.435868
 Sum of Mulliken atomic charges =   0.00000
 Mulliken charges with hydrogens summed into heavy atoms:
              1
     1  V    0.435868
     2  Cl  -0.435868
 Sum of Mulliken charges with hydrogens summed into heavy atoms =   0.00000
          Atomic-Atomic Spin Densities.
              1          2
     1  V    3.980169  -0.020075
     2  Cl  -0.020075   0.059981
 Mulliken atomic spin densities:
              1
     1  V    3.960094
     2  Cl   0.039906
 Sum of Mulliken atomic spin densities =   4.00000
 Electronic spatial extent (au):  <R**2>=            241.2748
 Charge=              0.0000 electrons
 Dipole moment (field-independent basis, Debye):
    X=              0.0000    Y=              0.0000    Z=              3.4652  Tot=              3.4652
 Quadrupole moment (field-independent basis, Debye-Ang):
   XX=            -29.5565   YY=            -29.5565   ZZ=            -35.3077
   XY=              0.0000   XZ=              0.0000   YZ=              0.0000
 Traceless Quadrupole moment (field-independent basis, Debye-Ang):
   XX=              1.9171   YY=              1.9171   ZZ=             -3.8341
   XY=              0.0000   XZ=              0.0000   YZ=              0.0000
 Octapole moment (field-independent basis, Debye-Ang**2):
  XXX=              0.0000  YYY=              0.0000  ZZZ=             -4.9471  XYY=              0.0000
  XXY=              0.0000  XXZ=              0.3633  XZZ=              0.0000  YZZ=              0.0000
  YYZ=              0.3633  XYZ=              0.0000
 Hexadecapole moment (field-independent basis, Debye-Ang**3):
 XXXX=            -49.4624 YYYY=            -49.4624 ZZZZ=           -316.5169 XXXY=              0.0000
 XXXZ=              0.0000 YYYX=              0.0000 YYYZ=              0.0000 ZZZX=              0.0000
 ZZZY=              0.0000 XXYY=            -16.8344 XXZZ=            -60.7857 YYZZ=            -60.7857
 XXYZ=              0.0000 YYXZ=              0.0000 ZZXY=              0.0000
 N-N= 9.346337663405D+01 E-N=-5.234669082224D+03  KE= 2.096529910439D+03
                          Isotropic Fermi Contact Couplings
        Atom                 a.u.       MegaHertz       Gauss      10(-4) cm-1
     1  V(51)              1.83506     540.34021     192.80682     180.23809
     2  Cl(35)             0.03996       4.38055       1.56309       1.46119
 --------------------------------------------------------
       Center         ----  Spin Dipole Couplings  ----
                      3XX-RR        3YY-RR        3ZZ-RR
 --------------------------------------------------------
     1   Atom       -0.166891     -0.166891      0.333781
     2   Atom       -0.040725     -0.040725      0.081450
 --------------------------------------------------------
                        XY            XZ            YZ
 --------------------------------------------------------
     1   Atom        0.000000      0.000000      0.000000
     2   Atom        0.000000      0.000000      0.000000
 --------------------------------------------------------


 ---------------------------------------------------------------------------------
              Anisotropic Spin Dipole Couplings in Principal Axis System
 ---------------------------------------------------------------------------------

       Atom             a.u.   MegaHertz   Gauss  10(-4) cm-1        Axes

              Baa    -0.1669   -23.463    -8.372    -7.827  0.0000  1.0000  0.0000
     1 V(51)  Bbb    -0.1669   -23.463    -8.372    -7.827  1.0000  0.0000  0.0000
              Bcc     0.3338    46.927    16.745    15.653  0.0000  0.0000  1.0000
 
              Baa    -0.0407    -2.131    -0.761    -0.711  0.0000  1.0000  0.0000
     2 Cl(35) Bbb    -0.0407    -2.131    -0.761    -0.711  1.0000  0.0000  0.0000
              Bcc     0.0814     4.263     1.521     1.422  0.0000  0.0000  1.0000
 

 ---------------------------------------------------------------------------------


 Test job not archived.
 1\1\GINC-N37\SP\ROMP2-FC\Gen\Cl1V1(5)\ROOT\02-Nov-2013\0\\# ROMP2 Gen 
 GFinput Int=NoBasisTransform Int(Grid=Ultrafine) IOp(3/32=2,5/6=10,8/1
 1=1,9/33=1) Maxdisk=128GB CBSextrapolate(Nmin=25,MinPop) SCF=Symm Gues
 s=Read\\VCl 5/\\0,5\V\Cl,1,2.21379\\Version=EM64L-G09RevA.02\HF=-1402.
 5059297\MP2=-1402.7975851\E2(CBS)=-0.2969361\CBS-Int=-0.2943809\OIii=1
 .4907219\RMSD=3.298e-11\PG=C*V [C*(Cl1V1)]\\@


 Sometimes the fool who rushes in gets the job done.
                                    -- Al Bernstein
 Job cpu time: 10 days  3 hours 19 minutes  9.4 seconds.
 File lengths (MBytes):  RWF=  63696 Int=      0 D2E=      0 Chk=     32 Scr=      1
 Normal termination of Gaussian 09 at Sat Nov  2 20:52:42 2013.
