 Entering Gaussian System, Link 0=g09
 AtFile(1): 7ZaPa-NR.gbs
 Initial command:
 /share/apps/gaussian/g09root/g09/l1.exe /localscratch/62162/Gau-18825.inp -scrdir=/localscratch/62162/
 Entering Link 1 = /share/apps/gaussian/g09root/g09/l1.exe PID=     18826.
  
 Copyright (c) 1988,1990,1992,1993,1995,1998,2003,2009, Gaussian, Inc.
                  All Rights Reserved.
  
 This is part of the Gaussian(R) 09 program.  It is based on
 the Gaussian(R) 03 system (copyright 2003, Gaussian, Inc.),
 the Gaussian(R) 98 system (copyright 1998, Gaussian, Inc.),
 the Gaussian(R) 94 system (copyright 1995, Gaussian, Inc.),
 the Gaussian 92(TM) system (copyright 1992, Gaussian, Inc.),
 the Gaussian 90(TM) system (copyright 1990, Gaussian, Inc.),
 the Gaussian 88(TM) system (copyright 1988, Gaussian, Inc.),
 the Gaussian 86(TM) system (copyright 1986, Carnegie Mellon
 University), and the Gaussian 82(TM) system (copyright 1983,
 Carnegie Mellon University). Gaussian is a federally registered
 trademark of Gaussian, Inc.
  
 This software contains proprietary and confidential information,
 including trade secrets, belonging to Gaussian, Inc.
  
 This software is provided under written license and may be
 used, copied, transmitted, or stored only in accord with that
 written license.
  
 The following legend is applicable only to US Government
 contracts under FAR:
  
                    RESTRICTED RIGHTS LEGEND
  
 Use, reproduction and disclosure by the US Government is
 subject to restrictions as set forth in subparagraphs (a)
 and (c) of the Commercial Computer Software - Restricted
 Rights clause in FAR 52.227-19.
  
 Gaussian, Inc.
 340 Quinnipiac St., Bldg. 40, Wallingford CT 06492
  
  
 ---------------------------------------------------------------
 Warning -- This program may not be used in any manner that
 competes with the business of Gaussian, Inc. or will provide
 assistance to any competitor of Gaussian, Inc.  The licensee
 of this program is prohibited from giving any competitor of
 Gaussian, Inc. access to this program.  By using this program,
 the user acknowledges that Gaussian, Inc. is engaged in the
 business of creating and licensing software in the field of
 computational chemistry and represents and warrants to the
 licensee that it is not a competitor of Gaussian, Inc. and that
 it will not use this program in any manner prohibited above.
 ---------------------------------------------------------------
  

 Cite this work as:
 Gaussian 09, Revision A.02,
 M. J. Frisch, G. W. Trucks, H. B. Schlegel, G. E. Scuseria, 
 M. A. Robb, J. R. Cheeseman, G. Scalmani, V. Barone, B. Mennucci, 
 G. A. Petersson, H. Nakatsuji, M. Caricato, X. Li, H. P. Hratchian, 
 A. F. Izmaylov, J. Bloino, G. Zheng, J. L. Sonnenberg, M. Hada, 
 M. Ehara, K. Toyota, R. Fukuda, J. Hasegawa, M. Ishida, T. Nakajima, 
 Y. Honda, O. Kitao, H. Nakai, T. Vreven, J. A. Montgomery, Jr., 
 J. E. Peralta, F. Ogliaro, M. Bearpark, J. J. Heyd, E. Brothers, 
 K. N. Kudin, V. N. Staroverov, R. Kobayashi, J. Normand, 
 K. Raghavachari, A. Rendell, J. C. Burant, S. S. Iyengar, J. Tomasi, 
 M. Cossi, N. Rega, J. M. Millam, M. Klene, J. E. Knox, J. B. Cross, 
 V. Bakken, C. Adamo, J. Jaramillo, R. Gomperts, R. E. Stratmann, 
 O. Yazyev, A. J. Austin, R. Cammi, C. Pomelli, J. W. Ochterski, 
 R. L. Martin, K. Morokuma, V. G. Zakrzewski, G. A. Voth, 
 P. Salvador, J. J. Dannenberg, S. Dapprich, A. D. Daniels, 
 O. Farkas, J. B. Foresman, J. V. Ortiz, J. Cioslowski, 
 and D. J. Fox, Gaussian, Inc., Wallingford CT, 2009.
 
 ******************************************
 Gaussian 09:  EM64L-G09RevA.02 11-Jun-2009
                29-Oct-2013 
 ******************************************
 % Mem=64GB
 % Nproc=16
 Will use up to   16 processors via shared memory.
 % Chk=VO+_3Sg.chk
 ----------------------------------------------------------------------
 # ROMP2 Gen GFinput Int=NoBasisTransform Int(Grid=Ultrafine) IOp(3/32=
 2,5/6=10,8/11=1,9/33=1) Maxdisk=128GB CBSextrapolate(Nmin=25,MinPop) S
 CF=Symm Guess=Read
 ----------------------------------------------------------------------
 1/38=1/1;
 2/12=2,17=6,18=5,40=1/2;
 3/5=7,11=2,16=1,24=10,25=1,30=1,32=2,60=-1,75=-5,116=101/1,2,3;
 4/5=1,9=4/1;
 5/5=2,6=10,15=2,38=6/2;
 8/5=-1,10=1,11=1/1;
 9/16=-3,33=1,75=2,81=25,83=4/6,4;
 6/7=2,8=2,9=2,10=2/1;
 99/5=1,9=1/99;
 --------
 VO+ 3Sg-
 --------
 Symbolic Z-matrix:
 Charge =  1 Multiplicity = 3
 V
 O                    1     1.566 
 
                          Input orientation:                          
 ---------------------------------------------------------------------
 Center     Atomic      Atomic             Coordinates (Angstroms)
 Number     Number       Type             X           Y           Z
 ---------------------------------------------------------------------
      1         23           0        0.000000    0.000000    0.000000
      2          8           0        0.000000    0.000000    1.566000
 ---------------------------------------------------------------------
 Stoichiometry    OV(1+,3)
 Framework group  C*V[C*(OV)]
 Deg. of freedom     1
 Full point group                 C*V     NOp   4
 Largest Abelian subgroup         C2V     NOp   4
 Largest concise Abelian subgroup C1      NOp   1
                         Standard orientation:                         
 ---------------------------------------------------------------------
 Center     Atomic      Atomic             Coordinates (Angstroms)
 Number     Number       Type             X           Y           Z
 ---------------------------------------------------------------------
      1         23           0        0.000000    0.000000    0.404129
      2          8           0        0.000000    0.000000   -1.161871
 ---------------------------------------------------------------------
 Rotational constants (GHZ):      0.0000000     16.9292397     16.9292397
 General basis read from cards:  (5D, 7F)
 AO basis set in the form of general basis input (Overlap normalization):
      1 0
 S  19 1.00       0.000000000000
      0.3479338350D+08  0.4056629188D-06
      0.6914692640D+07  0.2339342439D-05
      0.1621343920D+07  0.1321165413D-04
      0.4396002670D+06  0.6056905383D-04
      0.1352720610D+06  0.2392777872D-03
      0.4643274850D+05  0.8267296352D-03
      0.1749835110D+05  0.2552064807D-02
      0.7134898380D+04  0.7147933075D-02
      0.3106051320D+04  0.1836138649D-01
      0.1426271630D+04  0.4335626345D-01
      0.6833154180D+03  0.9303444533D-01
      0.3382265700D+03  0.1757196352D+00
      0.1714640560D+03  0.2728849718D+00
      0.8834408300D+02  0.3026106738D+00
      0.4595252500D+02  0.1857703588D+00
      0.2399193900D+02  0.4297759996D-01
      0.1251208100D+02  0.4470121114D-02
      0.6491623000D+01  0.2528610235D-02
      0.3339910000D+01  0.6987135339D-03
 S  15 1.00       0.000000000000
      0.1749835110D+05 -0.1883513065D-05
      0.7134898380D+04 -0.1552788062D-04
      0.3106051320D+04 -0.9054969632D-04
      0.1426271630D+04 -0.5049415240D-03
      0.6833154180D+03 -0.2226844033D-02
      0.3382265700D+03 -0.8912198446D-02
      0.1714640560D+03 -0.2854731852D-01
      0.8834408300D+02 -0.6867407409D-01
      0.4595252500D+02 -0.7656135678D-01
      0.2399193900D+02  0.7437354372D-01
      0.1251208100D+02  0.4054588741D+00
      0.6491623000D+01  0.4806974888D+00
      0.3339910000D+01  0.1599827787D+00
      0.1699802000D+01  0.1128530592D-01
      0.8542310000D+00  0.1120376697D-02
 P  16 1.00       0.000000000000
      0.5172927360D+05  0.3683635374D-05
      0.1327764530D+05  0.3093662226D-04
      0.4204030870D+04  0.1978279514D-03
      0.1563663650D+04  0.9518396247D-03
      0.6564525800D+03  0.3705368216D-02
      0.3012554960D+03  0.1209572570D-01
      0.1473763590D+03  0.3394128848D-01
      0.7539345600D+02  0.8230969871D-01
      0.3975831100D+02  0.1659379124D+00
      0.2138805700D+02  0.2652702379D+00
      0.1164853500D+02  0.3154946174D+00
      0.6386217000D+01  0.2275831195D+00
      0.3507309000D+01  0.7687592488D-01
      0.1919904000D+01  0.9918457259D-02
      0.1041046000D+01  0.6926354578D-03
      0.5545110000D+00  0.1262326856D-03
 S  11 1.00       0.000000000000
      0.1714640560D+03  0.1719430211D-03
      0.8834408300D+02  0.9669296383D-03
      0.4595252500D+02  0.2556998424D-02
      0.2399193900D+02 -0.1627786595D-02
      0.1251208100D+02 -0.5338230403D-01
      0.6491623000D+01 -0.1955815426D+00
      0.3339910000D+01 -0.5950571001D-01
      0.1699802000D+01  0.4143453065D+00
      0.8542310000D+00  0.5713775625D+00
      0.4234290000D+00  0.2070624018D+00
      0.2069180000D+00  0.8078448787D-02
 P  12 1.00       0.000000000000
      0.1473763590D+03 -0.2402327613D-03
      0.7539345600D+02 -0.1035383815D-02
      0.3975831100D+02 -0.4172303736D-02
      0.2138805700D+02 -0.9809132038D-02
      0.1164853500D+02 -0.1920994428D-01
      0.6386217000D+01  0.4779357553D-02
      0.3507309000D+01  0.1344903647D+00
      0.1919904000D+01  0.3067070245D+00
      0.1041046000D+01  0.3689423576D+00
      0.5545110000D+00  0.2452029700D+00
      0.2868010000D+00  0.6344737218D-01
      0.1417880000D+00  0.4575119008D-02
 D  16 1.00       0.000000000000
      0.1619367570D+04  0.5187972126D-05
      0.5115172270D+03  0.5197349697D-04
      0.1960607140D+03  0.3458082836D-03
      0.8639877300D+02  0.1644062019D-02
      0.4196046600D+02  0.6017726151D-02
      0.2174826300D+02  0.1699158725D-01
      0.1175037800D+02  0.3948231327D-01
      0.6510556000D+01  0.8232040639D-01
      0.3659930000D+01  0.1452868867D+00
      0.2073804000D+01  0.2051360229D+00
      0.1179794000D+01  0.2393803676D+00
      0.6720330000D+00  0.2379013738D+00
      0.3820970000D+00  0.1968959518D+00
      0.2157770000D+00  0.1234881402D+00
      0.1200280000D+00  0.4449517807D-01
      0.6490800000D-01  0.5001921865D-02
 D   1 1.00       0.000000000000
      0.4773987036D-01  0.1000000000D+01
 D   1 1.00       0.000000000000
      0.1502500000D-01  0.1000000000D+01
 S  10 1.00       0.000000000000
      0.2399193900D+02  0.2314495562D-04
      0.1251208100D+02  0.1596571840D-03
      0.6491623000D+01  0.3548661894D-02
      0.3339910000D+01 -0.8602354203D-03
      0.1699802000D+01 -0.2011336988D-01
      0.8542310000D+00 -0.9636907813D-01
      0.4234290000D+00 -0.1927970785D+00
      0.2069180000D+00  0.1340008015D+00
      0.9969000000D-01  0.7196546315D+00
      0.4738000000D-01  0.3392867058D+00
 S   1 1.00       0.000000000000
      0.3707600000D-01  0.1000000000D+01
 S   1 1.00       0.000000000000
      0.1409900000D-01  0.1000000000D+01
 P  10 1.00       0.000000000000
      0.2138805700D+02 -0.4325468243D-05
      0.1164853500D+02 -0.1646659261D-02
      0.6386217000D+01 -0.4510941903D-03
      0.3507309000D+01  0.2251426496D-01
      0.1919904000D+01  0.7097698916D-01
      0.1041046000D+01  0.2808895795D-01
      0.5545110000D+00 -0.2502915560D+00
      0.2868010000D+00 -0.5609722984D+00
      0.1417880000D+00 -0.2910696374D+00
      0.7133559130D-01 -0.1616308340D-01
 P   1 1.00       0.000000000000
      0.9707300000D-01  0.1000000000D+01
 P   1 1.00       0.000000000000
      0.4687600000D-01  0.1000000000D+01
 P   1 1.00       0.000000000000
      0.2263500000D-01  0.1000000000D+01
 S   1 1.00       0.000000000000
      0.4829004000D+01  0.1000000000D+01
 S   1 1.00       0.000000000000
      0.2452509000D+01  0.1000000000D+01
 S   1 1.00       0.000000000000
      0.1245557000D+01  0.1000000000D+01
 S   1 1.00       0.000000000000
      0.6325810000D+00  0.1000000000D+01
 S   1 1.00       0.000000000000
      0.3212690000D+00  0.1000000000D+01
 S   1 1.00       0.000000000000
      0.1631630000D+00  0.1000000000D+01
 P   1 1.00       0.000000000000
      0.1983553000D+01  0.1000000000D+01
 P   1 1.00       0.000000000000
      0.1221335000D+01  0.1000000000D+01
 P   1 1.00       0.000000000000
      0.7520130000D+00  0.1000000000D+01
 P   1 1.00       0.000000000000
      0.4630380000D+00  0.1000000000D+01
 P   1 1.00       0.000000000000
      0.2851070000D+00  0.1000000000D+01
 P   1 1.00       0.000000000000
      0.1755490000D+00  0.1000000000D+01
 D   1 1.00       0.000000000000
      0.4465620000D+01  0.1000000000D+01
 D   1 1.00       0.000000000000
      0.2147949000D+01  0.1000000000D+01
 D   1 1.00       0.000000000000
      0.1033156000D+01  0.1000000000D+01
 D   1 1.00       0.000000000000
      0.4969450000D+00  0.1000000000D+01
 D   1 1.00       0.000000000000
      0.2390290000D+00  0.1000000000D+01
 D   1 1.00       0.000000000000
      0.1149720000D+00  0.1000000000D+01
 F   1 1.00       0.000000000000
      0.1179749300D+02  0.1000000000D+01
 F   1 1.00       0.000000000000
      0.5327804000D+01  0.1000000000D+01
 F   1 1.00       0.000000000000
      0.2406062000D+01  0.1000000000D+01
 F   1 1.00       0.000000000000
      0.1086589000D+01  0.1000000000D+01
 F   1 1.00       0.000000000000
      0.4907090000D+00  0.1000000000D+01
 F   1 1.00       0.000000000000
      0.2216060000D+00  0.1000000000D+01
 F   1 1.00       0.000000000000
      0.1000780000D+00  0.1000000000D+01
 G   1 1.00       0.000000000000
      0.9953572000D+01  0.1000000000D+01
 G   1 1.00       0.000000000000
      0.4247405000D+01  0.1000000000D+01
 G   1 1.00       0.000000000000
      0.1812460000D+01  0.1000000000D+01
 G   1 1.00       0.000000000000
      0.7734160000D+00  0.1000000000D+01
 G   1 1.00       0.000000000000
      0.3300330000D+00  0.1000000000D+01
 G   1 1.00       0.000000000000
      0.1408320000D+00  0.1000000000D+01
 H   1 1.00       0.000000000000
      0.6068727000D+01  0.1000000000D+01
 H   1 1.00       0.000000000000
      0.2580072000D+01  0.1000000000D+01
 H   1 1.00       0.000000000000
      0.1096898000D+01  0.1000000000D+01
 H   1 1.00       0.000000000000
      0.4663370000D+00  0.1000000000D+01
 H   1 1.00       0.000000000000
      0.1982590000D+00  0.1000000000D+01
 I   1 1.00       0.000000000000
      0.4946577000D+01  0.1000000000D+01
 I   1 1.00       0.000000000000
      0.1900678000D+01  0.1000000000D+01
 I   1 1.00       0.000000000000
      0.7303190000D+00  0.1000000000D+01
 I   1 1.00       0.000000000000
      0.2806180000D+00  0.1000000000D+01
 J   1 1.00       0.000000000000
      0.3643489000D+01  0.1000000000D+01
 J   1 1.00       0.000000000000
      0.1231745000D+01  0.1000000000D+01
 J   1 1.00       0.000000000000
      0.4164120000D+00  0.1000000000D+01
 K   1 1.00       0.000000000000
      0.2526345113D+01  0.1000000000D+01
 ****
      2 0
 S  16 1.00       0.000000000000
      0.1411246410D+07  0.1627429822D-05
      0.2499102240D+06  0.1092621996D-04
      0.5603410580D+05  0.6238741867D-04
      0.1521153640D+05  0.2783303491D-03
      0.4812287750D+04  0.1040541872D-02
      0.1717755460D+04  0.3380392793D-02
      0.6733958240D+03  0.9828484765D-02
      0.2835101840D+03  0.2605310129D-01
      0.1258620070D+03  0.6280818057D-01
      0.5804472200D+02  0.1348202075D+00
      0.2747198500D+02  0.2435563460D+00
      0.1321062900D+02  0.3323287378D+00
      0.6399806000D+01  0.2607930483D+00
      0.3099614000D+01  0.7430834326D-01
      0.1489856000D+01  0.4189538074D-02
      0.7052010000D+00  0.8706455725D-03
 S  11 1.00       0.000000000000
      0.2835101840D+03 -0.1122588094D-03
      0.1258620070D+03 -0.5559335617D-03
      0.5804472200D+02 -0.2851687904D-02
      0.2747198500D+02 -0.1133494995D-01
      0.1321062900D+02 -0.3657977704D-01
      0.6399806000D+01 -0.7288994197D-01
      0.3099614000D+01 -0.1062032356D-01
      0.1489856000D+01  0.2196705572D+00
      0.7052010000D+00  0.4294832072D+00
      0.3258480000D+00  0.3775832849D+00
      0.1454600000D+00  0.9640261255D-01
 S   1 1.00       0.000000000000
      0.5814297870D-01  0.1000000000D+01
 P  13 1.00       0.000000000000
      0.2085279200D+04  0.1447911740D-04
      0.5101470830D+03  0.1283233588D-03
      0.1616811510D+03  0.7792790007D-03
      0.6114945200D+02  0.3400506049D-02
      0.2597660200D+02  0.1157685214D-01
      0.1187542600D+02  0.3269740339D-01
      0.5677133000D+01  0.8011404242D-01
      0.2786475000D+01  0.1605265057D+00
      0.1387844000D+01  0.2460495026D+00
      0.6952810000D+00  0.2898982926D+00
      0.3470020000D+00  0.2606799382D+00
      0.1700990000D+00  0.1479363112D+00
      0.8008000000D-01  0.2980261453D-01
 P   1 1.00       0.000000000000
      0.4261436033D-01  0.1000000000D+01
 S   1 1.00       0.000000000000
      0.4249866000D+01  0.1000000000D+01
 S   1 1.00       0.000000000000
      0.2167470000D+01  0.1000000000D+01
 S   1 1.00       0.000000000000
      0.1105429000D+01  0.1000000000D+01
 S   1 1.00       0.000000000000
      0.5637790000D+00  0.1000000000D+01
 S   1 1.00       0.000000000000
      0.2875320000D+00  0.1000000000D+01
 S   1 1.00       0.000000000000
      0.1466440000D+00  0.1000000000D+01
 P   1 1.00       0.000000000000
      0.5659724000D+01  0.1000000000D+01
 P   1 1.00       0.000000000000
      0.2575878000D+01  0.1000000000D+01
 P   1 1.00       0.000000000000
      0.1172344000D+01  0.1000000000D+01
 P   1 1.00       0.000000000000
      0.5335620000D+00  0.1000000000D+01
 P   1 1.00       0.000000000000
      0.2428370000D+00  0.1000000000D+01
 P   1 1.00       0.000000000000
      0.1105210000D+00  0.1000000000D+01
 D   1 1.00       0.000000000000
      0.9464211000D+01  0.1000000000D+01
 D   1 1.00       0.000000000000
      0.4752286000D+01  0.1000000000D+01
 D   1 1.00       0.000000000000
      0.2386276000D+01  0.1000000000D+01
 D   1 1.00       0.000000000000
      0.1198226000D+01  0.1000000000D+01
 D   1 1.00       0.000000000000
      0.6016680000D+00  0.1000000000D+01
 D   1 1.00       0.000000000000
      0.3021170000D+00  0.1000000000D+01
 D   1 1.00       0.000000000000
      0.1517020000D+00  0.1000000000D+01
 F   1 1.00       0.000000000000
      0.7001836000D+01  0.1000000000D+01
 F   1 1.00       0.000000000000
      0.3552509000D+01  0.1000000000D+01
 F   1 1.00       0.000000000000
      0.1802430000D+01  0.1000000000D+01
 F   1 1.00       0.000000000000
      0.9144960000D+00  0.1000000000D+01
 F   1 1.00       0.000000000000
      0.4639860000D+00  0.1000000000D+01
 F   1 1.00       0.000000000000
      0.2354110000D+00  0.1000000000D+01
 G   1 1.00       0.000000000000
      0.6472481000D+01  0.1000000000D+01
 G   1 1.00       0.000000000000
      0.3119071000D+01  0.1000000000D+01
 G   1 1.00       0.000000000000
      0.1503072000D+01  0.1000000000D+01
 G   1 1.00       0.000000000000
      0.7243260000D+00  0.1000000000D+01
 G   1 1.00       0.000000000000
      0.3490500000D+00  0.1000000000D+01
 H   1 1.00       0.000000000000
      0.5355083000D+01  0.1000000000D+01
 H   1 1.00       0.000000000000
      0.2414696000D+01  0.1000000000D+01
 H   1 1.00       0.000000000000
      0.1088827000D+01  0.1000000000D+01
 H   1 1.00       0.000000000000
      0.4909703000D+00  0.1000000000D+01
 I   1 1.00       0.000000000000
      0.4322113000D+01  0.1000000000D+01
 I   1 1.00       0.000000000000
      0.1716263000D+01  0.1000000000D+01
 I   1 1.00       0.000000000000
      0.6815089000D+00  0.1000000000D+01
 J   1 1.00       0.000000000000
      0.3060973723D+01  0.1000000000D+01
 ****

 There are   208 symmetry adapted basis functions of A1  symmetry.
 There are   106 symmetry adapted basis functions of A2  symmetry.
 There are   152 symmetry adapted basis functions of B1  symmetry.
 There are   152 symmetry adapted basis functions of B2  symmetry.
 Integral buffers will be    131072 words long.
 Raffenetti 2 integral format.
 Two-electron integral symmetry is turned on.
   618 basis functions,  1353 primitive gaussians,  1046 cartesian basis functions
    16 alpha electrons       14 beta electrons
       nuclear repulsion energy        62.1766324269 Hartrees.
 NAtoms=    2 NActive=    2 NUniq=    2 SFac= 7.50D-01 NAtFMM=   80 NAOKFM=F Big=F
 One-electron integrals computed using PRISM.
 NBasis=   618 RedAO= F  NBF=   208   106   152   152
 NBsUse=   618 1.00D-04 NBFU=   208   106   152   152
 Initial guess read from the checkpoint file:  VO+_3Sg.chk
 B after Tr=     0.000000    0.000000    0.000000
         Rot=    1.000000    0.000000    0.000000    0.000000 Ang=   0.00 deg.
 Initial guess orbital symmetries:
       Occupied  (SG) (SG) (SG) (SG) (PI) (PI) (SG) (SG) (PI) (PI)
                 (SG) (SG) (PI) (PI) (DLTA) (DLTA)
       Virtual   (SG) (PI) (PI) (SG) (SG) (PI) (PI) (SG) (DLTA)
                 (DLTA) (PI) (PI) (SG) (PI) (PI) (SG) (DLTA) (DLTA)
                 (SG) (PI) (PI) (SG) (PI) (PI) (SG) (PI) (PI) (DLTA)
                 (DLTA) (SG) (PHI) (PHI) (PI) (PI) (SG) (SG) (DLTA)
                 (DLTA) (PI) (PI) (PI) (PI) (SG) (DLTA) (DLTA)
                 (SG) (SG) (PI) (PI) (PHI) (PHI) (?A) (?A) (SG)
                 (PI) (PI) (DLTA) (DLTA) (SG) (PI) (PI) (SG) (PHI)
                 (PHI) (DLTA) (DLTA) (PHI) (PHI) (PI) (PI) (DLTA)
                 (DLTA) (SG) (?B) (?B) (?A) (?A) (PI) (PI) (DLTA)
                 (DLTA) (SG) (SG) (PI) (PI) (PHI) (PHI) (SG) (DLTA)
                 (DLTA) (PI) (PI) (SG) (PI) (PI) (SG) (DLTA) (DLTA)
                 (PI) (PI) (SG) (PHI) (PHI) (?A) (?A) (PI) (PI)
                 (SG) (DLTA) (DLTA) (?A) (?A) (SG) (SG) (SG) (?B)
                 (?B) (DLTA) (DLTA) (PHI) (PHI) (PI) (PI) (PHI)
                 (PHI) (SG) (SG) (PI) (PI) (DLTA) (DLTA) (?A) (?A)
                 (PI) (PI) (PHI) (PHI) (SG) (PI) (PI) (PHI) (PHI)
                 (SG) (DLTA) (DLTA) (SG) (DLTA) (DLTA) (DLTA) (DLTA)
                 (PI) (PI) (PI) (PI) (PI) (PI) (SG) (?A) (?A) (SG)
                 (?B) (?B) (DLTA) (DLTA) (?B) (?B) (PHI) (PHI)
                 (SG) (PI) (PI) (PI) (PI) (?A) (?A) (DLTA) (DLTA)
                 (SG) (DLTA) (DLTA) (SG) (SG) (PI) (PI) (PHI) (PHI)
                 (?A) (?A) (PHI) (PHI) (PI) (PI) (SG) (DLTA) (DLTA)
                 (PI) (PI) (SG) (PHI) (PHI) (SG) (DLTA) (DLTA)
                 (?A) (?A) (PHI) (PHI) (PHI) (PHI) (DLTA) (DLTA)
                 (PI) (PI) (SG) (PI) (PI) (SG) (DLTA) (DLTA) (PI)
                 (PI) (SG) (?B) (?B) (SG) (SG) (?A) (?A) (PI) (PI)
                 (SG) (DLTA) (DLTA) (PHI) (PHI) (PI) (PI) (DLTA)
                 (DLTA) (SG) (DLTA) (DLTA) (SG) (SG) (PI) (PI)
                 (PI) (PI) (SG) (PI) (PI) (?A) (?A) (?B) (?B) (?B)
                 (?B) (PHI) (PHI) (DLTA) (DLTA) (?A) (?A) (PHI)
                 (PHI) (SG) (DLTA) (DLTA) (SG) (PI) (PI) (PI) (PI)
                 (?A) (?A) (PHI) (PHI) (DLTA) (DLTA) (SG) (PI)
                 (PI) (PHI) (PHI) (DLTA) (DLTA) (PHI) (PHI) (SG)
                 (?A) (?A) (PHI) (PHI) (SG) (DLTA) (DLTA) (DLTA)
                 (DLTA) (PI) (PI) (PI) (PI) (SG) (PI) (PI) (PI)
                 (PI) (SG) (SG) (SG) (DLTA) (DLTA) (?B) (?B) (?A)
                 (?A) (SG) (SG) (?C) (?C) (PHI) (PHI) (SG) (DLTA)
                 (DLTA) (PI) (PI) (PI) (PI) (SG) (SG) (?B) (?B)
                 (SG) (SG) (?A) (?A) (PHI) (PHI) (DLTA) (DLTA)
                 (PI) (PI) (SG) (DLTA) (DLTA) (PI) (PI) (?B) (?B)
                 (?A) (?A) (SG) (SG) (PHI) (PHI) (DLTA) (DLTA)
                 (PI) (PI) (SG) (SG) (?B) (?B) (?A) (?A) (PHI)
                 (PHI) (PI) (PI) (DLTA) (DLTA) (SG) (?A) (?A) (?B)
                 (?B) (PHI) (PHI) (DLTA) (DLTA) (SG) (PI) (PI)
                 (PHI) (PHI) (DLTA) (DLTA) (PI) (PI) (SG) (?A)
                 (?A) (PHI) (PHI) (DLTA) (DLTA) (SG) (PI) (PI)
                 (?A) (?A) (PHI) (PHI) (DLTA) (DLTA) (PI) (PI)
                 (SG) (PHI) (PHI) (DLTA) (DLTA) (PI) (PI) (PI)
                 (PI) (SG) (SG) (PI) (PI) (SG) (DLTA) (DLTA) (PI)
                 (PI) (SG) (SG) (SG) (SG) (PI) (PI) (SG) (SG) (PI)
                 (PI) (DLTA) (DLTA) (SG) (PI) (PI) (SG) (PI) (PI)
                 (SG) (SG) (SG) (SG) (SG) (PI) (PI) (SG) (PI) (PI)
                 (PI) (PI) (PI) (PI) (DLTA) (DLTA) (SG) (DLTA)
                 (DLTA) (PI) (PI) (DLTA) (DLTA) (DLTA) (DLTA) (SG)
                 (PI) (PI) (DLTA) (DLTA) (PHI) (PHI) (PHI) (PHI)
                 (PHI) (PHI) (SG) (PI) (PI) (DLTA) (DLTA) (PHI)
                 (PHI) (?A) (?A) (PI) (PI) (DLTA) (DLTA) (PHI)
                 (PHI) (?A) (?A) (SG) (PI) (PI) (DLTA) (DLTA) (PHI)
                 (PHI) (?A) (?A) (?B) (?B) (DLTA) (DLTA) (?A) (?A)
                 (SG) (PI) (PI) (DLTA) (DLTA) (PHI) (PHI) (?A)
                 (?A) (?B) (?B) (SG) (SG) (PI) (PI) (PHI) (PHI)
                 (?B) (?B) (SG) (PI) (PI) (DLTA) (DLTA) (PHI) (PHI)
                 (?A) (?A) (?B) (?B) (SG) (SG) (?C) (?C) (PI) (PI)
                 (DLTA) (DLTA) (PHI) (PHI) (?A) (?A) (?B) (?B)
                 (SG) (SG) (?C) (?C) (SG) (DLTA) (DLTA) (PHI) (PHI)
                 (?A) (?A) (?B) (?B) (SG) (SG) (?C) (?C) (?D) (?D)
                 (PHI) (PHI) (?A) (?A) (PHI) (PHI) (?A) (?A) (?B)
                 (?B) (SG) (DLTA) (DLTA) (?A) (?A) (?B) (?B) (SG)
                 (SG) (SG) (SG) (?B) (?B) (SG) (SG) (?C) (?C)
 Requested convergence on RMS density matrix=1.00D-10 within 128 cycles.
 Requested convergence on MAX density matrix=1.00D-08.
 Requested convergence on             energy=1.00D-08.
 No special actions if energy rises.
 DSYEVD returned Info=       11181 IAlg= 4 N=   208 NDim=   618 NE2=    13894216 trying DSYEV.
 SCF Done:  E(ROHF) =  -1017.49711233     A.U. after   19 cycles
             Convg  =    0.2919D-10             -V/T =  2.0002
 <Sx>= 0.0000 <Sy>= 0.0000 <Sz>= 1.0000 <S**2>= 2.0000 S= 1.0000
 <L.S>= 0.000000000000E+00
 Annihilation of the first spin contaminant:
 S**2 before annihilation     2.0000,   after     2.0000
 DiagDN has N=   618 LTot=  1886 but NE2=     3 cannot use DSYEVD.
 GenMOA:  NOpAll=  4 NOp2=4 NOpUse=  4 JSym2X=1
 <Sx>= 0.0000 <Sy>= 0.0000 <Sz>= 1.0000 <S**2>= 2.0000 S= 1.0000
 ExpMin= 1.41D-02 ExpMax= 3.48D+07 ExpMxC= 3.11D+03 IAcc=3 IRadAn=         5 AccDes= 0.00D+00
 HarFok:  IExCor=  205 AccDes= 0.00D+00 IRadAn=         5 IDoV=-2
 ScaDFX=  1.000000  1.000000  1.000000  1.000000
 Range of M.O.s used for correlation:    11   618
 NBasis=   618 NAE=    16 NBE=    14 NFC=    10 NFV=     0
 NROrb=    608 NOA=     6 NOB=     4 NVA=   602 NVB=   604

 **** Warning!!: The largest alpha MO coefficient is  0.15296592D+04


 **** Warning!!: The largest beta MO coefficient is  0.15307319D+04

 Singles contribution to E2=   -0.1228459890D-02
 Disk-based method using OVN memory for  6 occupieds at a time.
 Permanent disk used for amplitudes and <ij||ab> integrals=    25065486 words.
 Estimated scratch disk usage=  5064360312 words.
 IUseRI=2 ITolRI= 6 IR12RI=0
 Actual    scratch disk usage=  5047581908 words.
 GetIJB would need an additional  4847593607 words of memory to use all  16 processors.
 JobTyp=2 Pass  1:  I=   1 to   6 NPSUse= 10 ParTrn=T ParDer=T DoDerP=F.
 T,EIJ(AA): I=   1 J=   2      0.1537333E-03     -0.8122831E-03
 T,EIJ(AA): I=   1 J=   3      0.1537333E-03     -0.8122831E-03
 T,EIJ(AA): I=   1 J=   4      0.8774073E-03     -0.3817890E-02
 T,EIJ(AA): I=   1 J=   5      0.9615313E-03     -0.3978901E-02
 T,EIJ(AA): I=   1 J=   6      0.9615313E-03     -0.3978901E-02
 T,EIJ(AA): I=   2 J=   3      0.2535742E-02     -0.1174773E-01
 T,EIJ(AA): I=   2 J=   4      0.9903289E-03     -0.3123705E-02
 T,EIJ(AA): I=   2 J=   5      0.7841658E-03     -0.2206614E-02
 T,EIJ(AA): I=   2 J=   6      0.7841658E-03     -0.2206614E-02
 T,EIJ(AA): I=   3 J=   4      0.9903289E-03     -0.3123705E-02
 T,EIJ(AA): I=   3 J=   5      0.7841658E-03     -0.2206614E-02
 T,EIJ(AA): I=   3 J=   6      0.7841658E-03     -0.2206614E-02
 T,EIJ(AA): I=   4 J=   5      0.7643866E-02     -0.1552886E-01
 T,EIJ(AA): I=   4 J=   6      0.7643866E-02     -0.1552886E-01
 T,EIJ(AA): I=   5 J=   6      0.6198109E-02     -0.1330531E-01
 T,EIJ(AB): I=   1 J=   1      0.2078944E-02     -0.1297126E-01
 T,EIJ(AB): I=   1 J=   2      0.2319846E-02     -0.1190142E-01
 T,EIJ(AB): I=   1 J=   3      0.2344907E-02     -0.1209507E-01
 T,EIJ(AB): I=   1 J=   4      0.2344907E-02     -0.1209507E-01
 T,EIJ(AB): I=   2 J=   1      0.1918750E-03     -0.1093420E-02
 T,EIJ(AB): I=   2 J=   2      0.1386694E-02     -0.4720957E-02
 T,EIJ(AB): I=   2 J=   3      0.9440893E-03     -0.2802881E-02
 T,EIJ(AB): I=   2 J=   4      0.9440893E-03     -0.2802881E-02
 T,EIJ(AB): I=   3 J=   1      0.1918750E-03     -0.1093420E-02
 T,EIJ(AB): I=   3 J=   2      0.1386694E-02     -0.4720957E-02
 T,EIJ(AB): I=   3 J=   3      0.9440893E-03     -0.2802881E-02
 T,EIJ(AB): I=   3 J=   4      0.9440893E-03     -0.2802881E-02
 T,EIJ(AB): I=   4 J=   1      0.2287469E-02     -0.1184185E-01
 T,EIJ(AB): I=   4 J=   2      0.1514302E-01     -0.3601498E-01
 T,EIJ(AB): I=   4 J=   3      0.8466359E-02     -0.1898689E-01
 T,EIJ(AB): I=   4 J=   4      0.8466359E-02     -0.1898689E-01
 T,EIJ(AB): I=   5 J=   1      0.2324683E-02     -0.1203817E-01
 T,EIJ(AB): I=   5 J=   2      0.8530499E-02     -0.1901815E-01
 T,EIJ(AB): I=   5 J=   3      0.1179573E-01     -0.3006756E-01
 T,EIJ(AB): I=   5 J=   4      0.7574625E-02     -0.1749951E-01
 T,EIJ(AB): I=   6 J=   1      0.2324683E-02     -0.1203817E-01
 T,EIJ(AB): I=   6 J=   2      0.8530499E-02     -0.1901815E-01
 T,EIJ(AB): I=   6 J=   3      0.7574625E-02     -0.1749951E-01
 T,EIJ(AB): I=   6 J=   4      0.1179573E-01     -0.3006756E-01
 Actual    scratch disk usage=  5064352120 words.
 GetIJB would need an additional  4847562227 words of memory to use all  16 processors.
 JobTyp=3 Pass  1:  I=   1 to   4 NPSUse= 10 ParTrn=T ParDer=T DoDerP=F.
 T,EIJ(BB): I=   1 J=   2      0.8716266E-03     -0.3817015E-02
 T,EIJ(BB): I=   1 J=   3      0.9380036E-03     -0.3939157E-02
 T,EIJ(BB): I=   1 J=   4      0.9380036E-03     -0.3939157E-02
 T,EIJ(BB): I=   2 J=   3      0.7199228E-02     -0.1528168E-01
 T,EIJ(BB): I=   2 J=   4      0.7199228E-02     -0.1528168E-01
 T,EIJ(BB): I=   3 J=   4      0.5843556E-02     -0.1312814E-01
 Spin components of T(2) and E(2):
     alpha-alpha T2 =       0.3224684191D-01 E2=     -0.8458487864D-01
     alpha-beta  T2 =       0.1108363837D+00 E2=     -0.3149804985D+00
     beta-beta   T2 =       0.2298964649D-01 E2=     -0.5538683609D-01
 ANorm=    0.1080608378D+01
 E2 =    -0.4561806731D+00 EUMP2 =    -0.10179532929990D+04

 Complete Basis Set (CBS) Extrapolation:
 M. R. Nyden and G. A. Petersson, JCP 75, 1843 (1981)
 G. A. Petersson and M. A. Al-Laham, JCP 94, 6081 (1991)
 G. A. Petersson, T. Tensfeldt, and J. A. Montgomery, JCP 94, 6091 (1991)
 J. A. Montgomery, J. W. Ochterski, and G. A. Petersson, JCP 101, 5900 (1994)
 
 Minimum Number of PNO for Extrapolation =  25
 Absolute Overlaps: IRadAn =         5
 LocTrn: ILocal=3 LocCor=F DoCore=F.
 Entering OneElI...
 Overlap between basis sets.
 Requested accuracy = 0.1000D-12
 PrsmSu:  NPrtUS=   1 ThrOK=F IAlg=1
 PRISM was handed  8588064823 working-precision words and    47 shell-pairs
 IPart=  0 NShTot=          47 NBatch=           8 AvBLen=         5.9
 CnvPC2: ToCart=F DoDens=F IPureD=0 IPureF=0.
 Transformed matrix in CnvPC2: 
                 1             2             3             4             5 
      1   0.100000D+01  0.376096D+00  0.000000D+00  0.000000D+00  0.000000D+00
      2   0.376096D+00  0.100000D+01  0.000000D+00  0.000000D+00  0.000000D+00
      3   0.000000D+00  0.000000D+00  0.100000D+01  0.000000D+00  0.000000D+00
      4   0.000000D+00  0.000000D+00  0.000000D+00  0.100000D+01  0.000000D+00
      5   0.000000D+00  0.000000D+00  0.000000D+00  0.000000D+00  0.100000D+01
      6   0.232663D-01  0.306441D+00  0.000000D+00  0.000000D+00  0.000000D+00
      7   0.000000D+00  0.000000D+00  0.319378D+00  0.000000D+00  0.000000D+00
      8   0.000000D+00  0.000000D+00  0.000000D+00  0.319378D+00  0.000000D+00
      9   0.000000D+00  0.000000D+00  0.000000D+00  0.000000D+00  0.319378D+00
     10   0.000000D+00  0.000000D+00  0.000000D+00  0.000000D+00  0.000000D+00
     11   0.000000D+00  0.000000D+00  0.000000D+00  0.000000D+00  0.000000D+00
     12   0.000000D+00  0.000000D+00  0.000000D+00  0.000000D+00  0.000000D+00
     13   0.000000D+00  0.000000D+00  0.000000D+00  0.000000D+00  0.000000D+00
     14   0.000000D+00  0.000000D+00  0.000000D+00  0.000000D+00  0.000000D+00
     15  -0.409949D-03  0.111392D-01  0.000000D+00  0.000000D+00  0.000000D+00
     16   0.000000D+00  0.000000D+00  0.218094D-01  0.000000D+00  0.000000D+00
     17   0.000000D+00  0.000000D+00  0.000000D+00  0.218094D-01  0.000000D+00
     18   0.000000D+00  0.000000D+00  0.000000D+00  0.000000D+00  0.218094D-01
     19   0.000000D+00  0.000000D+00  0.000000D+00  0.000000D+00  0.000000D+00
     20   0.112418D-02  0.809355D-02  0.000000D+00  0.000000D+00 -0.440384D-02
     21   0.000000D+00  0.000000D+00  0.135872D-02  0.000000D+00  0.000000D+00
     22   0.000000D+00  0.000000D+00  0.000000D+00  0.135872D-02  0.000000D+00
     23   0.229834D-02  0.159199D-01  0.000000D+00  0.000000D+00 -0.752788D-02
                 6             7             8             9            10 
      1   0.232663D-01  0.000000D+00  0.000000D+00  0.000000D+00  0.000000D+00
      2   0.306441D+00  0.000000D+00  0.000000D+00  0.000000D+00  0.000000D+00
      3   0.000000D+00  0.319378D+00  0.000000D+00  0.000000D+00  0.000000D+00
      4   0.000000D+00  0.000000D+00  0.319378D+00  0.000000D+00  0.000000D+00
      5   0.000000D+00  0.000000D+00  0.000000D+00  0.319378D+00  0.000000D+00
      6   0.100000D+01  0.000000D+00  0.000000D+00  0.000000D+00  0.000000D+00
      7   0.000000D+00  0.100000D+01  0.000000D+00  0.000000D+00  0.000000D+00
      8   0.000000D+00  0.000000D+00  0.100000D+01  0.000000D+00  0.000000D+00
      9   0.000000D+00  0.000000D+00  0.000000D+00  0.100000D+01  0.000000D+00
     10   0.000000D+00  0.000000D+00  0.000000D+00  0.000000D+00  0.100000D+01
     11   0.000000D+00  0.000000D+00  0.000000D+00  0.000000D+00  0.000000D+00
     12   0.000000D+00  0.000000D+00  0.000000D+00  0.000000D+00  0.000000D+00
     13   0.000000D+00  0.000000D+00  0.000000D+00  0.000000D+00  0.000000D+00
     14   0.000000D+00  0.000000D+00  0.000000D+00  0.000000D+00  0.000000D+00
     15   0.347708D+00  0.000000D+00  0.000000D+00  0.000000D+00  0.000000D+00
     16   0.000000D+00  0.361074D+00  0.000000D+00  0.000000D+00  0.000000D+00
     17   0.000000D+00  0.000000D+00  0.361074D+00  0.000000D+00  0.000000D+00
     18   0.000000D+00  0.000000D+00  0.000000D+00  0.361074D+00  0.000000D+00
     19   0.865490D-03  0.000000D+00  0.000000D+00 -0.211675D-02  0.224130D-01
     20   0.780034D-01  0.000000D+00  0.000000D+00 -0.963977D-01  0.191357D+00
     21   0.000000D+00  0.319719D-01  0.000000D+00  0.000000D+00  0.000000D+00
     22   0.000000D+00  0.000000D+00  0.319719D-01  0.000000D+00  0.000000D+00
     23   0.123471D+00  0.000000D+00  0.000000D+00 -0.140332D+00  0.191377D+00
                11            12            13            14            15 
      1   0.000000D+00  0.000000D+00  0.000000D+00  0.000000D+00 -0.409949D-03
      2   0.000000D+00  0.000000D+00  0.000000D+00  0.000000D+00  0.111392D-01
      3   0.000000D+00  0.000000D+00  0.000000D+00  0.000000D+00  0.000000D+00
      4   0.000000D+00  0.000000D+00  0.000000D+00  0.000000D+00  0.000000D+00
      5   0.000000D+00  0.000000D+00  0.000000D+00  0.000000D+00  0.000000D+00
      6   0.000000D+00  0.000000D+00  0.000000D+00  0.000000D+00  0.347708D+00
      7   0.000000D+00  0.000000D+00  0.000000D+00  0.000000D+00  0.000000D+00
      8   0.000000D+00  0.000000D+00  0.000000D+00  0.000000D+00  0.000000D+00
      9   0.000000D+00  0.000000D+00  0.000000D+00  0.000000D+00  0.000000D+00
     10   0.000000D+00  0.000000D+00  0.000000D+00  0.000000D+00  0.000000D+00
     11   0.100000D+01  0.000000D+00  0.000000D+00  0.000000D+00  0.000000D+00
     12   0.000000D+00  0.100000D+01  0.000000D+00  0.000000D+00  0.000000D+00
     13   0.000000D+00  0.000000D+00  0.100000D+01  0.000000D+00  0.000000D+00
     14   0.000000D+00  0.000000D+00  0.000000D+00  0.100000D+01  0.000000D+00
     15   0.000000D+00  0.000000D+00  0.000000D+00  0.000000D+00  0.100000D+01
     16   0.000000D+00  0.000000D+00  0.000000D+00  0.000000D+00  0.000000D+00
     17   0.000000D+00  0.000000D+00  0.000000D+00  0.000000D+00  0.000000D+00
     18   0.000000D+00  0.000000D+00  0.000000D+00  0.000000D+00  0.000000D+00
     19   0.000000D+00  0.000000D+00  0.000000D+00  0.000000D+00  0.374392D-01
     20   0.000000D+00  0.000000D+00  0.000000D+00  0.000000D+00  0.332906D+00
     21  -0.120928D+00  0.000000D+00  0.000000D+00  0.000000D+00  0.000000D+00
     22   0.000000D+00 -0.120928D+00  0.000000D+00  0.000000D+00  0.000000D+00
     23   0.000000D+00  0.000000D+00  0.000000D+00  0.000000D+00  0.171435D+00
                16            17            18            19            20 
      1   0.000000D+00  0.000000D+00  0.000000D+00  0.000000D+00  0.112418D-02
      2   0.000000D+00  0.000000D+00  0.000000D+00  0.000000D+00  0.809355D-02
      3   0.218094D-01  0.000000D+00  0.000000D+00  0.000000D+00  0.000000D+00
      4   0.000000D+00  0.218094D-01  0.000000D+00  0.000000D+00  0.000000D+00
      5   0.000000D+00  0.000000D+00  0.218094D-01  0.000000D+00 -0.440384D-02
      6   0.000000D+00  0.000000D+00  0.000000D+00  0.865490D-03  0.780034D-01
      7   0.361074D+00  0.000000D+00  0.000000D+00  0.000000D+00  0.000000D+00
      8   0.000000D+00  0.361074D+00  0.000000D+00  0.000000D+00  0.000000D+00
      9   0.000000D+00  0.000000D+00  0.361074D+00 -0.211675D-02 -0.963977D-01
     10   0.000000D+00  0.000000D+00  0.000000D+00  0.224130D-01  0.191357D+00
     11   0.000000D+00  0.000000D+00  0.000000D+00  0.000000D+00  0.000000D+00
     12   0.000000D+00  0.000000D+00  0.000000D+00  0.000000D+00  0.000000D+00
     13   0.000000D+00  0.000000D+00  0.000000D+00  0.000000D+00  0.000000D+00
     14   0.000000D+00  0.000000D+00  0.000000D+00  0.000000D+00  0.000000D+00
     15   0.000000D+00  0.000000D+00  0.000000D+00  0.374392D-01  0.332906D+00
     16   0.100000D+01  0.000000D+00  0.000000D+00  0.000000D+00  0.000000D+00
     17   0.000000D+00  0.100000D+01  0.000000D+00  0.000000D+00  0.000000D+00
     18   0.000000D+00  0.000000D+00  0.100000D+01 -0.648872D-01 -0.489870D+00
     19   0.000000D+00  0.000000D+00 -0.648872D-01  0.100000D+01  0.236704D+00
     20   0.000000D+00  0.000000D+00 -0.489870D+00  0.236704D+00  0.100000D+01
     21   0.177677D+00  0.000000D+00  0.000000D+00  0.000000D+00  0.000000D+00
     22   0.000000D+00  0.177677D+00  0.000000D+00  0.000000D+00  0.000000D+00
     23   0.000000D+00  0.000000D+00 -0.216086D+00  0.000000D+00  0.000000D+00
                21            22            23 
      1   0.000000D+00  0.000000D+00  0.229834D-02
      2   0.000000D+00  0.000000D+00  0.159199D-01
      3   0.135872D-02  0.000000D+00  0.000000D+00
      4   0.000000D+00  0.135872D-02  0.000000D+00
      5   0.000000D+00  0.000000D+00 -0.752788D-02
      6   0.000000D+00  0.000000D+00  0.123471D+00
      7   0.319719D-01  0.000000D+00  0.000000D+00
      8   0.000000D+00  0.319719D-01  0.000000D+00
      9   0.000000D+00  0.000000D+00 -0.140332D+00
     10   0.000000D+00  0.000000D+00  0.191377D+00
     11  -0.120928D+00  0.000000D+00  0.000000D+00
     12   0.000000D+00 -0.120928D+00  0.000000D+00
     13   0.000000D+00  0.000000D+00  0.000000D+00
     14   0.000000D+00  0.000000D+00  0.000000D+00
     15   0.000000D+00  0.000000D+00  0.171435D+00
     16   0.177677D+00  0.000000D+00  0.000000D+00
     17   0.000000D+00  0.177677D+00  0.000000D+00
     18   0.000000D+00  0.000000D+00 -0.216086D+00
     19   0.000000D+00  0.000000D+00  0.000000D+00
     20   0.000000D+00  0.000000D+00  0.000000D+00
     21   0.100000D+01  0.000000D+00  0.000000D+00
     22   0.000000D+00  0.100000D+01  0.000000D+00
     23   0.000000D+00  0.000000D+00  0.100000D+01
 Entering OneElI...
 Overlap between basis sets.
 Requested accuracy = 0.1000D-12
 PrsmSu:  NPrtUS=   1 ThrOK=F IAlg=1
 PRISM was handed  8586690303 working-precision words and   712 shell-pairs
 IPart=  0 NShTot=         712 NBatch=          81 AvBLen=         8.8
 CnvPC2: ToCart=F DoDens=F IPureD=0 IPureF=0.
 Transformed matrix in CnvPC2: 
                 1             2             3             4             5 
      1   0.999701D+00  0.391661D+00  0.000000D+00  0.000000D+00  0.000000D+00
      2   0.273566D+00  0.990698D+00  0.000000D+00  0.000000D+00  0.000000D+00
      3   0.000000D+00  0.000000D+00  0.998902D+00  0.000000D+00  0.000000D+00
      4   0.000000D+00  0.000000D+00  0.000000D+00  0.998902D+00  0.000000D+00
      5   0.000000D+00  0.000000D+00  0.000000D+00  0.000000D+00  0.998902D+00
      6   0.964035D-02  0.302522D+00  0.000000D+00  0.000000D+00  0.000000D+00
      7   0.000000D+00  0.000000D+00  0.307539D+00  0.000000D+00  0.000000D+00
      8   0.000000D+00  0.000000D+00  0.000000D+00  0.307539D+00  0.000000D+00
      9   0.000000D+00  0.000000D+00  0.000000D+00  0.000000D+00  0.307539D+00
     10   0.000000D+00  0.000000D+00  0.000000D+00  0.000000D+00  0.000000D+00
     11   0.000000D+00  0.000000D+00  0.000000D+00  0.000000D+00  0.000000D+00
     12   0.000000D+00  0.000000D+00  0.000000D+00  0.000000D+00  0.000000D+00
     13   0.000000D+00  0.000000D+00  0.000000D+00  0.000000D+00  0.000000D+00
     14   0.000000D+00  0.000000D+00  0.000000D+00  0.000000D+00  0.000000D+00
     15   0.000000D+00  0.000000D+00  0.000000D+00  0.000000D+00  0.000000D+00
     16   0.000000D+00  0.000000D+00  0.000000D+00  0.000000D+00  0.000000D+00
     17   0.000000D+00  0.000000D+00  0.000000D+00  0.000000D+00  0.000000D+00
     18   0.000000D+00  0.000000D+00  0.000000D+00  0.000000D+00  0.000000D+00
     19   0.000000D+00  0.000000D+00  0.000000D+00  0.000000D+00  0.000000D+00
     20   0.000000D+00  0.000000D+00  0.000000D+00  0.000000D+00  0.000000D+00
     21   0.000000D+00  0.000000D+00  0.000000D+00  0.000000D+00  0.000000D+00
     22   0.000000D+00  0.000000D+00  0.000000D+00  0.000000D+00  0.000000D+00
     23   0.000000D+00  0.000000D+00  0.000000D+00  0.000000D+00  0.000000D+00
     24   0.000000D+00  0.000000D+00  0.000000D+00  0.000000D+00  0.000000D+00
     25   0.101918D-03  0.976865D-02  0.000000D+00  0.000000D+00  0.000000D+00
     26   0.774497D-02  0.509594D-01  0.000000D+00  0.000000D+00  0.000000D+00
     27   0.375227D-02  0.247952D-01  0.000000D+00  0.000000D+00  0.000000D+00
     28   0.000000D+00  0.000000D+00 -0.236046D-01  0.000000D+00  0.000000D+00
     29   0.000000D+00  0.000000D+00  0.000000D+00 -0.236046D-01  0.000000D+00
     30   0.000000D+00  0.000000D+00  0.000000D+00  0.000000D+00 -0.236046D-01
     31   0.000000D+00  0.000000D+00  0.162003D-01  0.000000D+00  0.000000D+00
     32   0.000000D+00  0.000000D+00  0.000000D+00  0.162003D-01  0.000000D+00
     33   0.000000D+00  0.000000D+00  0.000000D+00  0.000000D+00  0.162003D-01
     34   0.000000D+00  0.000000D+00  0.662486D-02  0.000000D+00  0.000000D+00
     35   0.000000D+00  0.000000D+00  0.000000D+00  0.662486D-02  0.000000D+00
     36   0.000000D+00  0.000000D+00  0.000000D+00  0.000000D+00  0.662486D-02
     37   0.000000D+00  0.000000D+00  0.268714D-02  0.000000D+00  0.000000D+00
     38   0.000000D+00  0.000000D+00  0.000000D+00  0.268714D-02  0.000000D+00
     39   0.000000D+00  0.000000D+00  0.000000D+00  0.000000D+00  0.268714D-02
     40   0.272153D+00  0.944841D+00  0.000000D+00  0.000000D+00  0.000000D+00
     41   0.171247D+00  0.775790D+00  0.000000D+00  0.000000D+00  0.000000D+00
     42   0.105486D+00  0.565981D+00  0.000000D+00  0.000000D+00  0.000000D+00
     43   0.642417D-01  0.380308D+00  0.000000D+00  0.000000D+00  0.000000D+00
     44   0.388913D-01  0.242977D+00  0.000000D+00  0.000000D+00  0.000000D+00
     45   0.234723D-01  0.150883D+00  0.000000D+00  0.000000D+00  0.000000D+00
     46   0.000000D+00  0.000000D+00  0.425887D+00  0.000000D+00  0.000000D+00
     47   0.000000D+00  0.000000D+00  0.000000D+00  0.425887D+00  0.000000D+00
     48   0.000000D+00  0.000000D+00  0.000000D+00  0.000000D+00  0.425887D+00
     49   0.000000D+00  0.000000D+00  0.279361D+00  0.000000D+00  0.000000D+00
     50   0.000000D+00  0.000000D+00  0.000000D+00  0.279361D+00  0.000000D+00
     51   0.000000D+00  0.000000D+00  0.000000D+00  0.000000D+00  0.279361D+00
     52   0.000000D+00  0.000000D+00  0.172690D+00  0.000000D+00  0.000000D+00
     53   0.000000D+00  0.000000D+00  0.000000D+00  0.172690D+00  0.000000D+00
     54   0.000000D+00  0.000000D+00  0.000000D+00  0.000000D+00  0.172690D+00
     55   0.000000D+00  0.000000D+00  0.102260D+00  0.000000D+00  0.000000D+00
     56   0.000000D+00  0.000000D+00  0.000000D+00  0.102260D+00  0.000000D+00
     57   0.000000D+00  0.000000D+00  0.000000D+00  0.000000D+00  0.102260D+00
     58   0.000000D+00  0.000000D+00  0.587978D-01  0.000000D+00  0.000000D+00
     59   0.000000D+00  0.000000D+00  0.000000D+00  0.587978D-01  0.000000D+00
     60   0.000000D+00  0.000000D+00  0.000000D+00  0.000000D+00  0.587978D-01
     61   0.000000D+00  0.000000D+00  0.331578D-01  0.000000D+00  0.000000D+00
     62   0.000000D+00  0.000000D+00  0.000000D+00  0.331578D-01  0.000000D+00
     63   0.000000D+00  0.000000D+00  0.000000D+00  0.000000D+00  0.331578D-01
     64   0.000000D+00  0.000000D+00  0.000000D+00  0.000000D+00  0.000000D+00
     65   0.000000D+00  0.000000D+00  0.000000D+00  0.000000D+00  0.000000D+00
     66   0.000000D+00  0.000000D+00  0.000000D+00  0.000000D+00  0.000000D+00
     67   0.000000D+00  0.000000D+00  0.000000D+00  0.000000D+00  0.000000D+00
     68   0.000000D+00  0.000000D+00  0.000000D+00  0.000000D+00  0.000000D+00
     69   0.000000D+00  0.000000D+00  0.000000D+00  0.000000D+00  0.000000D+00
     70   0.000000D+00  0.000000D+00  0.000000D+00  0.000000D+00  0.000000D+00
     71   0.000000D+00  0.000000D+00  0.000000D+00  0.000000D+00  0.000000D+00
     72   0.000000D+00  0.000000D+00  0.000000D+00  0.000000D+00  0.000000D+00
     73   0.000000D+00  0.000000D+00  0.000000D+00  0.000000D+00  0.000000D+00
     74   0.000000D+00  0.000000D+00  0.000000D+00  0.000000D+00  0.000000D+00
     75   0.000000D+00  0.000000D+00  0.000000D+00  0.000000D+00  0.000000D+00
     76   0.000000D+00  0.000000D+00  0.000000D+00  0.000000D+00  0.000000D+00
     77   0.000000D+00  0.000000D+00  0.000000D+00  0.000000D+00  0.000000D+00
     78   0.000000D+00  0.000000D+00  0.000000D+00  0.000000D+00  0.000000D+00
     79   0.000000D+00  0.000000D+00  0.000000D+00  0.000000D+00  0.000000D+00
     80   0.000000D+00  0.000000D+00  0.000000D+00  0.000000D+00  0.000000D+00
     81   0.000000D+00  0.000000D+00  0.000000D+00  0.000000D+00  0.000000D+00
     82   0.000000D+00  0.000000D+00  0.000000D+00  0.000000D+00  0.000000D+00
     83   0.000000D+00  0.000000D+00  0.000000D+00  0.000000D+00  0.000000D+00
     84   0.000000D+00  0.000000D+00  0.000000D+00  0.000000D+00  0.000000D+00
     85   0.000000D+00  0.000000D+00  0.000000D+00  0.000000D+00  0.000000D+00
     86   0.000000D+00  0.000000D+00  0.000000D+00  0.000000D+00  0.000000D+00
     87   0.000000D+00  0.000000D+00  0.000000D+00  0.000000D+00  0.000000D+00
     88   0.000000D+00  0.000000D+00  0.000000D+00  0.000000D+00  0.000000D+00
     89   0.000000D+00  0.000000D+00  0.000000D+00  0.000000D+00  0.000000D+00
     90   0.000000D+00  0.000000D+00  0.000000D+00  0.000000D+00  0.000000D+00
     91   0.000000D+00  0.000000D+00  0.000000D+00  0.000000D+00  0.000000D+00
     92   0.000000D+00  0.000000D+00  0.000000D+00  0.000000D+00  0.000000D+00
     93   0.000000D+00  0.000000D+00  0.000000D+00  0.000000D+00  0.000000D+00
     94   0.000000D+00  0.000000D+00  0.000000D+00  0.000000D+00  0.000000D+00
     95   0.000000D+00  0.000000D+00  0.000000D+00  0.000000D+00  0.000000D+00
     96   0.000000D+00  0.000000D+00  0.000000D+00  0.000000D+00  0.000000D+00
     97   0.000000D+00  0.000000D+00  0.000000D+00  0.000000D+00  0.000000D+00
     98   0.000000D+00  0.000000D+00  0.000000D+00  0.000000D+00  0.000000D+00
     99   0.000000D+00  0.000000D+00  0.000000D+00  0.000000D+00  0.000000D+00
    100   0.000000D+00  0.000000D+00  0.000000D+00  0.000000D+00  0.000000D+00
    101   0.000000D+00  0.000000D+00  0.000000D+00  0.000000D+00  0.000000D+00
    102   0.000000D+00  0.000000D+00  0.000000D+00  0.000000D+00  0.000000D+00
    103   0.000000D+00  0.000000D+00  0.000000D+00  0.000000D+00  0.000000D+00
    104   0.000000D+00  0.000000D+00  0.000000D+00  0.000000D+00  0.000000D+00
    105   0.000000D+00  0.000000D+00  0.000000D+00  0.000000D+00  0.000000D+00
    106   0.000000D+00  0.000000D+00  0.000000D+00  0.000000D+00  0.000000D+00
    107   0.000000D+00  0.000000D+00  0.000000D+00  0.000000D+00  0.000000D+00
    108   0.000000D+00  0.000000D+00  0.000000D+00  0.000000D+00  0.000000D+00
    109   0.000000D+00  0.000000D+00  0.000000D+00  0.000000D+00  0.000000D+00
    110   0.000000D+00  0.000000D+00  0.000000D+00  0.000000D+00  0.000000D+00
    111   0.000000D+00  0.000000D+00  0.000000D+00  0.000000D+00  0.000000D+00
    112   0.000000D+00  0.000000D+00  0.000000D+00  0.000000D+00  0.000000D+00
    113   0.000000D+00  0.000000D+00  0.000000D+00  0.000000D+00  0.000000D+00
    114   0.000000D+00  0.000000D+00  0.000000D+00  0.000000D+00  0.000000D+00
    115   0.000000D+00  0.000000D+00  0.000000D+00  0.000000D+00  0.000000D+00
    116   0.000000D+00  0.000000D+00  0.000000D+00  0.000000D+00  0.000000D+00
    117   0.000000D+00  0.000000D+00  0.000000D+00  0.000000D+00  0.000000D+00
    118   0.000000D+00  0.000000D+00  0.000000D+00  0.000000D+00  0.000000D+00
    119   0.000000D+00  0.000000D+00  0.000000D+00  0.000000D+00  0.000000D+00
    120   0.000000D+00  0.000000D+00  0.000000D+00  0.000000D+00  0.000000D+00
    121   0.000000D+00  0.000000D+00  0.000000D+00  0.000000D+00  0.000000D+00
    122   0.000000D+00  0.000000D+00  0.000000D+00  0.000000D+00  0.000000D+00
    123   0.000000D+00  0.000000D+00  0.000000D+00  0.000000D+00  0.000000D+00
    124   0.000000D+00  0.000000D+00  0.000000D+00  0.000000D+00  0.000000D+00
    125   0.000000D+00  0.000000D+00  0.000000D+00  0.000000D+00  0.000000D+00
    126   0.000000D+00  0.000000D+00  0.000000D+00  0.000000D+00  0.000000D+00
    127   0.000000D+00  0.000000D+00  0.000000D+00  0.000000D+00  0.000000D+00
    128   0.000000D+00  0.000000D+00  0.000000D+00  0.000000D+00  0.000000D+00
    129   0.000000D+00  0.000000D+00  0.000000D+00  0.000000D+00  0.000000D+00
    130   0.000000D+00  0.000000D+00  0.000000D+00  0.000000D+00  0.000000D+00
    131   0.000000D+00  0.000000D+00  0.000000D+00  0.000000D+00  0.000000D+00
    132   0.000000D+00  0.000000D+00  0.000000D+00  0.000000D+00  0.000000D+00
    133   0.000000D+00  0.000000D+00  0.000000D+00  0.000000D+00  0.000000D+00
    134   0.000000D+00  0.000000D+00  0.000000D+00  0.000000D+00  0.000000D+00
    135   0.000000D+00  0.000000D+00  0.000000D+00  0.000000D+00  0.000000D+00
    136   0.000000D+00  0.000000D+00  0.000000D+00  0.000000D+00  0.000000D+00
    137   0.000000D+00  0.000000D+00  0.000000D+00  0.000000D+00  0.000000D+00
    138   0.000000D+00  0.000000D+00  0.000000D+00  0.000000D+00  0.000000D+00
    139   0.000000D+00  0.000000D+00  0.000000D+00  0.000000D+00  0.000000D+00
    140   0.000000D+00  0.000000D+00  0.000000D+00  0.000000D+00  0.000000D+00
    141   0.000000D+00  0.000000D+00  0.000000D+00  0.000000D+00  0.000000D+00
    142   0.000000D+00  0.000000D+00  0.000000D+00  0.000000D+00  0.000000D+00
    143   0.000000D+00  0.000000D+00  0.000000D+00  0.000000D+00  0.000000D+00
    144   0.000000D+00  0.000000D+00  0.000000D+00  0.000000D+00  0.000000D+00
    145   0.000000D+00  0.000000D+00  0.000000D+00  0.000000D+00  0.000000D+00
    146   0.000000D+00  0.000000D+00  0.000000D+00  0.000000D+00  0.000000D+00
    147   0.000000D+00  0.000000D+00  0.000000D+00  0.000000D+00  0.000000D+00
    148   0.000000D+00  0.000000D+00  0.000000D+00  0.000000D+00  0.000000D+00
    149   0.000000D+00  0.000000D+00  0.000000D+00  0.000000D+00  0.000000D+00
    150   0.000000D+00  0.000000D+00  0.000000D+00  0.000000D+00  0.000000D+00
    151   0.000000D+00  0.000000D+00  0.000000D+00  0.000000D+00  0.000000D+00
    152   0.000000D+00  0.000000D+00  0.000000D+00  0.000000D+00  0.000000D+00
    153   0.000000D+00  0.000000D+00  0.000000D+00  0.000000D+00  0.000000D+00
    154   0.000000D+00  0.000000D+00  0.000000D+00  0.000000D+00  0.000000D+00
    155   0.000000D+00  0.000000D+00  0.000000D+00  0.000000D+00  0.000000D+00
    156   0.000000D+00  0.000000D+00  0.000000D+00  0.000000D+00  0.000000D+00
    157   0.000000D+00  0.000000D+00  0.000000D+00  0.000000D+00  0.000000D+00
    158   0.000000D+00  0.000000D+00  0.000000D+00  0.000000D+00  0.000000D+00
    159   0.000000D+00  0.000000D+00  0.000000D+00  0.000000D+00  0.000000D+00
    160   0.000000D+00  0.000000D+00  0.000000D+00  0.000000D+00  0.000000D+00
    161   0.000000D+00  0.000000D+00  0.000000D+00  0.000000D+00  0.000000D+00
    162   0.000000D+00  0.000000D+00  0.000000D+00  0.000000D+00  0.000000D+00
    163   0.000000D+00  0.000000D+00  0.000000D+00  0.000000D+00  0.000000D+00
    164   0.000000D+00  0.000000D+00  0.000000D+00  0.000000D+00  0.000000D+00
    165   0.000000D+00  0.000000D+00  0.000000D+00  0.000000D+00  0.000000D+00
    166   0.000000D+00  0.000000D+00  0.000000D+00  0.000000D+00  0.000000D+00
    167   0.000000D+00  0.000000D+00  0.000000D+00  0.000000D+00  0.000000D+00
    168   0.000000D+00  0.000000D+00  0.000000D+00  0.000000D+00  0.000000D+00
    169   0.000000D+00  0.000000D+00  0.000000D+00  0.000000D+00  0.000000D+00
    170   0.000000D+00  0.000000D+00  0.000000D+00  0.000000D+00  0.000000D+00
    171   0.000000D+00  0.000000D+00  0.000000D+00  0.000000D+00  0.000000D+00
    172   0.000000D+00  0.000000D+00  0.000000D+00  0.000000D+00  0.000000D+00
    173   0.000000D+00  0.000000D+00  0.000000D+00  0.000000D+00  0.000000D+00
    174   0.000000D+00  0.000000D+00  0.000000D+00  0.000000D+00  0.000000D+00
    175   0.000000D+00  0.000000D+00  0.000000D+00  0.000000D+00  0.000000D+00
    176   0.000000D+00  0.000000D+00  0.000000D+00  0.000000D+00  0.000000D+00
    177   0.000000D+00  0.000000D+00  0.000000D+00  0.000000D+00  0.000000D+00
    178   0.000000D+00  0.000000D+00  0.000000D+00  0.000000D+00  0.000000D+00
    179   0.000000D+00  0.000000D+00  0.000000D+00  0.000000D+00  0.000000D+00
    180   0.000000D+00  0.000000D+00  0.000000D+00  0.000000D+00  0.000000D+00
    181   0.000000D+00  0.000000D+00  0.000000D+00  0.000000D+00  0.000000D+00
    182   0.000000D+00  0.000000D+00  0.000000D+00  0.000000D+00  0.000000D+00
    183   0.000000D+00  0.000000D+00  0.000000D+00  0.000000D+00  0.000000D+00
    184   0.000000D+00  0.000000D+00  0.000000D+00  0.000000D+00  0.000000D+00
    185   0.000000D+00  0.000000D+00  0.000000D+00  0.000000D+00  0.000000D+00
    186   0.000000D+00  0.000000D+00  0.000000D+00  0.000000D+00  0.000000D+00
    187   0.000000D+00  0.000000D+00  0.000000D+00  0.000000D+00  0.000000D+00
    188   0.000000D+00  0.000000D+00  0.000000D+00  0.000000D+00  0.000000D+00
    189   0.000000D+00  0.000000D+00  0.000000D+00  0.000000D+00  0.000000D+00
    190   0.000000D+00  0.000000D+00  0.000000D+00  0.000000D+00  0.000000D+00
    191   0.000000D+00  0.000000D+00  0.000000D+00  0.000000D+00  0.000000D+00
    192   0.000000D+00  0.000000D+00  0.000000D+00  0.000000D+00  0.000000D+00
    193   0.000000D+00  0.000000D+00  0.000000D+00  0.000000D+00  0.000000D+00
    194   0.000000D+00  0.000000D+00  0.000000D+00  0.000000D+00  0.000000D+00
    195   0.000000D+00  0.000000D+00  0.000000D+00  0.000000D+00  0.000000D+00
    196   0.000000D+00  0.000000D+00  0.000000D+00  0.000000D+00  0.000000D+00
    197   0.000000D+00  0.000000D+00  0.000000D+00  0.000000D+00  0.000000D+00
    198   0.000000D+00  0.000000D+00  0.000000D+00  0.000000D+00  0.000000D+00
    199   0.000000D+00  0.000000D+00  0.000000D+00  0.000000D+00  0.000000D+00
    200   0.000000D+00  0.000000D+00  0.000000D+00  0.000000D+00  0.000000D+00
    201   0.000000D+00  0.000000D+00  0.000000D+00  0.000000D+00  0.000000D+00
    202   0.000000D+00  0.000000D+00  0.000000D+00  0.000000D+00  0.000000D+00
    203   0.000000D+00  0.000000D+00  0.000000D+00  0.000000D+00  0.000000D+00
    204   0.000000D+00  0.000000D+00  0.000000D+00  0.000000D+00  0.000000D+00
    205   0.000000D+00  0.000000D+00  0.000000D+00  0.000000D+00  0.000000D+00
    206   0.000000D+00  0.000000D+00  0.000000D+00  0.000000D+00  0.000000D+00
    207   0.000000D+00  0.000000D+00  0.000000D+00  0.000000D+00  0.000000D+00
    208   0.000000D+00  0.000000D+00  0.000000D+00  0.000000D+00  0.000000D+00
    209   0.000000D+00  0.000000D+00  0.000000D+00  0.000000D+00  0.000000D+00
    210   0.000000D+00  0.000000D+00  0.000000D+00  0.000000D+00  0.000000D+00
    211   0.000000D+00  0.000000D+00  0.000000D+00  0.000000D+00  0.000000D+00
    212   0.000000D+00  0.000000D+00  0.000000D+00  0.000000D+00  0.000000D+00
    213   0.000000D+00  0.000000D+00  0.000000D+00  0.000000D+00  0.000000D+00
    214   0.000000D+00  0.000000D+00  0.000000D+00  0.000000D+00  0.000000D+00
    215   0.000000D+00  0.000000D+00  0.000000D+00  0.000000D+00  0.000000D+00
    216   0.000000D+00  0.000000D+00  0.000000D+00  0.000000D+00  0.000000D+00
    217   0.000000D+00  0.000000D+00  0.000000D+00  0.000000D+00  0.000000D+00
    218   0.000000D+00  0.000000D+00  0.000000D+00  0.000000D+00  0.000000D+00
    219   0.000000D+00  0.000000D+00  0.000000D+00  0.000000D+00  0.000000D+00
    220   0.000000D+00  0.000000D+00  0.000000D+00  0.000000D+00  0.000000D+00
    221   0.000000D+00  0.000000D+00  0.000000D+00  0.000000D+00  0.000000D+00
    222   0.000000D+00  0.000000D+00  0.000000D+00  0.000000D+00  0.000000D+00
    223   0.000000D+00  0.000000D+00  0.000000D+00  0.000000D+00  0.000000D+00
    224   0.000000D+00  0.000000D+00  0.000000D+00  0.000000D+00  0.000000D+00
    225   0.000000D+00  0.000000D+00  0.000000D+00  0.000000D+00  0.000000D+00
    226   0.000000D+00  0.000000D+00  0.000000D+00  0.000000D+00  0.000000D+00
    227   0.000000D+00  0.000000D+00  0.000000D+00  0.000000D+00  0.000000D+00
    228   0.000000D+00  0.000000D+00  0.000000D+00  0.000000D+00  0.000000D+00
    229   0.000000D+00  0.000000D+00  0.000000D+00  0.000000D+00  0.000000D+00
    230   0.000000D+00  0.000000D+00  0.000000D+00  0.000000D+00  0.000000D+00
    231   0.000000D+00  0.000000D+00  0.000000D+00  0.000000D+00  0.000000D+00
    232   0.000000D+00  0.000000D+00  0.000000D+00  0.000000D+00  0.000000D+00
    233   0.000000D+00  0.000000D+00  0.000000D+00  0.000000D+00  0.000000D+00
    234   0.000000D+00  0.000000D+00  0.000000D+00  0.000000D+00  0.000000D+00
    235   0.000000D+00  0.000000D+00  0.000000D+00  0.000000D+00  0.000000D+00
    236   0.000000D+00  0.000000D+00  0.000000D+00  0.000000D+00  0.000000D+00
    237   0.000000D+00  0.000000D+00  0.000000D+00  0.000000D+00  0.000000D+00
    238   0.000000D+00  0.000000D+00  0.000000D+00  0.000000D+00  0.000000D+00
    239   0.000000D+00  0.000000D+00  0.000000D+00  0.000000D+00  0.000000D+00
    240   0.000000D+00  0.000000D+00  0.000000D+00  0.000000D+00  0.000000D+00
    241   0.000000D+00  0.000000D+00  0.000000D+00  0.000000D+00  0.000000D+00
    242   0.000000D+00  0.000000D+00  0.000000D+00  0.000000D+00  0.000000D+00
    243   0.000000D+00  0.000000D+00  0.000000D+00  0.000000D+00  0.000000D+00
    244   0.000000D+00  0.000000D+00  0.000000D+00  0.000000D+00  0.000000D+00
    245   0.000000D+00  0.000000D+00  0.000000D+00  0.000000D+00  0.000000D+00
    246   0.000000D+00  0.000000D+00  0.000000D+00  0.000000D+00  0.000000D+00
    247   0.000000D+00  0.000000D+00  0.000000D+00  0.000000D+00  0.000000D+00
    248   0.000000D+00  0.000000D+00  0.000000D+00  0.000000D+00  0.000000D+00
    249   0.000000D+00  0.000000D+00  0.000000D+00  0.000000D+00  0.000000D+00
    250   0.000000D+00  0.000000D+00  0.000000D+00  0.000000D+00  0.000000D+00
    251   0.000000D+00  0.000000D+00  0.000000D+00  0.000000D+00  0.000000D+00
    252   0.000000D+00  0.000000D+00  0.000000D+00  0.000000D+00  0.000000D+00
    253   0.000000D+00  0.000000D+00  0.000000D+00  0.000000D+00  0.000000D+00
    254   0.000000D+00  0.000000D+00  0.000000D+00  0.000000D+00  0.000000D+00
    255   0.000000D+00  0.000000D+00  0.000000D+00  0.000000D+00  0.000000D+00
    256   0.000000D+00  0.000000D+00  0.000000D+00  0.000000D+00  0.000000D+00
    257   0.000000D+00  0.000000D+00  0.000000D+00  0.000000D+00  0.000000D+00
    258   0.000000D+00  0.000000D+00  0.000000D+00  0.000000D+00  0.000000D+00
    259   0.000000D+00  0.000000D+00  0.000000D+00  0.000000D+00  0.000000D+00
    260   0.000000D+00  0.000000D+00  0.000000D+00  0.000000D+00  0.000000D+00
    261   0.000000D+00  0.000000D+00  0.000000D+00  0.000000D+00  0.000000D+00
    262   0.000000D+00  0.000000D+00  0.000000D+00  0.000000D+00  0.000000D+00
    263   0.000000D+00  0.000000D+00  0.000000D+00  0.000000D+00  0.000000D+00
    264   0.000000D+00  0.000000D+00  0.000000D+00  0.000000D+00  0.000000D+00
    265   0.000000D+00  0.000000D+00  0.000000D+00  0.000000D+00  0.000000D+00
    266   0.000000D+00  0.000000D+00  0.000000D+00  0.000000D+00  0.000000D+00
    267   0.000000D+00  0.000000D+00  0.000000D+00  0.000000D+00  0.000000D+00
    268   0.000000D+00  0.000000D+00  0.000000D+00  0.000000D+00  0.000000D+00
    269   0.000000D+00  0.000000D+00  0.000000D+00  0.000000D+00  0.000000D+00
    270   0.000000D+00  0.000000D+00  0.000000D+00  0.000000D+00  0.000000D+00
    271   0.000000D+00  0.000000D+00  0.000000D+00  0.000000D+00  0.000000D+00
    272   0.000000D+00  0.000000D+00  0.000000D+00  0.000000D+00  0.000000D+00
    273   0.000000D+00  0.000000D+00  0.000000D+00  0.000000D+00  0.000000D+00
    274   0.000000D+00  0.000000D+00  0.000000D+00  0.000000D+00  0.000000D+00
    275   0.000000D+00  0.000000D+00  0.000000D+00  0.000000D+00  0.000000D+00
    276   0.000000D+00  0.000000D+00  0.000000D+00  0.000000D+00  0.000000D+00
    277   0.000000D+00  0.000000D+00  0.000000D+00  0.000000D+00  0.000000D+00
    278   0.000000D+00  0.000000D+00  0.000000D+00  0.000000D+00  0.000000D+00
    279   0.000000D+00  0.000000D+00  0.000000D+00  0.000000D+00  0.000000D+00
    280   0.000000D+00  0.000000D+00  0.000000D+00  0.000000D+00  0.000000D+00
    281   0.000000D+00  0.000000D+00  0.000000D+00  0.000000D+00  0.000000D+00
    282   0.000000D+00  0.000000D+00  0.000000D+00  0.000000D+00  0.000000D+00
    283   0.000000D+00  0.000000D+00  0.000000D+00  0.000000D+00  0.000000D+00
    284   0.000000D+00  0.000000D+00  0.000000D+00  0.000000D+00  0.000000D+00
    285   0.000000D+00  0.000000D+00  0.000000D+00  0.000000D+00  0.000000D+00
    286   0.000000D+00  0.000000D+00  0.000000D+00  0.000000D+00  0.000000D+00
    287   0.000000D+00  0.000000D+00  0.000000D+00  0.000000D+00  0.000000D+00
    288   0.000000D+00  0.000000D+00  0.000000D+00  0.000000D+00  0.000000D+00
    289   0.000000D+00  0.000000D+00  0.000000D+00  0.000000D+00  0.000000D+00
    290   0.000000D+00  0.000000D+00  0.000000D+00  0.000000D+00  0.000000D+00
    291   0.000000D+00  0.000000D+00  0.000000D+00  0.000000D+00  0.000000D+00
    292   0.000000D+00  0.000000D+00  0.000000D+00  0.000000D+00  0.000000D+00
    293   0.000000D+00  0.000000D+00  0.000000D+00  0.000000D+00  0.000000D+00
    294   0.000000D+00  0.000000D+00  0.000000D+00  0.000000D+00  0.000000D+00
    295   0.000000D+00  0.000000D+00  0.000000D+00  0.000000D+00  0.000000D+00
    296   0.000000D+00  0.000000D+00  0.000000D+00  0.000000D+00  0.000000D+00
    297   0.000000D+00  0.000000D+00  0.000000D+00  0.000000D+00  0.000000D+00
    298   0.000000D+00  0.000000D+00  0.000000D+00  0.000000D+00  0.000000D+00
    299   0.000000D+00  0.000000D+00  0.000000D+00  0.000000D+00  0.000000D+00
    300   0.000000D+00  0.000000D+00  0.000000D+00  0.000000D+00  0.000000D+00
    301   0.000000D+00  0.000000D+00  0.000000D+00  0.000000D+00  0.000000D+00
    302   0.000000D+00  0.000000D+00  0.000000D+00  0.000000D+00  0.000000D+00
    303   0.000000D+00  0.000000D+00  0.000000D+00  0.000000D+00  0.000000D+00
    304   0.000000D+00  0.000000D+00  0.000000D+00  0.000000D+00  0.000000D+00
    305   0.000000D+00  0.000000D+00  0.000000D+00  0.000000D+00  0.000000D+00
    306   0.000000D+00  0.000000D+00  0.000000D+00  0.000000D+00  0.000000D+00
    307   0.000000D+00  0.000000D+00  0.000000D+00  0.000000D+00  0.000000D+00
    308   0.000000D+00  0.000000D+00  0.000000D+00  0.000000D+00  0.000000D+00
    309   0.000000D+00  0.000000D+00  0.000000D+00  0.000000D+00  0.000000D+00
    310   0.000000D+00  0.000000D+00  0.000000D+00  0.000000D+00  0.000000D+00
    311   0.000000D+00  0.000000D+00  0.000000D+00  0.000000D+00  0.000000D+00
    312   0.000000D+00  0.000000D+00  0.000000D+00  0.000000D+00  0.000000D+00
    313   0.000000D+00  0.000000D+00  0.000000D+00  0.000000D+00  0.000000D+00
    314   0.000000D+00  0.000000D+00  0.000000D+00  0.000000D+00  0.000000D+00
    315   0.000000D+00  0.000000D+00  0.000000D+00  0.000000D+00  0.000000D+00
    316   0.000000D+00  0.000000D+00  0.000000D+00  0.000000D+00  0.000000D+00
    317   0.000000D+00  0.000000D+00  0.000000D+00  0.000000D+00  0.000000D+00
    318   0.000000D+00  0.000000D+00  0.000000D+00  0.000000D+00  0.000000D+00
    319   0.000000D+00  0.000000D+00  0.000000D+00  0.000000D+00  0.000000D+00
    320   0.000000D+00  0.000000D+00  0.000000D+00  0.000000D+00  0.000000D+00
    321   0.000000D+00  0.000000D+00  0.000000D+00  0.000000D+00  0.000000D+00
    322   0.000000D+00  0.000000D+00  0.000000D+00  0.000000D+00  0.000000D+00
    323   0.000000D+00  0.000000D+00  0.000000D+00  0.000000D+00  0.000000D+00
    324   0.000000D+00  0.000000D+00  0.000000D+00  0.000000D+00  0.000000D+00
    325   0.000000D+00  0.000000D+00  0.000000D+00  0.000000D+00  0.000000D+00
    326   0.000000D+00  0.000000D+00  0.000000D+00  0.000000D+00  0.000000D+00
    327   0.000000D+00  0.000000D+00  0.000000D+00  0.000000D+00  0.000000D+00
    328   0.000000D+00  0.000000D+00  0.000000D+00  0.000000D+00  0.000000D+00
    329   0.000000D+00  0.000000D+00  0.000000D+00  0.000000D+00  0.000000D+00
    330   0.000000D+00  0.000000D+00  0.000000D+00  0.000000D+00  0.000000D+00
    331   0.000000D+00  0.000000D+00  0.000000D+00  0.000000D+00  0.000000D+00
    332   0.000000D+00  0.000000D+00  0.000000D+00  0.000000D+00  0.000000D+00
    333   0.000000D+00  0.000000D+00  0.000000D+00  0.000000D+00  0.000000D+00
    334   0.000000D+00  0.000000D+00  0.000000D+00  0.000000D+00  0.000000D+00
    335   0.000000D+00  0.000000D+00  0.000000D+00  0.000000D+00  0.000000D+00
    336   0.000000D+00  0.000000D+00  0.000000D+00  0.000000D+00  0.000000D+00
    337   0.000000D+00  0.000000D+00  0.000000D+00  0.000000D+00  0.000000D+00
    338   0.000000D+00  0.000000D+00  0.000000D+00  0.000000D+00  0.000000D+00
    339   0.000000D+00  0.000000D+00  0.000000D+00  0.000000D+00  0.000000D+00
    340   0.000000D+00  0.000000D+00  0.000000D+00  0.000000D+00  0.000000D+00
    341   0.000000D+00  0.000000D+00  0.000000D+00  0.000000D+00  0.000000D+00
    342   0.000000D+00  0.000000D+00  0.000000D+00  0.000000D+00  0.000000D+00
    343   0.000000D+00  0.000000D+00  0.000000D+00  0.000000D+00  0.000000D+00
    344   0.000000D+00  0.000000D+00  0.000000D+00  0.000000D+00  0.000000D+00
    345   0.000000D+00  0.000000D+00  0.000000D+00  0.000000D+00  0.000000D+00
    346   0.000000D+00  0.000000D+00  0.000000D+00  0.000000D+00  0.000000D+00
    347   0.000000D+00  0.000000D+00  0.000000D+00  0.000000D+00  0.000000D+00
    348   0.000000D+00  0.000000D+00  0.000000D+00  0.000000D+00  0.000000D+00
    349   0.000000D+00  0.000000D+00  0.000000D+00  0.000000D+00  0.000000D+00
    350   0.000000D+00  0.000000D+00  0.000000D+00  0.000000D+00  0.000000D+00
    351   0.000000D+00  0.000000D+00  0.000000D+00  0.000000D+00  0.000000D+00
    352   0.000000D+00  0.000000D+00  0.000000D+00  0.000000D+00  0.000000D+00
    353   0.000000D+00  0.000000D+00  0.000000D+00  0.000000D+00  0.000000D+00
    354   0.000000D+00  0.000000D+00  0.000000D+00  0.000000D+00  0.000000D+00
    355   0.000000D+00  0.000000D+00  0.000000D+00  0.000000D+00  0.000000D+00
    356   0.000000D+00  0.000000D+00  0.000000D+00  0.000000D+00  0.000000D+00
    357   0.000000D+00  0.000000D+00  0.000000D+00  0.000000D+00  0.000000D+00
    358   0.000000D+00  0.000000D+00  0.000000D+00  0.000000D+00  0.000000D+00
    359   0.000000D+00  0.000000D+00  0.000000D+00  0.000000D+00  0.000000D+00
    360   0.000000D+00  0.000000D+00  0.000000D+00  0.000000D+00  0.000000D+00
    361   0.000000D+00  0.000000D+00  0.000000D+00  0.000000D+00  0.000000D+00
    362   0.000000D+00  0.000000D+00  0.000000D+00  0.000000D+00  0.000000D+00
    363   0.000000D+00  0.000000D+00  0.000000D+00  0.000000D+00  0.000000D+00
    364   0.000000D+00  0.000000D+00  0.000000D+00  0.000000D+00  0.000000D+00
    365   0.000000D+00  0.000000D+00  0.000000D+00  0.000000D+00  0.000000D+00
    366   0.000000D+00  0.133681D-05  0.000000D+00  0.000000D+00 -0.129812D-05
    367   0.151449D-02  0.105158D-01  0.000000D+00  0.000000D+00 -0.424513D-02
    368   0.652265D-02  0.429060D-01  0.000000D+00  0.000000D+00 -0.371954D-02
    369   0.000000D+00  0.000000D+00  0.250855D-02  0.000000D+00  0.000000D+00
    370   0.000000D+00  0.000000D+00  0.000000D+00  0.250855D-02  0.000000D+00
    371   0.435991D-02  0.293123D-01  0.000000D+00  0.000000D+00 -0.900969D-02
    372   0.000000D+00  0.000000D+00  0.406267D-02  0.000000D+00  0.000000D+00
    373   0.000000D+00  0.000000D+00  0.000000D+00  0.406267D-02  0.000000D+00
    374   0.722908D-02  0.473572D-01  0.000000D+00  0.000000D+00  0.104663D-02
    375   0.000000D+00  0.000000D+00  0.000000D+00  0.000000D+00  0.000000D+00
    376   0.000000D+00  0.000000D+00  0.000000D+00  0.000000D+00  0.000000D+00
    377   0.697738D-05  0.122596D-03  0.000000D+00  0.000000D+00 -0.165097D-03
    378   0.439463D-03  0.362827D-02  0.000000D+00  0.000000D+00 -0.280738D-02
    379   0.291520D-02  0.199810D-01  0.000000D+00  0.000000D+00 -0.829337D-02
    380   0.601590D-02  0.396919D-01  0.000000D+00  0.000000D+00 -0.858048D-02
    381   0.000000D+00  0.000000D+00  0.000000D+00  0.000000D+00  0.000000D+00
    382   0.000000D+00  0.000000D+00  0.000000D+00  0.000000D+00  0.000000D+00
    383   0.000000D+00  0.000000D+00  0.000000D+00  0.000000D+00  0.000000D+00
    384   0.000000D+00  0.000000D+00  0.000000D+00  0.000000D+00  0.000000D+00
    385   0.000000D+00  0.000000D+00  0.000000D+00  0.000000D+00  0.000000D+00
    386   0.000000D+00  0.000000D+00  0.000000D+00  0.000000D+00 -0.105337D-05
    387   0.000000D+00  0.000000D+00  0.361264D-04  0.000000D+00  0.000000D+00
    388   0.000000D+00  0.000000D+00  0.000000D+00  0.361264D-04  0.000000D+00
    389   0.260204D-04  0.449465D-03  0.000000D+00  0.000000D+00 -0.601542D-03
    390   0.000000D+00  0.000000D+00  0.149947D-02  0.000000D+00  0.000000D+00
    391   0.000000D+00  0.000000D+00  0.000000D+00  0.149947D-02  0.000000D+00
    392   0.235044D-02  0.176947D-01  0.000000D+00  0.000000D+00 -0.116156D-01
    393   0.000000D+00  0.000000D+00  0.618851D-02  0.000000D+00  0.000000D+00
    394   0.000000D+00  0.000000D+00  0.000000D+00  0.618851D-02  0.000000D+00
    395   0.110220D-01  0.721290D-01  0.000000D+00  0.000000D+00 -0.193492D-01
    396   0.000000D+00  0.000000D+00  0.730429D-02  0.000000D+00  0.000000D+00
    397   0.000000D+00  0.000000D+00  0.000000D+00  0.730429D-02  0.000000D+00
    398   0.131132D-01  0.850644D-01  0.000000D+00  0.000000D+00 -0.664017D-02
    399   0.000000D+00  0.000000D+00  0.000000D+00  0.000000D+00  0.000000D+00
    400   0.000000D+00  0.000000D+00  0.000000D+00  0.000000D+00  0.000000D+00
    401   0.000000D+00  0.000000D+00  0.000000D+00  0.000000D+00  0.000000D+00
    402   0.000000D+00  0.000000D+00  0.000000D+00  0.000000D+00  0.000000D+00
    403   0.000000D+00  0.000000D+00  0.000000D+00  0.000000D+00  0.000000D+00
    404   0.000000D+00  0.000000D+00  0.000000D+00  0.000000D+00  0.000000D+00
    405   0.000000D+00  0.000000D+00  0.000000D+00  0.000000D+00  0.000000D+00
    406   0.000000D+00  0.000000D+00  0.000000D+00  0.000000D+00  0.000000D+00
    407   0.000000D+00  0.000000D+00  0.000000D+00  0.000000D+00  0.000000D+00
    408   0.000000D+00  0.000000D+00  0.000000D+00  0.000000D+00  0.000000D+00
    409   0.000000D+00  0.390327D-05  0.000000D+00  0.000000D+00 -0.844890D-05
    410   0.000000D+00  0.000000D+00  0.000000D+00  0.000000D+00  0.000000D+00
    411   0.000000D+00  0.000000D+00  0.000000D+00  0.000000D+00  0.000000D+00
    412   0.000000D+00  0.000000D+00  0.000000D+00  0.000000D+00  0.000000D+00
    413   0.000000D+00  0.000000D+00  0.000000D+00  0.000000D+00  0.000000D+00
    414   0.789352D-04  0.123607D-02  0.000000D+00  0.000000D+00 -0.159856D-02
    415   0.000000D+00  0.000000D+00  0.172952D-03  0.000000D+00  0.000000D+00
    416   0.000000D+00  0.000000D+00  0.000000D+00  0.172952D-03  0.000000D+00
    417   0.000000D+00  0.000000D+00  0.000000D+00  0.000000D+00  0.000000D+00
    418   0.000000D+00  0.000000D+00  0.000000D+00  0.000000D+00  0.000000D+00
    419   0.398184D-02  0.294595D-01  0.000000D+00  0.000000D+00 -0.194670D-01
    420   0.000000D+00  0.000000D+00  0.433083D-02  0.000000D+00  0.000000D+00
    421   0.000000D+00  0.000000D+00  0.000000D+00  0.433083D-02  0.000000D+00
    422   0.000000D+00  0.000000D+00  0.000000D+00  0.000000D+00  0.000000D+00
    423   0.000000D+00  0.000000D+00  0.000000D+00  0.000000D+00  0.000000D+00
    424   0.161486D-01  0.103429D+00  0.000000D+00  0.000000D+00 -0.275463D-01
    425   0.000000D+00  0.000000D+00  0.154019D-01  0.000000D+00  0.000000D+00
    426   0.000000D+00  0.000000D+00  0.000000D+00  0.154019D-01  0.000000D+00
    427   0.000000D+00  0.000000D+00  0.000000D+00  0.000000D+00  0.000000D+00
    428   0.000000D+00  0.000000D+00  0.000000D+00  0.000000D+00  0.000000D+00
    429   0.180398D-01  0.114718D+00  0.000000D+00  0.000000D+00 -0.599272D-02
    430   0.000000D+00  0.000000D+00  0.170942D-01  0.000000D+00  0.000000D+00
    431   0.000000D+00  0.000000D+00  0.000000D+00  0.170942D-01  0.000000D+00
    432   0.000000D+00  0.000000D+00  0.000000D+00  0.000000D+00  0.000000D+00
    433   0.000000D+00  0.000000D+00  0.000000D+00  0.000000D+00  0.000000D+00
    434   0.000000D+00  0.000000D+00  0.000000D+00  0.000000D+00  0.000000D+00
    435   0.000000D+00  0.000000D+00  0.000000D+00  0.000000D+00  0.000000D+00
    436   0.000000D+00  0.000000D+00  0.000000D+00  0.000000D+00  0.000000D+00
    437   0.000000D+00  0.000000D+00  0.000000D+00  0.000000D+00  0.000000D+00
    438   0.000000D+00  0.000000D+00  0.000000D+00  0.000000D+00  0.000000D+00
    439   0.000000D+00  0.000000D+00  0.000000D+00  0.000000D+00  0.000000D+00
    440   0.000000D+00  0.000000D+00  0.000000D+00  0.000000D+00  0.000000D+00
    441   0.000000D+00  0.000000D+00  0.000000D+00  0.000000D+00  0.000000D+00
    442   0.000000D+00  0.000000D+00  0.000000D+00  0.000000D+00  0.000000D+00
    443   0.000000D+00  0.000000D+00  0.000000D+00  0.000000D+00  0.000000D+00
    444   0.000000D+00  0.000000D+00  0.000000D+00  0.000000D+00  0.000000D+00
    445   0.000000D+00  0.000000D+00  0.000000D+00  0.000000D+00  0.000000D+00
    446   0.000000D+00  0.000000D+00  0.000000D+00  0.000000D+00  0.000000D+00
    447   0.000000D+00  0.000000D+00  0.000000D+00  0.000000D+00  0.000000D+00
    448   0.339066D-05  0.157695D-03  0.000000D+00  0.000000D+00 -0.269179D-03
    449   0.000000D+00  0.000000D+00  0.300456D-04  0.000000D+00  0.000000D+00
    450   0.000000D+00  0.000000D+00  0.000000D+00  0.300456D-04  0.000000D+00
    451   0.000000D+00  0.000000D+00  0.000000D+00  0.000000D+00  0.000000D+00
    452   0.000000D+00  0.000000D+00  0.000000D+00  0.000000D+00  0.000000D+00
    453   0.000000D+00  0.000000D+00  0.000000D+00  0.000000D+00  0.000000D+00
    454   0.000000D+00  0.000000D+00  0.000000D+00  0.000000D+00  0.000000D+00
    455   0.139369D-02  0.127273D-01  0.000000D+00  0.000000D+00 -0.120164D-01
    456   0.000000D+00  0.000000D+00  0.260321D-02  0.000000D+00  0.000000D+00
    457   0.000000D+00  0.000000D+00  0.000000D+00  0.260321D-02  0.000000D+00
    458   0.000000D+00  0.000000D+00  0.000000D+00  0.000000D+00  0.000000D+00
    459   0.000000D+00  0.000000D+00  0.000000D+00  0.000000D+00  0.000000D+00
    460   0.000000D+00  0.000000D+00  0.000000D+00  0.000000D+00  0.000000D+00
    461   0.000000D+00  0.000000D+00  0.000000D+00  0.000000D+00  0.000000D+00
    462   0.149573D-01  0.959167D-01  0.000000D+00  0.000000D+00 -0.385895D-01
    463   0.000000D+00  0.000000D+00  0.201991D-01  0.000000D+00  0.000000D+00
    464   0.000000D+00  0.000000D+00  0.000000D+00  0.201991D-01  0.000000D+00
    465   0.000000D+00  0.000000D+00  0.000000D+00  0.000000D+00  0.000000D+00
    466   0.000000D+00  0.000000D+00  0.000000D+00  0.000000D+00  0.000000D+00
    467   0.000000D+00  0.000000D+00  0.000000D+00  0.000000D+00  0.000000D+00
    468   0.000000D+00  0.000000D+00  0.000000D+00  0.000000D+00  0.000000D+00
    469   0.239349D-01  0.147636D+00  0.000000D+00  0.000000D+00 -0.128044D-01
    470   0.000000D+00  0.000000D+00  0.312043D-01  0.000000D+00  0.000000D+00
    471   0.000000D+00  0.000000D+00  0.000000D+00  0.312043D-01  0.000000D+00
    472   0.000000D+00  0.000000D+00  0.000000D+00  0.000000D+00  0.000000D+00
    473   0.000000D+00  0.000000D+00  0.000000D+00  0.000000D+00  0.000000D+00
    474   0.000000D+00  0.000000D+00  0.000000D+00  0.000000D+00  0.000000D+00
    475   0.000000D+00  0.000000D+00  0.000000D+00  0.000000D+00  0.000000D+00
    476   0.000000D+00  0.000000D+00  0.000000D+00  0.000000D+00  0.000000D+00
    477   0.000000D+00  0.000000D+00  0.000000D+00  0.000000D+00  0.000000D+00
    478   0.000000D+00  0.000000D+00  0.000000D+00  0.000000D+00  0.000000D+00
    479   0.000000D+00  0.000000D+00  0.000000D+00  0.000000D+00  0.000000D+00
    480   0.000000D+00  0.000000D+00  0.000000D+00  0.000000D+00  0.000000D+00
    481   0.000000D+00  0.000000D+00  0.000000D+00  0.000000D+00  0.000000D+00
    482   0.000000D+00  0.000000D+00  0.000000D+00  0.000000D+00  0.000000D+00
    483   0.000000D+00  0.000000D+00  0.000000D+00  0.000000D+00  0.000000D+00
    484   0.000000D+00  0.000000D+00  0.000000D+00  0.000000D+00  0.000000D+00
    485   0.000000D+00  0.169851D-05  0.000000D+00  0.000000D+00 -0.418600D-05
    486   0.000000D+00  0.000000D+00  0.000000D+00  0.000000D+00  0.000000D+00
    487   0.000000D+00  0.000000D+00  0.000000D+00  0.000000D+00  0.000000D+00
    488   0.000000D+00  0.000000D+00  0.000000D+00  0.000000D+00  0.000000D+00
    489   0.000000D+00  0.000000D+00  0.000000D+00  0.000000D+00  0.000000D+00
    490   0.000000D+00  0.000000D+00  0.000000D+00  0.000000D+00  0.000000D+00
    491   0.000000D+00  0.000000D+00  0.000000D+00  0.000000D+00  0.000000D+00
    492   0.000000D+00  0.000000D+00  0.000000D+00  0.000000D+00  0.000000D+00
    493   0.000000D+00  0.000000D+00  0.000000D+00  0.000000D+00  0.000000D+00
    494   0.754061D-04  0.149288D-02  0.000000D+00  0.000000D+00 -0.211878D-02
    495   0.000000D+00  0.000000D+00  0.377538D-03  0.000000D+00  0.000000D+00
    496   0.000000D+00  0.000000D+00  0.000000D+00  0.377538D-03  0.000000D+00
    497   0.000000D+00  0.000000D+00  0.000000D+00  0.000000D+00  0.000000D+00
    498   0.000000D+00  0.000000D+00  0.000000D+00  0.000000D+00  0.000000D+00
    499   0.000000D+00  0.000000D+00  0.000000D+00  0.000000D+00  0.000000D+00
    500   0.000000D+00  0.000000D+00  0.000000D+00  0.000000D+00  0.000000D+00
    501   0.000000D+00  0.000000D+00  0.000000D+00  0.000000D+00  0.000000D+00
    502   0.000000D+00  0.000000D+00  0.000000D+00  0.000000D+00  0.000000D+00
    503   0.802030D-02  0.554548D-01  0.000000D+00  0.000000D+00 -0.361066D-01
    504   0.000000D+00  0.000000D+00  0.149770D-01  0.000000D+00  0.000000D+00
[...]

                         Single Excitations  =    -0.001228 A.U.

                          Total second order =    -0.457939 A.U.

                         E2(CBS) - E2(Dir) =      -0.003287 A.U.

 E2(CBS)=      -0.459467 CBS-Int=       0.001528 OIii=       1.560067

 **********************************************************************

            Population analysis using the SCF density.

 **********************************************************************

 Orbital symmetries:
       Occupied  (SG) (SG) (SG) (SG) (PI) (PI) (SG) (SG) (PI) (PI)
                 (SG) (SG) (PI) (PI) (DLTA) (DLTA)
       Virtual   (SG) (PI) (PI) (SG) (SG) (PI) (PI) (SG) (DLTA)
                 (DLTA) (PI) (PI) (SG) (PI) (PI) (SG) (DLTA) (DLTA)
                 (SG) (PI) (PI) (SG) (PI) (PI) (SG) (PI) (PI) (SG)
                 (DLTA) (DLTA) (PHI) (PHI) (SG) (PI) (PI) (SG)
                 (DLTA) (DLTA) (PI) (PI) (SG) (PI) (PI) (SG) (DLTA)
                 (DLTA) (SG) (PHI) (PHI) (?A) (?A) (PI) (PI) (DLTA)
                 (DLTA) (PI) (PI) (SG) (SG) (SG) (PI) (PI) (DLTA)
                 (DLTA) (PHI) (PHI) (SG) (PI) (PI) (DLTA) (DLTA)
                 (PHI) (PHI) (SG) (PI) (PI) (?A) (?A) (?B) (?B)
                 (SG) (PHI) (PHI) (PI) (PI) (DLTA) (DLTA) (DLTA)
                 (DLTA) (SG) (PI) (PI) (SG) (DLTA) (DLTA) (PI)
                 (PI) (SG) (PI) (PI) (SG) (PHI) (PHI) (?A) (?A)
                 (SG) (PI) (PI) (?A) (?A) (DLTA) (DLTA) (SG) (SG)
                 (SG) (?B) (?B) (PI) (PI) (DLTA) (DLTA) (SG) (PHI)
                 (PHI) (PHI) (PHI) (PI) (PI) (?A) (?A) (SG) (DLTA)
                 (DLTA) (PI) (PI) (PHI) (PHI) (PI) (PI) (SG) (DLTA)
                 (DLTA) (PHI) (PHI) (SG) (DLTA) (DLTA) (SG) (DLTA)
                 (DLTA) (PI) (PI) (?A) (?A) (PI) (PI) (PI) (PI)
                 (SG) (?B) (?B) (DLTA) (DLTA) (SG) (?B) (?B) (SG)
                 (PHI) (PHI) (PI) (PI) (?C) (?C) (SG) (SG) (SG)
                 (?A) (?A) (DLTA) (DLTA) (?B) (?B) (PHI) (PHI)
                 (PI) (PI) (SG) (SG) (PI) (PI) (DLTA) (DLTA) (DLTA)
                 (DLTA) (?A) (?A) (PI) (PI) (PHI) (PHI) (SG) (?A)
                 (?A) (PI) (PI) (PHI) (PHI) (SG) (PI) (PI) (SG)
                 (?A) (?A) (DLTA) (DLTA) (PHI) (PHI) (PHI) (PHI)
                 (DLTA) (DLTA) (SG) (DLTA) (DLTA) (SG) (SG) (?B)
                 (?B) (PHI) (PHI) (?A) (?A) (SG) (PI) (PI) (SG)
                 (SG) (SG) (PI) (PI) (PI) (PI) (SG) (DLTA) (DLTA)
                 (PI) (PI) (?B) (?B) (DLTA) (DLTA) (SG) (PHI) (PHI)
                 (DLTA) (DLTA) (SG) (PI) (PI) (SG) (?A) (?A) (PI)
                 (PI) (DLTA) (DLTA) (SG) (DLTA) (DLTA) (PHI) (PHI)
                 (SG) (?B) (?B) (PI) (PI) (?A) (?A) (PI) (PI) (PHI)
                 (PHI) (DLTA) (DLTA) (SG) (?B) (?B) (PI) (PI) (?A)
                 (?A) (PI) (PI) (SG) (PHI) (PHI) (DLTA) (DLTA)
                 (SG) (PI) (PI) (?A) (?A) (PHI) (PHI) (DLTA) (DLTA)
                 (?A) (?A) (SG) (PHI) (PHI) (PI) (PI) (SG) (SG)
                 (?C) (?C) (PHI) (PHI) (?B) (?B) (DLTA) (DLTA)
                 (PHI) (PHI) (SG) (?A) (?A) (PI) (PI) (SG) (SG)
                 (DLTA) (DLTA) (PI) (PI) (SG) (PHI) (PHI) (PI)
                 (PI) (DLTA) (DLTA) (SG) (PI) (PI) (DLTA) (DLTA)
                 (SG) (SG) (DLTA) (DLTA) (PI) (PI) (SG) (PI) (PI)
                 (SG) (SG) (PI) (PI) (?B) (?B) (DLTA) (DLTA) (SG)
                 (?A) (?A) (DLTA) (DLTA) (SG) (SG) (?B) (?B) (PHI)
                 (PHI) (?A) (?A) (PI) (PI) (PHI) (PHI) (SG) (DLTA)
                 (DLTA) (SG) (PI) (PI) (?B) (?B) (?A) (?A) (PHI)
                 (PHI) (DLTA) (DLTA) (?B) (?B) (SG) (?A) (?A) (SG)
                 (PI) (PI) (PHI) (PHI) (PI) (PI) (DLTA) (DLTA)
                 (SG) (PI) (PI) (PI) (PI) (SG) (?A) (?A) (PHI)
                 (PHI) (DLTA) (DLTA) (PHI) (PHI) (SG) (PI) (PI)
                 (SG) (DLTA) (DLTA) (?A) (?A) (PHI) (PHI) (PI)
                 (PI) (SG) (PHI) (PHI) (DLTA) (DLTA) (DLTA) (DLTA)
                 (SG) (SG) (?B) (?B) (?C) (?C) (?D) (?D) (?A) (?A)
                 (PI) (PI) (PHI) (PHI) (DLTA) (DLTA) (SG) (PI)
                 (PI) (SG) (DLTA) (DLTA) (PI) (PI) (SG) (PI) (PI)
                 (?B) (?B) (SG) (SG) (?C) (?C) (SG) (?A) (?A) (PHI)
                 (PHI) (DLTA) (DLTA) (SG) (PI) (PI) (SG) (?B) (?B)
                 (SG) (SG) (?C) (?C) (?A) (?A) (PHI) (PHI) (DLTA)
                 (DLTA) (SG) (PI) (PI) (SG) (SG) (SG) (DLTA) (DLTA)
                 (?B) (?B) (?A) (?A) (PI) (PI) (PHI) (PHI) (PI)
                 (PI) (DLTA) (DLTA) (PI) (PI) (SG) (?B) (?B) (SG)
                 (SG) (?A) (?A) (PHI) (PHI) (DLTA) (DLTA) (SG)
                 (PI) (PI) (SG) (SG) (?A) (?A) (?B) (?B) (PHI)
                 (PHI) (DLTA) (DLTA) (?B) (?B) (SG) (PI) (PI) (?A)
                 (?A) (PHI) (PHI) (DLTA) (DLTA) (PI) (PI) (SG)
                 (PHI) (PHI) (DLTA) (DLTA) (PI) (PI) (SG) (?A)
                 (?A) (PHI) (PHI) (DLTA) (DLTA) (SG) (PI) (PI)
                 (DLTA) (DLTA) (PI) (PI) (SG) (PHI) (PHI) (DLTA)
                 (DLTA) (?A) (?A) (PI) (PI) (PHI) (PHI) (DLTA)
                 (DLTA) (PI) (PI) (SG) (SG) (PI) (PI) (SG) (SG)
                 (SG)
 The electronic state is 3-SG.
 Alpha  occ. eigenvalues -- -201.81684 -24.20959 -20.76692 -20.35964 -20.35964
 Alpha  occ. eigenvalues --  -20.35841  -3.54719  -2.43197  -2.43197  -2.36866
 Alpha  occ. eigenvalues --   -1.41928  -0.75384  -0.75384  -0.73403  -0.71096
 Alpha  occ. eigenvalues --   -0.71096
 Alpha virt. eigenvalues --   -0.24582  -0.16633  -0.16633  -0.15794  -0.08087
 Alpha virt. eigenvalues --   -0.08026  -0.08026  -0.06586  -0.05727  -0.05727
 Alpha virt. eigenvalues --   -0.05002  -0.05002  -0.04141  -0.02307  -0.02307
 Alpha virt. eigenvalues --    0.00454   0.01150   0.01150   0.02071   0.02616
 Alpha virt. eigenvalues --    0.02616   0.05115   0.05320   0.05320   0.06164
 Alpha virt. eigenvalues --    0.12545   0.12545   0.15709   0.16447   0.16447
 Alpha virt. eigenvalues --    0.16901   0.16901   0.19254   0.20502   0.20502
 Alpha virt. eigenvalues --    0.23225   0.24818   0.24818   0.29401   0.29401
 Alpha virt. eigenvalues --    0.33374   0.33758   0.33758   0.37616   0.41158
 Alpha virt. eigenvalues --    0.41158   0.45124   0.45588   0.45588   0.46822
 Alpha virt. eigenvalues --    0.46822   0.48061   0.48061   0.48817   0.48817
 Alpha virt. eigenvalues --    0.51548   0.51548   0.51573   0.55468   0.60169
 Alpha virt. eigenvalues --    0.62314   0.62314   0.70527   0.70527   0.70843
 Alpha virt. eigenvalues --    0.70843   0.82007   0.83085   0.83085   0.85227
 Alpha virt. eigenvalues --    0.85227   0.88272   0.88272   0.89391   0.89926
 Alpha virt. eigenvalues --    0.89926   0.93726   0.93726   0.93947   0.93947
 Alpha virt. eigenvalues --    1.02857   1.03026   1.03026   1.03397   1.03397
 Alpha virt. eigenvalues --    1.03400   1.03400   1.09192   1.09192   1.10989
 Alpha virt. eigenvalues --    1.16652   1.16652   1.20042   1.20886   1.20886
 Alpha virt. eigenvalues --    1.22671   1.22671   1.25567   1.31995   1.31995
 Alpha virt. eigenvalues --    1.38486   1.46766   1.46766   1.52288   1.52288
 Alpha virt. eigenvalues --    1.58078   1.60417   1.60417   1.64148   1.64148
 Alpha virt. eigenvalues --    1.68859   1.68859   1.69825   1.72180   1.72180
 Alpha virt. eigenvalues --    1.72492   1.72492   1.80552   1.80552   1.80600
 Alpha virt. eigenvalues --    1.80600   1.80920   1.82845   1.82845   1.87298
 Alpha virt. eigenvalues --    1.87298   1.98119   1.98119   1.98367   1.98367
 Alpha virt. eigenvalues --    2.00070   2.04477   2.04477   2.11587   2.11587
 Alpha virt. eigenvalues --    2.16993   2.16993   2.19258   2.19258   2.19615
 Alpha virt. eigenvalues --    2.25567   2.25567   2.29510   2.29510   2.35596
 Alpha virt. eigenvalues --    2.35596   2.36176   2.42158   2.47456   2.47456
 Alpha virt. eigenvalues --    2.58729   2.58729   2.67099   2.67099   2.68297
 Alpha virt. eigenvalues --    2.68297   2.69396   2.69396   2.69790   2.73464
 Alpha virt. eigenvalues --    2.73464   2.81996   2.81996   2.82302   2.87560
 Alpha virt. eigenvalues --    2.87642   2.87642   2.96632   2.96632   3.08998
 Alpha virt. eigenvalues --    3.08998   3.10685   3.10685   3.11378   3.11378
 Alpha virt. eigenvalues --    3.22512   3.25671   3.25671   3.39764   3.39764
 Alpha virt. eigenvalues --    3.41637   3.41637   3.45974   3.45974   3.47946
 Alpha virt. eigenvalues --    3.47946   3.54298   3.55085   3.59653   3.59653
 Alpha virt. eigenvalues --    3.60330   3.60330   3.68127   3.68127   3.71592
 Alpha virt. eigenvalues --    3.71592   3.75434   3.75434   3.81081   3.81081
 Alpha virt. eigenvalues --    3.82909   3.92611   3.92611   3.98486   3.98486
 Alpha virt. eigenvalues --    4.08231   4.08231   4.09838   4.21375   4.21375
 Alpha virt. eigenvalues --    4.28426   4.30644   4.30644   4.33150   4.33150
 Alpha virt. eigenvalues --    4.35522   4.35522   4.52817   4.52817   4.57234
 Alpha virt. eigenvalues --    4.57234   4.60274   4.81074   4.81074   4.85557
 Alpha virt. eigenvalues --    4.85557   4.88189   4.88189   4.95680   4.95680
 Alpha virt. eigenvalues --    5.00965   5.00965   5.04286   5.05843   5.05843
 Alpha virt. eigenvalues --    5.08447   5.08447   5.16663   5.16663   5.16891
 Alpha virt. eigenvalues --    5.27063   5.27063   5.30337   5.41979   5.41979
 Alpha virt. eigenvalues --    5.45231   5.45231   5.47411   5.47411   5.47910
 Alpha virt. eigenvalues --    5.47910   5.65345   5.75680   5.75680   5.89204
 Alpha virt. eigenvalues --    5.89204   5.95962   6.01782   6.01782   6.29770
 Alpha virt. eigenvalues --    6.33738   6.33738   6.41539   6.41539   6.41618
 Alpha virt. eigenvalues --    6.41618   6.52437   6.70609   6.70609   6.71295
 Alpha virt. eigenvalues --    6.71295   6.71731   6.79734   6.79734   6.81476
 Alpha virt. eigenvalues --    6.81476   6.85387   6.85387   7.05781   7.05781
 Alpha virt. eigenvalues --    7.23629   7.23629   7.38853   7.38853   7.43083
 Alpha virt. eigenvalues --    7.44950   7.44950   7.50819   7.50819   7.68687
 Alpha virt. eigenvalues --    7.68687   7.97882   7.97882   8.01168   8.03489
 Alpha virt. eigenvalues --    8.03489   8.64277   8.64277   9.06879   9.07796
 Alpha virt. eigenvalues --    9.07796   9.18426   9.18426   9.24725   9.24725
 Alpha virt. eigenvalues --    9.30400   9.30400   9.36629   9.36629   9.46170
 Alpha virt. eigenvalues --    9.51278   9.51278   9.61292   9.61292   9.80750
 Alpha virt. eigenvalues --    9.80750   9.80852   9.80852   9.83297   9.83297
 Alpha virt. eigenvalues --    9.84612   9.84612   9.97097   9.97097  10.10052
 Alpha virt. eigenvalues --   10.10052  10.12804  10.14012  10.14012  10.14912
 Alpha virt. eigenvalues --   10.14912  10.15831  10.36513  10.37852  10.37852
 Alpha virt. eigenvalues --   10.41177  10.41177  10.49362  10.79876  10.79876
 Alpha virt. eigenvalues --   10.80851  10.80851  10.84341  10.84341  10.88426
 Alpha virt. eigenvalues --   11.06901  11.06901  11.28550  11.28550  11.28849
 Alpha virt. eigenvalues --   11.44135  11.64214  11.64214  12.30377  12.30377
 Alpha virt. eigenvalues --   12.63323  12.68660  12.68660  13.12221  13.12221
 Alpha virt. eigenvalues --   13.18277  13.18277  13.21213  13.21213  13.22947
 Alpha virt. eigenvalues --   13.22947  13.25347  13.26882  13.26882  13.41255
 Alpha virt. eigenvalues --   13.41255  13.46687  13.46687  13.49261  13.49261
 Alpha virt. eigenvalues --   13.67263  13.67263  13.78964  13.78964  13.93184
 Alpha virt. eigenvalues --   13.93184  14.16596  14.16596  14.41472  14.96598
 Alpha virt. eigenvalues --   14.96598  15.11584  15.77134  15.77134  15.97762
 Alpha virt. eigenvalues --   15.97762  16.01287  16.01287  16.26610  16.26610
 Alpha virt. eigenvalues --   16.88887  16.88887  16.93110  16.93110  16.95649
 Alpha virt. eigenvalues --   17.10364  17.10364  17.11783  17.31885  17.31885
 Alpha virt. eigenvalues --   17.38799  17.38799  17.77076  17.77076  17.94000
 Alpha virt. eigenvalues --   17.94000  18.14828  18.37833  18.37833  18.88102
 Alpha virt. eigenvalues --   18.88102  18.92732  19.68714  19.68714  19.82260
 Alpha virt. eigenvalues --   19.82260  20.01985  20.01985  20.05902  20.05902
 Alpha virt. eigenvalues --   20.14068  20.36739  20.36739  20.51062  20.64927
 Alpha virt. eigenvalues --   20.64927  21.35917  21.35917  21.54378  21.54378
 Alpha virt. eigenvalues --   21.56293  21.56293  21.63652  21.76044  21.76044
 Alpha virt. eigenvalues --   21.91072  21.91072  22.18270  22.18270  22.23233
 Alpha virt. eigenvalues --   22.23233  22.23385  22.23385  22.24172  22.24172
 Alpha virt. eigenvalues --   22.25742  22.25742  22.26577  22.26577  22.39213
 Alpha virt. eigenvalues --   22.39213  22.43977  22.43977  22.56520  22.56520
 Alpha virt. eigenvalues --   22.57380  22.68422  22.68422  22.92267  22.99707
 Alpha virt. eigenvalues --   22.99707  23.45092  23.45092  23.81802  24.23480
 Alpha virt. eigenvalues --   24.23480  25.08846  25.08846  25.09029  25.09029
 Alpha virt. eigenvalues --   25.10265  25.10265  25.10889  25.19107  25.19107
 Alpha virt. eigenvalues --   25.62332  25.62332  26.29571  26.29571  26.43717
 Alpha virt. eigenvalues --   26.66583  26.66583  26.91628  29.05181  29.05181
 Alpha virt. eigenvalues --   29.05722  29.05722  29.08158  29.08158  29.13104
 Alpha virt. eigenvalues --   29.13104  29.36031  29.36031  29.52863  29.52863
 Alpha virt. eigenvalues --   29.53651  29.57461  29.57461  29.76078  33.72399
 Alpha virt. eigenvalues --   33.72399  33.72581  33.72581  33.77780  33.77780
 Alpha virt. eigenvalues --   33.83301  33.83301  33.88641  33.88641  34.03608
 Alpha virt. eigenvalues --   34.03608  34.23161  34.23161  34.25942  34.25942
 Alpha virt. eigenvalues --   34.45260  34.45260  34.55588  35.02180  35.02180
 Alpha virt. eigenvalues --   35.04265  35.04265  35.09864  35.09864  35.23672
 Alpha virt. eigenvalues --   35.23672  35.54099  35.54099  35.66178  36.15028
 Alpha virt. eigenvalues --   36.15028  37.02282  37.90660  37.90660  37.90842
 Alpha virt. eigenvalues --   37.90842  37.90874  38.04488  38.04488  38.47239
 Alpha virt. eigenvalues --   38.47239  38.72162  38.72162  38.76377  38.81212
 Alpha virt. eigenvalues --   38.81212  38.82309  38.82309  38.98520  38.98520
 Alpha virt. eigenvalues --   39.25356  39.25356  39.44608  39.44608  39.96812
 Alpha virt. eigenvalues --   41.44785  41.44785  41.85899  41.85899  42.29915
 Alpha virt. eigenvalues --   42.29915  42.57927  42.59639  42.59639  42.76126
 Alpha virt. eigenvalues --   42.76126  43.17353  43.17353  43.83718  43.99651
 Alpha virt. eigenvalues --   43.99651  46.62912  46.62912  47.22262  47.22262
 Alpha virt. eigenvalues --   47.90348  50.62135  50.62135  50.92907  50.92907
 Alpha virt. eigenvalues --   51.66732  51.66732  51.69830  51.69830  51.80478
 Alpha virt. eigenvalues --   51.80478  52.29473  52.29473  52.47641  52.47641
 Alpha virt. eigenvalues --   52.59850  52.97527  53.21724  53.21724  55.79458
 Alpha virt. eigenvalues --  108.46628 533.03707
          Condensed to atoms (all electrons):
              1          2
     1  V   21.032410   0.342849
     2  O    0.342849   8.281891
 Mulliken atomic charges:
              1
     1  V    1.624740
     2  O   -0.624740
 Sum of Mulliken atomic charges =   1.00000
 Mulliken charges with hydrogens summed into heavy atoms:
              1
     1  V    1.624740
     2  O   -0.624740
 Sum of Mulliken charges with hydrogens summed into heavy atoms =   1.00000
          Atomic-Atomic Spin Densities.
              1          2
     1  V    1.996004   0.001941
     2  O    0.001941   0.000115
 Mulliken atomic spin densities:
              1
     1  V    1.997945
     2  O    0.002055
 Sum of Mulliken atomic spin densities =   2.00000
 Electronic spatial extent (au):  <R**2>=             85.6175
 Charge=              1.0000 electrons
 Dipole moment (field-independent basis, Debye):
    X=              0.0000    Y=              0.0000    Z=              7.4782  Tot=              7.4782
 Quadrupole moment (field-independent basis, Debye-Ang):
   XX=            -14.9073   YY=            -14.9073   ZZ=            -15.4287
   XY=              0.0000   XZ=              0.0000   YZ=              0.0000
 Traceless Quadrupole moment (field-independent basis, Debye-Ang):
   XX=              0.1738   YY=              0.1738   ZZ=             -0.3476
   XY=              0.0000   XZ=              0.0000   YZ=              0.0000
 Octapole moment (field-independent basis, Debye-Ang**2):
  XXX=              0.0000  YYY=              0.0000  ZZZ=             14.8376  XYY=              0.0000
  XXY=              0.0000  XXZ=              4.3759  XZZ=              0.0000  YZZ=              0.0000
  YYZ=              4.3759  XYZ=              0.0000
 Hexadecapole moment (field-independent basis, Debye-Ang**3):
 XXXX=            -10.9741 YYYY=            -10.9741 ZZZZ=            -64.3308 XXXY=              0.0000
 XXXZ=              0.0000 YYYX=              0.0000 YYYZ=              0.0000 ZZZX=              0.0000
 ZZZY=              0.0000 XXYY=             -3.6580 XXZZ=            -12.6293 YYZZ=            -12.6293
 XXYZ=              0.0000 YYXZ=              0.0000 ZZXY=              0.0000
 N-N= 6.217663242692D+01 E-N=-3.771739483602D+03  KE= 1.521147914812D+03
                          Isotropic Fermi Contact Couplings
        Atom                 a.u.       MegaHertz       Gauss      10(-4) cm-1
     1  V(51)              0.00000       0.00000       0.00000       0.00000
     2  O(17)              0.00000       0.00000       0.00000       0.00000
 --------------------------------------------------------
       Center         ----  Spin Dipole Couplings  ----
                      3XX-RR        3YY-RR        3ZZ-RR
 --------------------------------------------------------
     1   Atom        1.520343      1.520343     -3.040686
     2   Atom       -0.051241     -0.051241      0.102482
 --------------------------------------------------------
                        XY            XZ            YZ
 --------------------------------------------------------
     1   Atom        0.000000      0.000000      0.000000
     2   Atom        0.000000      0.000000      0.000000
 --------------------------------------------------------


 ---------------------------------------------------------------------------------
              Anisotropic Spin Dipole Couplings in Principal Axis System
 ---------------------------------------------------------------------------------

       Atom             a.u.   MegaHertz   Gauss  10(-4) cm-1        Axes

              Baa    -3.0407  -427.493  -152.540  -142.596  0.0000  0.0000  1.0000
     1 V(51)  Bbb     1.5203   213.747    76.270    71.298  0.0000  1.0000  0.0000
              Bcc     1.5203   213.747    76.270    71.298  1.0000  0.0000  0.0000
 
              Baa    -0.0512     3.708     1.323     1.237  0.0000  1.0000  0.0000
     2 O(17)  Bbb    -0.0512     3.708     1.323     1.237  1.0000  0.0000  0.0000
              Bcc     0.1025    -7.415    -2.646    -2.474  0.0000  0.0000  1.0000
 

 ---------------------------------------------------------------------------------


 Test job not archived.
 1\1\GINC-N35\SP\ROMP2-FC\Gen\O1V1(1+,3)\GPETERSSON\29-Oct-2013\0\\# RO
 MP2 Gen GFinput Int=NoBasisTransform Int(Grid=Ultrafine) IOp(3/32=2,5/
 6=10,8/11=1,9/33=1) Maxdisk=128GB CBSextrapolate(Nmin=25,MinPop) SCF=S
 ymm Guess=Read\\VO+ 3Sg-\\1,3\V\O,1,1.566\\Version=EM64L-G09RevA.02\St
 ate=3-SG\HF=-1017.4971123\MP2=-1017.953293\E2(CBS)=-0.4594674\CBS-Int=
 -0.4579393\OIii=1.5600667\RMSD=2.919e-11\PG=C*V [C*(O1V1)]\\@


 THE ... SCIENTISTS WERE WRONG ... THE MOST PERSISTENT PRINCIPLES 
 OF THE UNIVERSE WERE ACCIDENT AND ERROR.

                          -- FRANK HERBERT IN DUNE
 Job cpu time:  7 days  5 hours 32 minutes 32.8 seconds.
 File lengths (MBytes):  RWF=  38975 Int=      0 D2E=      0 Chk=     40 Scr=      1
 Normal termination of Gaussian 09 at Tue Oct 29 22:36:37 2013.
