 Entering Gaussian System, Link 0=g09
 AtFile(1): 7ZaPa-NR.gbs
 Initial command:
 /share/apps/gaussian/g09root/g09/l1.exe /localscratch/62305/Gau-3290.inp -scrdir=/localscratch/62305/
 Entering Link 1 = /share/apps/gaussian/g09root/g09/l1.exe PID=      3291.
  
 Copyright (c) 1988,1990,1992,1993,1995,1998,2003,2009, Gaussian, Inc.
                  All Rights Reserved.
  
 This is part of the Gaussian(R) 09 program.  It is based on
 the Gaussian(R) 03 system (copyright 2003, Gaussian, Inc.),
 the Gaussian(R) 98 system (copyright 1998, Gaussian, Inc.),
 the Gaussian(R) 94 system (copyright 1995, Gaussian, Inc.),
 the Gaussian 92(TM) system (copyright 1992, Gaussian, Inc.),
 the Gaussian 90(TM) system (copyright 1990, Gaussian, Inc.),
 the Gaussian 88(TM) system (copyright 1988, Gaussian, Inc.),
 the Gaussian 86(TM) system (copyright 1986, Carnegie Mellon
 University), and the Gaussian 82(TM) system (copyright 1983,
 Carnegie Mellon University). Gaussian is a federally registered
 trademark of Gaussian, Inc.
  
 This software contains proprietary and confidential information,
 including trade secrets, belonging to Gaussian, Inc.
  
 This software is provided under written license and may be
 used, copied, transmitted, or stored only in accord with that
 written license.
  
 The following legend is applicable only to US Government
 contracts under FAR:
  
                    RESTRICTED RIGHTS LEGEND
  
 Use, reproduction and disclosure by the US Government is
 subject to restrictions as set forth in subparagraphs (a)
 and (c) of the Commercial Computer Software - Restricted
 Rights clause in FAR 52.227-19.
  
 Gaussian, Inc.
 340 Quinnipiac St., Bldg. 40, Wallingford CT 06492
  
  
 ---------------------------------------------------------------
 Warning -- This program may not be used in any manner that
 competes with the business of Gaussian, Inc. or will provide
 assistance to any competitor of Gaussian, Inc.  The licensee
 of this program is prohibited from giving any competitor of
 Gaussian, Inc. access to this program.  By using this program,
 the user acknowledges that Gaussian, Inc. is engaged in the
 business of creating and licensing software in the field of
 computational chemistry and represents and warrants to the
 licensee that it is not a competitor of Gaussian, Inc. and that
 it will not use this program in any manner prohibited above.
 ---------------------------------------------------------------
  

 Cite this work as:
 Gaussian 09, Revision A.02,
 M. J. Frisch, G. W. Trucks, H. B. Schlegel, G. E. Scuseria, 
 M. A. Robb, J. R. Cheeseman, G. Scalmani, V. Barone, B. Mennucci, 
 G. A. Petersson, H. Nakatsuji, M. Caricato, X. Li, H. P. Hratchian, 
 A. F. Izmaylov, J. Bloino, G. Zheng, J. L. Sonnenberg, M. Hada, 
 M. Ehara, K. Toyota, R. Fukuda, J. Hasegawa, M. Ishida, T. Nakajima, 
 Y. Honda, O. Kitao, H. Nakai, T. Vreven, J. A. Montgomery, Jr., 
 J. E. Peralta, F. Ogliaro, M. Bearpark, J. J. Heyd, E. Brothers, 
 K. N. Kudin, V. N. Staroverov, R. Kobayashi, J. Normand, 
 K. Raghavachari, A. Rendell, J. C. Burant, S. S. Iyengar, J. Tomasi, 
 M. Cossi, N. Rega, J. M. Millam, M. Klene, J. E. Knox, J. B. Cross, 
 V. Bakken, C. Adamo, J. Jaramillo, R. Gomperts, R. E. Stratmann, 
 O. Yazyev, A. J. Austin, R. Cammi, C. Pomelli, J. W. Ochterski, 
 R. L. Martin, K. Morokuma, V. G. Zakrzewski, G. A. Voth, 
 P. Salvador, J. J. Dannenberg, S. Dapprich, A. D. Daniels, 
 O. Farkas, J. B. Foresman, J. V. Ortiz, J. Cioslowski, 
 and D. J. Fox, Gaussian, Inc., Wallingford CT, 2009.
 
 ******************************************
 Gaussian 09:  EM64L-G09RevA.02 11-Jun-2009
                30-Oct-2013 
 ******************************************
 % Mem=64GB
 % Nproc=16
 Will use up to   16 processors via shared memory.
 % Chk=VO-_3Sg.chk
 ----------------------------------------------------------------------
 # ROMP2 Gen GFinput Int=NoBasisTransform Int(Grid=Ultrafine) IOp(3/32=
 2,5/6=10,8/11=1,9/33=1) Maxdisk=128GB CBSextrapolate(Nmin=25,MinPop) S
 CF=(Symm,MaxCycle=500) Guess=Read
 ----------------------------------------------------------------------
 1/38=1/1;
 2/12=2,17=6,18=5,40=1/2;
 3/5=7,11=2,16=1,24=10,25=1,30=1,32=2,60=-1,75=-5,116=101/1,2,3;
 4/5=1,9=4/1;
 5/5=2,6=10,7=500,15=2,38=6/2;
 8/5=-1,10=1,11=1/1;
 9/16=-3,33=1,75=2,81=25,83=4/6,4;
 6/7=2,8=2,9=2,10=2/1;
 99/5=1,9=1/99;
 --------
 VO- 3Sg-
 --------
 Symbolic Z-matrix:
 Charge = -1 Multiplicity = 3
 V
 O                    1     1.615 
 
                          Input orientation:                          
 ---------------------------------------------------------------------
 Center     Atomic      Atomic             Coordinates (Angstroms)
 Number     Number       Type             X           Y           Z
 ---------------------------------------------------------------------
      1         23           0        0.000000    0.000000    0.000000
      2          8           0        0.000000    0.000000    1.615000
 ---------------------------------------------------------------------
 Stoichiometry    OV(1-,3)
 Framework group  C*V[C*(OV)]
 Deg. of freedom     1
 Full point group                 C*V     NOp   4
 Largest Abelian subgroup         C2V     NOp   4
 Largest concise Abelian subgroup C1      NOp   1
                         Standard orientation:                         
 ---------------------------------------------------------------------
 Center     Atomic      Atomic             Coordinates (Angstroms)
 Number     Number       Type             X           Y           Z
 ---------------------------------------------------------------------
      1         23           0        0.000000    0.000000    0.416774
      2          8           0        0.000000    0.000000   -1.198226
 ---------------------------------------------------------------------
 Rotational constants (GHZ):      0.0000000     15.9175388     15.9175388
 General basis read from cards:  (5D, 7F)
 AO basis set in the form of general basis input (Overlap normalization):
      1 0
 S  19 1.00       0.000000000000
      0.3479338350D+08  0.4056629188D-06
      0.6914692640D+07  0.2339342439D-05
      0.1621343920D+07  0.1321165413D-04
      0.4396002670D+06  0.6056905383D-04
      0.1352720610D+06  0.2392777872D-03
      0.4643274850D+05  0.8267296352D-03
      0.1749835110D+05  0.2552064807D-02
      0.7134898380D+04  0.7147933075D-02
      0.3106051320D+04  0.1836138649D-01
      0.1426271630D+04  0.4335626345D-01
      0.6833154180D+03  0.9303444533D-01
      0.3382265700D+03  0.1757196352D+00
      0.1714640560D+03  0.2728849718D+00
      0.8834408300D+02  0.3026106738D+00
      0.4595252500D+02  0.1857703588D+00
      0.2399193900D+02  0.4297759996D-01
      0.1251208100D+02  0.4470121114D-02
      0.6491623000D+01  0.2528610235D-02
      0.3339910000D+01  0.6987135339D-03
 S  15 1.00       0.000000000000
      0.1749835110D+05 -0.1883513065D-05
      0.7134898380D+04 -0.1552788062D-04
      0.3106051320D+04 -0.9054969632D-04
      0.1426271630D+04 -0.5049415240D-03
      0.6833154180D+03 -0.2226844033D-02
      0.3382265700D+03 -0.8912198446D-02
      0.1714640560D+03 -0.2854731852D-01
      0.8834408300D+02 -0.6867407409D-01
      0.4595252500D+02 -0.7656135678D-01
      0.2399193900D+02  0.7437354372D-01
      0.1251208100D+02  0.4054588741D+00
      0.6491623000D+01  0.4806974888D+00
      0.3339910000D+01  0.1599827787D+00
      0.1699802000D+01  0.1128530592D-01
      0.8542310000D+00  0.1120376697D-02
 P  16 1.00       0.000000000000
      0.5172927360D+05  0.3683635374D-05
      0.1327764530D+05  0.3093662226D-04
      0.4204030870D+04  0.1978279514D-03
      0.1563663650D+04  0.9518396247D-03
      0.6564525800D+03  0.3705368216D-02
      0.3012554960D+03  0.1209572570D-01
      0.1473763590D+03  0.3394128848D-01
      0.7539345600D+02  0.8230969871D-01
      0.3975831100D+02  0.1659379124D+00
      0.2138805700D+02  0.2652702379D+00
      0.1164853500D+02  0.3154946174D+00
      0.6386217000D+01  0.2275831195D+00
      0.3507309000D+01  0.7687592488D-01
      0.1919904000D+01  0.9918457259D-02
      0.1041046000D+01  0.6926354578D-03
      0.5545110000D+00  0.1262326856D-03
 S  11 1.00       0.000000000000
      0.1714640560D+03  0.1719430211D-03
      0.8834408300D+02  0.9669296383D-03
      0.4595252500D+02  0.2556998424D-02
      0.2399193900D+02 -0.1627786595D-02
      0.1251208100D+02 -0.5338230403D-01
      0.6491623000D+01 -0.1955815426D+00
      0.3339910000D+01 -0.5950571001D-01
      0.1699802000D+01  0.4143453065D+00
      0.8542310000D+00  0.5713775625D+00
      0.4234290000D+00  0.2070624018D+00
      0.2069180000D+00  0.8078448787D-02
 P  12 1.00       0.000000000000
      0.1473763590D+03 -0.2402327613D-03
      0.7539345600D+02 -0.1035383815D-02
      0.3975831100D+02 -0.4172303736D-02
      0.2138805700D+02 -0.9809132038D-02
      0.1164853500D+02 -0.1920994428D-01
      0.6386217000D+01  0.4779357553D-02
      0.3507309000D+01  0.1344903647D+00
      0.1919904000D+01  0.3067070245D+00
      0.1041046000D+01  0.3689423576D+00
      0.5545110000D+00  0.2452029700D+00
      0.2868010000D+00  0.6344737218D-01
      0.1417880000D+00  0.4575119008D-02
 D  16 1.00       0.000000000000
      0.1619367570D+04  0.5187972126D-05
      0.5115172270D+03  0.5197349697D-04
      0.1960607140D+03  0.3458082836D-03
      0.8639877300D+02  0.1644062019D-02
      0.4196046600D+02  0.6017726151D-02
      0.2174826300D+02  0.1699158725D-01
      0.1175037800D+02  0.3948231327D-01
      0.6510556000D+01  0.8232040639D-01
      0.3659930000D+01  0.1452868867D+00
      0.2073804000D+01  0.2051360229D+00
      0.1179794000D+01  0.2393803676D+00
      0.6720330000D+00  0.2379013738D+00
      0.3820970000D+00  0.1968959518D+00
      0.2157770000D+00  0.1234881402D+00
      0.1200280000D+00  0.4449517807D-01
      0.6490800000D-01  0.5001921865D-02
 D   1 1.00       0.000000000000
      0.4773987036D-01  0.1000000000D+01
 D   1 1.00       0.000000000000
      0.1502500000D-01  0.1000000000D+01
 S  10 1.00       0.000000000000
      0.2399193900D+02  0.2314495562D-04
      0.1251208100D+02  0.1596571840D-03
      0.6491623000D+01  0.3548661894D-02
      0.3339910000D+01 -0.8602354203D-03
      0.1699802000D+01 -0.2011336988D-01
      0.8542310000D+00 -0.9636907813D-01
      0.4234290000D+00 -0.1927970785D+00
      0.2069180000D+00  0.1340008015D+00
      0.9969000000D-01  0.7196546315D+00
      0.4738000000D-01  0.3392867058D+00
 S   1 1.00       0.000000000000
      0.3707600000D-01  0.1000000000D+01
 S   1 1.00       0.000000000000
      0.1409900000D-01  0.1000000000D+01
 P  10 1.00       0.000000000000
      0.2138805700D+02 -0.4325468243D-05
      0.1164853500D+02 -0.1646659261D-02
      0.6386217000D+01 -0.4510941903D-03
      0.3507309000D+01  0.2251426496D-01
      0.1919904000D+01  0.7097698916D-01
      0.1041046000D+01  0.2808895795D-01
      0.5545110000D+00 -0.2502915560D+00
      0.2868010000D+00 -0.5609722984D+00
      0.1417880000D+00 -0.2910696374D+00
      0.7133559130D-01 -0.1616308340D-01
 P   1 1.00       0.000000000000
      0.9707300000D-01  0.1000000000D+01
 P   1 1.00       0.000000000000
      0.4687600000D-01  0.1000000000D+01
 P   1 1.00       0.000000000000
      0.2263500000D-01  0.1000000000D+01
 S   1 1.00       0.000000000000
      0.4829004000D+01  0.1000000000D+01
 S   1 1.00       0.000000000000
      0.2452509000D+01  0.1000000000D+01
 S   1 1.00       0.000000000000
      0.1245557000D+01  0.1000000000D+01
 S   1 1.00       0.000000000000
      0.6325810000D+00  0.1000000000D+01
 S   1 1.00       0.000000000000
      0.3212690000D+00  0.1000000000D+01
 S   1 1.00       0.000000000000
      0.1631630000D+00  0.1000000000D+01
 P   1 1.00       0.000000000000
      0.1983553000D+01  0.1000000000D+01
 P   1 1.00       0.000000000000
      0.1221335000D+01  0.1000000000D+01
 P   1 1.00       0.000000000000
      0.7520130000D+00  0.1000000000D+01
 P   1 1.00       0.000000000000
      0.4630380000D+00  0.1000000000D+01
 P   1 1.00       0.000000000000
      0.2851070000D+00  0.1000000000D+01
 P   1 1.00       0.000000000000
      0.1755490000D+00  0.1000000000D+01
 D   1 1.00       0.000000000000
      0.4465620000D+01  0.1000000000D+01
 D   1 1.00       0.000000000000
      0.2147949000D+01  0.1000000000D+01
 D   1 1.00       0.000000000000
      0.1033156000D+01  0.1000000000D+01
 D   1 1.00       0.000000000000
      0.4969450000D+00  0.1000000000D+01
 D   1 1.00       0.000000000000
      0.2390290000D+00  0.1000000000D+01
 D   1 1.00       0.000000000000
      0.1149720000D+00  0.1000000000D+01
 F   1 1.00       0.000000000000
      0.1179749300D+02  0.1000000000D+01
 F   1 1.00       0.000000000000
      0.5327804000D+01  0.1000000000D+01
 F   1 1.00       0.000000000000
      0.2406062000D+01  0.1000000000D+01
 F   1 1.00       0.000000000000
      0.1086589000D+01  0.1000000000D+01
 F   1 1.00       0.000000000000
      0.4907090000D+00  0.1000000000D+01
 F   1 1.00       0.000000000000
      0.2216060000D+00  0.1000000000D+01
 F   1 1.00       0.000000000000
      0.1000780000D+00  0.1000000000D+01
 G   1 1.00       0.000000000000
      0.9953572000D+01  0.1000000000D+01
 G   1 1.00       0.000000000000
      0.4247405000D+01  0.1000000000D+01
 G   1 1.00       0.000000000000
      0.1812460000D+01  0.1000000000D+01
 G   1 1.00       0.000000000000
      0.7734160000D+00  0.1000000000D+01
 G   1 1.00       0.000000000000
      0.3300330000D+00  0.1000000000D+01
 G   1 1.00       0.000000000000
      0.1408320000D+00  0.1000000000D+01
 H   1 1.00       0.000000000000
      0.6068727000D+01  0.1000000000D+01
 H   1 1.00       0.000000000000
      0.2580072000D+01  0.1000000000D+01
 H   1 1.00       0.000000000000
      0.1096898000D+01  0.1000000000D+01
 H   1 1.00       0.000000000000
      0.4663370000D+00  0.1000000000D+01
 H   1 1.00       0.000000000000
      0.1982590000D+00  0.1000000000D+01
 I   1 1.00       0.000000000000
      0.4946577000D+01  0.1000000000D+01
 I   1 1.00       0.000000000000
      0.1900678000D+01  0.1000000000D+01
 I   1 1.00       0.000000000000
      0.7303190000D+00  0.1000000000D+01
 I   1 1.00       0.000000000000
      0.2806180000D+00  0.1000000000D+01
 J   1 1.00       0.000000000000
      0.3643489000D+01  0.1000000000D+01
 J   1 1.00       0.000000000000
      0.1231745000D+01  0.1000000000D+01
 J   1 1.00       0.000000000000
      0.4164120000D+00  0.1000000000D+01
 K   1 1.00       0.000000000000
      0.2526345113D+01  0.1000000000D+01
 ****
      2 0
 S  16 1.00       0.000000000000
      0.1411246410D+07  0.1627429822D-05
      0.2499102240D+06  0.1092621996D-04
      0.5603410580D+05  0.6238741867D-04
      0.1521153640D+05  0.2783303491D-03
      0.4812287750D+04  0.1040541872D-02
      0.1717755460D+04  0.3380392793D-02
      0.6733958240D+03  0.9828484765D-02
      0.2835101840D+03  0.2605310129D-01
      0.1258620070D+03  0.6280818057D-01
      0.5804472200D+02  0.1348202075D+00
      0.2747198500D+02  0.2435563460D+00
      0.1321062900D+02  0.3323287378D+00
      0.6399806000D+01  0.2607930483D+00
      0.3099614000D+01  0.7430834326D-01
      0.1489856000D+01  0.4189538074D-02
      0.7052010000D+00  0.8706455725D-03
 S  11 1.00       0.000000000000
      0.2835101840D+03 -0.1122588094D-03
      0.1258620070D+03 -0.5559335617D-03
      0.5804472200D+02 -0.2851687904D-02
      0.2747198500D+02 -0.1133494995D-01
      0.1321062900D+02 -0.3657977704D-01
      0.6399806000D+01 -0.7288994197D-01
      0.3099614000D+01 -0.1062032356D-01
      0.1489856000D+01  0.2196705572D+00
      0.7052010000D+00  0.4294832072D+00
      0.3258480000D+00  0.3775832849D+00
      0.1454600000D+00  0.9640261255D-01
 S   1 1.00       0.000000000000
      0.5814297870D-01  0.1000000000D+01
 P  13 1.00       0.000000000000
      0.2085279200D+04  0.1447911740D-04
      0.5101470830D+03  0.1283233588D-03
      0.1616811510D+03  0.7792790007D-03
      0.6114945200D+02  0.3400506049D-02
      0.2597660200D+02  0.1157685214D-01
      0.1187542600D+02  0.3269740339D-01
      0.5677133000D+01  0.8011404242D-01
      0.2786475000D+01  0.1605265057D+00
      0.1387844000D+01  0.2460495026D+00
      0.6952810000D+00  0.2898982926D+00
      0.3470020000D+00  0.2606799382D+00
      0.1700990000D+00  0.1479363112D+00
      0.8008000000D-01  0.2980261453D-01
 P   1 1.00       0.000000000000
      0.4261436033D-01  0.1000000000D+01
 S   1 1.00       0.000000000000
      0.4249866000D+01  0.1000000000D+01
 S   1 1.00       0.000000000000
      0.2167470000D+01  0.1000000000D+01
 S   1 1.00       0.000000000000
      0.1105429000D+01  0.1000000000D+01
 S   1 1.00       0.000000000000
      0.5637790000D+00  0.1000000000D+01
 S   1 1.00       0.000000000000
      0.2875320000D+00  0.1000000000D+01
 S   1 1.00       0.000000000000
      0.1466440000D+00  0.1000000000D+01
 P   1 1.00       0.000000000000
      0.5659724000D+01  0.1000000000D+01
 P   1 1.00       0.000000000000
      0.2575878000D+01  0.1000000000D+01
 P   1 1.00       0.000000000000
      0.1172344000D+01  0.1000000000D+01
 P   1 1.00       0.000000000000
      0.5335620000D+00  0.1000000000D+01
 P   1 1.00       0.000000000000
      0.2428370000D+00  0.1000000000D+01
 P   1 1.00       0.000000000000
      0.1105210000D+00  0.1000000000D+01
 D   1 1.00       0.000000000000
      0.9464211000D+01  0.1000000000D+01
 D   1 1.00       0.000000000000
      0.4752286000D+01  0.1000000000D+01
 D   1 1.00       0.000000000000
      0.2386276000D+01  0.1000000000D+01
 D   1 1.00       0.000000000000
      0.1198226000D+01  0.1000000000D+01
 D   1 1.00       0.000000000000
      0.6016680000D+00  0.1000000000D+01
 D   1 1.00       0.000000000000
      0.3021170000D+00  0.1000000000D+01
 D   1 1.00       0.000000000000
      0.1517020000D+00  0.1000000000D+01
 F   1 1.00       0.000000000000
      0.7001836000D+01  0.1000000000D+01
 F   1 1.00       0.000000000000
      0.3552509000D+01  0.1000000000D+01
 F   1 1.00       0.000000000000
      0.1802430000D+01  0.1000000000D+01
 F   1 1.00       0.000000000000
      0.9144960000D+00  0.1000000000D+01
 F   1 1.00       0.000000000000
      0.4639860000D+00  0.1000000000D+01
 F   1 1.00       0.000000000000
      0.2354110000D+00  0.1000000000D+01
 G   1 1.00       0.000000000000
      0.6472481000D+01  0.1000000000D+01
 G   1 1.00       0.000000000000
      0.3119071000D+01  0.1000000000D+01
 G   1 1.00       0.000000000000
      0.1503072000D+01  0.1000000000D+01
 G   1 1.00       0.000000000000
      0.7243260000D+00  0.1000000000D+01
 G   1 1.00       0.000000000000
      0.3490500000D+00  0.1000000000D+01
 H   1 1.00       0.000000000000
      0.5355083000D+01  0.1000000000D+01
 H   1 1.00       0.000000000000
      0.2414696000D+01  0.1000000000D+01
 H   1 1.00       0.000000000000
      0.1088827000D+01  0.1000000000D+01
 H   1 1.00       0.000000000000
      0.4909703000D+00  0.1000000000D+01
 I   1 1.00       0.000000000000
      0.4322113000D+01  0.1000000000D+01
 I   1 1.00       0.000000000000
      0.1716263000D+01  0.1000000000D+01
 I   1 1.00       0.000000000000
      0.6815089000D+00  0.1000000000D+01
 J   1 1.00       0.000000000000
      0.3060973723D+01  0.1000000000D+01
 ****

 There are   208 symmetry adapted basis functions of A1  symmetry.
 There are   106 symmetry adapted basis functions of A2  symmetry.
 There are   152 symmetry adapted basis functions of B1  symmetry.
 There are   152 symmetry adapted basis functions of B2  symmetry.
 Integral buffers will be    131072 words long.
 Raffenetti 2 integral format.
 Two-electron integral symmetry is turned on.
   618 basis functions,  1353 primitive gaussians,  1046 cartesian basis functions
    17 alpha electrons       15 beta electrons
       nuclear repulsion energy        60.2901587496 Hartrees.
 NAtoms=    2 NActive=    2 NUniq=    2 SFac= 7.50D-01 NAtFMM=   80 NAOKFM=F Big=F
 One-electron integrals computed using PRISM.
 NBasis=   618 RedAO= F  NBF=   208   106   152   152
 NBsUse=   618 1.00D-04 NBFU=   208   106   152   152
 Initial guess read from the checkpoint file:  VO-_3Sg.chk
 B after Tr=     0.000000    0.000000    0.000000
         Rot=    1.000000    0.000000    0.000000    0.000000 Ang=   0.00 deg.
 Initial guess orbital symmetries:
       Occupied  (SG) (SG) (SG) (SG) (PI) (PI) (SG) (SG) (PI) (PI)
                 (SG) (SG) (PI) (PI) (SG) (DLTA) (DLTA)
       Virtual   (PI) (PI) (SG) (SG) (SG) (DLTA) (DLTA) (PI) (PI)
                 (PI) (PI) (SG) (SG) (SG) (PI) (PI) (DLTA) (DLTA)
                 (SG) (PI) (PI) (PI) (PI) (SG) (DLTA) (DLTA) (PI)
                 (PI) (PHI) (PHI) (SG) (SG) (PI) (PI) (DLTA) (DLTA)
                 (SG) (PI) (PI) (SG) (PI) (PI) (SG) (DLTA) (DLTA)
                 (PI) (PI) (PHI) (PHI) (DLTA) (DLTA) (?A) (?A)
                 (SG) (PI) (PI) (SG) (SG) (PHI) (PHI) (PI) (PI)
                 (DLTA) (DLTA) (SG) (PI) (PI) (SG) (DLTA) (DLTA)
                 (SG) (PI) (PI) (PHI) (PHI) (SG) (DLTA) (DLTA)
                 (SG) (PI) (PI) (PI) (PI) (DLTA) (DLTA) (?B) (?B)
                 (?A) (?A) (SG) (PI) (PI) (SG) (PHI) (PHI) (DLTA)
                 (DLTA) (PI) (PI) (?A) (?A) (SG) (PHI) (PHI) (PI)
                 (PI) (DLTA) (DLTA) (PHI) (PHI) (SG) (PI) (PI)
                 (SG) (DLTA) (DLTA) (SG) (PI) (PI) (DLTA) (DLTA)
                 (?A) (?A) (SG) (PI) (PI) (PHI) (PHI) (SG) (DLTA)
                 (DLTA) (PHI) (PHI) (SG) (DLTA) (DLTA) (PI) (PI)
                 (SG) (DLTA) (DLTA) (PI) (PI) (PI) (PI) (SG) (?B)
                 (?B) (SG) (SG) (?A) (?A) (PI) (PI) (SG) (PHI)
                 (PHI) (PI) (PI) (?A) (?A) (?B) (?B) (SG) (DLTA)
                 (DLTA) (SG) (PI) (PI) (PHI) (PHI) (DLTA) (DLTA)
                 (PHI) (PHI) (DLTA) (DLTA) (SG) (?A) (?A) (PHI)
                 (PHI) (PI) (PI) (SG) (PI) (PI) (SG) (DLTA) (DLTA)
                 (?B) (?B) (PI) (PI) (?A) (?A) (SG) (PHI) (PHI)
                 (?A) (?A) (DLTA) (DLTA) (PI) (PI) (PHI) (PHI)
                 (SG) (DLTA) (DLTA) (PHI) (PHI) (DLTA) (DLTA) (SG)
                 (PI) (PI) (SG) (PI) (PI) (DLTA) (DLTA) (DLTA)
                 (DLTA) (SG) (PI) (PI) (SG) (PI) (PI) (PI) (PI)
                 (SG) (SG) (SG) (?B) (?B) (SG) (SG) (?A) (?A) (PHI)
                 (PHI) (DLTA) (DLTA) (PI) (PI) (SG) (SG) (?A) (?A)
                 (?B) (?B) (PHI) (PHI) (DLTA) (DLTA) (PI) (PI)
                 (SG) (PHI) (PHI) (PHI) (PHI) (?A) (?A) (DLTA)
                 (DLTA) (DLTA) (DLTA) (PI) (PI) (PI) (PI) (?B)
                 (?B) (?A) (?A) (SG) (PI) (PI) (SG) (PHI) (PHI)
                 (DLTA) (DLTA) (PI) (PI) (SG) (SG) (?A) (?A) (PHI)
                 (PHI) (PHI) (PHI) (DLTA) (DLTA) (DLTA) (DLTA)
                 (SG) (PI) (PI) (PI) (PI) (SG) (DLTA) (DLTA) (PI)
                 (PI) (SG) (SG) (SG) (SG) (PI) (PI) (SG) (SG) (PI)
                 (PI) (DLTA) (DLTA) (PI) (PI) (SG) (PI) (PI) (SG)
                 (PI) (PI) (SG) (SG) (SG) (SG) (SG) (SG) (PI) (PI)
                 (SG) (PI) (PI) (SG) (PI) (PI) (SG) (PI) (PI) (SG)
                 (PI) (PI) (PI) (PI) (DLTA) (DLTA) (SG) (DLTA)
                 (DLTA) (PI) (PI) (DLTA) (DLTA) (PI) (PI) (DLTA)
                 (DLTA) (SG) (PI) (PI) (DLTA) (DLTA) (PHI) (PHI)
                 (SG) (PI) (PI) (DLTA) (DLTA) (PHI) (PHI) (PI)
                 (PI) (DLTA) (DLTA) (PHI) (PHI) (DLTA) (DLTA) (PHI)
                 (PHI) (SG) (PI) (PI) (DLTA) (DLTA) (PHI) (PHI)
                 (?A) (?A) (SG) (PI) (PI) (DLTA) (DLTA) (PHI) (PHI)
                 (?A) (?A) (SG) (DLTA) (DLTA) (PI) (PI) (PHI) (PHI)
                 (?A) (?A) (SG) (PI) (PI) (DLTA) (DLTA) (PHI) (PHI)
                 (?A) (?A) (?B) (?B) (SG) (PI) (PI) (DLTA) (DLTA)
                 (PHI) (PHI) (?A) (?A) (?B) (?B) (DLTA) (DLTA)
                 (PHI) (PHI) (?A) (?A) (SG) (DLTA) (DLTA) (PHI)
                 (PHI) (SG) (PI) (PI) (DLTA) (DLTA) (PHI) (PHI)
                 (?A) (?A) (?B) (?B) (SG) (SG) (PI) (PI) (PHI)
                 (PHI) (?A) (?A) (?B) (?B) (SG) (SG) (SG) (DLTA)
                 (DLTA) (PHI) (PHI) (?A) (?A) (?B) (?B) (SG) (PI)
                 (PI) (DLTA) (DLTA) (PHI) (PHI) (?A) (?A) (?B)
                 (?B) (SG) (SG) (?C) (?C) (SG) (PI) (PI) (DLTA)
                 (DLTA) (PHI) (PHI) (?A) (?A) (?B) (?B) (SG) (SG)
                 (?C) (?C) (PI) (PI) (PHI) (PHI) (?A) (?A) (?B)
                 (?B) (SG) (SG) (?C) (?C) (SG) (PI) (PI) (DLTA)
                 (DLTA) (PHI) (PHI) (?A) (?A) (?B) (?B) (SG) (SG)
                 (?C) (?C) (?D) (?D) (SG) (PI) (PI) (SG) (SG) (PI)
                 (PI) (DLTA) (DLTA) (DLTA) (DLTA) (SG) (DLTA) (DLTA)
                 (PHI) (PHI) (PI) (PI) (DLTA) (DLTA) (PHI) (PHI)
                 (?A) (?A) (SG) (PI) (PI) (PHI) (PHI) (?A) (?A)
                 (?B) (?B) (?B) (?B) (?A) (?A) (DLTA) (DLTA) (PHI)
                 (PHI) (?A) (?A) (?B) (?B) (SG) (SG) (?A) (?A)
                 (?B) (?B) (SG) (SG) (SG) (SG) (?B) (?B) (SG) (SG)
                 (?C) (?C)
 Requested convergence on RMS density matrix=1.00D-10 within 500 cycles.
 Requested convergence on MAX density matrix=1.00D-08.
 Requested convergence on             energy=1.00D-08.
 No special actions if energy rises.
 Restarting incremental Fock formation.
 SCF Done:  E(ROHF) =  -1017.76701646     A.U. after   22 cycles
             Convg  =    0.1909D-10             -V/T =  2.0000
 <Sx>= 0.0000 <Sy>= 0.0000 <Sz>= 1.0000 <S**2>= 2.0000 S= 1.0000
 <L.S>= 0.000000000000E+00
 Annihilation of the first spin contaminant:
 S**2 before annihilation     2.0000,   after     2.0000
 DiagDN has N=   618 LTot=  1886 but NE2=     3 cannot use DSYEVD.
 GenMOA:  NOpAll=  4 NOp2=4 NOpUse=  4 JSym2X=1
 <Sx>= 0.0000 <Sy>= 0.0000 <Sz>= 1.0000 <S**2>= 2.0000 S= 1.0000
 ExpMin= 1.41D-02 ExpMax= 3.48D+07 ExpMxC= 3.11D+03 IAcc=3 IRadAn=         5 AccDes= 0.00D+00
 HarFok:  IExCor=  205 AccDes= 0.00D+00 IRadAn=         5 IDoV=-2
 ScaDFX=  1.000000  1.000000  1.000000  1.000000
 Range of M.O.s used for correlation:    11   618
 NBasis=   618 NAE=    17 NBE=    15 NFC=    10 NFV=     0
 NROrb=    608 NOA=     7 NOB=     5 NVA=   601 NVB=   603

 **** Warning!!: The largest alpha MO coefficient is  0.16256454D+04


 **** Warning!!: The largest beta MO coefficient is  0.16272177D+04

 Singles contribution to E2=   -0.1483664508D-02
 Disk-based method using OVN memory for  7 occupieds at a time.
 Permanent disk used for amplitudes and <ij||ab> integrals=    36570870 words.
 Estimated scratch disk usage=  7080204375 words.
 IUseRI=2 ITolRI= 6 IR12RI=0
 Actual    scratch disk usage=  7056716525 words.
 GetIJB would need an additional  4915377930 words of memory to use all  16 processors.
 JobTyp=2 Pass  1:  I=   1 to   7 NPSUse= 10 ParTrn=T ParDer=T DoDerP=F.
 T,EIJ(AA): I=   1 J=   2      0.8156821E-03     -0.3589994E-02
 T,EIJ(AA): I=   1 J=   3      0.1241096E-03     -0.6521121E-03
 T,EIJ(AA): I=   1 J=   4      0.1241096E-03     -0.6521121E-03
 T,EIJ(AA): I=   1 J=   5      0.9065378E-03     -0.3760434E-02
 T,EIJ(AA): I=   1 J=   6      0.9065378E-03     -0.3760434E-02
 T,EIJ(AA): I=   1 J=   7      0.8988552E-04     -0.2499431E-03
 T,EIJ(AA): I=   2 J=   3      0.8142286E-03     -0.2477675E-02
 T,EIJ(AA): I=   2 J=   4      0.8142286E-03     -0.2477675E-02
 T,EIJ(AA): I=   2 J=   5      0.5465572E-02     -0.1275989E-01
 T,EIJ(AA): I=   2 J=   6      0.5465572E-02     -0.1275989E-01
 T,EIJ(AA): I=   2 J=   7      0.8558529E-03     -0.1340125E-02
 T,EIJ(AA): I=   3 J=   4      0.2635784E-02     -0.1187484E-01
 T,EIJ(AA): I=   3 J=   5      0.6268436E-03     -0.1678205E-02
 T,EIJ(AA): I=   3 J=   6      0.6268436E-03     -0.1678205E-02
 T,EIJ(AA): I=   3 J=   7      0.1246991E-02     -0.2655992E-02
 T,EIJ(AA): I=   4 J=   5      0.6268436E-03     -0.1678205E-02
 T,EIJ(AA): I=   4 J=   6      0.6268435E-03     -0.1678205E-02
 T,EIJ(AA): I=   4 J=   7      0.1246991E-02     -0.2655992E-02
 T,EIJ(AA): I=   5 J=   6      0.4928341E-02     -0.1172942E-01
 T,EIJ(AA): I=   5 J=   7      0.1064310E-02     -0.1435608E-02
 T,EIJ(AA): I=   6 J=   7      0.1064310E-02     -0.1435608E-02
 T,EIJ(AB): I=   1 J=   1      0.1936136E-02     -0.1257451E-01
 T,EIJ(AB): I=   1 J=   2      0.2231832E-02     -0.1182756E-01
 T,EIJ(AB): I=   1 J=   3      0.2292433E-02     -0.1181381E-01
 T,EIJ(AB): I=   1 J=   4      0.2292433E-02     -0.1181381E-01
 T,EIJ(AB): I=   1 J=   5      0.1341597E-03     -0.3934825E-03
 T,EIJ(AB): I=   2 J=   1      0.2216865E-02     -0.1179244E-01
 T,EIJ(AB): I=   2 J=   2      0.1074287E-01     -0.3052636E-01
 T,EIJ(AB): I=   2 J=   3      0.6247227E-02     -0.1616932E-01
 T,EIJ(AB): I=   2 J=   4      0.6247227E-02     -0.1616932E-01
 T,EIJ(AB): I=   2 J=   5      0.1409916E-02     -0.2139377E-02
 T,EIJ(AB): I=   3 J=   1      0.1556937E-03     -0.8735988E-03
 T,EIJ(AB): I=   3 J=   2      0.1110786E-02     -0.3649684E-02
 T,EIJ(AB): I=   3 J=   3      0.7382260E-03     -0.2099336E-02
 T,EIJ(AB): I=   3 J=   4      0.7382260E-03     -0.2099336E-02
 T,EIJ(AB): I=   3 J=   5      0.2144818E-02     -0.4188539E-02
 T,EIJ(AB): I=   4 J=   1      0.1556937E-03     -0.8735988E-03
 T,EIJ(AB): I=   4 J=   2      0.1110786E-02     -0.3649684E-02
 T,EIJ(AB): I=   4 J=   3      0.7382260E-03     -0.2099336E-02
 T,EIJ(AB): I=   4 J=   4      0.7382260E-03     -0.2099336E-02
 T,EIJ(AB): I=   4 J=   5      0.2144818E-02     -0.4188539E-02
 T,EIJ(AB): I=   5 J=   1      0.2278913E-02     -0.1177294E-01
 T,EIJ(AB): I=   5 J=   2      0.6227582E-02     -0.1614161E-01
 T,EIJ(AB): I=   5 J=   3      0.6162642E-02     -0.1568885E-01
 T,EIJ(AB): I=   5 J=   4      0.9940278E-02     -0.2776146E-01
 T,EIJ(AB): I=   5 J=   5      0.1253440E-02     -0.1738365E-02
 T,EIJ(AB): I=   6 J=   1      0.2278913E-02     -0.1177294E-01
 T,EIJ(AB): I=   6 J=   2      0.6227582E-02     -0.1614161E-01
 T,EIJ(AB): I=   6 J=   3      0.9940278E-02     -0.2776146E-01
 T,EIJ(AB): I=   6 J=   4      0.6162642E-02     -0.1568885E-01
 T,EIJ(AB): I=   6 J=   5      0.1253440E-02     -0.1738365E-02
 T,EIJ(AB): I=   7 J=   1      0.1285300E-03     -0.3831002E-03
 T,EIJ(AB): I=   7 J=   2      0.1361713E-02     -0.2105094E-02
 T,EIJ(AB): I=   7 J=   3      0.1212225E-02     -0.1716071E-02
 T,EIJ(AB): I=   7 J=   4      0.1212225E-02     -0.1716071E-02
 T,EIJ(AB): I=   7 J=   5      0.3154902E-01     -0.2155647E-01
 Actual    scratch disk usage=  7080199767 words.
 GetIJB would need an additional  4915346550 words of memory to use all  16 processors.
 JobTyp=3 Pass  1:  I=   1 to   5 NPSUse= 10 ParTrn=T ParDer=T DoDerP=F.
 T,EIJ(BB): I=   1 J=   2      0.8087749E-03     -0.3585878E-02
 T,EIJ(BB): I=   1 J=   3      0.8898335E-03     -0.3733353E-02
 T,EIJ(BB): I=   1 J=   4      0.8898335E-03     -0.3733353E-02
 T,EIJ(BB): I=   1 J=   5      0.8499841E-04     -0.2427877E-03
 T,EIJ(BB): I=   2 J=   3      0.5168936E-02     -0.1258163E-01
 T,EIJ(BB): I=   2 J=   4      0.5168936E-02     -0.1258163E-01
 T,EIJ(BB): I=   2 J=   5      0.8255482E-03     -0.1330164E-02
 T,EIJ(BB): I=   3 J=   4      0.4730382E-02     -0.1164025E-01
 T,EIJ(BB): I=   3 J=   5      0.1026378E-02     -0.1428608E-02
 T,EIJ(BB): I=   4 J=   5      0.1026378E-02     -0.1428608E-02
 Spin components of T(2) and E(2):
     alpha-alpha T2 =       0.3107641845D-01 E2=     -0.8298056317D-01
     alpha-beta  T2 =       0.1327160182D+00 E2=     -0.3247242665D+00
     beta-beta   T2 =       0.2061999924D-01 E2=     -0.5228626035D-01
 ANorm=    0.1089643081D+01
 E2 =    -0.4614747546D+00 EUMP2 =    -0.10182284912138D+04

 Complete Basis Set (CBS) Extrapolation:
 M. R. Nyden and G. A. Petersson, JCP 75, 1843 (1981)
 G. A. Petersson and M. A. Al-Laham, JCP 94, 6081 (1991)
 G. A. Petersson, T. Tensfeldt, and J. A. Montgomery, JCP 94, 6091 (1991)
 J. A. Montgomery, J. W. Ochterski, and G. A. Petersson, JCP 101, 5900 (1994)
 
 Minimum Number of PNO for Extrapolation =  25
 Absolute Overlaps: IRadAn =         5
 LocTrn: ILocal=3 LocCor=F DoCore=F.
 Entering OneElI...
 Overlap between basis sets.
 Requested accuracy = 0.1000D-12
 PrsmSu:  NPrtUS=   1 ThrOK=F IAlg=1
 PRISM was handed  8588064704 working-precision words and    47 shell-pairs
 IPart=  0 NShTot=          47 NBatch=          10 AvBLen=         4.7
 CnvPC2: ToCart=F DoDens=F IPureD=0 IPureF=0.
 Transformed matrix in CnvPC2: 
                 1             2             3             4             5 
      1   0.100000D+01  0.376096D+00  0.000000D+00  0.000000D+00  0.000000D+00
      2   0.376096D+00  0.100000D+01  0.000000D+00  0.000000D+00  0.000000D+00
      3   0.000000D+00  0.000000D+00  0.100000D+01  0.000000D+00  0.000000D+00
      4   0.000000D+00  0.000000D+00  0.000000D+00  0.100000D+01  0.000000D+00
      5   0.000000D+00  0.000000D+00  0.000000D+00  0.000000D+00  0.100000D+01
      6   0.232663D-01  0.306441D+00  0.000000D+00  0.000000D+00  0.000000D+00
      7   0.000000D+00  0.000000D+00  0.319378D+00  0.000000D+00  0.000000D+00
      8   0.000000D+00  0.000000D+00  0.000000D+00  0.319378D+00  0.000000D+00
      9   0.000000D+00  0.000000D+00  0.000000D+00  0.000000D+00  0.319378D+00
     10   0.000000D+00  0.000000D+00  0.000000D+00  0.000000D+00  0.000000D+00
     11   0.000000D+00  0.000000D+00  0.000000D+00  0.000000D+00  0.000000D+00
     12   0.000000D+00  0.000000D+00  0.000000D+00  0.000000D+00  0.000000D+00
     13   0.000000D+00  0.000000D+00  0.000000D+00  0.000000D+00  0.000000D+00
     14   0.000000D+00  0.000000D+00  0.000000D+00  0.000000D+00  0.000000D+00
     15  -0.409949D-03  0.111392D-01  0.000000D+00  0.000000D+00  0.000000D+00
     16   0.000000D+00  0.000000D+00  0.218094D-01  0.000000D+00  0.000000D+00
     17   0.000000D+00  0.000000D+00  0.000000D+00  0.218094D-01  0.000000D+00
     18   0.000000D+00  0.000000D+00  0.000000D+00  0.000000D+00  0.218094D-01
     19   0.000000D+00  0.000000D+00  0.000000D+00  0.000000D+00  0.000000D+00
     20   0.910181D-03  0.661123D-02  0.000000D+00  0.000000D+00 -0.369917D-02
     21   0.000000D+00  0.000000D+00  0.110476D-02  0.000000D+00  0.000000D+00
     22   0.000000D+00  0.000000D+00  0.000000D+00  0.110476D-02  0.000000D+00
     23   0.191534D-02  0.133573D-01  0.000000D+00  0.000000D+00 -0.651482D-02
                 6             7             8             9            10 
      1   0.232663D-01  0.000000D+00  0.000000D+00  0.000000D+00  0.000000D+00
      2   0.306441D+00  0.000000D+00  0.000000D+00  0.000000D+00  0.000000D+00
      3   0.000000D+00  0.319378D+00  0.000000D+00  0.000000D+00  0.000000D+00
      4   0.000000D+00  0.000000D+00  0.319378D+00  0.000000D+00  0.000000D+00
      5   0.000000D+00  0.000000D+00  0.000000D+00  0.319378D+00  0.000000D+00
      6   0.100000D+01  0.000000D+00  0.000000D+00  0.000000D+00  0.000000D+00
      7   0.000000D+00  0.100000D+01  0.000000D+00  0.000000D+00  0.000000D+00
      8   0.000000D+00  0.000000D+00  0.100000D+01  0.000000D+00  0.000000D+00
      9   0.000000D+00  0.000000D+00  0.000000D+00  0.100000D+01  0.000000D+00
     10   0.000000D+00  0.000000D+00  0.000000D+00  0.000000D+00  0.100000D+01
     11   0.000000D+00  0.000000D+00  0.000000D+00  0.000000D+00  0.000000D+00
     12   0.000000D+00  0.000000D+00  0.000000D+00  0.000000D+00  0.000000D+00
     13   0.000000D+00  0.000000D+00  0.000000D+00  0.000000D+00  0.000000D+00
     14   0.000000D+00  0.000000D+00  0.000000D+00  0.000000D+00  0.000000D+00
     15   0.347708D+00  0.000000D+00  0.000000D+00  0.000000D+00  0.000000D+00
     16   0.000000D+00  0.361074D+00  0.000000D+00  0.000000D+00  0.000000D+00
     17   0.000000D+00  0.000000D+00  0.361074D+00  0.000000D+00  0.000000D+00
     18   0.000000D+00  0.000000D+00  0.000000D+00  0.361074D+00  0.000000D+00
     19   0.598253D-03  0.000000D+00  0.000000D+00 -0.150741D-02  0.191981D-01
     20   0.671856D-01  0.000000D+00  0.000000D+00 -0.845361D-01  0.176901D+00
     21   0.000000D+00  0.269752D-01  0.000000D+00  0.000000D+00  0.000000D+00
     22   0.000000D+00  0.000000D+00  0.269752D-01  0.000000D+00  0.000000D+00
     23   0.108033D+00  0.000000D+00  0.000000D+00 -0.125284D+00  0.182250D+00
                11            12            13            14            15 
      1   0.000000D+00  0.000000D+00  0.000000D+00  0.000000D+00 -0.409949D-03
      2   0.000000D+00  0.000000D+00  0.000000D+00  0.000000D+00  0.111392D-01
      3   0.000000D+00  0.000000D+00  0.000000D+00  0.000000D+00  0.000000D+00
      4   0.000000D+00  0.000000D+00  0.000000D+00  0.000000D+00  0.000000D+00
      5   0.000000D+00  0.000000D+00  0.000000D+00  0.000000D+00  0.000000D+00
      6   0.000000D+00  0.000000D+00  0.000000D+00  0.000000D+00  0.347708D+00
      7   0.000000D+00  0.000000D+00  0.000000D+00  0.000000D+00  0.000000D+00
      8   0.000000D+00  0.000000D+00  0.000000D+00  0.000000D+00  0.000000D+00
      9   0.000000D+00  0.000000D+00  0.000000D+00  0.000000D+00  0.000000D+00
     10   0.000000D+00  0.000000D+00  0.000000D+00  0.000000D+00  0.000000D+00
     11   0.100000D+01  0.000000D+00  0.000000D+00  0.000000D+00  0.000000D+00
     12   0.000000D+00  0.100000D+01  0.000000D+00  0.000000D+00  0.000000D+00
     13   0.000000D+00  0.000000D+00  0.100000D+01  0.000000D+00  0.000000D+00
     14   0.000000D+00  0.000000D+00  0.000000D+00  0.100000D+01  0.000000D+00
     15   0.000000D+00  0.000000D+00  0.000000D+00  0.000000D+00  0.100000D+01
     16   0.000000D+00  0.000000D+00  0.000000D+00  0.000000D+00  0.000000D+00
     17   0.000000D+00  0.000000D+00  0.000000D+00  0.000000D+00  0.000000D+00
     18   0.000000D+00  0.000000D+00  0.000000D+00  0.000000D+00  0.000000D+00
     19   0.000000D+00  0.000000D+00  0.000000D+00  0.000000D+00  0.351788D-01
     20   0.000000D+00  0.000000D+00  0.000000D+00  0.000000D+00  0.318311D+00
     21  -0.107438D+00  0.000000D+00  0.000000D+00  0.000000D+00  0.000000D+00
     22   0.000000D+00 -0.107438D+00  0.000000D+00  0.000000D+00  0.000000D+00
     23   0.000000D+00  0.000000D+00  0.000000D+00  0.000000D+00  0.171557D+00
                16            17            18            19            20 
      1   0.000000D+00  0.000000D+00  0.000000D+00  0.000000D+00  0.910181D-03
      2   0.000000D+00  0.000000D+00  0.000000D+00  0.000000D+00  0.661123D-02
      3   0.218094D-01  0.000000D+00  0.000000D+00  0.000000D+00  0.000000D+00
      4   0.000000D+00  0.218094D-01  0.000000D+00  0.000000D+00  0.000000D+00
      5   0.000000D+00  0.000000D+00  0.218094D-01  0.000000D+00 -0.369917D-02
      6   0.000000D+00  0.000000D+00  0.000000D+00  0.598253D-03  0.671856D-01
      7   0.361074D+00  0.000000D+00  0.000000D+00  0.000000D+00  0.000000D+00
      8   0.000000D+00  0.361074D+00  0.000000D+00  0.000000D+00  0.000000D+00
      9   0.000000D+00  0.000000D+00  0.361074D+00 -0.150741D-02 -0.845361D-01
     10   0.000000D+00  0.000000D+00  0.000000D+00  0.191981D-01  0.176901D+00
     11   0.000000D+00  0.000000D+00  0.000000D+00  0.000000D+00  0.000000D+00
     12   0.000000D+00  0.000000D+00  0.000000D+00  0.000000D+00  0.000000D+00
     13   0.000000D+00  0.000000D+00  0.000000D+00  0.000000D+00  0.000000D+00
     14   0.000000D+00  0.000000D+00  0.000000D+00  0.000000D+00  0.000000D+00
     15   0.000000D+00  0.000000D+00  0.000000D+00  0.351788D-01  0.318311D+00
     16   0.100000D+01  0.000000D+00  0.000000D+00  0.000000D+00  0.000000D+00
     17   0.000000D+00  0.100000D+01  0.000000D+00  0.000000D+00  0.000000D+00
     18   0.000000D+00  0.000000D+00  0.100000D+01 -0.607957D-01 -0.472196D+00
     19   0.000000D+00  0.000000D+00 -0.607957D-01  0.100000D+01  0.236704D+00
     20   0.000000D+00  0.000000D+00 -0.472196D+00  0.236704D+00  0.100000D+01
     21   0.165619D+00  0.000000D+00  0.000000D+00  0.000000D+00  0.000000D+00
     22   0.000000D+00  0.165619D+00  0.000000D+00  0.000000D+00  0.000000D+00
     23   0.000000D+00  0.000000D+00 -0.223022D+00  0.000000D+00  0.000000D+00
                21            22            23 
      1   0.000000D+00  0.000000D+00  0.191534D-02
      2   0.000000D+00  0.000000D+00  0.133573D-01
      3   0.110476D-02  0.000000D+00  0.000000D+00
      4   0.000000D+00  0.110476D-02  0.000000D+00
      5   0.000000D+00  0.000000D+00 -0.651482D-02
      6   0.000000D+00  0.000000D+00  0.108033D+00
      7   0.269752D-01  0.000000D+00  0.000000D+00
      8   0.000000D+00  0.269752D-01  0.000000D+00
      9   0.000000D+00  0.000000D+00 -0.125284D+00
     10   0.000000D+00  0.000000D+00  0.182250D+00
     11  -0.107438D+00  0.000000D+00  0.000000D+00
     12   0.000000D+00 -0.107438D+00  0.000000D+00
     13   0.000000D+00  0.000000D+00  0.000000D+00
     14   0.000000D+00  0.000000D+00  0.000000D+00
     15   0.000000D+00  0.000000D+00  0.171557D+00
     16   0.165619D+00  0.000000D+00  0.000000D+00
     17   0.000000D+00  0.165619D+00  0.000000D+00
     18   0.000000D+00  0.000000D+00 -0.223022D+00
     19   0.000000D+00  0.000000D+00  0.000000D+00
     20   0.000000D+00  0.000000D+00  0.000000D+00
     21   0.100000D+01  0.000000D+00  0.000000D+00
     22   0.000000D+00  0.100000D+01  0.000000D+00
     23   0.000000D+00  0.000000D+00  0.100000D+01
 Entering OneElI...
 Overlap between basis sets.
 Requested accuracy = 0.1000D-12
 PrsmSu:  NPrtUS=   1 ThrOK=F IAlg=1
 PRISM was handed  8586690480 working-precision words and   711 shell-pairs
 IPart=  0 NShTot=         711 NBatch=          84 AvBLen=         8.5
 CnvPC2: ToCart=F DoDens=F IPureD=0 IPureF=0.
 Transformed matrix in CnvPC2: 
                 1             2             3             4             5 
      1   0.999701D+00  0.391661D+00  0.000000D+00  0.000000D+00  0.000000D+00
      2   0.273566D+00  0.990698D+00  0.000000D+00  0.000000D+00  0.000000D+00
      3   0.000000D+00  0.000000D+00  0.998902D+00  0.000000D+00  0.000000D+00
      4   0.000000D+00  0.000000D+00  0.000000D+00  0.998902D+00  0.000000D+00
      5   0.000000D+00  0.000000D+00  0.000000D+00  0.000000D+00  0.998902D+00
      6   0.964035D-02  0.302522D+00  0.000000D+00  0.000000D+00  0.000000D+00
      7   0.000000D+00  0.000000D+00  0.307539D+00  0.000000D+00  0.000000D+00
      8   0.000000D+00  0.000000D+00  0.000000D+00  0.307539D+00  0.000000D+00
      9   0.000000D+00  0.000000D+00  0.000000D+00  0.000000D+00  0.307539D+00
     10   0.000000D+00  0.000000D+00  0.000000D+00  0.000000D+00  0.000000D+00
     11   0.000000D+00  0.000000D+00  0.000000D+00  0.000000D+00  0.000000D+00
     12   0.000000D+00  0.000000D+00  0.000000D+00  0.000000D+00  0.000000D+00
     13   0.000000D+00  0.000000D+00  0.000000D+00  0.000000D+00  0.000000D+00
     14   0.000000D+00  0.000000D+00  0.000000D+00  0.000000D+00  0.000000D+00
     15   0.000000D+00  0.000000D+00  0.000000D+00  0.000000D+00  0.000000D+00
     16   0.000000D+00  0.000000D+00  0.000000D+00  0.000000D+00  0.000000D+00
     17   0.000000D+00  0.000000D+00  0.000000D+00  0.000000D+00  0.000000D+00
     18   0.000000D+00  0.000000D+00  0.000000D+00  0.000000D+00  0.000000D+00
     19   0.000000D+00  0.000000D+00  0.000000D+00  0.000000D+00  0.000000D+00
     20   0.000000D+00  0.000000D+00  0.000000D+00  0.000000D+00  0.000000D+00
     21   0.000000D+00  0.000000D+00  0.000000D+00  0.000000D+00  0.000000D+00
     22   0.000000D+00  0.000000D+00  0.000000D+00  0.000000D+00  0.000000D+00
     23   0.000000D+00  0.000000D+00  0.000000D+00  0.000000D+00  0.000000D+00
     24   0.000000D+00  0.000000D+00  0.000000D+00  0.000000D+00  0.000000D+00
     25   0.101918D-03  0.976865D-02  0.000000D+00  0.000000D+00  0.000000D+00
     26   0.774497D-02  0.509594D-01  0.000000D+00  0.000000D+00  0.000000D+00
     27   0.375227D-02  0.247952D-01  0.000000D+00  0.000000D+00  0.000000D+00
     28   0.000000D+00  0.000000D+00 -0.236046D-01  0.000000D+00  0.000000D+00
     29   0.000000D+00  0.000000D+00  0.000000D+00 -0.236046D-01  0.000000D+00
     30   0.000000D+00  0.000000D+00  0.000000D+00  0.000000D+00 -0.236046D-01
     31   0.000000D+00  0.000000D+00  0.162003D-01  0.000000D+00  0.000000D+00
     32   0.000000D+00  0.000000D+00  0.000000D+00  0.162003D-01  0.000000D+00
     33   0.000000D+00  0.000000D+00  0.000000D+00  0.000000D+00  0.162003D-01
     34   0.000000D+00  0.000000D+00  0.662486D-02  0.000000D+00  0.000000D+00
     35   0.000000D+00  0.000000D+00  0.000000D+00  0.662486D-02  0.000000D+00
     36   0.000000D+00  0.000000D+00  0.000000D+00  0.000000D+00  0.662486D-02
     37   0.000000D+00  0.000000D+00  0.268714D-02  0.000000D+00  0.000000D+00
     38   0.000000D+00  0.000000D+00  0.000000D+00  0.268714D-02  0.000000D+00
     39   0.000000D+00  0.000000D+00  0.000000D+00  0.000000D+00  0.268714D-02
     40   0.272153D+00  0.944841D+00  0.000000D+00  0.000000D+00  0.000000D+00
     41   0.171247D+00  0.775790D+00  0.000000D+00  0.000000D+00  0.000000D+00
     42   0.105486D+00  0.565981D+00  0.000000D+00  0.000000D+00  0.000000D+00
     43   0.642417D-01  0.380308D+00  0.000000D+00  0.000000D+00  0.000000D+00
     44   0.388913D-01  0.242977D+00  0.000000D+00  0.000000D+00  0.000000D+00
     45   0.234723D-01  0.150883D+00  0.000000D+00  0.000000D+00  0.000000D+00
     46   0.000000D+00  0.000000D+00  0.425887D+00  0.000000D+00  0.000000D+00
     47   0.000000D+00  0.000000D+00  0.000000D+00  0.425887D+00  0.000000D+00
     48   0.000000D+00  0.000000D+00  0.000000D+00  0.000000D+00  0.425887D+00
     49   0.000000D+00  0.000000D+00  0.279361D+00  0.000000D+00  0.000000D+00
     50   0.000000D+00  0.000000D+00  0.000000D+00  0.279361D+00  0.000000D+00
     51   0.000000D+00  0.000000D+00  0.000000D+00  0.000000D+00  0.279361D+00
     52   0.000000D+00  0.000000D+00  0.172690D+00  0.000000D+00  0.000000D+00
     53   0.000000D+00  0.000000D+00  0.000000D+00  0.172690D+00  0.000000D+00
     54   0.000000D+00  0.000000D+00  0.000000D+00  0.000000D+00  0.172690D+00
     55   0.000000D+00  0.000000D+00  0.102260D+00  0.000000D+00  0.000000D+00
     56   0.000000D+00  0.000000D+00  0.000000D+00  0.102260D+00  0.000000D+00
     57   0.000000D+00  0.000000D+00  0.000000D+00  0.000000D+00  0.102260D+00
     58   0.000000D+00  0.000000D+00  0.587978D-01  0.000000D+00  0.000000D+00
     59   0.000000D+00  0.000000D+00  0.000000D+00  0.587978D-01  0.000000D+00
     60   0.000000D+00  0.000000D+00  0.000000D+00  0.000000D+00  0.587978D-01
     61   0.000000D+00  0.000000D+00  0.331578D-01  0.000000D+00  0.000000D+00
     62   0.000000D+00  0.000000D+00  0.000000D+00  0.331578D-01  0.000000D+00
     63   0.000000D+00  0.000000D+00  0.000000D+00  0.000000D+00  0.331578D-01
     64   0.000000D+00  0.000000D+00  0.000000D+00  0.000000D+00  0.000000D+00
     65   0.000000D+00  0.000000D+00  0.000000D+00  0.000000D+00  0.000000D+00
     66   0.000000D+00  0.000000D+00  0.000000D+00  0.000000D+00  0.000000D+00
     67   0.000000D+00  0.000000D+00  0.000000D+00  0.000000D+00  0.000000D+00
     68   0.000000D+00  0.000000D+00  0.000000D+00  0.000000D+00  0.000000D+00
     69   0.000000D+00  0.000000D+00  0.000000D+00  0.000000D+00  0.000000D+00
     70   0.000000D+00  0.000000D+00  0.000000D+00  0.000000D+00  0.000000D+00
     71   0.000000D+00  0.000000D+00  0.000000D+00  0.000000D+00  0.000000D+00
     72   0.000000D+00  0.000000D+00  0.000000D+00  0.000000D+00  0.000000D+00
     73   0.000000D+00  0.000000D+00  0.000000D+00  0.000000D+00  0.000000D+00
     74   0.000000D+00  0.000000D+00  0.000000D+00  0.000000D+00  0.000000D+00
     75   0.000000D+00  0.000000D+00  0.000000D+00  0.000000D+00  0.000000D+00
     76   0.000000D+00  0.000000D+00  0.000000D+00  0.000000D+00  0.000000D+00
     77   0.000000D+00  0.000000D+00  0.000000D+00  0.000000D+00  0.000000D+00
     78   0.000000D+00  0.000000D+00  0.000000D+00  0.000000D+00  0.000000D+00
     79   0.000000D+00  0.000000D+00  0.000000D+00  0.000000D+00  0.000000D+00
     80   0.000000D+00  0.000000D+00  0.000000D+00  0.000000D+00  0.000000D+00
     81   0.000000D+00  0.000000D+00  0.000000D+00  0.000000D+00  0.000000D+00
     82   0.000000D+00  0.000000D+00  0.000000D+00  0.000000D+00  0.000000D+00
     83   0.000000D+00  0.000000D+00  0.000000D+00  0.000000D+00  0.000000D+00
     84   0.000000D+00  0.000000D+00  0.000000D+00  0.000000D+00  0.000000D+00
     85   0.000000D+00  0.000000D+00  0.000000D+00  0.000000D+00  0.000000D+00
     86   0.000000D+00  0.000000D+00  0.000000D+00  0.000000D+00  0.000000D+00
     87   0.000000D+00  0.000000D+00  0.000000D+00  0.000000D+00  0.000000D+00
     88   0.000000D+00  0.000000D+00  0.000000D+00  0.000000D+00  0.000000D+00
     89   0.000000D+00  0.000000D+00  0.000000D+00  0.000000D+00  0.000000D+00
     90   0.000000D+00  0.000000D+00  0.000000D+00  0.000000D+00  0.000000D+00
     91   0.000000D+00  0.000000D+00  0.000000D+00  0.000000D+00  0.000000D+00
     92   0.000000D+00  0.000000D+00  0.000000D+00  0.000000D+00  0.000000D+00
     93   0.000000D+00  0.000000D+00  0.000000D+00  0.000000D+00  0.000000D+00
     94   0.000000D+00  0.000000D+00  0.000000D+00  0.000000D+00  0.000000D+00
     95   0.000000D+00  0.000000D+00  0.000000D+00  0.000000D+00  0.000000D+00
     96   0.000000D+00  0.000000D+00  0.000000D+00  0.000000D+00  0.000000D+00
     97   0.000000D+00  0.000000D+00  0.000000D+00  0.000000D+00  0.000000D+00
     98   0.000000D+00  0.000000D+00  0.000000D+00  0.000000D+00  0.000000D+00
     99   0.000000D+00  0.000000D+00  0.000000D+00  0.000000D+00  0.000000D+00
    100   0.000000D+00  0.000000D+00  0.000000D+00  0.000000D+00  0.000000D+00
    101   0.000000D+00  0.000000D+00  0.000000D+00  0.000000D+00  0.000000D+00
    102   0.000000D+00  0.000000D+00  0.000000D+00  0.000000D+00  0.000000D+00
    103   0.000000D+00  0.000000D+00  0.000000D+00  0.000000D+00  0.000000D+00
    104   0.000000D+00  0.000000D+00  0.000000D+00  0.000000D+00  0.000000D+00
    105   0.000000D+00  0.000000D+00  0.000000D+00  0.000000D+00  0.000000D+00
    106   0.000000D+00  0.000000D+00  0.000000D+00  0.000000D+00  0.000000D+00
    107   0.000000D+00  0.000000D+00  0.000000D+00  0.000000D+00  0.000000D+00
    108   0.000000D+00  0.000000D+00  0.000000D+00  0.000000D+00  0.000000D+00
    109   0.000000D+00  0.000000D+00  0.000000D+00  0.000000D+00  0.000000D+00
    110   0.000000D+00  0.000000D+00  0.000000D+00  0.000000D+00  0.000000D+00
    111   0.000000D+00  0.000000D+00  0.000000D+00  0.000000D+00  0.000000D+00
    112   0.000000D+00  0.000000D+00  0.000000D+00  0.000000D+00  0.000000D+00
    113   0.000000D+00  0.000000D+00  0.000000D+00  0.000000D+00  0.000000D+00
    114   0.000000D+00  0.000000D+00  0.000000D+00  0.000000D+00  0.000000D+00
    115   0.000000D+00  0.000000D+00  0.000000D+00  0.000000D+00  0.000000D+00
    116   0.000000D+00  0.000000D+00  0.000000D+00  0.000000D+00  0.000000D+00
    117   0.000000D+00  0.000000D+00  0.000000D+00  0.000000D+00  0.000000D+00
    118   0.000000D+00  0.000000D+00  0.000000D+00  0.000000D+00  0.000000D+00
    119   0.000000D+00  0.000000D+00  0.000000D+00  0.000000D+00  0.000000D+00
    120   0.000000D+00  0.000000D+00  0.000000D+00  0.000000D+00  0.000000D+00
    121   0.000000D+00  0.000000D+00  0.000000D+00  0.000000D+00  0.000000D+00
    122   0.000000D+00  0.000000D+00  0.000000D+00  0.000000D+00  0.000000D+00
    123   0.000000D+00  0.000000D+00  0.000000D+00  0.000000D+00  0.000000D+00
    124   0.000000D+00  0.000000D+00  0.000000D+00  0.000000D+00  0.000000D+00
    125   0.000000D+00  0.000000D+00  0.000000D+00  0.000000D+00  0.000000D+00
    126   0.000000D+00  0.000000D+00  0.000000D+00  0.000000D+00  0.000000D+00
    127   0.000000D+00  0.000000D+00  0.000000D+00  0.000000D+00  0.000000D+00
    128   0.000000D+00  0.000000D+00  0.000000D+00  0.000000D+00  0.000000D+00
    129   0.000000D+00  0.000000D+00  0.000000D+00  0.000000D+00  0.000000D+00
    130   0.000000D+00  0.000000D+00  0.000000D+00  0.000000D+00  0.000000D+00
    131   0.000000D+00  0.000000D+00  0.000000D+00  0.000000D+00  0.000000D+00
    132   0.000000D+00  0.000000D+00  0.000000D+00  0.000000D+00  0.000000D+00
    133   0.000000D+00  0.000000D+00  0.000000D+00  0.000000D+00  0.000000D+00
    134   0.000000D+00  0.000000D+00  0.000000D+00  0.000000D+00  0.000000D+00
    135   0.000000D+00  0.000000D+00  0.000000D+00  0.000000D+00  0.000000D+00
    136   0.000000D+00  0.000000D+00  0.000000D+00  0.000000D+00  0.000000D+00
    137   0.000000D+00  0.000000D+00  0.000000D+00  0.000000D+00  0.000000D+00
    138   0.000000D+00  0.000000D+00  0.000000D+00  0.000000D+00  0.000000D+00
    139   0.000000D+00  0.000000D+00  0.000000D+00  0.000000D+00  0.000000D+00
    140   0.000000D+00  0.000000D+00  0.000000D+00  0.000000D+00  0.000000D+00
    141   0.000000D+00  0.000000D+00  0.000000D+00  0.000000D+00  0.000000D+00
    142   0.000000D+00  0.000000D+00  0.000000D+00  0.000000D+00  0.000000D+00
    143   0.000000D+00  0.000000D+00  0.000000D+00  0.000000D+00  0.000000D+00
    144   0.000000D+00  0.000000D+00  0.000000D+00  0.000000D+00  0.000000D+00
    145   0.000000D+00  0.000000D+00  0.000000D+00  0.000000D+00  0.000000D+00
    146   0.000000D+00  0.000000D+00  0.000000D+00  0.000000D+00  0.000000D+00
    147   0.000000D+00  0.000000D+00  0.000000D+00  0.000000D+00  0.000000D+00
    148   0.000000D+00  0.000000D+00  0.000000D+00  0.000000D+00  0.000000D+00
    149   0.000000D+00  0.000000D+00  0.000000D+00  0.000000D+00  0.000000D+00
    150   0.000000D+00  0.000000D+00  0.000000D+00  0.000000D+00  0.000000D+00
    151   0.000000D+00  0.000000D+00  0.000000D+00  0.000000D+00  0.000000D+00
    152   0.000000D+00  0.000000D+00  0.000000D+00  0.000000D+00  0.000000D+00
    153   0.000000D+00  0.000000D+00  0.000000D+00  0.000000D+00  0.000000D+00
    154   0.000000D+00  0.000000D+00  0.000000D+00  0.000000D+00  0.000000D+00
    155   0.000000D+00  0.000000D+00  0.000000D+00  0.000000D+00  0.000000D+00
    156   0.000000D+00  0.000000D+00  0.000000D+00  0.000000D+00  0.000000D+00
    157   0.000000D+00  0.000000D+00  0.000000D+00  0.000000D+00  0.000000D+00
    158   0.000000D+00  0.000000D+00  0.000000D+00  0.000000D+00  0.000000D+00
    159   0.000000D+00  0.000000D+00  0.000000D+00  0.000000D+00  0.000000D+00
    160   0.000000D+00  0.000000D+00  0.000000D+00  0.000000D+00  0.000000D+00
    161   0.000000D+00  0.000000D+00  0.000000D+00  0.000000D+00  0.000000D+00
    162   0.000000D+00  0.000000D+00  0.000000D+00  0.000000D+00  0.000000D+00
    163   0.000000D+00  0.000000D+00  0.000000D+00  0.000000D+00  0.000000D+00
    164   0.000000D+00  0.000000D+00  0.000000D+00  0.000000D+00  0.000000D+00
    165   0.000000D+00  0.000000D+00  0.000000D+00  0.000000D+00  0.000000D+00
    166   0.000000D+00  0.000000D+00  0.000000D+00  0.000000D+00  0.000000D+00
    167   0.000000D+00  0.000000D+00  0.000000D+00  0.000000D+00  0.000000D+00
    168   0.000000D+00  0.000000D+00  0.000000D+00  0.000000D+00  0.000000D+00
    169   0.000000D+00  0.000000D+00  0.000000D+00  0.000000D+00  0.000000D+00
    170   0.000000D+00  0.000000D+00  0.000000D+00  0.000000D+00  0.000000D+00
    171   0.000000D+00  0.000000D+00  0.000000D+00  0.000000D+00  0.000000D+00
    172   0.000000D+00  0.000000D+00  0.000000D+00  0.000000D+00  0.000000D+00
    173   0.000000D+00  0.000000D+00  0.000000D+00  0.000000D+00  0.000000D+00
    174   0.000000D+00  0.000000D+00  0.000000D+00  0.000000D+00  0.000000D+00
    175   0.000000D+00  0.000000D+00  0.000000D+00  0.000000D+00  0.000000D+00
    176   0.000000D+00  0.000000D+00  0.000000D+00  0.000000D+00  0.000000D+00
    177   0.000000D+00  0.000000D+00  0.000000D+00  0.000000D+00  0.000000D+00
    178   0.000000D+00  0.000000D+00  0.000000D+00  0.000000D+00  0.000000D+00
    179   0.000000D+00  0.000000D+00  0.000000D+00  0.000000D+00  0.000000D+00
    180   0.000000D+00  0.000000D+00  0.000000D+00  0.000000D+00  0.000000D+00
    181   0.000000D+00  0.000000D+00  0.000000D+00  0.000000D+00  0.000000D+00
    182   0.000000D+00  0.000000D+00  0.000000D+00  0.000000D+00  0.000000D+00
    183   0.000000D+00  0.000000D+00  0.000000D+00  0.000000D+00  0.000000D+00
    184   0.000000D+00  0.000000D+00  0.000000D+00  0.000000D+00  0.000000D+00
    185   0.000000D+00  0.000000D+00  0.000000D+00  0.000000D+00  0.000000D+00
    186   0.000000D+00  0.000000D+00  0.000000D+00  0.000000D+00  0.000000D+00
    187   0.000000D+00  0.000000D+00  0.000000D+00  0.000000D+00  0.000000D+00
    188   0.000000D+00  0.000000D+00  0.000000D+00  0.000000D+00  0.000000D+00
    189   0.000000D+00  0.000000D+00  0.000000D+00  0.000000D+00  0.000000D+00
    190   0.000000D+00  0.000000D+00  0.000000D+00  0.000000D+00  0.000000D+00
    191   0.000000D+00  0.000000D+00  0.000000D+00  0.000000D+00  0.000000D+00
    192   0.000000D+00  0.000000D+00  0.000000D+00  0.000000D+00  0.000000D+00
    193   0.000000D+00  0.000000D+00  0.000000D+00  0.000000D+00  0.000000D+00
    194   0.000000D+00  0.000000D+00  0.000000D+00  0.000000D+00  0.000000D+00
    195   0.000000D+00  0.000000D+00  0.000000D+00  0.000000D+00  0.000000D+00
    196   0.000000D+00  0.000000D+00  0.000000D+00  0.000000D+00  0.000000D+00
    197   0.000000D+00  0.000000D+00  0.000000D+00  0.000000D+00  0.000000D+00
    198   0.000000D+00  0.000000D+00  0.000000D+00  0.000000D+00  0.000000D+00
    199   0.000000D+00  0.000000D+00  0.000000D+00  0.000000D+00  0.000000D+00
    200   0.000000D+00  0.000000D+00  0.000000D+00  0.000000D+00  0.000000D+00
    201   0.000000D+00  0.000000D+00  0.000000D+00  0.000000D+00  0.000000D+00
    202   0.000000D+00  0.000000D+00  0.000000D+00  0.000000D+00  0.000000D+00
    203   0.000000D+00  0.000000D+00  0.000000D+00  0.000000D+00  0.000000D+00
    204   0.000000D+00  0.000000D+00  0.000000D+00  0.000000D+00  0.000000D+00
    205   0.000000D+00  0.000000D+00  0.000000D+00  0.000000D+00  0.000000D+00
    206   0.000000D+00  0.000000D+00  0.000000D+00  0.000000D+00  0.000000D+00
    207   0.000000D+00  0.000000D+00  0.000000D+00  0.000000D+00  0.000000D+00
    208   0.000000D+00  0.000000D+00  0.000000D+00  0.000000D+00  0.000000D+00
    209   0.000000D+00  0.000000D+00  0.000000D+00  0.000000D+00  0.000000D+00
    210   0.000000D+00  0.000000D+00  0.000000D+00  0.000000D+00  0.000000D+00
    211   0.000000D+00  0.000000D+00  0.000000D+00  0.000000D+00  0.000000D+00
    212   0.000000D+00  0.000000D+00  0.000000D+00  0.000000D+00  0.000000D+00
    213   0.000000D+00  0.000000D+00  0.000000D+00  0.000000D+00  0.000000D+00
    214   0.000000D+00  0.000000D+00  0.000000D+00  0.000000D+00  0.000000D+00
    215   0.000000D+00  0.000000D+00  0.000000D+00  0.000000D+00  0.000000D+00
    216   0.000000D+00  0.000000D+00  0.000000D+00  0.000000D+00  0.000000D+00
    217   0.000000D+00  0.000000D+00  0.000000D+00  0.000000D+00  0.000000D+00
    218   0.000000D+00  0.000000D+00  0.000000D+00  0.000000D+00  0.000000D+00
    219   0.000000D+00  0.000000D+00  0.000000D+00  0.000000D+00  0.000000D+00
    220   0.000000D+00  0.000000D+00  0.000000D+00  0.000000D+00  0.000000D+00
    221   0.000000D+00  0.000000D+00  0.000000D+00  0.000000D+00  0.000000D+00
    222   0.000000D+00  0.000000D+00  0.000000D+00  0.000000D+00  0.000000D+00
    223   0.000000D+00  0.000000D+00  0.000000D+00  0.000000D+00  0.000000D+00
    224   0.000000D+00  0.000000D+00  0.000000D+00  0.000000D+00  0.000000D+00
    225   0.000000D+00  0.000000D+00  0.000000D+00  0.000000D+00  0.000000D+00
    226   0.000000D+00  0.000000D+00  0.000000D+00  0.000000D+00  0.000000D+00
    227   0.000000D+00  0.000000D+00  0.000000D+00  0.000000D+00  0.000000D+00
    228   0.000000D+00  0.000000D+00  0.000000D+00  0.000000D+00  0.000000D+00
    229   0.000000D+00  0.000000D+00  0.000000D+00  0.000000D+00  0.000000D+00
    230   0.000000D+00  0.000000D+00  0.000000D+00  0.000000D+00  0.000000D+00
    231   0.000000D+00  0.000000D+00  0.000000D+00  0.000000D+00  0.000000D+00
    232   0.000000D+00  0.000000D+00  0.000000D+00  0.000000D+00  0.000000D+00
    233   0.000000D+00  0.000000D+00  0.000000D+00  0.000000D+00  0.000000D+00
    234   0.000000D+00  0.000000D+00  0.000000D+00  0.000000D+00  0.000000D+00
    235   0.000000D+00  0.000000D+00  0.000000D+00  0.000000D+00  0.000000D+00
    236   0.000000D+00  0.000000D+00  0.000000D+00  0.000000D+00  0.000000D+00
    237   0.000000D+00  0.000000D+00  0.000000D+00  0.000000D+00  0.000000D+00
    238   0.000000D+00  0.000000D+00  0.000000D+00  0.000000D+00  0.000000D+00
    239   0.000000D+00  0.000000D+00  0.000000D+00  0.000000D+00  0.000000D+00
    240   0.000000D+00  0.000000D+00  0.000000D+00  0.000000D+00  0.000000D+00
    241   0.000000D+00  0.000000D+00  0.000000D+00  0.000000D+00  0.000000D+00
    242   0.000000D+00  0.000000D+00  0.000000D+00  0.000000D+00  0.000000D+00
    243   0.000000D+00  0.000000D+00  0.000000D+00  0.000000D+00  0.000000D+00
    244   0.000000D+00  0.000000D+00  0.000000D+00  0.000000D+00  0.000000D+00
    245   0.000000D+00  0.000000D+00  0.000000D+00  0.000000D+00  0.000000D+00
    246   0.000000D+00  0.000000D+00  0.000000D+00  0.000000D+00  0.000000D+00
    247   0.000000D+00  0.000000D+00  0.000000D+00  0.000000D+00  0.000000D+00
    248   0.000000D+00  0.000000D+00  0.000000D+00  0.000000D+00  0.000000D+00
    249   0.000000D+00  0.000000D+00  0.000000D+00  0.000000D+00  0.000000D+00
    250   0.000000D+00  0.000000D+00  0.000000D+00  0.000000D+00  0.000000D+00
    251   0.000000D+00  0.000000D+00  0.000000D+00  0.000000D+00  0.000000D+00
    252   0.000000D+00  0.000000D+00  0.000000D+00  0.000000D+00  0.000000D+00
    253   0.000000D+00  0.000000D+00  0.000000D+00  0.000000D+00  0.000000D+00
    254   0.000000D+00  0.000000D+00  0.000000D+00  0.000000D+00  0.000000D+00
    255   0.000000D+00  0.000000D+00  0.000000D+00  0.000000D+00  0.000000D+00
    256   0.000000D+00  0.000000D+00  0.000000D+00  0.000000D+00  0.000000D+00
    257   0.000000D+00  0.000000D+00  0.000000D+00  0.000000D+00  0.000000D+00
    258   0.000000D+00  0.000000D+00  0.000000D+00  0.000000D+00  0.000000D+00
    259   0.000000D+00  0.000000D+00  0.000000D+00  0.000000D+00  0.000000D+00
    260   0.000000D+00  0.000000D+00  0.000000D+00  0.000000D+00  0.000000D+00
    261   0.000000D+00  0.000000D+00  0.000000D+00  0.000000D+00  0.000000D+00
    262   0.000000D+00  0.000000D+00  0.000000D+00  0.000000D+00  0.000000D+00
    263   0.000000D+00  0.000000D+00  0.000000D+00  0.000000D+00  0.000000D+00
    264   0.000000D+00  0.000000D+00  0.000000D+00  0.000000D+00  0.000000D+00
    265   0.000000D+00  0.000000D+00  0.000000D+00  0.000000D+00  0.000000D+00
    266   0.000000D+00  0.000000D+00  0.000000D+00  0.000000D+00  0.000000D+00
    267   0.000000D+00  0.000000D+00  0.000000D+00  0.000000D+00  0.000000D+00
    268   0.000000D+00  0.000000D+00  0.000000D+00  0.000000D+00  0.000000D+00
    269   0.000000D+00  0.000000D+00  0.000000D+00  0.000000D+00  0.000000D+00
    270   0.000000D+00  0.000000D+00  0.000000D+00  0.000000D+00  0.000000D+00
    271   0.000000D+00  0.000000D+00  0.000000D+00  0.000000D+00  0.000000D+00
    272   0.000000D+00  0.000000D+00  0.000000D+00  0.000000D+00  0.000000D+00
    273   0.000000D+00  0.000000D+00  0.000000D+00  0.000000D+00  0.000000D+00
    274   0.000000D+00  0.000000D+00  0.000000D+00  0.000000D+00  0.000000D+00
    275   0.000000D+00  0.000000D+00  0.000000D+00  0.000000D+00  0.000000D+00
    276   0.000000D+00  0.000000D+00  0.000000D+00  0.000000D+00  0.000000D+00
    277   0.000000D+00  0.000000D+00  0.000000D+00  0.000000D+00  0.000000D+00
    278   0.000000D+00  0.000000D+00  0.000000D+00  0.000000D+00  0.000000D+00
    279   0.000000D+00  0.000000D+00  0.000000D+00  0.000000D+00  0.000000D+00
    280   0.000000D+00  0.000000D+00  0.000000D+00  0.000000D+00  0.000000D+00
    281   0.000000D+00  0.000000D+00  0.000000D+00  0.000000D+00  0.000000D+00
    282   0.000000D+00  0.000000D+00  0.000000D+00  0.000000D+00  0.000000D+00
    283   0.000000D+00  0.000000D+00  0.000000D+00  0.000000D+00  0.000000D+00
    284   0.000000D+00  0.000000D+00  0.000000D+00  0.000000D+00  0.000000D+00
    285   0.000000D+00  0.000000D+00  0.000000D+00  0.000000D+00  0.000000D+00
    286   0.000000D+00  0.000000D+00  0.000000D+00  0.000000D+00  0.000000D+00
    287   0.000000D+00  0.000000D+00  0.000000D+00  0.000000D+00  0.000000D+00
    288   0.000000D+00  0.000000D+00  0.000000D+00  0.000000D+00  0.000000D+00
    289   0.000000D+00  0.000000D+00  0.000000D+00  0.000000D+00  0.000000D+00
    290   0.000000D+00  0.000000D+00  0.000000D+00  0.000000D+00  0.000000D+00
    291   0.000000D+00  0.000000D+00  0.000000D+00  0.000000D+00  0.000000D+00
    292   0.000000D+00  0.000000D+00  0.000000D+00  0.000000D+00  0.000000D+00
    293   0.000000D+00  0.000000D+00  0.000000D+00  0.000000D+00  0.000000D+00
    294   0.000000D+00  0.000000D+00  0.000000D+00  0.000000D+00  0.000000D+00
    295   0.000000D+00  0.000000D+00  0.000000D+00  0.000000D+00  0.000000D+00
    296   0.000000D+00  0.000000D+00  0.000000D+00  0.000000D+00  0.000000D+00
    297   0.000000D+00  0.000000D+00  0.000000D+00  0.000000D+00  0.000000D+00
    298   0.000000D+00  0.000000D+00  0.000000D+00  0.000000D+00  0.000000D+00
    299   0.000000D+00  0.000000D+00  0.000000D+00  0.000000D+00  0.000000D+00
    300   0.000000D+00  0.000000D+00  0.000000D+00  0.000000D+00  0.000000D+00
    301   0.000000D+00  0.000000D+00  0.000000D+00  0.000000D+00  0.000000D+00
    302   0.000000D+00  0.000000D+00  0.000000D+00  0.000000D+00  0.000000D+00
    303   0.000000D+00  0.000000D+00  0.000000D+00  0.000000D+00  0.000000D+00
    304   0.000000D+00  0.000000D+00  0.000000D+00  0.000000D+00  0.000000D+00
    305   0.000000D+00  0.000000D+00  0.000000D+00  0.000000D+00  0.000000D+00
    306   0.000000D+00  0.000000D+00  0.000000D+00  0.000000D+00  0.000000D+00
    307   0.000000D+00  0.000000D+00  0.000000D+00  0.000000D+00  0.000000D+00
    308   0.000000D+00  0.000000D+00  0.000000D+00  0.000000D+00  0.000000D+00
    309   0.000000D+00  0.000000D+00  0.000000D+00  0.000000D+00  0.000000D+00
    310   0.000000D+00  0.000000D+00  0.000000D+00  0.000000D+00  0.000000D+00
    311   0.000000D+00  0.000000D+00  0.000000D+00  0.000000D+00  0.000000D+00
    312   0.000000D+00  0.000000D+00  0.000000D+00  0.000000D+00  0.000000D+00
    313   0.000000D+00  0.000000D+00  0.000000D+00  0.000000D+00  0.000000D+00
    314   0.000000D+00  0.000000D+00  0.000000D+00  0.000000D+00  0.000000D+00
    315   0.000000D+00  0.000000D+00  0.000000D+00  0.000000D+00  0.000000D+00
    316   0.000000D+00  0.000000D+00  0.000000D+00  0.000000D+00  0.000000D+00
    317   0.000000D+00  0.000000D+00  0.000000D+00  0.000000D+00  0.000000D+00
    318   0.000000D+00  0.000000D+00  0.000000D+00  0.000000D+00  0.000000D+00
    319   0.000000D+00  0.000000D+00  0.000000D+00  0.000000D+00  0.000000D+00
    320   0.000000D+00  0.000000D+00  0.000000D+00  0.000000D+00  0.000000D+00
    321   0.000000D+00  0.000000D+00  0.000000D+00  0.000000D+00  0.000000D+00
    322   0.000000D+00  0.000000D+00  0.000000D+00  0.000000D+00  0.000000D+00
    323   0.000000D+00  0.000000D+00  0.000000D+00  0.000000D+00  0.000000D+00
    324   0.000000D+00  0.000000D+00  0.000000D+00  0.000000D+00  0.000000D+00
    325   0.000000D+00  0.000000D+00  0.000000D+00  0.000000D+00  0.000000D+00
    326   0.000000D+00  0.000000D+00  0.000000D+00  0.000000D+00  0.000000D+00
    327   0.000000D+00  0.000000D+00  0.000000D+00  0.000000D+00  0.000000D+00
    328   0.000000D+00  0.000000D+00  0.000000D+00  0.000000D+00  0.000000D+00
    329   0.000000D+00  0.000000D+00  0.000000D+00  0.000000D+00  0.000000D+00
    330   0.000000D+00  0.000000D+00  0.000000D+00  0.000000D+00  0.000000D+00
    331   0.000000D+00  0.000000D+00  0.000000D+00  0.000000D+00  0.000000D+00
    332   0.000000D+00  0.000000D+00  0.000000D+00  0.000000D+00  0.000000D+00
    333   0.000000D+00  0.000000D+00  0.000000D+00  0.000000D+00  0.000000D+00
    334   0.000000D+00  0.000000D+00  0.000000D+00  0.000000D+00  0.000000D+00
    335   0.000000D+00  0.000000D+00  0.000000D+00  0.000000D+00  0.000000D+00
    336   0.000000D+00  0.000000D+00  0.000000D+00  0.000000D+00  0.000000D+00
    337   0.000000D+00  0.000000D+00  0.000000D+00  0.000000D+00  0.000000D+00
    338   0.000000D+00  0.000000D+00  0.000000D+00  0.000000D+00  0.000000D+00
    339   0.000000D+00  0.000000D+00  0.000000D+00  0.000000D+00  0.000000D+00
    340   0.000000D+00  0.000000D+00  0.000000D+00  0.000000D+00  0.000000D+00
    341   0.000000D+00  0.000000D+00  0.000000D+00  0.000000D+00  0.000000D+00
    342   0.000000D+00  0.000000D+00  0.000000D+00  0.000000D+00  0.000000D+00
    343   0.000000D+00  0.000000D+00  0.000000D+00  0.000000D+00  0.000000D+00
    344   0.000000D+00  0.000000D+00  0.000000D+00  0.000000D+00  0.000000D+00
    345   0.000000D+00  0.000000D+00  0.000000D+00  0.000000D+00  0.000000D+00
    346   0.000000D+00  0.000000D+00  0.000000D+00  0.000000D+00  0.000000D+00
    347   0.000000D+00  0.000000D+00  0.000000D+00  0.000000D+00  0.000000D+00
    348   0.000000D+00  0.000000D+00  0.000000D+00  0.000000D+00  0.000000D+00
    349   0.000000D+00  0.000000D+00  0.000000D+00  0.000000D+00  0.000000D+00
    350   0.000000D+00  0.000000D+00  0.000000D+00  0.000000D+00  0.000000D+00
    351   0.000000D+00  0.000000D+00  0.000000D+00  0.000000D+00  0.000000D+00
    352   0.000000D+00  0.000000D+00  0.000000D+00  0.000000D+00  0.000000D+00
    353   0.000000D+00  0.000000D+00  0.000000D+00  0.000000D+00  0.000000D+00
    354   0.000000D+00  0.000000D+00  0.000000D+00  0.000000D+00  0.000000D+00
    355   0.000000D+00  0.000000D+00  0.000000D+00  0.000000D+00  0.000000D+00
    356   0.000000D+00  0.000000D+00  0.000000D+00  0.000000D+00  0.000000D+00
    357   0.000000D+00  0.000000D+00  0.000000D+00  0.000000D+00  0.000000D+00
    358   0.000000D+00  0.000000D+00  0.000000D+00  0.000000D+00  0.000000D+00
    359   0.000000D+00  0.000000D+00  0.000000D+00  0.000000D+00  0.000000D+00
    360   0.000000D+00  0.000000D+00  0.000000D+00  0.000000D+00  0.000000D+00
    361   0.000000D+00  0.000000D+00  0.000000D+00  0.000000D+00  0.000000D+00
    362   0.000000D+00  0.000000D+00  0.000000D+00  0.000000D+00  0.000000D+00
    363   0.000000D+00  0.000000D+00  0.000000D+00  0.000000D+00  0.000000D+00
    364   0.000000D+00  0.000000D+00  0.000000D+00  0.000000D+00  0.000000D+00
    365   0.000000D+00  0.000000D+00  0.000000D+00  0.000000D+00  0.000000D+00
    366   0.000000D+00  0.000000D+00  0.000000D+00  0.000000D+00  0.000000D+00
    367   0.130492D-02  0.906979D-02  0.000000D+00  0.000000D+00 -0.366042D-02
    368   0.631509D-02  0.415504D-01  0.000000D+00  0.000000D+00 -0.371464D-02
    369   0.000000D+00  0.000000D+00  0.217416D-02  0.000000D+00  0.000000D+00
    370   0.000000D+00  0.000000D+00  0.000000D+00  0.217416D-02  0.000000D+00
    371   0.389351D-02  0.262023D-01  0.000000D+00  0.000000D+00 -0.803489D-02
    372   0.000000D+00  0.000000D+00  0.396794D-02  0.000000D+00  0.000000D+00
    373   0.000000D+00  0.000000D+00  0.000000D+00  0.396794D-02  0.000000D+00
    374   0.728062D-02  0.477008D-01  0.000000D+00  0.000000D+00  0.835005D-03
    375   0.000000D+00  0.000000D+00  0.000000D+00  0.000000D+00  0.000000D+00
    376   0.000000D+00  0.000000D+00  0.000000D+00  0.000000D+00  0.000000D+00
    377   0.380631D-05  0.722146D-04  0.000000D+00  0.000000D+00 -0.998544D-04
    378   0.321865D-03  0.271294D-02  0.000000D+00  0.000000D+00 -0.216087D-02
    379   0.248560D-02  0.171309D-01  0.000000D+00  0.000000D+00 -0.732901D-02
    380   0.554526D-02  0.366403D-01  0.000000D+00  0.000000D+00 -0.816749D-02
    381   0.000000D+00  0.000000D+00  0.000000D+00  0.000000D+00  0.000000D+00
    382   0.000000D+00  0.000000D+00  0.000000D+00  0.000000D+00  0.000000D+00
    383   0.000000D+00  0.000000D+00  0.000000D+00  0.000000D+00  0.000000D+00
    384   0.000000D+00  0.000000D+00  0.000000D+00  0.000000D+00  0.000000D+00
    385   0.000000D+00  0.000000D+00  0.000000D+00  0.000000D+00  0.000000D+00
    386   0.000000D+00  0.000000D+00  0.000000D+00  0.000000D+00  0.000000D+00
    387   0.000000D+00  0.000000D+00  0.206222D-04  0.000000D+00  0.000000D+00
    388   0.000000D+00  0.000000D+00  0.000000D+00  0.206222D-04  0.000000D+00
    389   0.141198D-04  0.265652D-03  0.000000D+00  0.000000D+00 -0.366128D-03
    390   0.000000D+00  0.000000D+00  0.113562D-02  0.000000D+00  0.000000D+00
    391   0.000000D+00  0.000000D+00  0.000000D+00  0.113562D-02  0.000000D+00
    392   0.180500D-02  0.138420D-01  0.000000D+00  0.000000D+00 -0.942656D-02
    393   0.000000D+00  0.000000D+00  0.542791D-02  0.000000D+00  0.000000D+00
    394   0.000000D+00  0.000000D+00  0.000000D+00  0.542791D-02  0.000000D+00
    395   0.993416D-02  0.652676D-01  0.000000D+00  0.000000D+00 -0.183943D-01
    396   0.000000D+00  0.000000D+00  0.687432D-02  0.000000D+00  0.000000D+00
    397   0.000000D+00  0.000000D+00  0.000000D+00  0.687432D-02  0.000000D+00
    398   0.127178D-01  0.825686D-01  0.000000D+00  0.000000D+00 -0.708339D-02
    399   0.000000D+00  0.000000D+00  0.000000D+00  0.000000D+00  0.000000D+00
    400   0.000000D+00  0.000000D+00  0.000000D+00  0.000000D+00  0.000000D+00
    401   0.000000D+00  0.000000D+00  0.000000D+00  0.000000D+00  0.000000D+00
    402   0.000000D+00  0.000000D+00  0.000000D+00  0.000000D+00  0.000000D+00
    403   0.000000D+00  0.000000D+00  0.000000D+00  0.000000D+00  0.000000D+00
    404   0.000000D+00  0.000000D+00  0.000000D+00  0.000000D+00  0.000000D+00
    405   0.000000D+00  0.000000D+00  0.000000D+00  0.000000D+00  0.000000D+00
    406   0.000000D+00  0.000000D+00  0.000000D+00  0.000000D+00  0.000000D+00
    407   0.000000D+00  0.000000D+00  0.000000D+00  0.000000D+00  0.000000D+00
    408   0.000000D+00  0.000000D+00  0.000000D+00  0.000000D+00  0.000000D+00
    409   0.000000D+00  0.157729D-05  0.000000D+00  0.000000D+00 -0.352519D-05
    410   0.000000D+00  0.000000D+00  0.000000D+00  0.000000D+00  0.000000D+00
    411   0.000000D+00  0.000000D+00  0.000000D+00  0.000000D+00  0.000000D+00
    412   0.000000D+00  0.000000D+00  0.000000D+00  0.000000D+00  0.000000D+00
    413   0.000000D+00  0.000000D+00  0.000000D+00  0.000000D+00  0.000000D+00
    414   0.435614D-04  0.745258D-03  0.000000D+00  0.000000D+00 -0.995735D-03
    415   0.000000D+00  0.000000D+00  0.100668D-03  0.000000D+00  0.000000D+00
    416   0.000000D+00  0.000000D+00  0.000000D+00  0.100668D-03  0.000000D+00
    417   0.000000D+00  0.000000D+00  0.000000D+00  0.000000D+00  0.000000D+00
    418   0.000000D+00  0.000000D+00  0.000000D+00  0.000000D+00  0.000000D+00
    419   0.303794D-02  0.230042D-01  0.000000D+00  0.000000D+00 -0.158815D-01
    420   0.000000D+00  0.000000D+00  0.327274D-02  0.000000D+00  0.000000D+00
    421   0.000000D+00  0.000000D+00  0.000000D+00  0.327274D-02  0.000000D+00
    422   0.000000D+00  0.000000D+00  0.000000D+00  0.000000D+00  0.000000D+00
    423   0.000000D+00  0.000000D+00  0.000000D+00  0.000000D+00  0.000000D+00
    424   0.145265D-01  0.936048D-01  0.000000D+00  0.000000D+00 -0.266850D-01
    425   0.000000D+00  0.000000D+00  0.135083D-01  0.000000D+00  0.000000D+00
    426   0.000000D+00  0.000000D+00  0.000000D+00  0.135083D-01  0.000000D+00
    427   0.000000D+00  0.000000D+00  0.000000D+00  0.000000D+00  0.000000D+00
    428   0.000000D+00  0.000000D+00  0.000000D+00  0.000000D+00  0.000000D+00
    429   0.176358D-01  0.112324D+00  0.000000D+00  0.000000D+00 -0.724120D-02
    430   0.000000D+00  0.000000D+00  0.162273D-01  0.000000D+00  0.000000D+00
    431   0.000000D+00  0.000000D+00  0.000000D+00  0.162273D-01  0.000000D+00
    432   0.000000D+00  0.000000D+00  0.000000D+00  0.000000D+00  0.000000D+00
    433   0.000000D+00  0.000000D+00  0.000000D+00  0.000000D+00  0.000000D+00
    434   0.000000D+00  0.000000D+00  0.000000D+00  0.000000D+00  0.000000D+00
    435   0.000000D+00  0.000000D+00  0.000000D+00  0.000000D+00  0.000000D+00
    436   0.000000D+00  0.000000D+00  0.000000D+00  0.000000D+00  0.000000D+00
    437   0.000000D+00  0.000000D+00  0.000000D+00  0.000000D+00  0.000000D+00
    438   0.000000D+00  0.000000D+00  0.000000D+00  0.000000D+00  0.000000D+00
    439   0.000000D+00  0.000000D+00  0.000000D+00  0.000000D+00  0.000000D+00
    440   0.000000D+00  0.000000D+00  0.000000D+00  0.000000D+00  0.000000D+00
    441   0.000000D+00  0.000000D+00  0.000000D+00  0.000000D+00  0.000000D+00
    442   0.000000D+00  0.000000D+00  0.000000D+00  0.000000D+00  0.000000D+00
    443   0.000000D+00  0.000000D+00  0.000000D+00  0.000000D+00  0.000000D+00
    444   0.000000D+00  0.000000D+00  0.000000D+00  0.000000D+00  0.000000D+00
    445   0.000000D+00  0.000000D+00  0.000000D+00  0.000000D+00  0.000000D+00
    446   0.000000D+00  0.000000D+00  0.000000D+00  0.000000D+00  0.000000D+00
    447   0.000000D+00  0.000000D+00  0.000000D+00  0.000000D+00  0.000000D+00
    448   0.139838D-05  0.786803D-04  0.000000D+00  0.000000D+00 -0.138757D-03
    449   0.000000D+00  0.000000D+00  0.144735D-04  0.000000D+00  0.000000D+00
    450   0.000000D+00  0.000000D+00  0.000000D+00  0.144735D-04  0.000000D+00
    451   0.000000D+00  0.000000D+00  0.000000D+00  0.000000D+00  0.000000D+00
    452   0.000000D+00  0.000000D+00  0.000000D+00  0.000000D+00  0.000000D+00
    453   0.000000D+00  0.000000D+00  0.000000D+00  0.000000D+00  0.000000D+00
    454   0.000000D+00  0.000000D+00  0.000000D+00  0.000000D+00  0.000000D+00
    455   0.924630D-03  0.889491D-02  0.000000D+00  0.000000D+00 -0.875717D-02
    456   0.000000D+00  0.000000D+00  0.175744D-02  0.000000D+00  0.000000D+00
    457   0.000000D+00  0.000000D+00  0.000000D+00  0.175744D-02  0.000000D+00
    458   0.000000D+00  0.000000D+00  0.000000D+00  0.000000D+00  0.000000D+00
    459   0.000000D+00  0.000000D+00  0.000000D+00  0.000000D+00  0.000000D+00
    460   0.000000D+00  0.000000D+00  0.000000D+00  0.000000D+00  0.000000D+00
    461   0.000000D+00  0.000000D+00  0.000000D+00  0.000000D+00  0.000000D+00
    462   0.126921D-01  0.825317D-01  0.000000D+00  0.000000D+00 -0.355020D-01
    463   0.000000D+00  0.000000D+00  0.168309D-01  0.000000D+00  0.000000D+00
    464   0.000000D+00  0.000000D+00  0.000000D+00  0.168309D-01  0.000000D+00
    465   0.000000D+00  0.000000D+00  0.000000D+00  0.000000D+00  0.000000D+00
    466   0.000000D+00  0.000000D+00  0.000000D+00  0.000000D+00  0.000000D+00
    467   0.000000D+00  0.000000D+00  0.000000D+00  0.000000D+00  0.000000D+00
    468   0.000000D+00  0.000000D+00  0.000000D+00  0.000000D+00  0.000000D+00
    469   0.230381D-01  0.142631D+00  0.000000D+00  0.000000D+00 -0.150267D-01
    470   0.000000D+00  0.000000D+00  0.292213D-01  0.000000D+00  0.000000D+00
    471   0.000000D+00  0.000000D+00  0.000000D+00  0.292213D-01  0.000000D+00
    472   0.000000D+00  0.000000D+00  0.000000D+00  0.000000D+00  0.000000D+00
    473   0.000000D+00  0.000000D+00  0.000000D+00  0.000000D+00  0.000000D+00
    474   0.000000D+00  0.000000D+00  0.000000D+00  0.000000D+00  0.000000D+00
    475   0.000000D+00  0.000000D+00  0.000000D+00  0.000000D+00  0.000000D+00
    476   0.000000D+00  0.000000D+00  0.000000D+00  0.000000D+00  0.000000D+00
    477   0.000000D+00  0.000000D+00  0.000000D+00  0.000000D+00  0.000000D+00
    478   0.000000D+00  0.000000D+00  0.000000D+00  0.000000D+00  0.000000D+00
    479   0.000000D+00  0.000000D+00  0.000000D+00  0.000000D+00  0.000000D+00
    480   0.000000D+00  0.000000D+00  0.000000D+00  0.000000D+00  0.000000D+00
    481   0.000000D+00  0.000000D+00  0.000000D+00  0.000000D+00  0.000000D+00
    482   0.000000D+00  0.000000D+00  0.000000D+00  0.000000D+00  0.000000D+00
    483   0.000000D+00  0.000000D+00  0.000000D+00  0.000000D+00  0.000000D+00
    484   0.000000D+00  0.000000D+00  0.000000D+00  0.000000D+00  0.000000D+00
    485   0.000000D+00  0.000000D+00  0.000000D+00  0.000000D+00 -0.153251D-05
    486   0.000000D+00  0.000000D+00  0.000000D+00  0.000000D+00  0.000000D+00
    487   0.000000D+00  0.000000D+00  0.000000D+00  0.000000D+00  0.000000D+00
[...]
                         Total pair energies =    -0.462001 A.U.

                         Single Excitations  =    -0.001484 A.U.

                          Total second order =    -0.463485 A.U.

                         E2(CBS) - E2(Dir) =      -0.004257 A.U.

 E2(CBS)=      -0.465732 CBS-Int=       0.002247 OIii=       1.659489

 **********************************************************************

            Population analysis using the SCF density.

 **********************************************************************

 Orbital symmetries:
       Occupied  (SG) (SG) (SG) (SG) (PI) (PI) (SG) (SG) (PI) (PI)
                 (SG) (SG) (PI) (PI) (SG) (DLTA) (DLTA)
       Virtual   (SG) (SG) (PI) (PI) (DLTA) (DLTA) (PI) (PI) (SG)
                 (PI) (PI) (SG) (SG) (PI) (PI) (SG) (DLTA) (DLTA)
                 (PI) (PI) (SG) (PI) (PI) (SG) (SG) (PI) (PI) (PI)
                 (PI) (DLTA) (DLTA) (SG) (PHI) (PHI) (SG) (PI)
                 (PI) (DLTA) (DLTA) (SG) (PI) (PI) (DLTA) (DLTA)
                 (SG) (SG) (PHI) (PHI) (SG) (?A) (?A) (PI) (PI)
                 (DLTA) (DLTA) (PI) (PI) (SG) (PI) (PI) (SG) (DLTA)
                 (DLTA) (SG) (PHI) (PHI) (PI) (PI) (PHI) (PHI)
                 (DLTA) (DLTA) (SG) (PI) (PI) (?A) (?A) (?B) (?B)
                 (PHI) (PHI) (PI) (PI) (SG) (DLTA) (DLTA) (DLTA)
                 (DLTA) (SG) (PI) (PI) (SG) (DLTA) (DLTA) (PI)
                 (PI) (SG) (PI) (PI) (SG) (PHI) (PHI) (SG) (?A)
                 (?A) (PI) (PI) (?A) (?A) (DLTA) (DLTA) (SG) (SG)
                 (SG) (?B) (?B) (PI) (PI) (DLTA) (DLTA) (SG) (PHI)
                 (PHI) (PHI) (PHI) (?A) (?A) (SG) (PI) (PI) (DLTA)
                 (DLTA) (PI) (PI) (PI) (PI) (PHI) (PHI) (SG) (DLTA)
                 (DLTA) (PHI) (PHI) (SG) (SG) (DLTA) (DLTA) (DLTA)
                 (DLTA) (PI) (PI) (PI) (PI) (PI) (PI) (?A) (?A)
                 (SG) (DLTA) (DLTA) (?B) (?B) (SG) (SG) (?B) (?B)
                 (PHI) (PHI) (PI) (PI) (?C) (?C) (SG) (SG) (?A)
                 (?A) (SG) (PI) (PI) (?B) (?B) (DLTA) (DLTA) (PHI)
                 (PHI) (SG) (SG) (DLTA) (DLTA) (PI) (PI) (DLTA)
                 (DLTA) (?A) (?A) (PI) (PI) (SG) (PHI) (PHI) (?A)
                 (?A) (PI) (PI) (SG) (PHI) (PHI) (PI) (PI) (?A)
                 (?A) (SG) (DLTA) (DLTA) (PHI) (PHI) (PHI) (PHI)
                 (SG) (DLTA) (DLTA) (DLTA) (DLTA) (SG) (SG) (?B)
                 (?B) (PHI) (PHI) (?A) (?A) (PI) (PI) (SG) (SG)
                 (SG) (SG) (PI) (PI) (PI) (PI) (SG) (DLTA) (DLTA)
                 (PI) (PI) (?B) (?B) (DLTA) (DLTA) (SG) (PHI) (PHI)
                 (DLTA) (DLTA) (PI) (PI) (SG) (SG) (?A) (?A) (DLTA)
                 (DLTA) (SG) (PI) (PI) (SG) (DLTA) (DLTA) (PHI)
                 (PHI) (PI) (PI) (?B) (?B) (?A) (?A) (PI) (PI)
                 (PHI) (PHI) (PI) (PI) (?B) (?B) (SG) (DLTA) (DLTA)
                 (?A) (?A) (PHI) (PHI) (PI) (PI) (SG) (DLTA) (DLTA)
                 (SG) (PI) (PI) (?A) (?A) (PHI) (PHI) (?A) (?A)
                 (DLTA) (DLTA) (SG) (PHI) (PHI) (PI) (PI) (PHI)
                 (PHI) (SG) (SG) (?C) (?C) (?B) (?B) (DLTA) (DLTA)
                 (PHI) (PHI) (SG) (?A) (?A) (SG) (PI) (PI) (DLTA)
                 (DLTA) (SG) (PI) (PI) (SG) (PHI) (PHI) (PI) (PI)
                 (SG) (DLTA) (DLTA) (PI) (PI) (SG) (DLTA) (DLTA)
                 (SG) (DLTA) (DLTA) (PI) (PI) (SG) (PI) (PI) (SG)
                 (SG) (PI) (PI) (SG) (?B) (?B) (DLTA) (DLTA) (?A)
                 (?A) (SG) (SG) (?B) (?B) (PHI) (PHI) (DLTA) (DLTA)
                 (?A) (?A) (PI) (PI) (PHI) (PHI) (SG) (DLTA) (DLTA)
                 (SG) (PI) (PI) (?B) (?B) (?A) (?A) (PHI) (PHI)
                 (SG) (DLTA) (DLTA) (?B) (?B) (?A) (?A) (SG) (PHI)
                 (PHI) (PI) (PI) (PI) (PI) (DLTA) (DLTA) (SG) (PI)
                 (PI) (PI) (PI) (SG) (?A) (?A) (PHI) (PHI) (DLTA)
                 (DLTA) (PHI) (PHI) (SG) (PI) (PI) (SG) (DLTA)
                 (DLTA) (?A) (?A) (SG) (PHI) (PHI) (PI) (PI) (PHI)
                 (PHI) (DLTA) (DLTA) (DLTA) (DLTA) (PI) (PI) (?B)
                 (?B) (SG) (SG) (?C) (?C) (?A) (?A) (?D) (?D) (PHI)
                 (PHI) (SG) (DLTA) (DLTA) (PI) (PI) (SG) (DLTA)
                 (DLTA) (PI) (PI) (SG) (PI) (PI) (SG) (?B) (?B)
                 (SG) (SG) (?C) (?C) (?A) (?A) (PHI) (PHI) (DLTA)
                 (DLTA) (SG) (PI) (PI) (SG) (?B) (?B) (SG) (SG)
                 (?C) (?C) (?A) (?A) (PHI) (PHI) (DLTA) (DLTA)
                 (SG) (PI) (PI) (SG) (SG) (SG) (DLTA) (DLTA) (PI)
                 (PI) (?B) (?B) (?A) (?A) (PHI) (PHI) (PI) (PI)
                 (DLTA) (DLTA) (PI) (PI) (SG) (?B) (?B) (SG) (SG)
                 (?A) (?A) (PHI) (PHI) (DLTA) (DLTA) (SG) (PI)
                 (PI) (SG) (SG) (?A) (?A) (?B) (?B) (PHI) (PHI)
                 (DLTA) (DLTA) (SG) (?B) (?B) (?A) (?A) (PI) (PI)
                 (PHI) (PHI) (DLTA) (DLTA) (PI) (PI) (SG) (PHI)
                 (PHI) (DLTA) (DLTA) (PI) (PI) (SG) (?A) (?A) (PHI)
                 (PHI) (DLTA) (DLTA) (SG) (PI) (PI) (DLTA) (DLTA)
                 (PI) (PI) (SG) (PHI) (PHI) (DLTA) (DLTA) (PI)
                 (PI) (?A) (?A) (PHI) (PHI) (DLTA) (DLTA) (PI)
                 (PI) (SG) (SG) (PI) (PI) (SG) (SG) (SG)
 The electronic state is 3-SG.
 Alpha  occ. eigenvalues -- -201.36733 -23.77579 -20.31963 -19.92351 -19.92351
 Alpha  occ. eigenvalues --  -19.92057  -3.10938  -1.98628  -1.98628  -1.91802
 Alpha  occ. eigenvalues --   -0.99205  -0.30759  -0.30745  -0.30745  -0.27467
 Alpha  occ. eigenvalues --   -0.27467  -0.05026
 Alpha virt. eigenvalues --    0.12230   0.13503   0.13569   0.13569   0.13734
 Alpha virt. eigenvalues --    0.13734   0.14165   0.14165   0.15309   0.22970
 Alpha virt. eigenvalues --    0.22970   0.23217   0.24907   0.27744   0.27744
 Alpha virt. eigenvalues --    0.29859   0.30097   0.30097   0.31575   0.31575
 Alpha virt. eigenvalues --    0.31759   0.35368   0.35368   0.36313   0.43948
 Alpha virt. eigenvalues --    0.45396   0.45396   0.51719   0.51719   0.51758
 Alpha virt. eigenvalues --    0.51758   0.52208   0.52751   0.52751   0.57195
 Alpha virt. eigenvalues --    0.61077   0.61077   0.61672   0.61672   0.62427
 Alpha virt. eigenvalues --    0.69919   0.69919   0.73526   0.73526   0.74183
 Alpha virt. eigenvalues --    0.79017   0.83219   0.83219   0.84437   0.84587
 Alpha virt. eigenvalues --    0.84587   0.84840   0.84840   0.85038   0.85038
 Alpha virt. eigenvalues --    0.86441   0.86441   0.92680   0.95703   0.95703
 Alpha virt. eigenvalues --    0.97330   1.11458   1.11458   1.12332   1.12853
 Alpha virt. eigenvalues --    1.12853   1.21415   1.21415   1.25510   1.25510
 Alpha virt. eigenvalues --    1.26958   1.26958   1.30057   1.31507   1.31507
 Alpha virt. eigenvalues --    1.34125   1.34125   1.34190   1.34190   1.40915
 Alpha virt. eigenvalues --    1.40915   1.41784   1.41784   1.42398   1.42850
 Alpha virt. eigenvalues --    1.42850   1.45334   1.45334   1.46739   1.55574
 Alpha virt. eigenvalues --    1.55574   1.59583   1.59609   1.59609   1.62862
 Alpha virt. eigenvalues --    1.62862   1.65963   1.67972   1.67972   1.77551
 Alpha virt. eigenvalues --    1.88800   1.88800   1.92366   1.96591   1.96591
 Alpha virt. eigenvalues --    2.00182   2.00182   2.03904   2.03904   2.09724
 Alpha virt. eigenvalues --    2.09724   2.10130   2.14880   2.14880   2.15310
 Alpha virt. eigenvalues --    2.15310   2.24289   2.24289   2.24368   2.24368
 Alpha virt. eigenvalues --    2.25851   2.28383   2.28383   2.29581   2.29581
 Alpha virt. eigenvalues --    2.38144   2.38144   2.40539   2.41036   2.41036
 Alpha virt. eigenvalues --    2.48461   2.48461   2.53013   2.53013   2.57224
 Alpha virt. eigenvalues --    2.57224   2.57652   2.57652   2.59364   2.64158
 Alpha virt. eigenvalues --    2.64158   2.67877   2.67877   2.72212   2.79055
 Alpha virt. eigenvalues --    2.79055   2.79488   2.86796   2.86796   3.03384
 Alpha virt. eigenvalues --    3.03384   3.07070   3.07070   3.10472   3.10472
 Alpha virt. eigenvalues --    3.12042   3.12042   3.14139   3.18923   3.18923
 Alpha virt. eigenvalues --    3.19177   3.19177   3.22003   3.26224   3.27100
 Alpha virt. eigenvalues --    3.27100   3.35171   3.35171   3.52811   3.52811
 Alpha virt. eigenvalues --    3.55752   3.55752   3.56317   3.56317   3.65822
 Alpha virt. eigenvalues --    3.65822   3.69855   3.82694   3.82694   3.83208
 Alpha virt. eigenvalues --    3.83208   3.84427   3.84427   3.91366   3.91366
 Alpha virt. eigenvalues --    3.94086   3.98906   4.05606   4.05606   4.06325
 Alpha virt. eigenvalues --    4.06325   4.06658   4.06658   4.15763   4.15763
 Alpha virt. eigenvalues --    4.18481   4.18481   4.20844   4.27169   4.27169
 Alpha virt. eigenvalues --    4.39710   4.39710   4.42412   4.42412   4.51137
 Alpha virt. eigenvalues --    4.51137   4.51329   4.58872   4.58872   4.69703
 Alpha virt. eigenvalues --    4.69703   4.71515   4.75844   4.75844   4.77354
 Alpha virt. eigenvalues --    4.77354   4.93611   4.93611   4.94727   5.00541
 Alpha virt. eigenvalues --    5.00541   5.19273   5.19273   5.23897   5.23897
 Alpha virt. eigenvalues --    5.33498   5.33498   5.35279   5.35279   5.39041
 Alpha virt. eigenvalues --    5.39041   5.43912   5.43912   5.47630   5.55303
 Alpha virt. eigenvalues --    5.55303   5.56853   5.56853   5.57112   5.72446
 Alpha virt. eigenvalues --    5.72446   5.76964   5.79638   5.79638   5.83915
 Alpha virt. eigenvalues --    5.83915   5.84733   5.84733   5.93064   5.93064
 Alpha virt. eigenvalues --    5.94641   6.08166   6.08166   6.21484   6.21484
 Alpha virt. eigenvalues --    6.35118   6.35118   6.47007   6.65835   6.67565
 Alpha virt. eigenvalues --    6.67565   6.85215   6.85215   6.86671   6.93091
 Alpha virt. eigenvalues --    6.93091   7.03921   7.04948   7.04948   7.18285
 Alpha virt. eigenvalues --    7.18285   7.21246   7.21246   7.26054   7.26054
 Alpha virt. eigenvalues --    7.31160   7.31160   7.45295   7.45295   7.68152
 Alpha virt. eigenvalues --    7.68152   7.83144   7.83144   7.85150   7.85150
 Alpha virt. eigenvalues --    7.86261   7.88140   7.88140   8.09413   8.09413
 Alpha virt. eigenvalues --    8.35807   8.35807   8.37142   8.37142   8.44036
 Alpha virt. eigenvalues --    8.93316   8.93316   9.33200   9.44853   9.44853
 Alpha virt. eigenvalues --    9.63111   9.63111   9.69265   9.69265   9.77239
 Alpha virt. eigenvalues --    9.77239   9.77334   9.77334   9.84373   9.93793
 Alpha virt. eigenvalues --    9.93793   9.97686   9.97686  10.20114  10.20114
 Alpha virt. eigenvalues --   10.27454  10.27454  10.27884  10.27884  10.30206
 Alpha virt. eigenvalues --   10.30206  10.32374  10.32374  10.47419  10.47419
 Alpha virt. eigenvalues --   10.52574  10.53695  10.53695  10.59461  10.60645
 Alpha virt. eigenvalues --   10.60645  10.72566  10.72566  10.76435  10.84662
 Alpha virt. eigenvalues --   10.84662  10.85290  11.10874  11.10874  11.21164
 Alpha virt. eigenvalues --   11.21164  11.22357  11.26745  11.26745  11.38261
 Alpha virt. eigenvalues --   11.38261  11.56003  11.60245  11.60245  11.87056
 Alpha virt. eigenvalues --   11.88664  11.88664  12.64951  12.64951  13.04168
 Alpha virt. eigenvalues --   13.12555  13.12555  13.53960  13.53960  13.54088
 Alpha virt. eigenvalues --   13.54088  13.60783  13.64264  13.64264  13.64786
 Alpha virt. eigenvalues --   13.64786  13.70188  13.70188  13.92175  13.92175
 Alpha virt. eigenvalues --   13.93151  13.93151  14.06942  14.06942  14.07234
 Alpha virt. eigenvalues --   14.07234  14.17002  14.17002  14.26697  14.26697
 Alpha virt. eigenvalues --   14.50118  14.50118  14.56143  15.08307  15.08307
 Alpha virt. eigenvalues --   15.42708  15.88456  15.88456  16.42102  16.42102
 Alpha virt. eigenvalues --   16.44675  16.44675  16.66325  16.66325  16.99473
 Alpha virt. eigenvalues --   17.14636  17.14636  17.35195  17.35195  17.51985
 Alpha virt. eigenvalues --   17.51985  17.54186  17.76104  17.76104  17.82551
 Alpha virt. eigenvalues --   17.82551  18.11148  18.11148  18.31647  18.31647
 Alpha virt. eigenvalues --   18.56224  18.78695  18.78695  19.28014  19.28014
 Alpha virt. eigenvalues --   19.32100  20.11087  20.11087  20.25005  20.25005
 Alpha virt. eigenvalues --   20.46203  20.46203  20.47807  20.47807  20.50073
 Alpha virt. eigenvalues --   20.70802  20.70802  20.91878  20.96420  20.96420
 Alpha virt. eigenvalues --   21.79130  21.79130  21.94109  21.94761  21.94761
 Alpha virt. eigenvalues --   21.97848  21.97848  22.14478  22.14478  22.27346
 Alpha virt. eigenvalues --   22.27346  22.59029  22.59029  22.65235  22.65235
 Alpha virt. eigenvalues --   22.67971  22.67971  22.68133  22.68133  22.69320
 Alpha virt. eigenvalues --   22.69320  22.70375  22.70375  22.71169  22.71169
 Alpha virt. eigenvalues --   22.83780  22.83780  22.95041  22.95041  22.95108
 Alpha virt. eigenvalues --   23.10835  23.10835  23.19890  23.29326  23.29326
 Alpha virt. eigenvalues --   23.65064  23.65064  24.27714  24.42355  24.42355
 Alpha virt. eigenvalues --   25.25419  25.52072  25.52072  25.52510  25.52510
 Alpha virt. eigenvalues --   25.53480  25.53480  25.57999  25.57999  25.87770
 Alpha virt. eigenvalues --   25.87770  26.40975  26.40975  26.46237  26.82314
 Alpha virt. eigenvalues --   26.82314  26.98202  29.48746  29.48746  29.49659
 Alpha virt. eigenvalues --   29.49659  29.52200  29.52200  29.54398  29.54398
 Alpha virt. eigenvalues --   29.74030  29.74030  29.94922  29.94922  29.96026
 Alpha virt. eigenvalues --   29.99277  29.99277  30.11784  34.15324  34.15324
 Alpha virt. eigenvalues --   34.15712  34.15712  34.20039  34.20039  34.20937
 Alpha virt. eigenvalues --   34.20937  34.26304  34.26304  34.41272  34.41272
 Alpha virt. eigenvalues --   34.56591  34.56591  34.70432  34.70432  34.75119
 Alpha virt. eigenvalues --   34.75119  34.81048  35.45309  35.45309  35.47586
 Alpha virt. eigenvalues --   35.47586  35.51379  35.51379  35.65268  35.65268
 Alpha virt. eigenvalues --   35.78323  35.78323  35.99294  36.36728  36.36728
 Alpha virt. eigenvalues --   37.07739  38.32131  38.33571  38.33571  38.33727
 Alpha virt. eigenvalues --   38.33727  38.45263  38.45263  38.76870  38.76870
 Alpha virt. eigenvalues --   39.10240  39.15387  39.15387  39.25460  39.25460
 Alpha virt. eigenvalues --   39.28305  39.28305  39.39578  39.39578  39.68291
 Alpha virt. eigenvalues --   39.68291  39.79647  39.79647  40.26008  41.87819
 Alpha virt. eigenvalues --   41.87819  42.26978  42.26978  42.64721  42.64721
 Alpha virt. eigenvalues --   42.94783  43.02906  43.02906  43.18626  43.18626
 Alpha virt. eigenvalues --   43.50631  43.50631  44.16176  44.34873  44.34873
 Alpha virt. eigenvalues --   47.05548  47.05548  47.56060  47.56060  48.24022
 Alpha virt. eigenvalues --   51.04032  51.04032  51.33067  51.33067  51.94948
 Alpha virt. eigenvalues --   51.94948  52.09590  52.09590  52.19854  52.19854
 Alpha virt. eigenvalues --   52.66992  52.66992  52.75014  52.75014  52.86098
 Alpha virt. eigenvalues --   53.18752  53.59294  53.59294  56.00540 108.61869
 Alpha virt. eigenvalues --  533.27252
          Condensed to atoms (all electrons):
              1          2
     1  V   22.348535   0.279337
     2  O    0.279337   9.092792
 Mulliken atomic charges:
              1
     1  V    0.372128
     2  O   -1.372128
 Sum of Mulliken atomic charges =  -1.00000
 Mulliken charges with hydrogens summed into heavy atoms:
              1
     1  V    0.372128
     2  O   -1.372128
 Sum of Mulliken charges with hydrogens summed into heavy atoms =  -1.00000
          Atomic-Atomic Spin Densities.
              1          2
     1  V    1.996370   0.001764
     2  O    0.001764   0.000102
 Mulliken atomic spin densities:
              1
     1  V    1.998134
     2  O    0.001866
 Sum of Mulliken atomic spin densities =   2.00000
 Electronic spatial extent (au):  <R**2>=            144.6703
 Charge=             -1.0000 electrons
 Dipole moment (field-independent basis, Debye):
    X=              0.0000    Y=              0.0000    Z=             -1.4538  Tot=              1.4538
 Quadrupole moment (field-independent basis, Debye-Ang):
   XX=            -35.8972   YY=            -35.8972   ZZ=            -48.4334
   XY=              0.0000   XZ=              0.0000   YZ=              0.0000
 Traceless Quadrupole moment (field-independent basis, Debye-Ang):
   XX=              4.1787   YY=              4.1787   ZZ=             -8.3575
   XY=              0.0000   XZ=              0.0000   YZ=              0.0000
 Octapole moment (field-independent basis, Debye-Ang**2):
  XXX=              0.0000  YYY=              0.0000  ZZZ=            -55.5206  XYY=              0.0000
  XXY=              0.0000  XXZ=            -19.6878  XZZ=              0.0000  YZZ=              0.0000
  YYZ=            -19.6878  XYZ=              0.0000
 Hexadecapole moment (field-independent basis, Debye-Ang**3):
 XXXX=           -169.7443 YYYY=           -169.7443 ZZZZ=           -372.4489 XXXY=              0.0000
 XXXZ=              0.0000 YYYX=              0.0000 YYYZ=              0.0000 ZZZX=              0.0000
 ZZZY=              0.0000 XXYY=            -56.5814 XXZZ=            -89.9368 YYZZ=            -89.9368
 XXYZ=              0.0000 YYXZ=              0.0000 ZZXY=              0.0000
 N-N= 6.029015874957D+01 E-N=-3.787205109932D+03  KE= 1.521788906981D+03
                          Isotropic Fermi Contact Couplings
        Atom                 a.u.       MegaHertz       Gauss      10(-4) cm-1
     1  V(51)              0.00000       0.00000       0.00000       0.00000
     2  O(17)              0.00000       0.00000       0.00000       0.00000
 --------------------------------------------------------
       Center         ----  Spin Dipole Couplings  ----
                      3XX-RR        3YY-RR        3ZZ-RR
 --------------------------------------------------------
     1   Atom        1.534637      1.534637     -3.069275
     2   Atom       -0.047856     -0.047856      0.095713
 --------------------------------------------------------
                        XY            XZ            YZ
 --------------------------------------------------------
     1   Atom        0.000000      0.000000      0.000000
     2   Atom        0.000000      0.000000      0.000000
 --------------------------------------------------------


 ---------------------------------------------------------------------------------
              Anisotropic Spin Dipole Couplings in Principal Axis System
 ---------------------------------------------------------------------------------

       Atom             a.u.   MegaHertz   Gauss  10(-4) cm-1        Axes

              Baa    -3.0693  -431.512  -153.974  -143.937  0.0000  0.0000  1.0000
     1 V(51)  Bbb     1.5346   215.756    76.987    71.969  0.0000  1.0000  0.0000
              Bcc     1.5346   215.756    76.987    71.969  1.0000  0.0000  0.0000
 
              Baa    -0.0479     3.463     1.236     1.155  1.0000  0.0000  0.0000
     2 O(17)  Bbb    -0.0479     3.463     1.236     1.155  0.0000  1.0000  0.0000
              Bcc     0.0957    -6.926    -2.471    -2.310  0.0000  0.0000  1.0000
 

 ---------------------------------------------------------------------------------


 Test job not archived.
 1\1\GINC-N36\SP\ROMP2-FC\Gen\O1V1(1-,3)\ROOT\31-Oct-2013\0\\# ROMP2 Ge
 n GFinput Int=NoBasisTransform Int(Grid=Ultrafine) IOp(3/32=2,5/6=10,8
 /11=1,9/33=1) Maxdisk=128GB CBSextrapolate(Nmin=25,MinPop) SCF=(Symm,M
 axCycle=500) Guess=Read\\VO- 3Sg-\\-1,3\V\O,1,1.615\\Version=EM64L-G09
 RevA.02\State=3-SG\HF=-1017.7670165\MP2=-1018.2284912\E2(CBS)=-0.46573
 2\CBS-Int=-0.4634847\OIii=1.6594891\RMSD=1.909e-11\PG=C*V [C*(O1V1)]\\
 @


 TIME GOES, YOU SAY?  AH NO!
 ALAS, TIME STAYS, WE GO.
    -- A. DOBSON (1840-1921)
 Job cpu time:  8 days 13 hours  0 minutes 20.3 seconds.
 File lengths (MBytes):  RWF=  54385 Int=      0 D2E=      0 Chk=     35 Scr=      1
 Normal termination of Gaussian 09 at Thu Oct 31 05:26:54 2013.
