 Entering Gaussian System, Link 0=g09
 AtFile(1): 7ZaPa-NR.gbs
 Initial command:
 /share/apps/gaussian/g09root/g09/l1.exe /localscratch/62253/Gau-1690.inp -scrdir=/localscratch/62253/
 Entering Link 1 = /share/apps/gaussian/g09root/g09/l1.exe PID=      1691.
  
 Copyright (c) 1988,1990,1992,1993,1995,1998,2003,2009, Gaussian, Inc.
                  All Rights Reserved.
  
 This is part of the Gaussian(R) 09 program.  It is based on
 the Gaussian(R) 03 system (copyright 2003, Gaussian, Inc.),
 the Gaussian(R) 98 system (copyright 1998, Gaussian, Inc.),
 the Gaussian(R) 94 system (copyright 1995, Gaussian, Inc.),
 the Gaussian 92(TM) system (copyright 1992, Gaussian, Inc.),
 the Gaussian 90(TM) system (copyright 1990, Gaussian, Inc.),
 the Gaussian 88(TM) system (copyright 1988, Gaussian, Inc.),
 the Gaussian 86(TM) system (copyright 1986, Carnegie Mellon
 University), and the Gaussian 82(TM) system (copyright 1983,
 Carnegie Mellon University). Gaussian is a federally registered
 trademark of Gaussian, Inc.
  
 This software contains proprietary and confidential information,
 including trade secrets, belonging to Gaussian, Inc.
  
 This software is provided under written license and may be
 used, copied, transmitted, or stored only in accord with that
 written license.
  
 The following legend is applicable only to US Government
 contracts under FAR:
  
                    RESTRICTED RIGHTS LEGEND
  
 Use, reproduction and disclosure by the US Government is
 subject to restrictions as set forth in subparagraphs (a)
 and (c) of the Commercial Computer Software - Restricted
 Rights clause in FAR 52.227-19.
  
 Gaussian, Inc.
 340 Quinnipiac St., Bldg. 40, Wallingford CT 06492
  
  
 ---------------------------------------------------------------
 Warning -- This program may not be used in any manner that
 competes with the business of Gaussian, Inc. or will provide
 assistance to any competitor of Gaussian, Inc.  The licensee
 of this program is prohibited from giving any competitor of
 Gaussian, Inc. access to this program.  By using this program,
 the user acknowledges that Gaussian, Inc. is engaged in the
 business of creating and licensing software in the field of
 computational chemistry and represents and warrants to the
 licensee that it is not a competitor of Gaussian, Inc. and that
 it will not use this program in any manner prohibited above.
 ---------------------------------------------------------------
  

 Cite this work as:
 Gaussian 09, Revision A.02,
 M. J. Frisch, G. W. Trucks, H. B. Schlegel, G. E. Scuseria, 
 M. A. Robb, J. R. Cheeseman, G. Scalmani, V. Barone, B. Mennucci, 
 G. A. Petersson, H. Nakatsuji, M. Caricato, X. Li, H. P. Hratchian, 
 A. F. Izmaylov, J. Bloino, G. Zheng, J. L. Sonnenberg, M. Hada, 
 M. Ehara, K. Toyota, R. Fukuda, J. Hasegawa, M. Ishida, T. Nakajima, 
 Y. Honda, O. Kitao, H. Nakai, T. Vreven, J. A. Montgomery, Jr., 
 J. E. Peralta, F. Ogliaro, M. Bearpark, J. J. Heyd, E. Brothers, 
 K. N. Kudin, V. N. Staroverov, R. Kobayashi, J. Normand, 
 K. Raghavachari, A. Rendell, J. C. Burant, S. S. Iyengar, J. Tomasi, 
 M. Cossi, N. Rega, J. M. Millam, M. Klene, J. E. Knox, J. B. Cross, 
 V. Bakken, C. Adamo, J. Jaramillo, R. Gomperts, R. E. Stratmann, 
 O. Yazyev, A. J. Austin, R. Cammi, C. Pomelli, J. W. Ochterski, 
 R. L. Martin, K. Morokuma, V. G. Zakrzewski, G. A. Voth, 
 P. Salvador, J. J. Dannenberg, S. Dapprich, A. D. Daniels, 
 O. Farkas, J. B. Foresman, J. V. Ortiz, J. Cioslowski, 
 and D. J. Fox, Gaussian, Inc., Wallingford CT, 2009.
 
 ******************************************
 Gaussian 09:  EM64L-G09RevA.02 11-Jun-2009
                29-Oct-2013 
 ******************************************
 % Mem=64GB
 % Nproc=16
 Will use up to   16 processors via shared memory.
 % Chk=VO.chk
 ----------------------------------------------------------------------
 # ROMP2 Gen GFinput Int=NoBasisTransform Int(Grid=Ultrafine) IOp(3/32=
 2,5/6=10,8/11=1,9/33=1) Maxdisk=128GB CBSextrapolate(Nmin=25,MinPop) S
 CF=Symm Guess=Read
 ----------------------------------------------------------------------
 1/38=1/1;
 2/12=2,17=6,18=5,40=1/2;
 3/5=7,11=2,16=1,24=10,25=1,30=1,32=2,60=-1,75=-5,116=101/1,2,3;
 4/5=1,9=4/1;
 5/5=2,6=10,15=2,38=6/2;
 8/5=-1,10=1,11=1/1;
 9/16=-3,33=1,75=2,81=25,83=4/6,4;
 6/7=2,8=2,9=2,10=2/1;
 99/5=1,9=1/99;
 -------
 VO 4Sg-
 -------
 Symbolic Z-matrix:
 Charge =  0 Multiplicity = 4
 V
 O                    1     1.58932 
 
                          Input orientation:                          
 ---------------------------------------------------------------------
 Center     Atomic      Atomic             Coordinates (Angstroms)
 Number     Number       Type             X           Y           Z
 ---------------------------------------------------------------------
      1         23           0        0.000000    0.000000    0.000000
      2          8           0        0.000000    0.000000    1.589320
 ---------------------------------------------------------------------
 Stoichiometry    OV(4)
 Framework group  C*V[C*(OV)]
 Deg. of freedom     1
 Full point group                 C*V     NOp   4
 Largest Abelian subgroup         C2V     NOp   4
 Largest concise Abelian subgroup C1      NOp   1
                         Standard orientation:                         
 ---------------------------------------------------------------------
 Center     Atomic      Atomic             Coordinates (Angstroms)
 Number     Number       Type             X           Y           Z
 ---------------------------------------------------------------------
      1         23           0        0.000000    0.000000    0.410147
      2          8           0        0.000000    0.000000   -1.179173
 ---------------------------------------------------------------------
 Rotational constants (GHZ):      0.0000000     16.4360810     16.4360810
 General basis read from cards:  (5D, 7F)
 AO basis set in the form of general basis input (Overlap normalization):
      1 0
 S  19 1.00       0.000000000000
      0.3479338350D+08  0.4056629188D-06
      0.6914692640D+07  0.2339342439D-05
      0.1621343920D+07  0.1321165413D-04
      0.4396002670D+06  0.6056905383D-04
      0.1352720610D+06  0.2392777872D-03
      0.4643274850D+05  0.8267296352D-03
      0.1749835110D+05  0.2552064807D-02
      0.7134898380D+04  0.7147933075D-02
      0.3106051320D+04  0.1836138649D-01
      0.1426271630D+04  0.4335626345D-01
      0.6833154180D+03  0.9303444533D-01
      0.3382265700D+03  0.1757196352D+00
      0.1714640560D+03  0.2728849718D+00
      0.8834408300D+02  0.3026106738D+00
      0.4595252500D+02  0.1857703588D+00
      0.2399193900D+02  0.4297759996D-01
      0.1251208100D+02  0.4470121114D-02
      0.6491623000D+01  0.2528610235D-02
      0.3339910000D+01  0.6987135339D-03
 S  15 1.00       0.000000000000
      0.1749835110D+05 -0.1883513065D-05
      0.7134898380D+04 -0.1552788062D-04
      0.3106051320D+04 -0.9054969632D-04
      0.1426271630D+04 -0.5049415240D-03
      0.6833154180D+03 -0.2226844033D-02
      0.3382265700D+03 -0.8912198446D-02
      0.1714640560D+03 -0.2854731852D-01
      0.8834408300D+02 -0.6867407409D-01
      0.4595252500D+02 -0.7656135678D-01
      0.2399193900D+02  0.7437354372D-01
      0.1251208100D+02  0.4054588741D+00
      0.6491623000D+01  0.4806974888D+00
      0.3339910000D+01  0.1599827787D+00
      0.1699802000D+01  0.1128530592D-01
      0.8542310000D+00  0.1120376697D-02
 P  16 1.00       0.000000000000
      0.5172927360D+05  0.3683635374D-05
      0.1327764530D+05  0.3093662226D-04
      0.4204030870D+04  0.1978279514D-03
      0.1563663650D+04  0.9518396247D-03
      0.6564525800D+03  0.3705368216D-02
      0.3012554960D+03  0.1209572570D-01
      0.1473763590D+03  0.3394128848D-01
      0.7539345600D+02  0.8230969871D-01
      0.3975831100D+02  0.1659379124D+00
      0.2138805700D+02  0.2652702379D+00
      0.1164853500D+02  0.3154946174D+00
      0.6386217000D+01  0.2275831195D+00
      0.3507309000D+01  0.7687592488D-01
      0.1919904000D+01  0.9918457259D-02
      0.1041046000D+01  0.6926354578D-03
      0.5545110000D+00  0.1262326856D-03
 S  11 1.00       0.000000000000
      0.1714640560D+03  0.1719430211D-03
      0.8834408300D+02  0.9669296383D-03
      0.4595252500D+02  0.2556998424D-02
      0.2399193900D+02 -0.1627786595D-02
      0.1251208100D+02 -0.5338230403D-01
      0.6491623000D+01 -0.1955815426D+00
      0.3339910000D+01 -0.5950571001D-01
      0.1699802000D+01  0.4143453065D+00
      0.8542310000D+00  0.5713775625D+00
      0.4234290000D+00  0.2070624018D+00
      0.2069180000D+00  0.8078448787D-02
 P  12 1.00       0.000000000000
      0.1473763590D+03 -0.2402327613D-03
      0.7539345600D+02 -0.1035383815D-02
      0.3975831100D+02 -0.4172303736D-02
      0.2138805700D+02 -0.9809132038D-02
      0.1164853500D+02 -0.1920994428D-01
      0.6386217000D+01  0.4779357553D-02
      0.3507309000D+01  0.1344903647D+00
      0.1919904000D+01  0.3067070245D+00
      0.1041046000D+01  0.3689423576D+00
      0.5545110000D+00  0.2452029700D+00
      0.2868010000D+00  0.6344737218D-01
      0.1417880000D+00  0.4575119008D-02
 D  16 1.00       0.000000000000
      0.1619367570D+04  0.5187972126D-05
      0.5115172270D+03  0.5197349697D-04
      0.1960607140D+03  0.3458082836D-03
      0.8639877300D+02  0.1644062019D-02
      0.4196046600D+02  0.6017726151D-02
      0.2174826300D+02  0.1699158725D-01
      0.1175037800D+02  0.3948231327D-01
      0.6510556000D+01  0.8232040639D-01
      0.3659930000D+01  0.1452868867D+00
      0.2073804000D+01  0.2051360229D+00
      0.1179794000D+01  0.2393803676D+00
      0.6720330000D+00  0.2379013738D+00
      0.3820970000D+00  0.1968959518D+00
      0.2157770000D+00  0.1234881402D+00
      0.1200280000D+00  0.4449517807D-01
      0.6490800000D-01  0.5001921865D-02
 D   1 1.00       0.000000000000
      0.4773987036D-01  0.1000000000D+01
 D   1 1.00       0.000000000000
      0.1502500000D-01  0.1000000000D+01
 S  10 1.00       0.000000000000
      0.2399193900D+02  0.2314495562D-04
      0.1251208100D+02  0.1596571840D-03
      0.6491623000D+01  0.3548661894D-02
      0.3339910000D+01 -0.8602354203D-03
      0.1699802000D+01 -0.2011336988D-01
      0.8542310000D+00 -0.9636907813D-01
      0.4234290000D+00 -0.1927970785D+00
      0.2069180000D+00  0.1340008015D+00
      0.9969000000D-01  0.7196546315D+00
      0.4738000000D-01  0.3392867058D+00
 S   1 1.00       0.000000000000
      0.3707600000D-01  0.1000000000D+01
 S   1 1.00       0.000000000000
      0.1409900000D-01  0.1000000000D+01
 P  10 1.00       0.000000000000
      0.2138805700D+02 -0.4325468243D-05
      0.1164853500D+02 -0.1646659261D-02
      0.6386217000D+01 -0.4510941903D-03
      0.3507309000D+01  0.2251426496D-01
      0.1919904000D+01  0.7097698916D-01
      0.1041046000D+01  0.2808895795D-01
      0.5545110000D+00 -0.2502915560D+00
      0.2868010000D+00 -0.5609722984D+00
      0.1417880000D+00 -0.2910696374D+00
      0.7133559130D-01 -0.1616308340D-01
 P   1 1.00       0.000000000000
      0.9707300000D-01  0.1000000000D+01
 P   1 1.00       0.000000000000
      0.4687600000D-01  0.1000000000D+01
 P   1 1.00       0.000000000000
      0.2263500000D-01  0.1000000000D+01
 S   1 1.00       0.000000000000
      0.4829004000D+01  0.1000000000D+01
 S   1 1.00       0.000000000000
      0.2452509000D+01  0.1000000000D+01
 S   1 1.00       0.000000000000
      0.1245557000D+01  0.1000000000D+01
 S   1 1.00       0.000000000000
      0.6325810000D+00  0.1000000000D+01
 S   1 1.00       0.000000000000
      0.3212690000D+00  0.1000000000D+01
 S   1 1.00       0.000000000000
      0.1631630000D+00  0.1000000000D+01
 P   1 1.00       0.000000000000
      0.1983553000D+01  0.1000000000D+01
 P   1 1.00       0.000000000000
      0.1221335000D+01  0.1000000000D+01
 P   1 1.00       0.000000000000
      0.7520130000D+00  0.1000000000D+01
 P   1 1.00       0.000000000000
      0.4630380000D+00  0.1000000000D+01
 P   1 1.00       0.000000000000
      0.2851070000D+00  0.1000000000D+01
 P   1 1.00       0.000000000000
      0.1755490000D+00  0.1000000000D+01
 D   1 1.00       0.000000000000
      0.4465620000D+01  0.1000000000D+01
 D   1 1.00       0.000000000000
      0.2147949000D+01  0.1000000000D+01
 D   1 1.00       0.000000000000
      0.1033156000D+01  0.1000000000D+01
 D   1 1.00       0.000000000000
      0.4969450000D+00  0.1000000000D+01
 D   1 1.00       0.000000000000
      0.2390290000D+00  0.1000000000D+01
 D   1 1.00       0.000000000000
      0.1149720000D+00  0.1000000000D+01
 F   1 1.00       0.000000000000
      0.1179749300D+02  0.1000000000D+01
 F   1 1.00       0.000000000000
      0.5327804000D+01  0.1000000000D+01
 F   1 1.00       0.000000000000
      0.2406062000D+01  0.1000000000D+01
 F   1 1.00       0.000000000000
      0.1086589000D+01  0.1000000000D+01
 F   1 1.00       0.000000000000
      0.4907090000D+00  0.1000000000D+01
 F   1 1.00       0.000000000000
      0.2216060000D+00  0.1000000000D+01
 F   1 1.00       0.000000000000
      0.1000780000D+00  0.1000000000D+01
 G   1 1.00       0.000000000000
      0.9953572000D+01  0.1000000000D+01
 G   1 1.00       0.000000000000
      0.4247405000D+01  0.1000000000D+01
 G   1 1.00       0.000000000000
      0.1812460000D+01  0.1000000000D+01
 G   1 1.00       0.000000000000
      0.7734160000D+00  0.1000000000D+01
 G   1 1.00       0.000000000000
      0.3300330000D+00  0.1000000000D+01
 G   1 1.00       0.000000000000
      0.1408320000D+00  0.1000000000D+01
 H   1 1.00       0.000000000000
      0.6068727000D+01  0.1000000000D+01
 H   1 1.00       0.000000000000
      0.2580072000D+01  0.1000000000D+01
 H   1 1.00       0.000000000000
      0.1096898000D+01  0.1000000000D+01
 H   1 1.00       0.000000000000
      0.4663370000D+00  0.1000000000D+01
 H   1 1.00       0.000000000000
      0.1982590000D+00  0.1000000000D+01
 I   1 1.00       0.000000000000
      0.4946577000D+01  0.1000000000D+01
 I   1 1.00       0.000000000000
      0.1900678000D+01  0.1000000000D+01
 I   1 1.00       0.000000000000
      0.7303190000D+00  0.1000000000D+01
 I   1 1.00       0.000000000000
      0.2806180000D+00  0.1000000000D+01
 J   1 1.00       0.000000000000
      0.3643489000D+01  0.1000000000D+01
 J   1 1.00       0.000000000000
      0.1231745000D+01  0.1000000000D+01
 J   1 1.00       0.000000000000
      0.4164120000D+00  0.1000000000D+01
 K   1 1.00       0.000000000000
      0.2526345113D+01  0.1000000000D+01
 ****
      2 0
 S  16 1.00       0.000000000000
      0.1411246410D+07  0.1627429822D-05
      0.2499102240D+06  0.1092621996D-04
      0.5603410580D+05  0.6238741867D-04
      0.1521153640D+05  0.2783303491D-03
      0.4812287750D+04  0.1040541872D-02
      0.1717755460D+04  0.3380392793D-02
      0.6733958240D+03  0.9828484765D-02
      0.2835101840D+03  0.2605310129D-01
      0.1258620070D+03  0.6280818057D-01
      0.5804472200D+02  0.1348202075D+00
      0.2747198500D+02  0.2435563460D+00
      0.1321062900D+02  0.3323287378D+00
      0.6399806000D+01  0.2607930483D+00
      0.3099614000D+01  0.7430834326D-01
      0.1489856000D+01  0.4189538074D-02
      0.7052010000D+00  0.8706455725D-03
 S  11 1.00       0.000000000000
      0.2835101840D+03 -0.1122588094D-03
      0.1258620070D+03 -0.5559335617D-03
      0.5804472200D+02 -0.2851687904D-02
      0.2747198500D+02 -0.1133494995D-01
      0.1321062900D+02 -0.3657977704D-01
      0.6399806000D+01 -0.7288994197D-01
      0.3099614000D+01 -0.1062032356D-01
      0.1489856000D+01  0.2196705572D+00
      0.7052010000D+00  0.4294832072D+00
      0.3258480000D+00  0.3775832849D+00
      0.1454600000D+00  0.9640261255D-01
 S   1 1.00       0.000000000000
      0.5814297870D-01  0.1000000000D+01
 P  13 1.00       0.000000000000
      0.2085279200D+04  0.1447911740D-04
      0.5101470830D+03  0.1283233588D-03
      0.1616811510D+03  0.7792790007D-03
      0.6114945200D+02  0.3400506049D-02
      0.2597660200D+02  0.1157685214D-01
      0.1187542600D+02  0.3269740339D-01
      0.5677133000D+01  0.8011404242D-01
      0.2786475000D+01  0.1605265057D+00
      0.1387844000D+01  0.2460495026D+00
      0.6952810000D+00  0.2898982926D+00
      0.3470020000D+00  0.2606799382D+00
      0.1700990000D+00  0.1479363112D+00
      0.8008000000D-01  0.2980261453D-01
 P   1 1.00       0.000000000000
      0.4261436033D-01  0.1000000000D+01
 S   1 1.00       0.000000000000
      0.4249866000D+01  0.1000000000D+01
 S   1 1.00       0.000000000000
      0.2167470000D+01  0.1000000000D+01
 S   1 1.00       0.000000000000
      0.1105429000D+01  0.1000000000D+01
 S   1 1.00       0.000000000000
      0.5637790000D+00  0.1000000000D+01
 S   1 1.00       0.000000000000
      0.2875320000D+00  0.1000000000D+01
 S   1 1.00       0.000000000000
      0.1466440000D+00  0.1000000000D+01
 P   1 1.00       0.000000000000
      0.5659724000D+01  0.1000000000D+01
 P   1 1.00       0.000000000000
      0.2575878000D+01  0.1000000000D+01
 P   1 1.00       0.000000000000
      0.1172344000D+01  0.1000000000D+01
 P   1 1.00       0.000000000000
      0.5335620000D+00  0.1000000000D+01
 P   1 1.00       0.000000000000
      0.2428370000D+00  0.1000000000D+01
 P   1 1.00       0.000000000000
      0.1105210000D+00  0.1000000000D+01
 D   1 1.00       0.000000000000
      0.9464211000D+01  0.1000000000D+01
 D   1 1.00       0.000000000000
      0.4752286000D+01  0.1000000000D+01
 D   1 1.00       0.000000000000
      0.2386276000D+01  0.1000000000D+01
 D   1 1.00       0.000000000000
      0.1198226000D+01  0.1000000000D+01
 D   1 1.00       0.000000000000
      0.6016680000D+00  0.1000000000D+01
 D   1 1.00       0.000000000000
      0.3021170000D+00  0.1000000000D+01
 D   1 1.00       0.000000000000
      0.1517020000D+00  0.1000000000D+01
 F   1 1.00       0.000000000000
      0.7001836000D+01  0.1000000000D+01
 F   1 1.00       0.000000000000
      0.3552509000D+01  0.1000000000D+01
 F   1 1.00       0.000000000000
      0.1802430000D+01  0.1000000000D+01
 F   1 1.00       0.000000000000
      0.9144960000D+00  0.1000000000D+01
 F   1 1.00       0.000000000000
      0.4639860000D+00  0.1000000000D+01
 F   1 1.00       0.000000000000
      0.2354110000D+00  0.1000000000D+01
 G   1 1.00       0.000000000000
      0.6472481000D+01  0.1000000000D+01
 G   1 1.00       0.000000000000
      0.3119071000D+01  0.1000000000D+01
 G   1 1.00       0.000000000000
      0.1503072000D+01  0.1000000000D+01
 G   1 1.00       0.000000000000
      0.7243260000D+00  0.1000000000D+01
 G   1 1.00       0.000000000000
      0.3490500000D+00  0.1000000000D+01
 H   1 1.00       0.000000000000
      0.5355083000D+01  0.1000000000D+01
 H   1 1.00       0.000000000000
      0.2414696000D+01  0.1000000000D+01
 H   1 1.00       0.000000000000
      0.1088827000D+01  0.1000000000D+01
 H   1 1.00       0.000000000000
      0.4909703000D+00  0.1000000000D+01
 I   1 1.00       0.000000000000
      0.4322113000D+01  0.1000000000D+01
 I   1 1.00       0.000000000000
      0.1716263000D+01  0.1000000000D+01
 I   1 1.00       0.000000000000
      0.6815089000D+00  0.1000000000D+01
 J   1 1.00       0.000000000000
      0.3060973723D+01  0.1000000000D+01
 ****

 There are   208 symmetry adapted basis functions of A1  symmetry.
 There are   106 symmetry adapted basis functions of A2  symmetry.
 There are   152 symmetry adapted basis functions of B1  symmetry.
 There are   152 symmetry adapted basis functions of B2  symmetry.
 Integral buffers will be    131072 words long.
 Raffenetti 2 integral format.
 Two-electron integral symmetry is turned on.
   618 basis functions,  1353 primitive gaussians,  1046 cartesian basis functions
    17 alpha electrons       14 beta electrons
       nuclear repulsion energy        61.2643183126 Hartrees.
 NAtoms=    2 NActive=    2 NUniq=    2 SFac= 7.50D-01 NAtFMM=   80 NAOKFM=F Big=F
 One-electron integrals computed using PRISM.
 NBasis=   618 RedAO= F  NBF=   208   106   152   152
 NBsUse=   618 1.00D-04 NBFU=   208   106   152   152
 Initial guess read from the checkpoint file:  VO.chk
 B after Tr=     0.000000    0.000000    0.000000
         Rot=    1.000000    0.000000    0.000000    0.000000 Ang=   0.00 deg.
 Initial guess orbital symmetries:
       Occupied  (SG) (SG) (SG) (SG) (PI) (PI) (SG) (SG) (PI) (PI)
                 (SG) (SG) (PI) (PI) (SG) (DLTA) (DLTA)
       Virtual   (PI) (PI) (SG) (SG) (DLTA) (DLTA) (PI) (PI) (SG)
                 (SG) (PI) (PI) (SG) (DLTA) (DLTA) (PI) (PI) (SG)
                 (PI) (PI) (SG) (PI) (PI) (SG) (PI) (PI) (SG) (DLTA)
                 (DLTA) (PHI) (PHI) (PI) (PI) (SG) (SG) (DLTA)
                 (DLTA) (PI) (PI) (SG) (DLTA) (DLTA) (PI) (PI)
                 (SG) (SG) (PI) (PI) (?A) (?A) (PHI) (PHI) (SG)
                 (PI) (PI) (DLTA) (DLTA) (SG) (PI) (PI) (SG) (DLTA)
                 (DLTA) (PHI) (PHI) (PHI) (PHI) (SG) (PI) (PI)
                 (DLTA) (DLTA) (?B) (?B) (?A) (?A) (DLTA) (DLTA)
                 (PI) (PI) (SG) (SG) (PI) (PI) (SG) (PHI) (PHI)
                 (DLTA) (DLTA) (PI) (PI) (PI) (PI) (SG) (DLTA)
                 (DLTA) (SG) (PI) (PI) (SG) (PHI) (PHI) (?A) (?A)
                 (PI) (PI) (SG) (DLTA) (DLTA) (?A) (?A) (SG) (SG)
                 (SG) (?B) (?B) (DLTA) (DLTA) (PHI) (PHI) (PI)
                 (PI) (PHI) (PHI) (SG) (SG) (PI) (PI) (DLTA) (DLTA)
                 (?A) (?A) (PI) (PI) (PHI) (PHI) (SG) (PI) (PI)
                 (PHI) (PHI) (SG) (DLTA) (DLTA) (SG) (DLTA) (DLTA)
                 (DLTA) (DLTA) (PI) (PI) (PI) (PI) (SG) (PI) (PI)
                 (?A) (?A) (SG) (DLTA) (DLTA) (?B) (?B) (?B) (?B)
                 (PHI) (PHI) (SG) (PI) (PI) (PI) (PI) (?A) (?A)
                 (DLTA) (DLTA) (SG) (SG) (DLTA) (DLTA) (SG) (PI)
                 (PI) (PHI) (PHI) (?A) (?A) (PI) (PI) (PHI) (PHI)
                 (SG) (DLTA) (DLTA) (SG) (PI) (PI) (PHI) (PHI)
                 (SG) (DLTA) (DLTA) (?A) (?A) (PHI) (PHI) (PHI)
                 (PHI) (DLTA) (DLTA) (PI) (PI) (SG) (PI) (PI) (SG)
                 (DLTA) (DLTA) (PI) (PI) (SG) (?B) (?B) (SG) (SG)
                 (?A) (?A) (PI) (PI) (SG) (DLTA) (DLTA) (PHI) (PHI)
                 (PI) (PI) (DLTA) (DLTA) (SG) (DLTA) (DLTA) (SG)
                 (SG) (PI) (PI) (PI) (PI) (SG) (PI) (PI) (?A) (?A)
                 (?B) (?B) (?B) (?B) (PHI) (PHI) (?A) (?A) (DLTA)
                 (DLTA) (PHI) (PHI) (SG) (DLTA) (DLTA) (SG) (PI)
                 (PI) (PI) (PI) (?A) (?A) (PHI) (PHI) (DLTA) (DLTA)
                 (SG) (PI) (PI) (PHI) (PHI) (DLTA) (DLTA) (PHI)
                 (PHI) (SG) (?A) (?A) (PHI) (PHI) (DLTA) (DLTA)
                 (SG) (DLTA) (DLTA) (PI) (PI) (PI) (PI) (SG) (PI)
                 (PI) (PI) (PI) (SG) (SG) (SG) (DLTA) (DLTA) (?B)
                 (?B) (?A) (?A) (SG) (SG) (?C) (?C) (PHI) (PHI)
                 (SG) (DLTA) (DLTA) (PI) (PI) (PI) (PI) (SG) (SG)
                 (?B) (?B) (SG) (SG) (?A) (?A) (PHI) (PHI) (DLTA)
                 (DLTA) (PI) (PI) (SG) (DLTA) (DLTA) (PI) (PI)
                 (?B) (?B) (?A) (?A) (SG) (SG) (PHI) (PHI) (DLTA)
                 (DLTA) (PI) (PI) (SG) (SG) (?B) (?B) (?A) (?A)
                 (PHI) (PHI) (PI) (PI) (DLTA) (DLTA) (SG) (?A)
                 (?A) (?B) (?B) (PHI) (PHI) (DLTA) (DLTA) (SG)
                 (PI) (PI) (PHI) (PHI) (DLTA) (DLTA) (PI) (PI)
                 (SG) (?A) (?A) (PHI) (PHI) (DLTA) (DLTA) (SG)
                 (PI) (PI) (?A) (?A) (PHI) (PHI) (DLTA) (DLTA)
                 (PI) (PI) (SG) (PHI) (PHI) (DLTA) (DLTA) (PI)
                 (PI) (PI) (PI) (SG) (SG) (PI) (PI) (SG) (DLTA)
                 (DLTA) (PI) (PI) (SG) (SG) (SG) (SG) (PI) (PI)
                 (SG) (SG) (PI) (PI) (DLTA) (DLTA) (SG) (PI) (PI)
                 (SG) (PI) (PI) (SG) (SG) (SG) (SG) (SG) (PI) (PI)
                 (SG) (PI) (PI) (PI) (PI) (PI) (PI) (DLTA) (DLTA)
                 (SG) (DLTA) (DLTA) (DLTA) (DLTA) (DLTA) (DLTA)
                 (SG) (PI) (PI) (DLTA) (DLTA) (PHI) (PHI) (PHI)
                 (PHI) (PI) (PI) (PHI) (PHI) (SG) (PI) (PI) (DLTA)
                 (DLTA) (PHI) (PHI) (?A) (?A) (DLTA) (DLTA) (?A)
                 (?A) (SG) (PI) (PI) (DLTA) (DLTA) (PHI) (PHI)
                 (?A) (?A) (?B) (?B) (PHI) (PHI) (DLTA) (DLTA)
                 (?A) (?A) (SG) (PI) (PI) (DLTA) (DLTA) (PHI) (PHI)
                 (?A) (?A) (?B) (?B) (SG) (SG) (PI) (PI) (PHI)
                 (PHI) (?B) (?B) (SG) (PI) (PI) (DLTA) (DLTA) (PHI)
                 (PHI) (?A) (?A) (?B) (?B) (SG) (SG) (?C) (?C)
                 (PI) (PI) (DLTA) (DLTA) (PHI) (PHI) (?A) (?A)
                 (?B) (?B) (SG) (SG) (?C) (?C) (SG) (DLTA) (DLTA)
                 (PHI) (PHI) (?A) (?A) (?B) (?B) (SG) (SG) (?C)
                 (?C) (?D) (?D) (PHI) (PHI) (PI) (PI) (PHI) (PHI)
                 (?A) (?A) (?B) (?B) (SG) (DLTA) (DLTA) (?A) (?A)
                 (?B) (?B) (SG) (SG) (SG) (SG) (?A) (?A) (?B) (?B)
                 (SG) (SG) (?C) (?C)
 Requested convergence on RMS density matrix=1.00D-10 within 128 cycles.
 Requested convergence on MAX density matrix=1.00D-08.
 Requested convergence on             energy=1.00D-08.
 No special actions if energy rises.
 Restarting incremental Fock formation.
 SCF Done:  E(ROHF) =  -1017.75682945     A.U. after   21 cycles
             Convg  =    0.6991D-11             -V/T =  2.0001
 <Sx>= 0.0000 <Sy>= 0.0000 <Sz>= 1.5000 <S**2>= 3.7500 S= 1.5000
 <L.S>= 0.000000000000E+00
 Annihilation of the first spin contaminant:
 S**2 before annihilation     3.7500,   after     3.7500
 DiagDN has N=   618 LTot=  1886 but NE2=     3 cannot use DSYEVD.
 GenMOA:  NOpAll=  4 NOp2=4 NOpUse=  4 JSym2X=1
 <Sx>= 0.0000 <Sy>= 0.0000 <Sz>= 1.5000 <S**2>= 3.7500 S= 1.5000
 ExpMin= 1.41D-02 ExpMax= 3.48D+07 ExpMxC= 3.11D+03 IAcc=3 IRadAn=         5 AccDes= 0.00D+00
 HarFok:  IExCor=  205 AccDes= 0.00D+00 IRadAn=         5 IDoV=-2
 ScaDFX=  1.000000  1.000000  1.000000  1.000000
 Range of M.O.s used for correlation:    11   618
 NBasis=   618 NAE=    17 NBE=    14 NFC=    10 NFV=     0
 NROrb=    608 NOA=     7 NOB=     4 NVA=   601 NVB=   604

 **** Warning!!: The largest alpha MO coefficient is  0.16093089D+04


 **** Warning!!: The largest beta MO coefficient is  0.16106030D+04

 Singles contribution to E2=   -0.1747919198D-02
 Disk-based method using OVN memory for  7 occupieds at a time.
 Permanent disk used for amplitudes and <ij||ab> integrals=    30086096 words.
 Estimated scratch disk usage=  7091945740 words.
 IUseRI=2 ITolRI= 6 IR12RI=0
 Actual    scratch disk usage=  7056716525 words.
 GetIJB would need an additional  4915385434 words of memory to use all  16 processors.
 JobTyp=2 Pass  1:  I=   1 to   7 NPSUse= 10 ParTrn=T ParDer=T DoDerP=F.
 T,EIJ(AA): I=   1 J=   2      0.1378023E-03     -0.7191252E-03
 T,EIJ(AA): I=   1 J=   3      0.1378023E-03     -0.7191252E-03
 T,EIJ(AA): I=   1 J=   4      0.8289127E-03     -0.3635864E-02
 T,EIJ(AA): I=   1 J=   5      0.9228281E-03     -0.3832071E-02
 T,EIJ(AA): I=   1 J=   6      0.9228281E-03     -0.3832071E-02
 T,EIJ(AA): I=   1 J=   7      0.1384902E-03     -0.4161913E-03
 T,EIJ(AA): I=   2 J=   3      0.2732224E-02     -0.1193386E-01
 T,EIJ(AA): I=   2 J=   4      0.9492019E-03     -0.2858204E-02
 T,EIJ(AA): I=   2 J=   5      0.7178360E-03     -0.1915998E-02
 T,EIJ(AA): I=   2 J=   6      0.7178360E-03     -0.1915998E-02
 T,EIJ(AA): I=   2 J=   7      0.1574881E-02     -0.3699195E-02
 T,EIJ(AA): I=   3 J=   4      0.9492019E-03     -0.2858204E-02
 T,EIJ(AA): I=   3 J=   5      0.7178360E-03     -0.1915998E-02
 T,EIJ(AA): I=   3 J=   6      0.7178360E-03     -0.1915998E-02
 T,EIJ(AA): I=   3 J=   7      0.1574881E-02     -0.3699195E-02
 T,EIJ(AA): I=   4 J=   5      0.6154305E-02     -0.1356669E-01
 T,EIJ(AA): I=   4 J=   6      0.6154305E-02     -0.1356669E-01
 T,EIJ(AA): I=   4 J=   7      0.8573918E-03     -0.1662316E-02
 T,EIJ(AA): I=   5 J=   6      0.5263344E-02     -0.1217306E-01
 T,EIJ(AA): I=   5 J=   7      0.1082363E-02     -0.1782235E-02
 T,EIJ(AA): I=   6 J=   7      0.1082363E-02     -0.1782235E-02
 T,EIJ(AB): I=   1 J=   1      0.1978401E-02     -0.1267813E-01
 T,EIJ(AB): I=   1 J=   2      0.2267827E-02     -0.1185842E-01
 T,EIJ(AB): I=   1 J=   3      0.2302196E-02     -0.1190334E-01
 T,EIJ(AB): I=   1 J=   4      0.2302196E-02     -0.1190334E-01
 T,EIJ(AB): I=   2 J=   1      0.1753790E-03     -0.9786674E-03
 T,EIJ(AB): I=   2 J=   2      0.1265108E-02     -0.4120365E-02
 T,EIJ(AB): I=   2 J=   3      0.8506834E-03     -0.2409313E-02
 T,EIJ(AB): I=   2 J=   4      0.8506834E-03     -0.2409313E-02
 T,EIJ(AB): I=   3 J=   1      0.1753790E-03     -0.9786674E-03
 T,EIJ(AB): I=   3 J=   2      0.1265108E-02     -0.4120365E-02
 T,EIJ(AB): I=   3 J=   3      0.8506834E-03     -0.2409313E-02
 T,EIJ(AB): I=   3 J=   4      0.8506834E-03     -0.2409313E-02
 T,EIJ(AB): I=   4 J=   1      0.2226536E-02     -0.1172214E-01
 T,EIJ(AB): I=   4 J=   2      0.1212803E-01     -0.3215048E-01
 T,EIJ(AB): I=   4 J=   3      0.6898503E-02     -0.1691321E-01
 T,EIJ(AB): I=   4 J=   4      0.6898503E-02     -0.1691321E-01
 T,EIJ(AB): I=   5 J=   1      0.2290373E-02     -0.1186011E-01
 T,EIJ(AB): I=   5 J=   2      0.6890692E-02     -0.1702223E-01
 T,EIJ(AB): I=   5 J=   3      0.6499221E-02     -0.1617815E-01
 T,EIJ(AB): I=   5 J=   4      0.1036687E-01     -0.2838422E-01
 T,EIJ(AB): I=   6 J=   1      0.2290373E-02     -0.1186011E-01
 T,EIJ(AB): I=   6 J=   2      0.6890692E-02     -0.1702223E-01
 T,EIJ(AB): I=   6 J=   3      0.1036687E-01     -0.2838422E-01
 T,EIJ(AB): I=   6 J=   4      0.6499221E-02     -0.1617815E-01
 T,EIJ(AB): I=   7 J=   1      0.2071993E-03     -0.6762677E-03
 T,EIJ(AB): I=   7 J=   2      0.1736179E-02     -0.3123153E-02
 T,EIJ(AB): I=   7 J=   3      0.1312191E-02     -0.2243751E-02
 T,EIJ(AB): I=   7 J=   4      0.1312191E-02     -0.2243751E-02
 Actual    scratch disk usage=  7091941132 words.
 GetIJB would need an additional  4915338364 words of memory to use all  16 processors.
 JobTyp=3 Pass  1:  I=   1 to   4 NPSUse= 10 ParTrn=T ParDer=T DoDerP=F.
 T,EIJ(BB): I=   1 J=   2      0.8331613E-03     -0.3678853E-02
 T,EIJ(BB): I=   1 J=   3      0.9030786E-03     -0.3799942E-02
 T,EIJ(BB): I=   1 J=   4      0.9030786E-03     -0.3799942E-02
 T,EIJ(BB): I=   2 J=   3      0.5748621E-02     -0.1342026E-01
 T,EIJ(BB): I=   2 J=   4      0.5748621E-02     -0.1342026E-01
 T,EIJ(BB): I=   3 J=   4      0.4975670E-02     -0.1203002E-01
 Spin components of T(2) and E(2):
     alpha-alpha T2 =       0.3433447067D-01 E2=     -0.9040031542D-01
     alpha-beta  T2 =       0.9994797826D-01 E2=     -0.3010539453D+00
     beta-beta   T2 =       0.1911223053D-01 E2=     -0.5014927219D-01
 ANorm=    0.1075079270D+01
 E2 =    -0.4433514521D+00 EUMP2 =    -0.10182001808991D+04

 Complete Basis Set (CBS) Extrapolation:
 M. R. Nyden and G. A. Petersson, JCP 75, 1843 (1981)
 G. A. Petersson and M. A. Al-Laham, JCP 94, 6081 (1991)
 G. A. Petersson, T. Tensfeldt, and J. A. Montgomery, JCP 94, 6091 (1991)
 J. A. Montgomery, J. W. Ochterski, and G. A. Petersson, JCP 101, 5900 (1994)
 
 Minimum Number of PNO for Extrapolation =  25
 Absolute Overlaps: IRadAn =         5
 LocTrn: ILocal=3 LocCor=F DoCore=F.
 Entering OneElI...
 Overlap between basis sets.
 Requested accuracy = 0.1000D-12
 PrsmSu:  NPrtUS=   1 ThrOK=F IAlg=1
 PRISM was handed  8588064737 working-precision words and    47 shell-pairs
 IPart=  0 NShTot=          47 NBatch=           9 AvBLen=         5.2
 CnvPC2: ToCart=F DoDens=F IPureD=0 IPureF=0.
 Transformed matrix in CnvPC2: 
                 1             2             3             4             5 
      1   0.100000D+01  0.376096D+00  0.000000D+00  0.000000D+00  0.000000D+00
      2   0.376096D+00  0.100000D+01  0.000000D+00  0.000000D+00  0.000000D+00
      3   0.000000D+00  0.000000D+00  0.100000D+01  0.000000D+00  0.000000D+00
      4   0.000000D+00  0.000000D+00  0.000000D+00  0.100000D+01  0.000000D+00
      5   0.000000D+00  0.000000D+00  0.000000D+00  0.000000D+00  0.100000D+01
      6   0.232663D-01  0.306441D+00  0.000000D+00  0.000000D+00  0.000000D+00
      7   0.000000D+00  0.000000D+00  0.319378D+00  0.000000D+00  0.000000D+00
      8   0.000000D+00  0.000000D+00  0.000000D+00  0.319378D+00  0.000000D+00
      9   0.000000D+00  0.000000D+00  0.000000D+00  0.000000D+00  0.319378D+00
     10   0.000000D+00  0.000000D+00  0.000000D+00  0.000000D+00  0.000000D+00
     11   0.000000D+00  0.000000D+00  0.000000D+00  0.000000D+00  0.000000D+00
     12   0.000000D+00  0.000000D+00  0.000000D+00  0.000000D+00  0.000000D+00
     13   0.000000D+00  0.000000D+00  0.000000D+00  0.000000D+00  0.000000D+00
     14   0.000000D+00  0.000000D+00  0.000000D+00  0.000000D+00  0.000000D+00
     15  -0.409949D-03  0.111392D-01  0.000000D+00  0.000000D+00  0.000000D+00
     16   0.000000D+00  0.000000D+00  0.218094D-01  0.000000D+00  0.000000D+00
     17   0.000000D+00  0.000000D+00  0.000000D+00  0.218094D-01  0.000000D+00
     18   0.000000D+00  0.000000D+00  0.000000D+00  0.000000D+00  0.218094D-01
     19   0.000000D+00  0.000000D+00  0.000000D+00  0.000000D+00  0.000000D+00
     20   0.101749D-02  0.735597D-02  0.000000D+00  0.000000D+00 -0.405623D-02
     21   0.000000D+00  0.000000D+00  0.123201D-02  0.000000D+00  0.000000D+00
     22   0.000000D+00  0.000000D+00  0.000000D+00  0.123201D-02  0.000000D+00
     23   0.210905D-02  0.146542D-01  0.000000D+00  0.000000D+00 -0.703127D-02
                 6             7             8             9            10 
      1   0.232663D-01  0.000000D+00  0.000000D+00  0.000000D+00  0.000000D+00
      2   0.306441D+00  0.000000D+00  0.000000D+00  0.000000D+00  0.000000D+00
      3   0.000000D+00  0.319378D+00  0.000000D+00  0.000000D+00  0.000000D+00
      4   0.000000D+00  0.000000D+00  0.319378D+00  0.000000D+00  0.000000D+00
      5   0.000000D+00  0.000000D+00  0.000000D+00  0.319378D+00  0.000000D+00
      6   0.100000D+01  0.000000D+00  0.000000D+00  0.000000D+00  0.000000D+00
      7   0.000000D+00  0.100000D+01  0.000000D+00  0.000000D+00  0.000000D+00
      8   0.000000D+00  0.000000D+00  0.100000D+01  0.000000D+00  0.000000D+00
      9   0.000000D+00  0.000000D+00  0.000000D+00  0.100000D+01  0.000000D+00
     10   0.000000D+00  0.000000D+00  0.000000D+00  0.000000D+00  0.100000D+01
     11   0.000000D+00  0.000000D+00  0.000000D+00  0.000000D+00  0.000000D+00
     12   0.000000D+00  0.000000D+00  0.000000D+00  0.000000D+00  0.000000D+00
     13   0.000000D+00  0.000000D+00  0.000000D+00  0.000000D+00  0.000000D+00
     14   0.000000D+00  0.000000D+00  0.000000D+00  0.000000D+00  0.000000D+00
     15   0.347708D+00  0.000000D+00  0.000000D+00  0.000000D+00  0.000000D+00
     16   0.000000D+00  0.361074D+00  0.000000D+00  0.000000D+00  0.000000D+00
     17   0.000000D+00  0.000000D+00  0.361074D+00  0.000000D+00  0.000000D+00
     18   0.000000D+00  0.000000D+00  0.000000D+00  0.361074D+00  0.000000D+00
     19   0.727010D-03  0.000000D+00  0.000000D+00 -0.180362D-02  0.208247D-01
     20   0.726867D-01  0.000000D+00  0.000000D+00 -0.906054D-01  0.184426D+00
     21   0.000000D+00  0.294976D-01  0.000000D+00  0.000000D+00  0.000000D+00
     22   0.000000D+00  0.000000D+00  0.294976D-01  0.000000D+00  0.000000D+00
     23   0.115920D+00  0.000000D+00  0.000000D+00 -0.133029D+00  0.187115D+00
                11            12            13            14            15 
      1   0.000000D+00  0.000000D+00  0.000000D+00  0.000000D+00 -0.409949D-03
      2   0.000000D+00  0.000000D+00  0.000000D+00  0.000000D+00  0.111392D-01
      3   0.000000D+00  0.000000D+00  0.000000D+00  0.000000D+00  0.000000D+00
      4   0.000000D+00  0.000000D+00  0.000000D+00  0.000000D+00  0.000000D+00
      5   0.000000D+00  0.000000D+00  0.000000D+00  0.000000D+00  0.000000D+00
      6   0.000000D+00  0.000000D+00  0.000000D+00  0.000000D+00  0.347708D+00
      7   0.000000D+00  0.000000D+00  0.000000D+00  0.000000D+00  0.000000D+00
      8   0.000000D+00  0.000000D+00  0.000000D+00  0.000000D+00  0.000000D+00
      9   0.000000D+00  0.000000D+00  0.000000D+00  0.000000D+00  0.000000D+00
     10   0.000000D+00  0.000000D+00  0.000000D+00  0.000000D+00  0.000000D+00
     11   0.100000D+01  0.000000D+00  0.000000D+00  0.000000D+00  0.000000D+00
     12   0.000000D+00  0.100000D+01  0.000000D+00  0.000000D+00  0.000000D+00
     13   0.000000D+00  0.000000D+00  0.100000D+01  0.000000D+00  0.000000D+00
     14   0.000000D+00  0.000000D+00  0.000000D+00  0.100000D+01  0.000000D+00
     15   0.000000D+00  0.000000D+00  0.000000D+00  0.000000D+00  0.100000D+01
     16   0.000000D+00  0.000000D+00  0.000000D+00  0.000000D+00  0.000000D+00
     17   0.000000D+00  0.000000D+00  0.000000D+00  0.000000D+00  0.000000D+00
     18   0.000000D+00  0.000000D+00  0.000000D+00  0.000000D+00  0.000000D+00
     19   0.000000D+00  0.000000D+00  0.000000D+00  0.000000D+00  0.363573D-01
     20   0.000000D+00  0.000000D+00  0.000000D+00  0.000000D+00  0.325964D+00
     21  -0.114343D+00  0.000000D+00  0.000000D+00  0.000000D+00  0.000000D+00
     22   0.000000D+00 -0.114343D+00  0.000000D+00  0.000000D+00  0.000000D+00
     23   0.000000D+00  0.000000D+00  0.000000D+00  0.000000D+00  0.171608D+00
                16            17            18            19            20 
      1   0.000000D+00  0.000000D+00  0.000000D+00  0.000000D+00  0.101749D-02
      2   0.000000D+00  0.000000D+00  0.000000D+00  0.000000D+00  0.735597D-02
      3   0.218094D-01  0.000000D+00  0.000000D+00  0.000000D+00  0.000000D+00
      4   0.000000D+00  0.218094D-01  0.000000D+00  0.000000D+00  0.000000D+00
      5   0.000000D+00  0.000000D+00  0.218094D-01  0.000000D+00 -0.405623D-02
      6   0.000000D+00  0.000000D+00  0.000000D+00  0.727010D-03  0.726867D-01
      7   0.361074D+00  0.000000D+00  0.000000D+00  0.000000D+00  0.000000D+00
      8   0.000000D+00  0.361074D+00  0.000000D+00  0.000000D+00  0.000000D+00
      9   0.000000D+00  0.000000D+00  0.361074D+00 -0.180362D-02 -0.906054D-01
     10   0.000000D+00  0.000000D+00  0.000000D+00  0.208247D-01  0.184426D+00
     11   0.000000D+00  0.000000D+00  0.000000D+00  0.000000D+00  0.000000D+00
     12   0.000000D+00  0.000000D+00  0.000000D+00  0.000000D+00  0.000000D+00
     13   0.000000D+00  0.000000D+00  0.000000D+00  0.000000D+00  0.000000D+00
     14   0.000000D+00  0.000000D+00  0.000000D+00  0.000000D+00  0.000000D+00
     15   0.000000D+00  0.000000D+00  0.000000D+00  0.363573D-01  0.325964D+00
     16   0.100000D+01  0.000000D+00  0.000000D+00  0.000000D+00  0.000000D+00
     17   0.000000D+00  0.100000D+01  0.000000D+00  0.000000D+00  0.000000D+00
     18   0.000000D+00  0.000000D+00  0.100000D+01 -0.629298D-01 -0.481546D+00
     19   0.000000D+00  0.000000D+00 -0.629298D-01  0.100000D+01  0.236704D+00
     20   0.000000D+00  0.000000D+00 -0.481546D+00  0.236704D+00  0.100000D+01
     21   0.171872D+00  0.000000D+00  0.000000D+00  0.000000D+00  0.000000D+00
     22   0.000000D+00  0.171872D+00  0.000000D+00  0.000000D+00  0.000000D+00
     23   0.000000D+00  0.000000D+00 -0.219658D+00  0.000000D+00  0.000000D+00
                21            22            23 
      1   0.000000D+00  0.000000D+00  0.210905D-02
      2   0.000000D+00  0.000000D+00  0.146542D-01
      3   0.123201D-02  0.000000D+00  0.000000D+00
      4   0.000000D+00  0.123201D-02  0.000000D+00
      5   0.000000D+00  0.000000D+00 -0.703127D-02
      6   0.000000D+00  0.000000D+00  0.115920D+00
      7   0.294976D-01  0.000000D+00  0.000000D+00
      8   0.000000D+00  0.294976D-01  0.000000D+00
      9   0.000000D+00  0.000000D+00 -0.133029D+00
     10   0.000000D+00  0.000000D+00  0.187115D+00
     11  -0.114343D+00  0.000000D+00  0.000000D+00
     12   0.000000D+00 -0.114343D+00  0.000000D+00
     13   0.000000D+00  0.000000D+00  0.000000D+00
     14   0.000000D+00  0.000000D+00  0.000000D+00
     15   0.000000D+00  0.000000D+00  0.171608D+00
     16   0.171872D+00  0.000000D+00  0.000000D+00
     17   0.000000D+00  0.171872D+00  0.000000D+00
     18   0.000000D+00  0.000000D+00 -0.219658D+00
     19   0.000000D+00  0.000000D+00  0.000000D+00
     20   0.000000D+00  0.000000D+00  0.000000D+00
     21   0.100000D+01  0.000000D+00  0.000000D+00
     22   0.000000D+00  0.100000D+01  0.000000D+00
     23   0.000000D+00  0.000000D+00  0.100000D+01
 Entering OneElI...
 Overlap between basis sets.
 Requested accuracy = 0.1000D-12
 PrsmSu:  NPrtUS=   1 ThrOK=F IAlg=1
 PRISM was handed  8586690327 working-precision words and   711 shell-pairs
 IPart=  0 NShTot=         711 NBatch=          84 AvBLen=         8.5
 CnvPC2: ToCart=F DoDens=F IPureD=0 IPureF=0.
 Transformed matrix in CnvPC2: 
                 1             2             3             4             5 
      1   0.999701D+00  0.391661D+00  0.000000D+00  0.000000D+00  0.000000D+00
      2   0.273566D+00  0.990698D+00  0.000000D+00  0.000000D+00  0.000000D+00
      3   0.000000D+00  0.000000D+00  0.998902D+00  0.000000D+00  0.000000D+00
      4   0.000000D+00  0.000000D+00  0.000000D+00  0.998902D+00  0.000000D+00
      5   0.000000D+00  0.000000D+00  0.000000D+00  0.000000D+00  0.998902D+00
      6   0.964035D-02  0.302522D+00  0.000000D+00  0.000000D+00  0.000000D+00
      7   0.000000D+00  0.000000D+00  0.307539D+00  0.000000D+00  0.000000D+00
      8   0.000000D+00  0.000000D+00  0.000000D+00  0.307539D+00  0.000000D+00
      9   0.000000D+00  0.000000D+00  0.000000D+00  0.000000D+00  0.307539D+00
     10   0.000000D+00  0.000000D+00  0.000000D+00  0.000000D+00  0.000000D+00
     11   0.000000D+00  0.000000D+00  0.000000D+00  0.000000D+00  0.000000D+00
     12   0.000000D+00  0.000000D+00  0.000000D+00  0.000000D+00  0.000000D+00
     13   0.000000D+00  0.000000D+00  0.000000D+00  0.000000D+00  0.000000D+00
     14   0.000000D+00  0.000000D+00  0.000000D+00  0.000000D+00  0.000000D+00
     15   0.000000D+00  0.000000D+00  0.000000D+00  0.000000D+00  0.000000D+00
     16   0.000000D+00  0.000000D+00  0.000000D+00  0.000000D+00  0.000000D+00
     17   0.000000D+00  0.000000D+00  0.000000D+00  0.000000D+00  0.000000D+00
     18   0.000000D+00  0.000000D+00  0.000000D+00  0.000000D+00  0.000000D+00
     19   0.000000D+00  0.000000D+00  0.000000D+00  0.000000D+00  0.000000D+00
     20   0.000000D+00  0.000000D+00  0.000000D+00  0.000000D+00  0.000000D+00
     21   0.000000D+00  0.000000D+00  0.000000D+00  0.000000D+00  0.000000D+00
     22   0.000000D+00  0.000000D+00  0.000000D+00  0.000000D+00  0.000000D+00
     23   0.000000D+00  0.000000D+00  0.000000D+00  0.000000D+00  0.000000D+00
     24   0.000000D+00  0.000000D+00  0.000000D+00  0.000000D+00  0.000000D+00
     25   0.101918D-03  0.976865D-02  0.000000D+00  0.000000D+00  0.000000D+00
     26   0.774497D-02  0.509594D-01  0.000000D+00  0.000000D+00  0.000000D+00
     27   0.375227D-02  0.247952D-01  0.000000D+00  0.000000D+00  0.000000D+00
     28   0.000000D+00  0.000000D+00 -0.236046D-01  0.000000D+00  0.000000D+00
     29   0.000000D+00  0.000000D+00  0.000000D+00 -0.236046D-01  0.000000D+00
     30   0.000000D+00  0.000000D+00  0.000000D+00  0.000000D+00 -0.236046D-01
     31   0.000000D+00  0.000000D+00  0.162003D-01  0.000000D+00  0.000000D+00
     32   0.000000D+00  0.000000D+00  0.000000D+00  0.162003D-01  0.000000D+00
     33   0.000000D+00  0.000000D+00  0.000000D+00  0.000000D+00  0.162003D-01
     34   0.000000D+00  0.000000D+00  0.662486D-02  0.000000D+00  0.000000D+00
     35   0.000000D+00  0.000000D+00  0.000000D+00  0.662486D-02  0.000000D+00
     36   0.000000D+00  0.000000D+00  0.000000D+00  0.000000D+00  0.662486D-02
     37   0.000000D+00  0.000000D+00  0.268714D-02  0.000000D+00  0.000000D+00
     38   0.000000D+00  0.000000D+00  0.000000D+00  0.268714D-02  0.000000D+00
     39   0.000000D+00  0.000000D+00  0.000000D+00  0.000000D+00  0.268714D-02
     40   0.272153D+00  0.944841D+00  0.000000D+00  0.000000D+00  0.000000D+00
     41   0.171247D+00  0.775790D+00  0.000000D+00  0.000000D+00  0.000000D+00
     42   0.105486D+00  0.565981D+00  0.000000D+00  0.000000D+00  0.000000D+00
     43   0.642417D-01  0.380308D+00  0.000000D+00  0.000000D+00  0.000000D+00
     44   0.388913D-01  0.242977D+00  0.000000D+00  0.000000D+00  0.000000D+00
     45   0.234723D-01  0.150883D+00  0.000000D+00  0.000000D+00  0.000000D+00
     46   0.000000D+00  0.000000D+00  0.425887D+00  0.000000D+00  0.000000D+00
     47   0.000000D+00  0.000000D+00  0.000000D+00  0.425887D+00  0.000000D+00
     48   0.000000D+00  0.000000D+00  0.000000D+00  0.000000D+00  0.425887D+00
     49   0.000000D+00  0.000000D+00  0.279361D+00  0.000000D+00  0.000000D+00
     50   0.000000D+00  0.000000D+00  0.000000D+00  0.279361D+00  0.000000D+00
     51   0.000000D+00  0.000000D+00  0.000000D+00  0.000000D+00  0.279361D+00
     52   0.000000D+00  0.000000D+00  0.172690D+00  0.000000D+00  0.000000D+00
     53   0.000000D+00  0.000000D+00  0.000000D+00  0.172690D+00  0.000000D+00
     54   0.000000D+00  0.000000D+00  0.000000D+00  0.000000D+00  0.172690D+00
     55   0.000000D+00  0.000000D+00  0.102260D+00  0.000000D+00  0.000000D+00
     56   0.000000D+00  0.000000D+00  0.000000D+00  0.102260D+00  0.000000D+00
     57   0.000000D+00  0.000000D+00  0.000000D+00  0.000000D+00  0.102260D+00
     58   0.000000D+00  0.000000D+00  0.587978D-01  0.000000D+00  0.000000D+00
     59   0.000000D+00  0.000000D+00  0.000000D+00  0.587978D-01  0.000000D+00
     60   0.000000D+00  0.000000D+00  0.000000D+00  0.000000D+00  0.587978D-01
     61   0.000000D+00  0.000000D+00  0.331578D-01  0.000000D+00  0.000000D+00
     62   0.000000D+00  0.000000D+00  0.000000D+00  0.331578D-01  0.000000D+00
     63   0.000000D+00  0.000000D+00  0.000000D+00  0.000000D+00  0.331578D-01
     64   0.000000D+00  0.000000D+00  0.000000D+00  0.000000D+00  0.000000D+00
     65   0.000000D+00  0.000000D+00  0.000000D+00  0.000000D+00  0.000000D+00
     66   0.000000D+00  0.000000D+00  0.000000D+00  0.000000D+00  0.000000D+00
     67   0.000000D+00  0.000000D+00  0.000000D+00  0.000000D+00  0.000000D+00
     68   0.000000D+00  0.000000D+00  0.000000D+00  0.000000D+00  0.000000D+00
     69   0.000000D+00  0.000000D+00  0.000000D+00  0.000000D+00  0.000000D+00
     70   0.000000D+00  0.000000D+00  0.000000D+00  0.000000D+00  0.000000D+00
     71   0.000000D+00  0.000000D+00  0.000000D+00  0.000000D+00  0.000000D+00
     72   0.000000D+00  0.000000D+00  0.000000D+00  0.000000D+00  0.000000D+00
     73   0.000000D+00  0.000000D+00  0.000000D+00  0.000000D+00  0.000000D+00
     74   0.000000D+00  0.000000D+00  0.000000D+00  0.000000D+00  0.000000D+00
     75   0.000000D+00  0.000000D+00  0.000000D+00  0.000000D+00  0.000000D+00
     76   0.000000D+00  0.000000D+00  0.000000D+00  0.000000D+00  0.000000D+00
     77   0.000000D+00  0.000000D+00  0.000000D+00  0.000000D+00  0.000000D+00
     78   0.000000D+00  0.000000D+00  0.000000D+00  0.000000D+00  0.000000D+00
     79   0.000000D+00  0.000000D+00  0.000000D+00  0.000000D+00  0.000000D+00
     80   0.000000D+00  0.000000D+00  0.000000D+00  0.000000D+00  0.000000D+00
     81   0.000000D+00  0.000000D+00  0.000000D+00  0.000000D+00  0.000000D+00
     82   0.000000D+00  0.000000D+00  0.000000D+00  0.000000D+00  0.000000D+00
     83   0.000000D+00  0.000000D+00  0.000000D+00  0.000000D+00  0.000000D+00
     84   0.000000D+00  0.000000D+00  0.000000D+00  0.000000D+00  0.000000D+00
     85   0.000000D+00  0.000000D+00  0.000000D+00  0.000000D+00  0.000000D+00
     86   0.000000D+00  0.000000D+00  0.000000D+00  0.000000D+00  0.000000D+00
     87   0.000000D+00  0.000000D+00  0.000000D+00  0.000000D+00  0.000000D+00
     88   0.000000D+00  0.000000D+00  0.000000D+00  0.000000D+00  0.000000D+00
     89   0.000000D+00  0.000000D+00  0.000000D+00  0.000000D+00  0.000000D+00
     90   0.000000D+00  0.000000D+00  0.000000D+00  0.000000D+00  0.000000D+00
     91   0.000000D+00  0.000000D+00  0.000000D+00  0.000000D+00  0.000000D+00
     92   0.000000D+00  0.000000D+00  0.000000D+00  0.000000D+00  0.000000D+00
     93   0.000000D+00  0.000000D+00  0.000000D+00  0.000000D+00  0.000000D+00
     94   0.000000D+00  0.000000D+00  0.000000D+00  0.000000D+00  0.000000D+00
     95   0.000000D+00  0.000000D+00  0.000000D+00  0.000000D+00  0.000000D+00
     96   0.000000D+00  0.000000D+00  0.000000D+00  0.000000D+00  0.000000D+00
     97   0.000000D+00  0.000000D+00  0.000000D+00  0.000000D+00  0.000000D+00
     98   0.000000D+00  0.000000D+00  0.000000D+00  0.000000D+00  0.000000D+00
     99   0.000000D+00  0.000000D+00  0.000000D+00  0.000000D+00  0.000000D+00
    100   0.000000D+00  0.000000D+00  0.000000D+00  0.000000D+00  0.000000D+00
    101   0.000000D+00  0.000000D+00  0.000000D+00  0.000000D+00  0.000000D+00
    102   0.000000D+00  0.000000D+00  0.000000D+00  0.000000D+00  0.000000D+00
    103   0.000000D+00  0.000000D+00  0.000000D+00  0.000000D+00  0.000000D+00
    104   0.000000D+00  0.000000D+00  0.000000D+00  0.000000D+00  0.000000D+00
    105   0.000000D+00  0.000000D+00  0.000000D+00  0.000000D+00  0.000000D+00
    106   0.000000D+00  0.000000D+00  0.000000D+00  0.000000D+00  0.000000D+00
    107   0.000000D+00  0.000000D+00  0.000000D+00  0.000000D+00  0.000000D+00
    108   0.000000D+00  0.000000D+00  0.000000D+00  0.000000D+00  0.000000D+00
    109   0.000000D+00  0.000000D+00  0.000000D+00  0.000000D+00  0.000000D+00
    110   0.000000D+00  0.000000D+00  0.000000D+00  0.000000D+00  0.000000D+00
    111   0.000000D+00  0.000000D+00  0.000000D+00  0.000000D+00  0.000000D+00
    112   0.000000D+00  0.000000D+00  0.000000D+00  0.000000D+00  0.000000D+00
    113   0.000000D+00  0.000000D+00  0.000000D+00  0.000000D+00  0.000000D+00
    114   0.000000D+00  0.000000D+00  0.000000D+00  0.000000D+00  0.000000D+00
    115   0.000000D+00  0.000000D+00  0.000000D+00  0.000000D+00  0.000000D+00
    116   0.000000D+00  0.000000D+00  0.000000D+00  0.000000D+00  0.000000D+00
    117   0.000000D+00  0.000000D+00  0.000000D+00  0.000000D+00  0.000000D+00
    118   0.000000D+00  0.000000D+00  0.000000D+00  0.000000D+00  0.000000D+00
    119   0.000000D+00  0.000000D+00  0.000000D+00  0.000000D+00  0.000000D+00
    120   0.000000D+00  0.000000D+00  0.000000D+00  0.000000D+00  0.000000D+00
    121   0.000000D+00  0.000000D+00  0.000000D+00  0.000000D+00  0.000000D+00
    122   0.000000D+00  0.000000D+00  0.000000D+00  0.000000D+00  0.000000D+00
    123   0.000000D+00  0.000000D+00  0.000000D+00  0.000000D+00  0.000000D+00
    124   0.000000D+00  0.000000D+00  0.000000D+00  0.000000D+00  0.000000D+00
    125   0.000000D+00  0.000000D+00  0.000000D+00  0.000000D+00  0.000000D+00
    126   0.000000D+00  0.000000D+00  0.000000D+00  0.000000D+00  0.000000D+00
    127   0.000000D+00  0.000000D+00  0.000000D+00  0.000000D+00  0.000000D+00
    128   0.000000D+00  0.000000D+00  0.000000D+00  0.000000D+00  0.000000D+00
    129   0.000000D+00  0.000000D+00  0.000000D+00  0.000000D+00  0.000000D+00
    130   0.000000D+00  0.000000D+00  0.000000D+00  0.000000D+00  0.000000D+00
    131   0.000000D+00  0.000000D+00  0.000000D+00  0.000000D+00  0.000000D+00
    132   0.000000D+00  0.000000D+00  0.000000D+00  0.000000D+00  0.000000D+00
    133   0.000000D+00  0.000000D+00  0.000000D+00  0.000000D+00  0.000000D+00
    134   0.000000D+00  0.000000D+00  0.000000D+00  0.000000D+00  0.000000D+00
    135   0.000000D+00  0.000000D+00  0.000000D+00  0.000000D+00  0.000000D+00
    136   0.000000D+00  0.000000D+00  0.000000D+00  0.000000D+00  0.000000D+00
    137   0.000000D+00  0.000000D+00  0.000000D+00  0.000000D+00  0.000000D+00
    138   0.000000D+00  0.000000D+00  0.000000D+00  0.000000D+00  0.000000D+00
    139   0.000000D+00  0.000000D+00  0.000000D+00  0.000000D+00  0.000000D+00
    140   0.000000D+00  0.000000D+00  0.000000D+00  0.000000D+00  0.000000D+00
    141   0.000000D+00  0.000000D+00  0.000000D+00  0.000000D+00  0.000000D+00
    142   0.000000D+00  0.000000D+00  0.000000D+00  0.000000D+00  0.000000D+00
    143   0.000000D+00  0.000000D+00  0.000000D+00  0.000000D+00  0.000000D+00
    144   0.000000D+00  0.000000D+00  0.000000D+00  0.000000D+00  0.000000D+00
    145   0.000000D+00  0.000000D+00  0.000000D+00  0.000000D+00  0.000000D+00
    146   0.000000D+00  0.000000D+00  0.000000D+00  0.000000D+00  0.000000D+00
    147   0.000000D+00  0.000000D+00  0.000000D+00  0.000000D+00  0.000000D+00
    148   0.000000D+00  0.000000D+00  0.000000D+00  0.000000D+00  0.000000D+00
    149   0.000000D+00  0.000000D+00  0.000000D+00  0.000000D+00  0.000000D+00
    150   0.000000D+00  0.000000D+00  0.000000D+00  0.000000D+00  0.000000D+00
    151   0.000000D+00  0.000000D+00  0.000000D+00  0.000000D+00  0.000000D+00
    152   0.000000D+00  0.000000D+00  0.000000D+00  0.000000D+00  0.000000D+00
    153   0.000000D+00  0.000000D+00  0.000000D+00  0.000000D+00  0.000000D+00
    154   0.000000D+00  0.000000D+00  0.000000D+00  0.000000D+00  0.000000D+00
    155   0.000000D+00  0.000000D+00  0.000000D+00  0.000000D+00  0.000000D+00
    156   0.000000D+00  0.000000D+00  0.000000D+00  0.000000D+00  0.000000D+00
    157   0.000000D+00  0.000000D+00  0.000000D+00  0.000000D+00  0.000000D+00
    158   0.000000D+00  0.000000D+00  0.000000D+00  0.000000D+00  0.000000D+00
    159   0.000000D+00  0.000000D+00  0.000000D+00  0.000000D+00  0.000000D+00
    160   0.000000D+00  0.000000D+00  0.000000D+00  0.000000D+00  0.000000D+00
    161   0.000000D+00  0.000000D+00  0.000000D+00  0.000000D+00  0.000000D+00
    162   0.000000D+00  0.000000D+00  0.000000D+00  0.000000D+00  0.000000D+00
    163   0.000000D+00  0.000000D+00  0.000000D+00  0.000000D+00  0.000000D+00
    164   0.000000D+00  0.000000D+00  0.000000D+00  0.000000D+00  0.000000D+00
    165   0.000000D+00  0.000000D+00  0.000000D+00  0.000000D+00  0.000000D+00
    166   0.000000D+00  0.000000D+00  0.000000D+00  0.000000D+00  0.000000D+00
    167   0.000000D+00  0.000000D+00  0.000000D+00  0.000000D+00  0.000000D+00
    168   0.000000D+00  0.000000D+00  0.000000D+00  0.000000D+00  0.000000D+00
    169   0.000000D+00  0.000000D+00  0.000000D+00  0.000000D+00  0.000000D+00
    170   0.000000D+00  0.000000D+00  0.000000D+00  0.000000D+00  0.000000D+00
    171   0.000000D+00  0.000000D+00  0.000000D+00  0.000000D+00  0.000000D+00
    172   0.000000D+00  0.000000D+00  0.000000D+00  0.000000D+00  0.000000D+00
    173   0.000000D+00  0.000000D+00  0.000000D+00  0.000000D+00  0.000000D+00
    174   0.000000D+00  0.000000D+00  0.000000D+00  0.000000D+00  0.000000D+00
    175   0.000000D+00  0.000000D+00  0.000000D+00  0.000000D+00  0.000000D+00
    176   0.000000D+00  0.000000D+00  0.000000D+00  0.000000D+00  0.000000D+00
    177   0.000000D+00  0.000000D+00  0.000000D+00  0.000000D+00  0.000000D+00
    178   0.000000D+00  0.000000D+00  0.000000D+00  0.000000D+00  0.000000D+00
    179   0.000000D+00  0.000000D+00  0.000000D+00  0.000000D+00  0.000000D+00
    180   0.000000D+00  0.000000D+00  0.000000D+00  0.000000D+00  0.000000D+00
    181   0.000000D+00  0.000000D+00  0.000000D+00  0.000000D+00  0.000000D+00
    182   0.000000D+00  0.000000D+00  0.000000D+00  0.000000D+00  0.000000D+00
    183   0.000000D+00  0.000000D+00  0.000000D+00  0.000000D+00  0.000000D+00
    184   0.000000D+00  0.000000D+00  0.000000D+00  0.000000D+00  0.000000D+00
    185   0.000000D+00  0.000000D+00  0.000000D+00  0.000000D+00  0.000000D+00
    186   0.000000D+00  0.000000D+00  0.000000D+00  0.000000D+00  0.000000D+00
    187   0.000000D+00  0.000000D+00  0.000000D+00  0.000000D+00  0.000000D+00
    188   0.000000D+00  0.000000D+00  0.000000D+00  0.000000D+00  0.000000D+00
    189   0.000000D+00  0.000000D+00  0.000000D+00  0.000000D+00  0.000000D+00
    190   0.000000D+00  0.000000D+00  0.000000D+00  0.000000D+00  0.000000D+00
    191   0.000000D+00  0.000000D+00  0.000000D+00  0.000000D+00  0.000000D+00
    192   0.000000D+00  0.000000D+00  0.000000D+00  0.000000D+00  0.000000D+00
    193   0.000000D+00  0.000000D+00  0.000000D+00  0.000000D+00  0.000000D+00
    194   0.000000D+00  0.000000D+00  0.000000D+00  0.000000D+00  0.000000D+00
    195   0.000000D+00  0.000000D+00  0.000000D+00  0.000000D+00  0.000000D+00
    196   0.000000D+00  0.000000D+00  0.000000D+00  0.000000D+00  0.000000D+00
    197   0.000000D+00  0.000000D+00  0.000000D+00  0.000000D+00  0.000000D+00
    198   0.000000D+00  0.000000D+00  0.000000D+00  0.000000D+00  0.000000D+00
    199   0.000000D+00  0.000000D+00  0.000000D+00  0.000000D+00  0.000000D+00
    200   0.000000D+00  0.000000D+00  0.000000D+00  0.000000D+00  0.000000D+00
    201   0.000000D+00  0.000000D+00  0.000000D+00  0.000000D+00  0.000000D+00
    202   0.000000D+00  0.000000D+00  0.000000D+00  0.000000D+00  0.000000D+00
    203   0.000000D+00  0.000000D+00  0.000000D+00  0.000000D+00  0.000000D+00
    204   0.000000D+00  0.000000D+00  0.000000D+00  0.000000D+00  0.000000D+00
    205   0.000000D+00  0.000000D+00  0.000000D+00  0.000000D+00  0.000000D+00
    206   0.000000D+00  0.000000D+00  0.000000D+00  0.000000D+00  0.000000D+00
    207   0.000000D+00  0.000000D+00  0.000000D+00  0.000000D+00  0.000000D+00
    208   0.000000D+00  0.000000D+00  0.000000D+00  0.000000D+00  0.000000D+00
    209   0.000000D+00  0.000000D+00  0.000000D+00  0.000000D+00  0.000000D+00
    210   0.000000D+00  0.000000D+00  0.000000D+00  0.000000D+00  0.000000D+00
    211   0.000000D+00  0.000000D+00  0.000000D+00  0.000000D+00  0.000000D+00
    212   0.000000D+00  0.000000D+00  0.000000D+00  0.000000D+00  0.000000D+00
    213   0.000000D+00  0.000000D+00  0.000000D+00  0.000000D+00  0.000000D+00
    214   0.000000D+00  0.000000D+00  0.000000D+00  0.000000D+00  0.000000D+00
    215   0.000000D+00  0.000000D+00  0.000000D+00  0.000000D+00  0.000000D+00
    216   0.000000D+00  0.000000D+00  0.000000D+00  0.000000D+00  0.000000D+00
    217   0.000000D+00  0.000000D+00  0.000000D+00  0.000000D+00  0.000000D+00
    218   0.000000D+00  0.000000D+00  0.000000D+00  0.000000D+00  0.000000D+00
    219   0.000000D+00  0.000000D+00  0.000000D+00  0.000000D+00  0.000000D+00
    220   0.000000D+00  0.000000D+00  0.000000D+00  0.000000D+00  0.000000D+00
    221   0.000000D+00  0.000000D+00  0.000000D+00  0.000000D+00  0.000000D+00
    222   0.000000D+00  0.000000D+00  0.000000D+00  0.000000D+00  0.000000D+00
    223   0.000000D+00  0.000000D+00  0.000000D+00  0.000000D+00  0.000000D+00
    224   0.000000D+00  0.000000D+00  0.000000D+00  0.000000D+00  0.000000D+00
    225   0.000000D+00  0.000000D+00  0.000000D+00  0.000000D+00  0.000000D+00
    226   0.000000D+00  0.000000D+00  0.000000D+00  0.000000D+00  0.000000D+00
    227   0.000000D+00  0.000000D+00  0.000000D+00  0.000000D+00  0.000000D+00
    228   0.000000D+00  0.000000D+00  0.000000D+00  0.000000D+00  0.000000D+00
    229   0.000000D+00  0.000000D+00  0.000000D+00  0.000000D+00  0.000000D+00
    230   0.000000D+00  0.000000D+00  0.000000D+00  0.000000D+00  0.000000D+00
    231   0.000000D+00  0.000000D+00  0.000000D+00  0.000000D+00  0.000000D+00
    232   0.000000D+00  0.000000D+00  0.000000D+00  0.000000D+00  0.000000D+00
    233   0.000000D+00  0.000000D+00  0.000000D+00  0.000000D+00  0.000000D+00
    234   0.000000D+00  0.000000D+00  0.000000D+00  0.000000D+00  0.000000D+00
    235   0.000000D+00  0.000000D+00  0.000000D+00  0.000000D+00  0.000000D+00
    236   0.000000D+00  0.000000D+00  0.000000D+00  0.000000D+00  0.000000D+00
    237   0.000000D+00  0.000000D+00  0.000000D+00  0.000000D+00  0.000000D+00
    238   0.000000D+00  0.000000D+00  0.000000D+00  0.000000D+00  0.000000D+00
    239   0.000000D+00  0.000000D+00  0.000000D+00  0.000000D+00  0.000000D+00
    240   0.000000D+00  0.000000D+00  0.000000D+00  0.000000D+00  0.000000D+00
    241   0.000000D+00  0.000000D+00  0.000000D+00  0.000000D+00  0.000000D+00
    242   0.000000D+00  0.000000D+00  0.000000D+00  0.000000D+00  0.000000D+00
    243   0.000000D+00  0.000000D+00  0.000000D+00  0.000000D+00  0.000000D+00
    244   0.000000D+00  0.000000D+00  0.000000D+00  0.000000D+00  0.000000D+00
    245   0.000000D+00  0.000000D+00  0.000000D+00  0.000000D+00  0.000000D+00
    246   0.000000D+00  0.000000D+00  0.000000D+00  0.000000D+00  0.000000D+00
    247   0.000000D+00  0.000000D+00  0.000000D+00  0.000000D+00  0.000000D+00
    248   0.000000D+00  0.000000D+00  0.000000D+00  0.000000D+00  0.000000D+00
    249   0.000000D+00  0.000000D+00  0.000000D+00  0.000000D+00  0.000000D+00
    250   0.000000D+00  0.000000D+00  0.000000D+00  0.000000D+00  0.000000D+00
    251   0.000000D+00  0.000000D+00  0.000000D+00  0.000000D+00  0.000000D+00
    252   0.000000D+00  0.000000D+00  0.000000D+00  0.000000D+00  0.000000D+00
    253   0.000000D+00  0.000000D+00  0.000000D+00  0.000000D+00  0.000000D+00
    254   0.000000D+00  0.000000D+00  0.000000D+00  0.000000D+00  0.000000D+00
    255   0.000000D+00  0.000000D+00  0.000000D+00  0.000000D+00  0.000000D+00
    256   0.000000D+00  0.000000D+00  0.000000D+00  0.000000D+00  0.000000D+00
    257   0.000000D+00  0.000000D+00  0.000000D+00  0.000000D+00  0.000000D+00
    258   0.000000D+00  0.000000D+00  0.000000D+00  0.000000D+00  0.000000D+00
    259   0.000000D+00  0.000000D+00  0.000000D+00  0.000000D+00  0.000000D+00
    260   0.000000D+00  0.000000D+00  0.000000D+00  0.000000D+00  0.000000D+00
    261   0.000000D+00  0.000000D+00  0.000000D+00  0.000000D+00  0.000000D+00
    262   0.000000D+00  0.000000D+00  0.000000D+00  0.000000D+00  0.000000D+00
    263   0.000000D+00  0.000000D+00  0.000000D+00  0.000000D+00  0.000000D+00
    264   0.000000D+00  0.000000D+00  0.000000D+00  0.000000D+00  0.000000D+00
    265   0.000000D+00  0.000000D+00  0.000000D+00  0.000000D+00  0.000000D+00
    266   0.000000D+00  0.000000D+00  0.000000D+00  0.000000D+00  0.000000D+00
    267   0.000000D+00  0.000000D+00  0.000000D+00  0.000000D+00  0.000000D+00
    268   0.000000D+00  0.000000D+00  0.000000D+00  0.000000D+00  0.000000D+00
    269   0.000000D+00  0.000000D+00  0.000000D+00  0.000000D+00  0.000000D+00
    270   0.000000D+00  0.000000D+00  0.000000D+00  0.000000D+00  0.000000D+00
    271   0.000000D+00  0.000000D+00  0.000000D+00  0.000000D+00  0.000000D+00
    272   0.000000D+00  0.000000D+00  0.000000D+00  0.000000D+00  0.000000D+00
    273   0.000000D+00  0.000000D+00  0.000000D+00  0.000000D+00  0.000000D+00
    274   0.000000D+00  0.000000D+00  0.000000D+00  0.000000D+00  0.000000D+00
    275   0.000000D+00  0.000000D+00  0.000000D+00  0.000000D+00  0.000000D+00
    276   0.000000D+00  0.000000D+00  0.000000D+00  0.000000D+00  0.000000D+00
    277   0.000000D+00  0.000000D+00  0.000000D+00  0.000000D+00  0.000000D+00
    278   0.000000D+00  0.000000D+00  0.000000D+00  0.000000D+00  0.000000D+00
    279   0.000000D+00  0.000000D+00  0.000000D+00  0.000000D+00  0.000000D+00
    280   0.000000D+00  0.000000D+00  0.000000D+00  0.000000D+00  0.000000D+00
    281   0.000000D+00  0.000000D+00  0.000000D+00  0.000000D+00  0.000000D+00
    282   0.000000D+00  0.000000D+00  0.000000D+00  0.000000D+00  0.000000D+00
    283   0.000000D+00  0.000000D+00  0.000000D+00  0.000000D+00  0.000000D+00
    284   0.000000D+00  0.000000D+00  0.000000D+00  0.000000D+00  0.000000D+00
    285   0.000000D+00  0.000000D+00  0.000000D+00  0.000000D+00  0.000000D+00
    286   0.000000D+00  0.000000D+00  0.000000D+00  0.000000D+00  0.000000D+00
    287   0.000000D+00  0.000000D+00  0.000000D+00  0.000000D+00  0.000000D+00
    288   0.000000D+00  0.000000D+00  0.000000D+00  0.000000D+00  0.000000D+00
    289   0.000000D+00  0.000000D+00  0.000000D+00  0.000000D+00  0.000000D+00
    290   0.000000D+00  0.000000D+00  0.000000D+00  0.000000D+00  0.000000D+00
    291   0.000000D+00  0.000000D+00  0.000000D+00  0.000000D+00  0.000000D+00
    292   0.000000D+00  0.000000D+00  0.000000D+00  0.000000D+00  0.000000D+00
    293   0.000000D+00  0.000000D+00  0.000000D+00  0.000000D+00  0.000000D+00
    294   0.000000D+00  0.000000D+00  0.000000D+00  0.000000D+00  0.000000D+00
    295   0.000000D+00  0.000000D+00  0.000000D+00  0.000000D+00  0.000000D+00
    296   0.000000D+00  0.000000D+00  0.000000D+00  0.000000D+00  0.000000D+00
    297   0.000000D+00  0.000000D+00  0.000000D+00  0.000000D+00  0.000000D+00
    298   0.000000D+00  0.000000D+00  0.000000D+00  0.000000D+00  0.000000D+00
    299   0.000000D+00  0.000000D+00  0.000000D+00  0.000000D+00  0.000000D+00
    300   0.000000D+00  0.000000D+00  0.000000D+00  0.000000D+00  0.000000D+00
    301   0.000000D+00  0.000000D+00  0.000000D+00  0.000000D+00  0.000000D+00
    302   0.000000D+00  0.000000D+00  0.000000D+00  0.000000D+00  0.000000D+00
    303   0.000000D+00  0.000000D+00  0.000000D+00  0.000000D+00  0.000000D+00
    304   0.000000D+00  0.000000D+00  0.000000D+00  0.000000D+00  0.000000D+00
    305   0.000000D+00  0.000000D+00  0.000000D+00  0.000000D+00  0.000000D+00
    306   0.000000D+00  0.000000D+00  0.000000D+00  0.000000D+00  0.000000D+00
    307   0.000000D+00  0.000000D+00  0.000000D+00  0.000000D+00  0.000000D+00
    308   0.000000D+00  0.000000D+00  0.000000D+00  0.000000D+00  0.000000D+00
    309   0.000000D+00  0.000000D+00  0.000000D+00  0.000000D+00  0.000000D+00
    310   0.000000D+00  0.000000D+00  0.000000D+00  0.000000D+00  0.000000D+00
    311   0.000000D+00  0.000000D+00  0.000000D+00  0.000000D+00  0.000000D+00
    312   0.000000D+00  0.000000D+00  0.000000D+00  0.000000D+00  0.000000D+00
    313   0.000000D+00  0.000000D+00  0.000000D+00  0.000000D+00  0.000000D+00
    314   0.000000D+00  0.000000D+00  0.000000D+00  0.000000D+00  0.000000D+00
    315   0.000000D+00  0.000000D+00  0.000000D+00  0.000000D+00  0.000000D+00
    316   0.000000D+00  0.000000D+00  0.000000D+00  0.000000D+00  0.000000D+00
    317   0.000000D+00  0.000000D+00  0.000000D+00  0.000000D+00  0.000000D+00
    318   0.000000D+00  0.000000D+00  0.000000D+00  0.000000D+00  0.000000D+00
    319   0.000000D+00  0.000000D+00  0.000000D+00  0.000000D+00  0.000000D+00
    320   0.000000D+00  0.000000D+00  0.000000D+00  0.000000D+00  0.000000D+00
    321   0.000000D+00  0.000000D+00  0.000000D+00  0.000000D+00  0.000000D+00
    322   0.000000D+00  0.000000D+00  0.000000D+00  0.000000D+00  0.000000D+00
    323   0.000000D+00  0.000000D+00  0.000000D+00  0.000000D+00  0.000000D+00
    324   0.000000D+00  0.000000D+00  0.000000D+00  0.000000D+00  0.000000D+00
    325   0.000000D+00  0.000000D+00  0.000000D+00  0.000000D+00  0.000000D+00
    326   0.000000D+00  0.000000D+00  0.000000D+00  0.000000D+00  0.000000D+00
    327   0.000000D+00  0.000000D+00  0.000000D+00  0.000000D+00  0.000000D+00
    328   0.000000D+00  0.000000D+00  0.000000D+00  0.000000D+00  0.000000D+00
    329   0.000000D+00  0.000000D+00  0.000000D+00  0.000000D+00  0.000000D+00
    330   0.000000D+00  0.000000D+00  0.000000D+00  0.000000D+00  0.000000D+00
    331   0.000000D+00  0.000000D+00  0.000000D+00  0.000000D+00  0.000000D+00
    332   0.000000D+00  0.000000D+00  0.000000D+00  0.000000D+00  0.000000D+00
    333   0.000000D+00  0.000000D+00  0.000000D+00  0.000000D+00  0.000000D+00
    334   0.000000D+00  0.000000D+00  0.000000D+00  0.000000D+00  0.000000D+00
    335   0.000000D+00  0.000000D+00  0.000000D+00  0.000000D+00  0.000000D+00
    336   0.000000D+00  0.000000D+00  0.000000D+00  0.000000D+00  0.000000D+00
    337   0.000000D+00  0.000000D+00  0.000000D+00  0.000000D+00  0.000000D+00
    338   0.000000D+00  0.000000D+00  0.000000D+00  0.000000D+00  0.000000D+00
    339   0.000000D+00  0.000000D+00  0.000000D+00  0.000000D+00  0.000000D+00
    340   0.000000D+00  0.000000D+00  0.000000D+00  0.000000D+00  0.000000D+00
    341   0.000000D+00  0.000000D+00  0.000000D+00  0.000000D+00  0.000000D+00
    342   0.000000D+00  0.000000D+00  0.000000D+00  0.000000D+00  0.000000D+00
    343   0.000000D+00  0.000000D+00  0.000000D+00  0.000000D+00  0.000000D+00
    344   0.000000D+00  0.000000D+00  0.000000D+00  0.000000D+00  0.000000D+00
    345   0.000000D+00  0.000000D+00  0.000000D+00  0.000000D+00  0.000000D+00
    346   0.000000D+00  0.000000D+00  0.000000D+00  0.000000D+00  0.000000D+00
    347   0.000000D+00  0.000000D+00  0.000000D+00  0.000000D+00  0.000000D+00
    348   0.000000D+00  0.000000D+00  0.000000D+00  0.000000D+00  0.000000D+00
    349   0.000000D+00  0.000000D+00  0.000000D+00  0.000000D+00  0.000000D+00
    350   0.000000D+00  0.000000D+00  0.000000D+00  0.000000D+00  0.000000D+00
    351   0.000000D+00  0.000000D+00  0.000000D+00  0.000000D+00  0.000000D+00
    352   0.000000D+00  0.000000D+00  0.000000D+00  0.000000D+00  0.000000D+00
    353   0.000000D+00  0.000000D+00  0.000000D+00  0.000000D+00  0.000000D+00
    354   0.000000D+00  0.000000D+00  0.000000D+00  0.000000D+00  0.000000D+00
    355   0.000000D+00  0.000000D+00  0.000000D+00  0.000000D+00  0.000000D+00
    356   0.000000D+00  0.000000D+00  0.000000D+00  0.000000D+00  0.000000D+00
    357   0.000000D+00  0.000000D+00  0.000000D+00  0.000000D+00  0.000000D+00
    358   0.000000D+00  0.000000D+00  0.000000D+00  0.000000D+00  0.000000D+00
    359   0.000000D+00  0.000000D+00  0.000000D+00  0.000000D+00  0.000000D+00
    360   0.000000D+00  0.000000D+00  0.000000D+00  0.000000D+00  0.000000D+00
    361   0.000000D+00  0.000000D+00  0.000000D+00  0.000000D+00  0.000000D+00
    362   0.000000D+00  0.000000D+00  0.000000D+00  0.000000D+00  0.000000D+00
    363   0.000000D+00  0.000000D+00  0.000000D+00  0.000000D+00  0.000000D+00
    364   0.000000D+00  0.000000D+00  0.000000D+00  0.000000D+00  0.000000D+00
    365   0.000000D+00  0.000000D+00  0.000000D+00  0.000000D+00  0.000000D+00
    366   0.000000D+00  0.112282D-05  0.000000D+00  0.000000D+00 -0.110013D-05
    367   0.141085D-02  0.980090D-02  0.000000D+00  0.000000D+00 -0.395605D-02
    368   0.642383D-02  0.422606D-01  0.000000D+00  0.000000D+00 -0.371811D-02
    369   0.000000D+00  0.000000D+00  0.234309D-02  0.000000D+00  0.000000D+00
    370   0.000000D+00  0.000000D+00  0.000000D+00  0.234309D-02  0.000000D+00
    371   0.413118D-02  0.277878D-01  0.000000D+00  0.000000D+00 -0.853147D-02
    372   0.000000D+00  0.000000D+00  0.401767D-02  0.000000D+00  0.000000D+00
    373   0.000000D+00  0.000000D+00  0.000000D+00  0.401767D-02  0.000000D+00
    374   0.725508D-02  0.475304D-01  0.000000D+00  0.000000D+00  0.945549D-03
    375   0.000000D+00  0.000000D+00  0.000000D+00  0.000000D+00  0.000000D+00
    376   0.000000D+00  0.000000D+00  0.000000D+00  0.000000D+00  0.000000D+00
    377   0.524139D-05  0.954890D-04  0.000000D+00  0.000000D+00 -0.130235D-03
    378   0.379380D-03  0.316296D-02  0.000000D+00  0.000000D+00 -0.248164D-02
    379   0.270385D-02  0.185808D-01  0.000000D+00  0.000000D+00 -0.782510D-02
    380   0.578894D-02  0.382209D-01  0.000000D+00  0.000000D+00 -0.838496D-02
    381   0.000000D+00  0.000000D+00  0.000000D+00  0.000000D+00  0.000000D+00
    382   0.000000D+00  0.000000D+00  0.000000D+00  0.000000D+00  0.000000D+00
    383   0.000000D+00  0.000000D+00  0.000000D+00  0.000000D+00  0.000000D+00
    384   0.000000D+00  0.000000D+00  0.000000D+00  0.000000D+00  0.000000D+00
    385   0.000000D+00  0.000000D+00  0.000000D+00  0.000000D+00  0.000000D+00
    386   0.000000D+00  0.000000D+00  0.000000D+00  0.000000D+00  0.000000D+00
    387   0.000000D+00  0.000000D+00  0.277235D-04  0.000000D+00  0.000000D+00
    388   0.000000D+00  0.000000D+00  0.000000D+00  0.277235D-04  0.000000D+00
    389   0.195023D-04  0.350724D-03  0.000000D+00  0.000000D+00 -0.476067D-03
    390   0.000000D+00  0.000000D+00  0.131508D-02  0.000000D+00  0.000000D+00
    391   0.000000D+00  0.000000D+00  0.000000D+00  0.131508D-02  0.000000D+00
    392   0.207548D-02  0.157616D-01  0.000000D+00  0.000000D+00 -0.105314D-01
    393   0.000000D+00  0.000000D+00  0.581700D-02  0.000000D+00  0.000000D+00
    394   0.000000D+00  0.000000D+00  0.000000D+00  0.581700D-02  0.000000D+00
    395   0.104969D-01  0.688207D-01  0.000000D+00  0.000000D+00 -0.189077D-01
    396   0.000000D+00  0.000000D+00  0.709806D-02  0.000000D+00  0.000000D+00
    397   0.000000D+00  0.000000D+00  0.000000D+00  0.709806D-02  0.000000D+00
    398   0.129281D-01  0.838968D-01  0.000000D+00  0.000000D+00 -0.685926D-02
    399   0.000000D+00  0.000000D+00  0.000000D+00  0.000000D+00  0.000000D+00
    400   0.000000D+00  0.000000D+00  0.000000D+00  0.000000D+00  0.000000D+00
    401   0.000000D+00  0.000000D+00  0.000000D+00  0.000000D+00  0.000000D+00
    402   0.000000D+00  0.000000D+00  0.000000D+00  0.000000D+00  0.000000D+00
    403   0.000000D+00  0.000000D+00  0.000000D+00  0.000000D+00  0.000000D+00
    404   0.000000D+00  0.000000D+00  0.000000D+00  0.000000D+00  0.000000D+00
    405   0.000000D+00  0.000000D+00  0.000000D+00  0.000000D+00  0.000000D+00
    406   0.000000D+00  0.000000D+00  0.000000D+00  0.000000D+00  0.000000D+00
    407   0.000000D+00  0.000000D+00  0.000000D+00  0.000000D+00  0.000000D+00
    408   0.000000D+00  0.000000D+00  0.000000D+00  0.000000D+00  0.000000D+00
    409   0.000000D+00  0.254583D-05  0.000000D+00  0.000000D+00 -0.559575D-05
    410   0.000000D+00  0.000000D+00  0.000000D+00  0.000000D+00  0.000000D+00
    411   0.000000D+00  0.000000D+00  0.000000D+00  0.000000D+00  0.000000D+00
    412   0.000000D+00  0.000000D+00  0.000000D+00  0.000000D+00  0.000000D+00
    413   0.000000D+00  0.000000D+00  0.000000D+00  0.000000D+00  0.000000D+00
    414   0.596485D-04  0.973858D-03  0.000000D+00  0.000000D+00 -0.127938D-02
    415   0.000000D+00  0.000000D+00  0.133980D-03  0.000000D+00  0.000000D+00
    416   0.000000D+00  0.000000D+00  0.000000D+00  0.133980D-03  0.000000D+00
    417   0.000000D+00  0.000000D+00  0.000000D+00  0.000000D+00  0.000000D+00
    418   0.000000D+00  0.000000D+00  0.000000D+00  0.000000D+00  0.000000D+00
    419   0.350605D-02  0.262252D-01  0.000000D+00  0.000000D+00 -0.177003D-01
    420   0.000000D+00  0.000000D+00  0.379523D-02  0.000000D+00  0.000000D+00
    421   0.000000D+00  0.000000D+00  0.000000D+00  0.379523D-02  0.000000D+00
    422   0.000000D+00  0.000000D+00  0.000000D+00  0.000000D+00  0.000000D+00
    423   0.000000D+00  0.000000D+00  0.000000D+00  0.000000D+00  0.000000D+00
    424   0.153687D-01  0.987158D-01  0.000000D+00  0.000000D+00 -0.271762D-01
    425   0.000000D+00  0.000000D+00  0.144804D-01  0.000000D+00  0.000000D+00
    426   0.000000D+00  0.000000D+00  0.000000D+00  0.144804D-01  0.000000D+00
    427   0.000000D+00  0.000000D+00  0.000000D+00  0.000000D+00  0.000000D+00
    428   0.000000D+00  0.000000D+00  0.000000D+00  0.000000D+00  0.000000D+00
    429   0.178564D-01  0.113636D+00  0.000000D+00  0.000000D+00 -0.660211D-02
    430   0.000000D+00  0.000000D+00  0.166833D-01  0.000000D+00  0.000000D+00
    431   0.000000D+00  0.000000D+00  0.000000D+00  0.166833D-01  0.000000D+00
    432   0.000000D+00  0.000000D+00  0.000000D+00  0.000000D+00  0.000000D+00
    433   0.000000D+00  0.000000D+00  0.000000D+00  0.000000D+00  0.000000D+00
    434   0.000000D+00  0.000000D+00  0.000000D+00  0.000000D+00  0.000000D+00
    435   0.000000D+00  0.000000D+00  0.000000D+00  0.000000D+00  0.000000D+00
    436   0.000000D+00  0.000000D+00  0.000000D+00  0.000000D+00  0.000000D+00
    437   0.000000D+00  0.000000D+00  0.000000D+00  0.000000D+00  0.000000D+00
    438   0.000000D+00  0.000000D+00  0.000000D+00  0.000000D+00  0.000000D+00
    439   0.000000D+00  0.000000D+00  0.000000D+00  0.000000D+00  0.000000D+00
    440   0.000000D+00  0.000000D+00  0.000000D+00  0.000000D+00  0.000000D+00
    441   0.000000D+00  0.000000D+00  0.000000D+00  0.000000D+00  0.000000D+00
    442   0.000000D+00  0.000000D+00  0.000000D+00  0.000000D+00  0.000000D+00
    443   0.000000D+00  0.000000D+00  0.000000D+00  0.000000D+00  0.000000D+00
    444   0.000000D+00  0.000000D+00  0.000000D+00  0.000000D+00  0.000000D+00
    445   0.000000D+00  0.000000D+00  0.000000D+00  0.000000D+00  0.000000D+00
    446   0.000000D+00  0.000000D+00  0.000000D+00  0.000000D+00  0.000000D+00
    447   0.000000D+00  0.000000D+00  0.000000D+00  0.000000D+00  0.000000D+00
    448   0.223357D-05  0.113641D-03  0.000000D+00  0.000000D+00 -0.197044D-03
    449   0.000000D+00  0.000000D+00  0.212894D-04  0.000000D+00  0.000000D+00
    450   0.000000D+00  0.000000D+00  0.000000D+00  0.212894D-04  0.000000D+00
    451   0.000000D+00  0.000000D+00  0.000000D+00  0.000000D+00  0.000000D+00
    452   0.000000D+00  0.000000D+00  0.000000D+00  0.000000D+00  0.000000D+00
    453   0.000000D+00  0.000000D+00  0.000000D+00  0.000000D+00  0.000000D+00
    454   0.000000D+00  0.000000D+00  0.000000D+00  0.000000D+00  0.000000D+00
    455   0.114908D-02  0.107543D-01  0.000000D+00  0.000000D+00 -0.103613D-01
    456   0.000000D+00  0.000000D+00  0.216346D-02  0.000000D+00  0.000000D+00
    457   0.000000D+00  0.000000D+00  0.000000D+00  0.216346D-02  0.000000D+00
    458   0.000000D+00  0.000000D+00  0.000000D+00  0.000000D+00  0.000000D+00
    459   0.000000D+00  0.000000D+00  0.000000D+00  0.000000D+00  0.000000D+00
    460   0.000000D+00  0.000000D+00  0.000000D+00  0.000000D+00  0.000000D+00
    461   0.000000D+00  0.000000D+00  0.000000D+00  0.000000D+00  0.000000D+00
    462   0.138513D-01  0.894103D-01  0.000000D+00  0.000000D+00 -0.371629D-01
    463   0.000000D+00  0.000000D+00  0.185412D-01  0.000000D+00  0.000000D+00
    464   0.000000D+00  0.000000D+00  0.000000D+00  0.185412D-01  0.000000D+00
    465   0.000000D+00  0.000000D+00  0.000000D+00  0.000000D+00  0.000000D+00
    466   0.000000D+00  0.000000D+00  0.000000D+00  0.000000D+00  0.000000D+00
    467   0.000000D+00  0.000000D+00  0.000000D+00  0.000000D+00  0.000000D+00
    468   0.000000D+00  0.000000D+00  0.000000D+00  0.000000D+00  0.000000D+00
    469   0.235239D-01  0.145355D+00  0.000000D+00  0.000000D+00 -0.139040D-01
    470   0.000000D+00  0.000000D+00  0.302663D-01  0.000000D+00  0.000000D+00
    471   0.000000D+00  0.000000D+00  0.000000D+00  0.302663D-01  0.000000D+00
    472   0.000000D+00  0.000000D+00  0.000000D+00  0.000000D+00  0.000000D+00
    473   0.000000D+00  0.000000D+00  0.000000D+00  0.000000D+00  0.000000D+00
    474   0.000000D+00  0.000000D+00  0.000000D+00  0.000000D+00  0.000000D+00
    475   0.000000D+00  0.000000D+00  0.000000D+00  0.000000D+00  0.000000D+00
    476   0.000000D+00  0.000000D+00  0.000000D+00  0.000000D+00  0.000000D+00
    477   0.000000D+00  0.000000D+00  0.000000D+00  0.000000D+00  0.000000D+00
    478   0.000000D+00  0.000000D+00  0.000000D+00  0.000000D+00  0.000000D+00
    479   0.000000D+00  0.000000D+00  0.000000D+00  0.000000D+00  0.000000D+00
    480   0.000000D+00  0.000000D+00  0.000000D+00  0.000000D+00  0.000000D+00
    481   0.000000D+00  0.000000D+00  0.000000D+00  0.000000D+00  0.000000D+00
    482   0.000000D+00  0.000000D+00  0.000000D+00  0.000000D+00  0.000000D+00
    483   0.000000D+00  0.000000D+00  0.000000D+00  0.000000D+00  0.000000D+00
    484   0.000000D+00  0.000000D+00  0.000000D+00  0.000000D+00  0.000000D+00
    485   0.000000D+00  0.103980D-05  0.000000D+00  0.000000D+00 -0.260794D-05
    486   0.000000D+00  0.000000D+00  0.000000D+00  0.000000D+00  0.000000D+00
    487   0.000000D+00  0.000000D+00  0.000000D+00  0.000000D+00  0.000000D+00
    488   0.000000D+00  0.000000D+00  0.000000D+00  0.000000D+00  0.000000D+00
    489   0.000000D+00  0.000000D+00  0.000000D+00  0.000000D+00  0.000000D+00
    490   0.000000D+00  0.000000D+00  0.000000D+00  0.000000D+00  0.000000D+00
    491   0.000000D+00  0.000000D+00  0.000000D+00  0.000000D+00  0.000000D+00
    492   0.000000D+00  0.000000D+00  0.000000D+00  0.000000D+00  0.000000D+00
    493   0.000000D+00  0.000000D+00  0.000000D+00  0.000000D+00  0.000000D+00
    494   0.543345D-04  0.114620D-02  0.000000D+00  0.000000D+00 -0.165552D-02
    495   0.000000D+00  0.000000D+00  0.284833D-03  0.000000D+00  0.000000D+00
    496   0.000000D+00  0.000000D+00  0.000000D+00  0.284833D-03  0.000000D+00
[...]
                                                  ----------
                         Total pair energies =    -0.443462 A.U.

                         Single Excitations  =    -0.001748 A.U.

                          Total second order =    -0.445210 A.U.

                         E2(CBS) - E2(Dir) =      -0.003398 A.U.

 E2(CBS)=      -0.446750 CBS-Int=       0.001539 OIii=       1.595638

 **********************************************************************

            Population analysis using the SCF density.

 **********************************************************************

 Orbital symmetries:
       Occupied  (SG) (SG) (SG) (SG) (PI) (PI) (SG) (SG) (PI) (PI)
                 (SG) (SG) (PI) (PI) (SG) (DLTA) (DLTA)
       Virtual   (PI) (PI) (SG) (SG) (DLTA) (DLTA) (PI) (PI) (SG)
                 (SG) (PI) (PI) (SG) (DLTA) (DLTA) (PI) (PI) (SG)
                 (PI) (PI) (SG) (PI) (PI) (SG) (PI) (PI) (SG) (DLTA)
                 (DLTA) (PHI) (PHI) (SG) (PI) (PI) (SG) (DLTA)
                 (DLTA) (PI) (PI) (SG) (PI) (PI) (SG) (DLTA) (DLTA)
                 (SG) (PHI) (PHI) (?A) (?A) (DLTA) (DLTA) (PI)
                 (PI) (SG) (PI) (PI) (SG) (PI) (PI) (SG) (DLTA)
                 (DLTA) (PHI) (PHI) (SG) (PI) (PI) (PHI) (PHI)
                 (DLTA) (DLTA) (SG) (PI) (PI) (?A) (?A) (?B) (?B)
                 (PHI) (PHI) (PI) (PI) (SG) (DLTA) (DLTA) (DLTA)
                 (DLTA) (SG) (PI) (PI) (SG) (DLTA) (DLTA) (PI)
                 (PI) (SG) (PI) (PI) (SG) (PHI) (PHI) (SG) (?A)
                 (?A) (PI) (PI) (?A) (?A) (SG) (DLTA) (DLTA) (SG)
                 (SG) (?B) (?B) (PI) (PI) (DLTA) (DLTA) (SG) (PHI)
                 (PHI) (PHI) (PHI) (?A) (?A) (PI) (PI) (SG) (DLTA)
                 (DLTA) (PI) (PI) (PHI) (PHI) (PI) (PI) (SG) (DLTA)
                 (DLTA) (PHI) (PHI) (SG) (DLTA) (DLTA) (SG) (DLTA)
                 (DLTA) (PI) (PI) (PI) (PI) (?A) (?A) (PI) (PI)
                 (SG) (?B) (?B) (DLTA) (DLTA) (SG) (SG) (?B) (?B)
                 (PHI) (PHI) (PI) (PI) (?C) (?C) (SG) (SG) (?A)
                 (?A) (SG) (?B) (?B) (DLTA) (DLTA) (PI) (PI) (PHI)
                 (PHI) (SG) (SG) (DLTA) (DLTA) (PI) (PI) (DLTA)
                 (DLTA) (?A) (?A) (PI) (PI) (SG) (PHI) (PHI) (?A)
                 (?A) (PI) (PI) (PHI) (PHI) (SG) (PI) (PI) (?A)
                 (?A) (SG) (DLTA) (DLTA) (PHI) (PHI) (PHI) (PHI)
                 (SG) (DLTA) (DLTA) (DLTA) (DLTA) (SG) (SG) (?B)
                 (?B) (PHI) (PHI) (?A) (?A) (PI) (PI) (SG) (SG)
                 (SG) (SG) (PI) (PI) (PI) (PI) (SG) (DLTA) (DLTA)
                 (PI) (PI) (?B) (?B) (DLTA) (DLTA) (SG) (PHI) (PHI)
                 (DLTA) (DLTA) (PI) (PI) (SG) (SG) (?A) (?A) (DLTA)
                 (DLTA) (PI) (PI) (SG) (SG) (DLTA) (DLTA) (PHI)
                 (PHI) (PI) (PI) (?B) (?B) (?A) (?A) (PI) (PI)
                 (PHI) (PHI) (DLTA) (DLTA) (SG) (?B) (?B) (PI)
                 (PI) (?A) (?A) (PI) (PI) (PHI) (PHI) (SG) (DLTA)
                 (DLTA) (SG) (PI) (PI) (?A) (?A) (PHI) (PHI) (DLTA)
                 (DLTA) (?A) (?A) (SG) (PHI) (PHI) (PI) (PI) (PHI)
                 (PHI) (SG) (SG) (?C) (?C) (?B) (?B) (DLTA) (DLTA)
                 (PHI) (PHI) (SG) (?A) (?A) (SG) (PI) (PI) (DLTA)
                 (DLTA) (SG) (PI) (PI) (SG) (PHI) (PHI) (PI) (PI)
                 (DLTA) (DLTA) (SG) (PI) (PI) (SG) (DLTA) (DLTA)
                 (SG) (DLTA) (DLTA) (PI) (PI) (SG) (PI) (PI) (SG)
                 (SG) (PI) (PI) (SG) (?B) (?B) (DLTA) (DLTA) (?A)
                 (?A) (SG) (SG) (?B) (?B) (DLTA) (DLTA) (PHI) (PHI)
                 (?A) (?A) (PI) (PI) (PHI) (PHI) (SG) (DLTA) (DLTA)
                 (SG) (PI) (PI) (?B) (?B) (?A) (?A) (PHI) (PHI)
                 (SG) (DLTA) (DLTA) (?B) (?B) (?A) (?A) (SG) (PHI)
                 (PHI) (PI) (PI) (PI) (PI) (DLTA) (DLTA) (SG) (PI)
                 (PI) (PI) (PI) (SG) (?A) (?A) (PHI) (PHI) (DLTA)
                 (DLTA) (PHI) (PHI) (SG) (PI) (PI) (SG) (DLTA)
                 (DLTA) (?A) (?A) (PHI) (PHI) (PI) (PI) (SG) (PHI)
                 (PHI) (DLTA) (DLTA) (DLTA) (DLTA) (?B) (?B) (SG)
                 (SG) (?C) (?C) (?A) (?A) (?D) (?D) (PI) (PI) (PHI)
                 (PHI) (DLTA) (DLTA) (SG) (PI) (PI) (SG) (DLTA)
                 (DLTA) (PI) (PI) (SG) (PI) (PI) (SG) (?B) (?B)
                 (SG) (SG) (?C) (?C) (?A) (?A) (PHI) (PHI) (DLTA)
                 (DLTA) (SG) (PI) (PI) (SG) (?B) (?B) (SG) (SG)
                 (?C) (?C) (?A) (?A) (PHI) (PHI) (DLTA) (DLTA)
                 (SG) (PI) (PI) (SG) (SG) (SG) (DLTA) (DLTA) (?B)
                 (?B) (PI) (PI) (?A) (?A) (PHI) (PHI) (PI) (PI)
                 (DLTA) (DLTA) (PI) (PI) (SG) (?B) (?B) (SG) (SG)
                 (?A) (?A) (PHI) (PHI) (DLTA) (DLTA) (SG) (PI)
                 (PI) (SG) (SG) (?A) (?A) (?B) (?B) (PHI) (PHI)
                 (DLTA) (DLTA) (SG) (?B) (?B) (?A) (?A) (PI) (PI)
                 (PHI) (PHI) (DLTA) (DLTA) (PI) (PI) (SG) (PHI)
                 (PHI) (DLTA) (DLTA) (PI) (PI) (SG) (?A) (?A) (PHI)
                 (PHI) (DLTA) (DLTA) (SG) (PI) (PI) (DLTA) (DLTA)
                 (PI) (PI) (SG) (PHI) (PHI) (DLTA) (DLTA) (PI)
                 (PI) (?A) (?A) (PHI) (PHI) (DLTA) (DLTA) (PI)
                 (PI) (SG) (SG) (PI) (PI) (SG) (SG) (SG)
 The electronic state is 4-SG.
 Alpha  occ. eigenvalues -- -201.55331 -23.95799 -20.50578 -20.10545 -20.10545
 Alpha  occ. eigenvalues --  -20.10254  -3.29823  -2.17301  -2.17301  -2.11549
 Alpha  occ. eigenvalues --   -1.17326  -0.49476  -0.49476  -0.49191  -0.46086
 Alpha  occ. eigenvalues --   -0.46086  -0.28016
 Alpha virt. eigenvalues --    0.00761   0.00761   0.01632   0.03070   0.04628
 Alpha virt. eigenvalues --    0.04628   0.04865   0.04865   0.05157   0.06928
 Alpha virt. eigenvalues --    0.07202   0.07202   0.12591   0.15848   0.15848
 Alpha virt. eigenvalues --    0.16279   0.16279   0.16832   0.16832   0.16925
 Alpha virt. eigenvalues --    0.18322   0.19104   0.19104   0.20968   0.28845
 Alpha virt. eigenvalues --    0.28845   0.29895   0.34929   0.34929   0.35708
 Alpha virt. eigenvalues --    0.35708   0.35972   0.36727   0.36727   0.41132
 Alpha virt. eigenvalues --    0.43693   0.43693   0.46609   0.46609   0.48885
 Alpha virt. eigenvalues --    0.52626   0.52626   0.56675   0.58984   0.58984
 Alpha virt. eigenvalues --    0.62521   0.65489   0.65489   0.67000   0.67000
 Alpha virt. eigenvalues --    0.67129   0.67129   0.67411   0.67411   0.68921
 Alpha virt. eigenvalues --    0.69841   0.69841   0.74509   0.80133   0.80133
 Alpha virt. eigenvalues --    0.80228   0.93023   0.93023   0.93459   0.93459
 Alpha virt. eigenvalues --    0.98675   1.04023   1.04023   1.07833   1.07833
 Alpha virt. eigenvalues --    1.08704   1.08704   1.10713   1.12361   1.12361
 Alpha virt. eigenvalues --    1.15420   1.15420   1.15606   1.15606   1.23018
 Alpha virt. eigenvalues --    1.23018   1.23951   1.23951   1.24177   1.24752
 Alpha virt. eigenvalues --    1.24752   1.28866   1.28866   1.30462   1.37924
 Alpha virt. eigenvalues --    1.37924   1.41618   1.42020   1.42020   1.44449
 Alpha virt. eigenvalues --    1.44449   1.46873   1.52011   1.52011   1.60413
 Alpha virt. eigenvalues --    1.70072   1.70072   1.76919   1.76919   1.76930
 Alpha virt. eigenvalues --    1.82503   1.82503   1.86171   1.86171   1.91915
 Alpha virt. eigenvalues --    1.91915   1.91989   1.95576   1.95576   1.95920
 Alpha virt. eigenvalues --    1.95920   2.04546   2.04546   2.04618   2.04618
 Alpha virt. eigenvalues --    2.05309   2.08603   2.08603   2.10443   2.10443
 Alpha virt. eigenvalues --    2.20094   2.20094   2.21754   2.21754   2.22665
 Alpha virt. eigenvalues --    2.28841   2.28841   2.34224   2.34224   2.39598
 Alpha virt. eigenvalues --    2.39598   2.40652   2.40652   2.41297   2.47124
 Alpha virt. eigenvalues --    2.47124   2.51011   2.51011   2.56877   2.60019
 Alpha virt. eigenvalues --    2.60019   2.63412   2.69970   2.69970   2.83699
 Alpha virt. eigenvalues --    2.83699   2.90499   2.90499   2.92398   2.92398
 Alpha virt. eigenvalues --    2.92596   2.92596   2.94139   2.99325   2.99325
 Alpha virt. eigenvalues --    3.03073   3.03073   3.05033   3.08970   3.09907
 Alpha virt. eigenvalues --    3.09907   3.18665   3.18665   3.33554   3.33554
 Alpha virt. eigenvalues --    3.35907   3.35907   3.36497   3.36497   3.48497
 Alpha virt. eigenvalues --    3.48497   3.48711   3.64952   3.64952   3.65198
 Alpha virt. eigenvalues --    3.65198   3.68400   3.68400   3.71471   3.71471
 Alpha virt. eigenvalues --    3.77185   3.79637   3.85571   3.85571   3.85606
 Alpha virt. eigenvalues --    3.85606   3.90252   3.90252   3.96309   3.96309
 Alpha virt. eigenvalues --    3.99303   3.99303   4.04334   4.07553   4.07553
 Alpha virt. eigenvalues --    4.19582   4.19582   4.23282   4.23282   4.32498
 Alpha virt. eigenvalues --    4.32498   4.33681   4.42926   4.42926   4.52828
 Alpha virt. eigenvalues --    4.52955   4.52955   4.57475   4.57475   4.59782
 Alpha virt. eigenvalues --    4.59782   4.76085   4.76085   4.80508   4.81829
 Alpha virt. eigenvalues --    4.81829   5.03440   5.03440   5.07393   5.07393
 Alpha virt. eigenvalues --    5.14013   5.14013   5.18410   5.18410   5.23076
 Alpha virt. eigenvalues --    5.23076   5.28257   5.28257   5.30018   5.35441
 Alpha virt. eigenvalues --    5.35441   5.38798   5.40494   5.40494   5.53196
 Alpha virt. eigenvalues --    5.53196   5.56596   5.64211   5.64211   5.66985
 Alpha virt. eigenvalues --    5.66985   5.69458   5.69458   5.73447   5.73447
 Alpha virt. eigenvalues --    5.83149   5.95295   5.95295   6.08581   6.08581
 Alpha virt. eigenvalues --    6.21755   6.21755   6.24397   6.51971   6.54082
 Alpha virt. eigenvalues --    6.54082   6.67184   6.67184   6.70450   6.70450
 Alpha virt. eigenvalues --    6.73686   6.89679   6.90939   6.90939   6.98214
 Alpha virt. eigenvalues --    6.98214   7.05149   7.05149   7.06690   7.06690
 Alpha virt. eigenvalues --    7.11944   7.11944   7.28920   7.28920   7.49283
 Alpha virt. eigenvalues --    7.49283   7.66630   7.66630   7.67376   7.68043
 Alpha virt. eigenvalues --    7.68043   7.70563   7.70563   7.92138   7.92138
 Alpha virt. eigenvalues --    8.20243   8.20243   8.22939   8.22939   8.26339
 Alpha virt. eigenvalues --    8.82553   8.82553   9.24150   9.30407   9.30407
 Alpha virt. eigenvalues --    9.44494   9.44494   9.50525   9.50525   9.56933
 Alpha virt. eigenvalues --    9.56933   9.60173   9.60173   9.69015   9.76146
 Alpha virt. eigenvalues --    9.76146   9.82751   9.82751  10.05248  10.05248
 Alpha virt. eigenvalues --   10.07990  10.07990  10.08348  10.08348  10.11195
 Alpha virt. eigenvalues --   10.11195  10.18307  10.18307  10.31982  10.31982
 Alpha virt. eigenvalues --   10.36663  10.37555  10.37555  10.40030  10.41384
 Alpha virt. eigenvalues --   10.41384  10.58817  10.58817  10.61405  10.66162
 Alpha virt. eigenvalues --   10.66162  10.69031  10.99079  10.99079  11.04651
 Alpha virt. eigenvalues --   11.04651  11.09108  11.09108  11.09489  11.26202
 Alpha virt. eigenvalues --   11.26202  11.46026  11.48268  11.48268  11.68799
 Alpha virt. eigenvalues --   11.80081  11.80081  12.51929  12.51929  12.88511
 Alpha virt. eigenvalues --   12.95962  12.95962  13.36340  13.36340  13.37327
 Alpha virt. eigenvalues --   13.37327  13.44902  13.46397  13.46397  13.47179
 Alpha virt. eigenvalues --   13.47179  13.51944  13.51944  13.73302  13.73302
 Alpha virt. eigenvalues --   13.74954  13.74954  13.77223  13.77223  13.91718
 Alpha virt. eigenvalues --   13.91718  14.01590  14.01590  14.13247  14.13247
 Alpha virt. eigenvalues --   14.36324  14.36324  14.53828  15.06431  15.06431
 Alpha virt. eigenvalues --   15.30015  15.87101  15.87101  16.23624  16.23624
 Alpha virt. eigenvalues --   16.26670  16.26670  16.50019  16.50019  17.02580
 Alpha virt. eigenvalues --   17.05575  17.05575  17.17488  17.17488  17.34569
 Alpha virt. eigenvalues --   17.34569  17.36311  17.60929  17.60929  17.63274
 Alpha virt. eigenvalues --   17.63274  17.95731  17.95731  18.16777  18.16777
 Alpha virt. eigenvalues --   18.39995  18.61295  18.61295  19.11813  19.11813
 Alpha virt. eigenvalues --   19.15383  19.93324  19.93324  20.07145  20.07145
 Alpha virt. eigenvalues --   20.27424  20.27424  20.30333  20.30333  20.35663
 Alpha virt. eigenvalues --   20.56977  20.56977  20.74295  20.84115  20.84115
 Alpha virt. eigenvalues --   21.61036  21.61036  21.78178  21.78178  21.81665
 Alpha virt. eigenvalues --   21.81665  21.81860  21.98734  21.98734  22.12924
 Alpha virt. eigenvalues --   22.12924  22.42166  22.42166  22.49511  22.49511
 Alpha virt. eigenvalues --   22.49528  22.49528  22.50621  22.50621  22.52297
 Alpha virt. eigenvalues --   22.52297  22.52382  22.52382  22.55623  22.55623
 Alpha virt. eigenvalues --   22.67702  22.67702  22.79769  22.79769  22.80318
 Alpha virt. eigenvalues --   22.93124  22.93124  23.10721  23.18184  23.18184
 Alpha virt. eigenvalues --   23.58067  23.58067  24.08585  24.37413  24.37413
 Alpha virt. eigenvalues --   25.21451  25.33843  25.33843  25.34167  25.34167
 Alpha virt. eigenvalues --   25.35249  25.35249  25.41780  25.41780  25.78067
 Alpha virt. eigenvalues --   25.78067  26.38719  26.38719  26.48865  26.78473
 Alpha virt. eigenvalues --   26.78473  26.98767  29.30632  29.30632  29.31338
 Alpha virt. eigenvalues --   29.31338  29.33803  29.33803  29.37450  29.37450
 Alpha virt. eigenvalues --   29.58941  29.58941  29.78131  29.78131  29.78221
 Alpha virt. eigenvalues --   29.82009  29.82009  29.98275  33.97501  33.97501
 Alpha virt. eigenvalues --   33.97532  33.97532  34.02876  34.02876  34.06757
 Alpha virt. eigenvalues --   34.06757  34.08300  34.08300  34.26012  34.26012
 Alpha virt. eigenvalues --   34.42436  34.42436  34.52093  34.52093  34.63692
 Alpha virt. eigenvalues --   34.63692  34.71829  35.27273  35.27273  35.29369
 Alpha virt. eigenvalues --   35.29369  35.34231  35.34231  35.48099  35.48099
 Alpha virt. eigenvalues --   35.69311  35.69311  35.86144  36.30449  36.30449
 Alpha virt. eigenvalues --   37.12729  38.10216  38.15593  38.15593  38.15727
 Alpha virt. eigenvalues --   38.15727  38.28424  38.28424  38.65739  38.65739
 Alpha virt. eigenvalues --   38.95829  38.97316  38.97316  39.07476  39.07476
 Alpha virt. eigenvalues --   39.09948  39.09948  39.22712  39.22712  39.50641
 Alpha virt. eigenvalues --   39.50641  39.64556  39.64556  40.15184  41.69921
 Alpha virt. eigenvalues --   41.69921  42.10295  42.10295  42.50591  42.50591
 Alpha virt. eigenvalues --   42.80420  42.84863  42.84863  43.01021  43.01021
 Alpha virt. eigenvalues --   43.37371  43.37371  44.02885  44.21596  44.21596
 Alpha virt. eigenvalues --   46.87910  46.87910  47.43045  47.43045  48.10765
 Alpha virt. eigenvalues --   50.86564  50.86564  51.16526  51.16526  51.85940
 Alpha virt. eigenvalues --   51.85940  51.91566  51.91566  52.03695  52.03695
 Alpha virt. eigenvalues --   52.52249  52.52249  52.65283  52.65283  52.85098
 Alpha virt. eigenvalues --   53.03962  53.43930  53.43930  55.94065 108.57590
 Alpha virt. eigenvalues --  533.19665
          Condensed to atoms (all electrons):
              1          2
     1  V   21.747192   0.322919
     2  O    0.322919   8.606969
 Mulliken atomic charges:
              1
     1  V    0.929888
     2  O   -0.929888
 Sum of Mulliken atomic charges =   0.00000
 Mulliken charges with hydrogens summed into heavy atoms:
              1
     1  V    0.929888
     2  O   -0.929888
 Sum of Mulliken charges with hydrogens summed into heavy atoms =   0.00000
          Atomic-Atomic Spin Densities.
              1          2
     1  V    2.918219   0.036877
     2  O    0.036877   0.008027
 Mulliken atomic spin densities:
              1
     1  V    2.955096
     2  O    0.044904
 Sum of Mulliken atomic spin densities =   3.00000
 Electronic spatial extent (au):  <R**2>=            105.2179
 Charge=              0.0000 electrons
 Dipole moment (field-independent basis, Debye):
    X=              0.0000    Y=              0.0000    Z=              4.4939  Tot=              4.4939
 Quadrupole moment (field-independent basis, Debye-Ang):
   XX=            -21.4520   YY=            -21.4520   ZZ=            -26.6048
   XY=              0.0000   XZ=              0.0000   YZ=              0.0000
 Traceless Quadrupole moment (field-independent basis, Debye-Ang):
   XX=              1.7176   YY=              1.7176   ZZ=             -3.4352
   XY=              0.0000   XZ=              0.0000   YZ=              0.0000
 Octapole moment (field-independent basis, Debye-Ang**2):
  XXX=              0.0000  YYY=              0.0000  ZZZ=              1.5721  XYY=              0.0000
  XXY=              0.0000  XXZ=             -0.7276  XZZ=              0.0000  YZZ=              0.0000
  YYZ=             -0.7276  XYZ=              0.0000
 Hexadecapole moment (field-independent basis, Debye-Ang**3):
 XXXX=            -34.3500 YYYY=            -34.3500 ZZZZ=           -123.9593 XXXY=              0.0000
 XXXZ=              0.0000 YYYX=              0.0000 YYYZ=              0.0000 ZZZX=              0.0000
 ZZZY=              0.0000 XXYY=            -11.4500 XXZZ=            -26.1085 YYZZ=            -26.1085
 XXYZ=              0.0000 YYXZ=              0.0000 ZZXY=              0.0000
 N-N= 6.126431831259D+01 E-N=-3.776162876380D+03  KE= 1.521298911422D+03
                          Isotropic Fermi Contact Couplings
        Atom                 a.u.       MegaHertz       Gauss      10(-4) cm-1
     1  V(51)              1.94287     762.77867     272.17839     254.43558
     2  O(17)              0.01714      -3.46330      -1.23579      -1.15523
 --------------------------------------------------------
       Center         ----  Spin Dipole Couplings  ----
                      3XX-RR        3YY-RR        3ZZ-RR
 --------------------------------------------------------
     1   Atom        1.352198      1.352198     -2.704397
     2   Atom       -0.056638     -0.056638      0.113276
 --------------------------------------------------------
                        XY            XZ            YZ
 --------------------------------------------------------
     1   Atom        0.000000      0.000000      0.000000
     2   Atom        0.000000      0.000000      0.000000
 --------------------------------------------------------


 ---------------------------------------------------------------------------------
              Anisotropic Spin Dipole Couplings in Principal Axis System
 ---------------------------------------------------------------------------------

       Atom             a.u.   MegaHertz   Gauss  10(-4) cm-1        Axes

              Baa    -2.7044  -380.214  -135.670  -126.826  0.0000  0.0000  1.0000
     1 V(51)  Bbb     1.3522   190.107    67.835    63.413  1.0000  0.0000  0.0000
              Bcc     1.3522   190.107    67.835    63.413  0.0000  1.0000  0.0000
 
              Baa    -0.0566     4.098     1.462     1.367  1.0000  0.0000  0.0000
     2 O(17)  Bbb    -0.0566     4.098     1.462     1.367  0.0000  1.0000  0.0000
              Bcc     0.1133    -8.197    -2.925    -2.734  0.0000  0.0000  1.0000
 

 ---------------------------------------------------------------------------------


 Test job not archived.
 1\1\GINC-N34\SP\ROMP2-FC\Gen\O1V1(4)\ROOT\30-Oct-2013\0\\# ROMP2 Gen G
 Finput Int=NoBasisTransform Int(Grid=Ultrafine) IOp(3/32=2,5/6=10,8/11
 =1,9/33=1) Maxdisk=128GB CBSextrapolate(Nmin=25,MinPop) SCF=Symm Guess
 =Read\\VO 4Sg-\\0,4\V\O,1,1.58932\\Version=EM64L-G09RevA.02\State=4-SG
 \HF=-1017.7568294\MP2=-1018.2001809\E2(CBS)=-0.4467498\CBS-Int=-0.4452
 104\OIii=1.5956376\RMSD=6.991e-12\PG=C*V [C*(O1V1)]\\@


 NEVER LOSE YOUR IGNORANCE, IT CAN'T BE REPLACED.
   -- ANDY CAPP
 Job cpu time:  8 days 12 hours  7 minutes 26.1 seconds.
 File lengths (MBytes):  RWF=  54456 Int=      0 D2E=      0 Chk=     33 Scr=      1
 Normal termination of Gaussian 09 at Wed Oct 30 11:09:08 2013.
