 Entering Gaussian System, Link 0=gdv
 AtFile(1): 7ZaPa-NR.gbs
 Initial command:
 /share/apps/gaussian/gdvh12/gdv/l1.exe /localscratch/940922/Gau-2149.inp -scrdir=/localscratch/940922/
 Entering Link 1 = /share/apps/gaussian/gdvh12/gdv/l1.exe PID=      2150.
  
 Copyright (c) 1988,1990,1992,1993,1995,1998,2003,2009,2011,
            Gaussian, Inc.  All Rights Reserved.
  
 This is the private, development version of
 the Gaussian(R) DV system of programs. It is based on
 the Gaussian(R) 09 system (copyright 2009, Gaussian, Inc.),
 the Gaussian(R) 03 system (copyright 2003, Gaussian, Inc.),
 the Gaussian(R) 98 system (copyright 1998, Gaussian, Inc.),
 the Gaussian(R) 94 system (copyright 1995, Gaussian, Inc.),
 the Gaussian 92(TM) system (copyright 1992, Gaussian, Inc.),
 the Gaussian 90(TM) system (copyright 1990, Gaussian, Inc.),
 the Gaussian 88(TM) system (copyright 1988, Gaussian, Inc.),
 the Gaussian 86(TM) system (copyright 1986, Carnegie Mellon
 University), and the Gaussian 82(TM) system (copyright 1983,
 Carnegie Mellon University). Gaussian is a federally registered
 trademark of Gaussian, Inc.
  
 This software contains proprietary and confidential information,
 including trade secrets, belonging to Gaussian, Inc.
  
 This software is provided under written license and may be
 used, copied, transmitted, or stored only in accord with that
 written license.
  
 The following legend is applicable only to US Government
 contracts under FAR:
  
                    RESTRICTED RIGHTS LEGEND
  
 Use, reproduction and disclosure by the US Government is
 subject to restrictions as set forth in subparagraphs (a)
 and (c) of the Commercial Computer Software - Restricted
 Rights clause in FAR 52.227-19.
  
 Gaussian, Inc.
 340 Quinnipiac St., Bldg. 40, Wallingford CT 06492
  
  
 ---------------------------------------------------------------
 Warning -- This program may not be used in any manner that
 competes with the business of Gaussian, Inc. or will provide
 assistance to any competitor of Gaussian, Inc.  The licensee
 of this program is prohibited from giving any competitor of
 Gaussian, Inc. access to this program.  By using this program,
 the user acknowledges that Gaussian, Inc. is engaged in the
 business of creating and licensing software in the field of
 computational chemistry and represents and warrants to the
 licensee that it is not a competitor of Gaussian, Inc. and that
 it will not use this program in any manner prohibited above.
 ---------------------------------------------------------------
  

 Cite this work as:
 Gaussian Development Version, Revision H.12,
 M. J. Frisch, G. W. Trucks, H. B. Schlegel, G. E. Scuseria, 
 M. A. Robb, J. R. Cheeseman, G. Scalmani, V. Barone, B. Mennucci, 
 G. A. Petersson, H. Nakatsuji, M. Caricato, X. Li, H. P. Hratchian, 
 A. F. Izmaylov, J. Bloino, G. Zheng, J. L. Sonnenberg, M. Hada, 
 M. Ehara, K. Toyota, R. Fukuda, J. Hasegawa, M. Ishida, T. Nakajima, 
 Y. Honda, O. Kitao, H. Nakai, T. Vreven, J. A. Montgomery, Jr., 
 J. E. Peralta, F. Ogliaro, M. Bearpark, J. J. Heyd, E. Brothers, 
 K. N. Kudin, V. N. Staroverov, T. Keith, R. Kobayashi, J. Normand, 
 K. Raghavachari, A. Rendell, J. C. Burant, S. S. Iyengar, J. Tomasi, 
 M. Cossi, N. Rega, J. M. Millam, M. Klene, J. E. Knox, J. B. Cross, 
 V. Bakken, C. Adamo, J. Jaramillo, R. Gomperts, R. E. Stratmann, 
 O. Yazyev, A. J. Austin, R. Cammi, C. Pomelli, J. W. Ochterski, 
 R. L. Martin, K. Morokuma, V. G. Zakrzewski, G. A. Voth, 
 P. Salvador, J. J. Dannenberg, S. Dapprich, P. V. Parandekar, 
 N. J. Mayhall, A. D. Daniels, O. Farkas, J. B. Foresman, 
 J. V. Ortiz, J. Cioslowski, and D. J. Fox, 
 Gaussian, Inc., Wallingford CT, 2010.
 
 ******************************************
 Gaussian DV:  EM64L-GDVRevH.12  9-Jun-2011
                15-Jun-2013 
 ******************************************
 % Mem=12GB
 % Nproc=8
 Will use up to    8 processors via shared memory.
 ----------------------------------------------------------------------
 # ROMP2(RW) Gen GFinput Int=NoBasisTransform Int(Grid=Ultrafine) IOp(3
 /32=2,5/6=10,8/11=1,9/33=1) Maxdisk=128GB CBSextrapolate(Nmin=25,MinPo
 p)
 ----------------------------------------------------------------------
 1/38=1/1;
 2/12=2,17=6,18=5,40=1/2;
 3/5=7,11=2,16=1,24=10,25=1,30=1,32=2,60=-1,75=-5,116=101/1,2,3;
 4//1;
 5/5=2,6=10,38=5/2;
 8/5=-1,10=91,11=1/1;
 9/16=-3,33=1,75=2,81=25,83=4/6,4;
 6/7=2,8=2,9=2,10=2/1;
 99/5=1,9=1/99;
 ---
 Xe2
 ---
 Charge =  0 Multiplicity = 1
 Symbolic Z-Matrix:
 Xe
 Xe                   1     4.3627 
 
                          Input orientation:                          
 ---------------------------------------------------------------------
 Center     Atomic      Atomic             Coordinates (Angstroms)
 Number     Number       Type             X           Y           Z
 ---------------------------------------------------------------------
      1         54           0        0.000000    0.000000    0.000000
      2         54           0        0.000000    0.000000    4.362700
 ---------------------------------------------------------------------
 Stoichiometry    Xe2
 Framework group  D*H[C*(Xe.Xe)]
 Deg. of freedom     1
 Full point group                 D*H     NOp   8
 Largest Abelian subgroup         D2H     NOp   8
 Largest concise Abelian subgroup C2      NOp   2
                         Standard orientation:                         
 ---------------------------------------------------------------------
 Center     Atomic      Atomic             Coordinates (Angstroms)
 Number     Number       Type             X           Y           Z
 ---------------------------------------------------------------------
      1         54           0        0.000000    0.000000    2.181350
      2         54           0        0.000000    0.000000   -2.181350
 ---------------------------------------------------------------------
 Rotational constants (GHZ):      0.0000000      0.4026038      0.4026038
 General basis read from cards:  (5D, 7F)
 AO basis set in the form of general basis input (Overlap normalization):
      1 0
 S  28 1.00       0.000000000000
      0.3356497696D+09  0.2066247678D-06
      0.6479526500D+08  0.1236126499D-05
      0.1508462291D+08  0.6946887972D-05
      0.4112947259D+07  0.3141355306D-04
      0.1280127784D+07  0.1219466839D-03
      0.4447725991D+06  0.4153785055D-03
      0.1692183656D+06  0.1273669379D-02
      0.6935015874D+05  0.3580626486D-02
      0.3019376894D+05  0.9354074550D-02
      0.1380506427D+05  0.2284816297D-01
      0.6565718500D+04  0.5198176434D-01
      0.3223284671D+04  0.1080804599D+00
      0.1623319878D+04  0.1966859498D+00
      0.8345836730D+03  0.2877115637D+00
      0.4363252510D+03  0.2880503567D+00
      0.2312443520D+03  0.1503948408D+00
      0.1239131500D+03  0.2597045147D-01
      0.6697643600D+02  0.1334329199D-02
      0.3642955800D+02 -0.2254646897D-03
      0.1988685400D+02  0.1769407558D-03
      0.1086135600D+02 -0.2145148828D-03
      0.5911449000D+01  0.1289727589D-03
      0.3190294000D+01 -0.7900303741D-04
      0.1696550000D+01  0.5141861874D-04
      0.8820620000D+00 -0.2649633927D-04
      0.4440570000D+00  0.1215172979D-04
      0.2139440000D+00 -0.4611624905D-05
      0.9727100000D-01  0.9992647829D-06
 S  28 1.00       0.000000000000
      0.3356497696D+09 -0.6718109357D-07
      0.6479526500D+08 -0.4019604788D-06
      0.1508462291D+08 -0.2258655459D-05
      0.4112947259D+07 -0.1021603679D-04
      0.1280127784D+07 -0.3965702338D-04
      0.4447725991D+06 -0.1351843939D-03
      0.1692183656D+06 -0.4148974058D-03
      0.6935015874D+05 -0.1170238459D-02
      0.3019376894D+05 -0.3075177178D-02
      0.1380506427D+05 -0.7616557386D-02
      0.6565718500D+04 -0.1778757189D-01
      0.3223284671D+04 -0.3899905308D-01
      0.1623319878D+04 -0.7824176846D-01
      0.8345836730D+03 -0.1371909029D+00
      0.4363252510D+03 -0.1836376799D+00
      0.2312443520D+03 -0.1182006449D+00
      0.1239131500D+03  0.1745272489D+00
      0.6697643600D+02  0.5105567527D+00
      0.3642955800D+02  0.4076966458D+00
      0.1988685400D+02  0.9970999075D-01
      0.1086135600D+02  0.5609170417D-02
      0.5911449000D+01  0.1551867179D-03
      0.3190294000D+01 -0.1368072769D-03
      0.1696550000D+01 -0.1590607549D-03
      0.8820620000D+00  0.4450144828D-04
      0.4440570000D+00 -0.1953345049D-04
      0.2139440000D+00  0.1198437739D-04
      0.9727100000D-01 -0.1666994099D-05
 P  23 1.00       0.000000000000
      0.3962126597D+06  0.2372845408D-05
      0.1091619846D+06  0.1778191588D-04
      0.3525313309D+05  0.1141877449D-03
      0.1300268087D+05  0.5723577105D-03
      0.5353192314D+04  0.2363902498D-02
      0.2410920603D+04  0.8212415561D-02
      0.1167070839D+04  0.2436909648D-01
      0.5980230730D+03  0.6206365234D-01
      0.3201212920D+03  0.1331013309D+00
      0.1769958810D+03  0.2309968618D+00
      0.1001026740D+03  0.3036003407D+00
      0.5743137600D+02  0.2618003528D+00
      0.3318679400D+02  0.1246776229D+00
      0.1919504500D+02  0.2578269778D-01
      0.1105144100D+02  0.1764169908D-02
      0.6301662000D+01  0.1151946489D-03
      0.3541601000D+01 -0.1440808519D-03
      0.1952340000D+01 -0.3125723877D-04
      0.1050328000D+01 -0.2250125868D-04
      0.5484170000D+00  0.4558465006D-05
      0.2761940000D+00 -0.2248067948D-05
      0.1332090000D+00  0.9772313760D-06
      0.6101900000D-01 -0.2377323718D-06
 S  28 1.00       0.000000000000
      0.3356497696D+09  0.3004022591D-07
      0.6479526500D+08  0.1797811160D-06
      0.1508462291D+08  0.1009902880D-05
      0.4112947259D+07  0.4569510461D-05
      0.1280127784D+07  0.1773106610D-04
      0.4447725991D+06  0.6047766051D-04
      0.1692183656D+06  0.1855299720D-03
      0.6935015874D+05  0.5239137431D-03
      0.3019376894D+05  0.1376721380D-02
      0.1380506427D+05  0.3420148101D-02
      0.6565718500D+04  0.8007549112D-02
      0.3223284671D+04  0.1771721360D-01
      0.1623319878D+04  0.3599494481D-01
      0.8345836730D+03  0.6503200511D-01
      0.4363252510D+03  0.9106129492D-01
      0.2312443520D+03  0.6399408041D-01
      0.1239131500D+03 -0.1131586940D+00
      0.6697643600D+02 -0.4312812191D+00
      0.3642955800D+02 -0.4806226741D+00
      0.1988685400D+02  0.1251077900D+00
      0.1086135600D+02  0.7769819002D+00
      0.5911449000D+01  0.4155630711D+00
      0.3190294000D+01  0.4658355051D-01
      0.1696550000D+01  0.5004043811D-02
      0.8820620000D+00 -0.5372444341D-03
      0.4440570000D+00  0.2905402951D-03
      0.2139440000D+00 -0.1902097560D-03
      0.9727100000D-01  0.2193388740D-04
 P  23 1.00       0.000000000000
      0.3962126597D+06 -0.1109591470D-05
      0.1091619846D+06 -0.8295674627D-05
      0.3525313309D+05 -0.5342209428D-04
      0.1300268087D+05 -0.2676988119D-03
      0.5353192314D+04 -0.1111405060D-02
      0.2410920603D+04 -0.3882346928D-02
      0.1167070839D+04 -0.1169930120D-01
      0.5980230730D+03 -0.3047467189D-01
      0.3201212920D+03 -0.6805725017D-01
      0.1769958810D+03 -0.1238465730D+00
      0.1001026740D+03 -0.1728644709D+00
      0.5743137600D+02 -0.1282313189D+00
      0.3318679400D+02  0.7315736267D-01
      0.1919504500D+02  0.3621421809D+00
      0.1105144100D+02  0.4524357078D+00
      0.6301662000D+01  0.2145730679D+00
      0.3541601000D+01  0.3652933369D-01
      0.1952340000D+01  0.2350559759D-02
      0.1050328000D+01  0.4717754048D-03
      0.5484170000D+00 -0.9332345316D-04
      0.2761940000D+00  0.2641979229D-04
      0.1332090000D+00 -0.1693850499D-04
      0.6101900000D-01  0.3842555938D-05
 D  16 1.00       0.000000000000
      0.1343233324D+05  0.6711031225D-05
      0.4269032526D+04  0.6790176052D-04
      0.1639536062D+04  0.4733857190D-03
      0.7238341740D+03  0.2365531115D-02
      0.3532352700D+03  0.9220133248D-02
      0.1849269580D+03  0.2857801309D-01
      0.1015857610D+03  0.7201289609D-01
      0.5763482600D+02  0.1486357811D+00
      0.3340215400D+02  0.2383380262D+00
      0.1962323900D+02  0.2963393583D+00
      0.1161853900D+02  0.2579228282D+00
      0.6895411000D+01  0.1330058455D+00
      0.4075324000D+01  0.3708583158D-01
      0.2376852000D+01  0.4165718557D-02
      0.1350084000D+01  0.3145130235D-03
      0.7330130000D+00 -0.7509141842D-04
 S  28 1.00       0.000000000000
      0.3356497696D+09 -0.1370117521D-07
      0.6479526500D+08 -0.8198143025D-07
      0.1508462291D+08 -0.4606347923D-06
      0.4112947259D+07 -0.2083650101D-05
      0.1280127784D+07 -0.8087961815D-05
      0.4447725991D+06 -0.2757579442D-04
      0.1692183656D+06 -0.8464100155D-04
      0.6935015874D+05 -0.2388906731D-03
      0.3019376894D+05 -0.6283342624D-03
      0.1380506427D+05 -0.1560198581D-02
      0.6565718500D+04 -0.3659699542D-02
      0.3223284671D+04 -0.8100277175D-02
      0.1623319878D+04 -0.1653216411D-01
      0.8345836730D+03 -0.2998858742D-01
      0.4363252510D+03 -0.4255352472D-01
      0.2312443520D+03 -0.3025303342D-01
      0.1239131500D+03  0.5532863783D-01
      0.6697643600D+02  0.2274242001D+00
      0.3642955800D+02  0.2699909082D+00
      0.1988685400D+02 -0.7282975494D-01
      0.1086135600D+02 -0.7721318314D+00
      0.5911449000D+01 -0.5578403623D+00
      0.3190294000D+01  0.5113290573D+00
      0.1696550000D+01  0.8173102735D+00
      0.8820620000D+00  0.2180722231D+00
      0.4440570000D+00  0.5040896523D-02
      0.2139440000D+00  0.2359705161D-02
      0.9727100000D-01 -0.3073884892D-04
 P  23 1.00       0.000000000000
      0.3962126597D+06  0.4919696422D-06
      0.1091619846D+06  0.3671811861D-05
      0.3525313309D+05  0.2368437501D-04
      0.1300268087D+05  0.1185693010D-03
      0.5353192314D+04  0.4931860992D-03
      0.2410920603D+04  0.1723279381D-02
      0.1167070839D+04  0.5213700112D-02
      0.5980230730D+03  0.1362991361D-01
      0.3201212920D+03  0.3072809461D-01
      0.1769958810D+03  0.5641103802D-01
      0.1001026740D+03  0.8013444513D-01
      0.5743137600D+02  0.5609867752D-01
      0.3318679400D+02 -0.5404382082D-01
      0.1919504500D+02 -0.2370140991D+00
      0.1105144100D+02 -0.3385688921D+00
      0.6301662000D+01 -0.4264055272D-01
      0.3541601000D+01  0.4100198292D+00
      0.1952340000D+01  0.5316544612D+00
      0.1050328000D+01  0.2245842571D+00
      0.5484170000D+00  0.2485177291D-01
      0.2761940000D+00  0.2425756931D-02
      0.1332090000D+00 -0.1015852270D-03
      0.6101900000D-01  0.8044039423D-04
 D  14 1.00       0.000000000000
      0.3532352700D+03  0.2341690936D-04
      0.1849269580D+03  0.1501362374D-03
      0.1015857610D+03  0.7188050809D-03
      0.5763482600D+02  0.2419432410D-02
      0.3340215400D+02  0.2818662778D-02
      0.1962323900D+02 -0.1382103417D-02
      0.1161853900D+02 -0.2890516145D-01
      0.6895411000D+01 -0.1271319946D+00
      0.4075324000D+01 -0.2567774236D+00
      0.2376852000D+01 -0.3355481685D+00
      0.1350084000D+01 -0.2775954235D+00
      0.7330130000D+00 -0.1246288327D+00
      0.3707470000D+00 -0.2419917762D-01
      0.1688070000D+00 -0.1895564263D-02
 S  28 1.00       0.000000000000
      0.3356497696D+09  0.4818194962D-08
      0.6479526500D+08  0.2881676081D-07
      0.1508462291D+08  0.1620077761D-06
      0.4112947259D+07  0.7323415772D-06
      0.1280127784D+07  0.2844954921D-05
      0.4447725991D+06  0.9690480523D-05
      0.1692183656D+06  0.2977934451D-04
      0.6935015874D+05  0.8392931563D-04
      0.3019376894D+05  0.2211479191D-03
      0.1380506427D+05  0.5480201572D-03
      0.6565718500D+04  0.1288881480D-02
      0.3223284671D+04  0.2845345191D-02
      0.1623319878D+04  0.5831288752D-02
      0.8345836730D+03  0.1054323910D-01
      0.4363252510D+03  0.1509159840D-01
      0.2312443520D+03  0.1059309870D-01
      0.1239131500D+03 -0.1947239351D-01
      0.6697643600D+02 -0.8288478943D-01
      0.3642955800D+02 -0.9809849683D-01
      0.1988685400D+02  0.2412898091D-01
      0.1086135600D+02  0.3268981411D+00
      0.5911449000D+01  0.2279731901D+00
      0.3190294000D+01 -0.2527270531D+00
      0.1696550000D+01 -0.6321205822D+00
      0.8820620000D+00 -0.2684978151D+00
      0.4440570000D+00  0.4976458062D+00
      0.2139440000D+00  0.6844912152D+00
      0.9727100000D-01  0.2137554381D+00
 S   1 1.00       0.000000000000
      0.4422487900D-01  0.1000000000D+01
 P  23 1.00       0.000000000000
      0.3962126597D+06 -0.1508649700D-06
      0.1091619846D+06 -0.1128177780D-05
      0.3525313309D+05 -0.7265124808D-05
      0.1300268087D+05 -0.3642382180D-04
      0.5353192314D+04 -0.1513284910D-03
      0.2410920603D+04 -0.5295757480D-03
      0.1167070839D+04 -0.1600856430D-02
      0.5980230730D+03 -0.4194902400D-02
      0.3201212920D+03 -0.9454427328D-02
      0.1769958810D+03 -0.1742768780D-01
      0.1001026740D+03 -0.2474615170D-01
      0.5743137600D+02 -0.1727090980D-01
      0.3318679400D+02  0.1810529140D-01
      0.1919504500D+02  0.7771213378D-01
      0.1105144100D+02  0.1150785030D+00
      0.6301662000D+01  0.2995065820D-03
      0.3541601000D+01 -0.1714477350D+00
      0.1952340000D+01 -0.2624918620D+00
      0.1050328000D+01 -0.9115666928D-01
      0.5484170000D+00  0.2718777050D+00
      0.2761940000D+00  0.4713352150D+00
      0.1332090000D+00  0.3677534780D+00
      0.6101900000D-01  0.9300858788D-01
 P   1 1.00       0.000000000000
      0.2795095200D-01  0.1000000000D+01
 S   1 1.00       0.000000000000
      0.3582988000D+01  0.1000000000D+01
 S   1 1.00       0.000000000000
      0.2206575000D+01  0.1000000000D+01
 S   1 1.00       0.000000000000
      0.1358914000D+01  0.1000000000D+01
 S   1 1.00       0.000000000000
      0.8368840000D+00  0.1000000000D+01
 S   1 1.00       0.000000000000
      0.5153930000D+00  0.1000000000D+01
 S   1 1.00       0.000000000000
      0.3174040000D+00  0.1000000000D+01
 P   1 1.00       0.000000000000
      0.2324686000D+01  0.1000000000D+01
 P   1 1.00       0.000000000000
      0.1478874000D+01  0.1000000000D+01
 P   1 1.00       0.000000000000
      0.9408020000D+00  0.1000000000D+01
 P   1 1.00       0.000000000000
      0.5985010000D+00  0.1000000000D+01
 P   1 1.00       0.000000000000
      0.3807430000D+00  0.1000000000D+01
 P   1 1.00       0.000000000000
      0.2422140000D+00  0.1000000000D+01
 D   1 1.00       0.000000000000
      0.1782246000D+01  0.1000000000D+01
 D   1 1.00       0.000000000000
      0.1067202000D+01  0.1000000000D+01
 D   1 1.00       0.000000000000
      0.6390370000D+00  0.1000000000D+01
 D   1 1.00       0.000000000000
      0.3826530000D+00  0.1000000000D+01
 D   1 1.00       0.000000000000
      0.2291310000D+00  0.1000000000D+01
 D   1 1.00       0.000000000000
      0.1372030000D+00  0.1000000000D+01
 D   1 1.00       0.000000000000
      0.8215680000D-01  0.1000000000D+01
 F   1 1.00       0.000000000000
      0.3298738000D+01  0.1000000000D+01
 F   1 1.00       0.000000000000
      0.1711688000D+01  0.1000000000D+01
 F   1 1.00       0.000000000000
      0.8881810000D+00  0.1000000000D+01
 F   1 1.00       0.000000000000
      0.4608700000D+00  0.1000000000D+01
 F   1 1.00       0.000000000000
      0.2391420000D+00  0.1000000000D+01
 F   1 1.00       0.000000000000
      0.1240890000D+00  0.1000000000D+01
 G   1 1.00       0.000000000000
      0.1700656000D+01  0.1000000000D+01
 G   1 1.00       0.000000000000
      0.9584370000D+00  0.1000000000D+01
 G   1 1.00       0.000000000000
      0.5401450000D+00  0.1000000000D+01
 G   1 1.00       0.000000000000
      0.3044090000D+00  0.1000000000D+01
 G   1 1.00       0.000000000000
      0.1715550000D+00  0.1000000000D+01
 H   1 1.00       0.000000000000
      0.9219840000D+00  0.1000000000D+01
 H   1 1.00       0.000000000000
      0.6038540000D+00  0.1000000000D+01
 H   1 1.00       0.000000000000
      0.3954950000D+00  0.1000000000D+01
 H   1 1.00       0.000000000000
      0.2590300000D+00  0.1000000000D+01
 I   1 1.00       0.000000000000
      0.9670880000D+00  0.1000000000D+01
 I   1 1.00       0.000000000000
      0.5703810000D+00  0.1000000000D+01
 I   1 1.00       0.000000000000
      0.3364060000D+00  0.1000000000D+01
 J   1 1.00       0.000000000000
      0.8497156163D+00  0.1000000000D+01
 ****
      2 0
 S  28 1.00       0.000000000000
      0.3356497696D+09  0.2066247678D-06
      0.6479526500D+08  0.1236126499D-05
      0.1508462291D+08  0.6946887972D-05
      0.4112947259D+07  0.3141355306D-04
      0.1280127784D+07  0.1219466839D-03
      0.4447725991D+06  0.4153785055D-03
      0.1692183656D+06  0.1273669379D-02
      0.6935015874D+05  0.3580626486D-02
      0.3019376894D+05  0.9354074550D-02
      0.1380506427D+05  0.2284816297D-01
      0.6565718500D+04  0.5198176434D-01
      0.3223284671D+04  0.1080804599D+00
      0.1623319878D+04  0.1966859498D+00
      0.8345836730D+03  0.2877115637D+00
      0.4363252510D+03  0.2880503567D+00
      0.2312443520D+03  0.1503948408D+00
      0.1239131500D+03  0.2597045147D-01
      0.6697643600D+02  0.1334329199D-02
      0.3642955800D+02 -0.2254646897D-03
      0.1988685400D+02  0.1769407558D-03
      0.1086135600D+02 -0.2145148828D-03
      0.5911449000D+01  0.1289727589D-03
      0.3190294000D+01 -0.7900303741D-04
      0.1696550000D+01  0.5141861874D-04
      0.8820620000D+00 -0.2649633927D-04
      0.4440570000D+00  0.1215172979D-04
      0.2139440000D+00 -0.4611624905D-05
      0.9727100000D-01  0.9992647829D-06
 S  28 1.00       0.000000000000
      0.3356497696D+09 -0.6718109357D-07
      0.6479526500D+08 -0.4019604788D-06
      0.1508462291D+08 -0.2258655459D-05
      0.4112947259D+07 -0.1021603679D-04
      0.1280127784D+07 -0.3965702338D-04
      0.4447725991D+06 -0.1351843939D-03
      0.1692183656D+06 -0.4148974058D-03
      0.6935015874D+05 -0.1170238459D-02
      0.3019376894D+05 -0.3075177178D-02
      0.1380506427D+05 -0.7616557386D-02
      0.6565718500D+04 -0.1778757189D-01
      0.3223284671D+04 -0.3899905308D-01
      0.1623319878D+04 -0.7824176846D-01
      0.8345836730D+03 -0.1371909029D+00
      0.4363252510D+03 -0.1836376799D+00
      0.2312443520D+03 -0.1182006449D+00
      0.1239131500D+03  0.1745272489D+00
      0.6697643600D+02  0.5105567527D+00
      0.3642955800D+02  0.4076966458D+00
      0.1988685400D+02  0.9970999075D-01
      0.1086135600D+02  0.5609170417D-02
      0.5911449000D+01  0.1551867179D-03
      0.3190294000D+01 -0.1368072769D-03
      0.1696550000D+01 -0.1590607549D-03
      0.8820620000D+00  0.4450144828D-04
      0.4440570000D+00 -0.1953345049D-04
      0.2139440000D+00  0.1198437739D-04
      0.9727100000D-01 -0.1666994099D-05
 P  23 1.00       0.000000000000
      0.3962126597D+06  0.2372845408D-05
      0.1091619846D+06  0.1778191588D-04
      0.3525313309D+05  0.1141877449D-03
      0.1300268087D+05  0.5723577105D-03
      0.5353192314D+04  0.2363902498D-02
      0.2410920603D+04  0.8212415561D-02
      0.1167070839D+04  0.2436909648D-01
      0.5980230730D+03  0.6206365234D-01
      0.3201212920D+03  0.1331013309D+00
      0.1769958810D+03  0.2309968618D+00
      0.1001026740D+03  0.3036003407D+00
      0.5743137600D+02  0.2618003528D+00
      0.3318679400D+02  0.1246776229D+00
      0.1919504500D+02  0.2578269778D-01
      0.1105144100D+02  0.1764169908D-02
      0.6301662000D+01  0.1151946489D-03
      0.3541601000D+01 -0.1440808519D-03
      0.1952340000D+01 -0.3125723877D-04
      0.1050328000D+01 -0.2250125868D-04
      0.5484170000D+00  0.4558465006D-05
      0.2761940000D+00 -0.2248067948D-05
      0.1332090000D+00  0.9772313760D-06
      0.6101900000D-01 -0.2377323718D-06
 S  28 1.00       0.000000000000
      0.3356497696D+09  0.3004022591D-07
      0.6479526500D+08  0.1797811160D-06
      0.1508462291D+08  0.1009902880D-05
      0.4112947259D+07  0.4569510461D-05
      0.1280127784D+07  0.1773106610D-04
      0.4447725991D+06  0.6047766051D-04
      0.1692183656D+06  0.1855299720D-03
      0.6935015874D+05  0.5239137431D-03
      0.3019376894D+05  0.1376721380D-02
      0.1380506427D+05  0.3420148101D-02
      0.6565718500D+04  0.8007549112D-02
      0.3223284671D+04  0.1771721360D-01
      0.1623319878D+04  0.3599494481D-01
      0.8345836730D+03  0.6503200511D-01
      0.4363252510D+03  0.9106129492D-01
      0.2312443520D+03  0.6399408041D-01
      0.1239131500D+03 -0.1131586940D+00
      0.6697643600D+02 -0.4312812191D+00
      0.3642955800D+02 -0.4806226741D+00
      0.1988685400D+02  0.1251077900D+00
      0.1086135600D+02  0.7769819002D+00
      0.5911449000D+01  0.4155630711D+00
      0.3190294000D+01  0.4658355051D-01
      0.1696550000D+01  0.5004043811D-02
      0.8820620000D+00 -0.5372444341D-03
      0.4440570000D+00  0.2905402951D-03
      0.2139440000D+00 -0.1902097560D-03
      0.9727100000D-01  0.2193388740D-04
 P  23 1.00       0.000000000000
      0.3962126597D+06 -0.1109591470D-05
      0.1091619846D+06 -0.8295674627D-05
      0.3525313309D+05 -0.5342209428D-04
      0.1300268087D+05 -0.2676988119D-03
      0.5353192314D+04 -0.1111405060D-02
      0.2410920603D+04 -0.3882346928D-02
      0.1167070839D+04 -0.1169930120D-01
      0.5980230730D+03 -0.3047467189D-01
      0.3201212920D+03 -0.6805725017D-01
      0.1769958810D+03 -0.1238465730D+00
      0.1001026740D+03 -0.1728644709D+00
      0.5743137600D+02 -0.1282313189D+00
      0.3318679400D+02  0.7315736267D-01
      0.1919504500D+02  0.3621421809D+00
      0.1105144100D+02  0.4524357078D+00
      0.6301662000D+01  0.2145730679D+00
      0.3541601000D+01  0.3652933369D-01
      0.1952340000D+01  0.2350559759D-02
      0.1050328000D+01  0.4717754048D-03
      0.5484170000D+00 -0.9332345316D-04
      0.2761940000D+00  0.2641979229D-04
      0.1332090000D+00 -0.1693850499D-04
      0.6101900000D-01  0.3842555938D-05
 D  16 1.00       0.000000000000
      0.1343233324D+05  0.6711031225D-05
      0.4269032526D+04  0.6790176052D-04
      0.1639536062D+04  0.4733857190D-03
      0.7238341740D+03  0.2365531115D-02
      0.3532352700D+03  0.9220133248D-02
      0.1849269580D+03  0.2857801309D-01
      0.1015857610D+03  0.7201289609D-01
      0.5763482600D+02  0.1486357811D+00
      0.3340215400D+02  0.2383380262D+00
      0.1962323900D+02  0.2963393583D+00
      0.1161853900D+02  0.2579228282D+00
      0.6895411000D+01  0.1330058455D+00
      0.4075324000D+01  0.3708583158D-01
      0.2376852000D+01  0.4165718557D-02
      0.1350084000D+01  0.3145130235D-03
      0.7330130000D+00 -0.7509141842D-04
 S  28 1.00       0.000000000000
      0.3356497696D+09 -0.1370117521D-07
      0.6479526500D+08 -0.8198143025D-07
      0.1508462291D+08 -0.4606347923D-06
      0.4112947259D+07 -0.2083650101D-05
      0.1280127784D+07 -0.8087961815D-05
      0.4447725991D+06 -0.2757579442D-04
      0.1692183656D+06 -0.8464100155D-04
      0.6935015874D+05 -0.2388906731D-03
      0.3019376894D+05 -0.6283342624D-03
      0.1380506427D+05 -0.1560198581D-02
      0.6565718500D+04 -0.3659699542D-02
      0.3223284671D+04 -0.8100277175D-02
      0.1623319878D+04 -0.1653216411D-01
      0.8345836730D+03 -0.2998858742D-01
      0.4363252510D+03 -0.4255352472D-01
      0.2312443520D+03 -0.3025303342D-01
      0.1239131500D+03  0.5532863783D-01
      0.6697643600D+02  0.2274242001D+00
      0.3642955800D+02  0.2699909082D+00
      0.1988685400D+02 -0.7282975494D-01
      0.1086135600D+02 -0.7721318314D+00
      0.5911449000D+01 -0.5578403623D+00
      0.3190294000D+01  0.5113290573D+00
      0.1696550000D+01  0.8173102735D+00
      0.8820620000D+00  0.2180722231D+00
      0.4440570000D+00  0.5040896523D-02
      0.2139440000D+00  0.2359705161D-02
      0.9727100000D-01 -0.3073884892D-04
 P  23 1.00       0.000000000000
      0.3962126597D+06  0.4919696422D-06
      0.1091619846D+06  0.3671811861D-05
      0.3525313309D+05  0.2368437501D-04
      0.1300268087D+05  0.1185693010D-03
      0.5353192314D+04  0.4931860992D-03
      0.2410920603D+04  0.1723279381D-02
      0.1167070839D+04  0.5213700112D-02
      0.5980230730D+03  0.1362991361D-01
      0.3201212920D+03  0.3072809461D-01
      0.1769958810D+03  0.5641103802D-01
      0.1001026740D+03  0.8013444513D-01
      0.5743137600D+02  0.5609867752D-01
      0.3318679400D+02 -0.5404382082D-01
      0.1919504500D+02 -0.2370140991D+00
      0.1105144100D+02 -0.3385688921D+00
      0.6301662000D+01 -0.4264055272D-01
      0.3541601000D+01  0.4100198292D+00
      0.1952340000D+01  0.5316544612D+00
      0.1050328000D+01  0.2245842571D+00
      0.5484170000D+00  0.2485177291D-01
      0.2761940000D+00  0.2425756931D-02
      0.1332090000D+00 -0.1015852270D-03
      0.6101900000D-01  0.8044039423D-04
 D  14 1.00       0.000000000000
      0.3532352700D+03  0.2341690936D-04
      0.1849269580D+03  0.1501362374D-03
      0.1015857610D+03  0.7188050809D-03
      0.5763482600D+02  0.2419432410D-02
      0.3340215400D+02  0.2818662778D-02
      0.1962323900D+02 -0.1382103417D-02
      0.1161853900D+02 -0.2890516145D-01
      0.6895411000D+01 -0.1271319946D+00
      0.4075324000D+01 -0.2567774236D+00
      0.2376852000D+01 -0.3355481685D+00
      0.1350084000D+01 -0.2775954235D+00
      0.7330130000D+00 -0.1246288327D+00
      0.3707470000D+00 -0.2419917762D-01
      0.1688070000D+00 -0.1895564263D-02
 S  28 1.00       0.000000000000
      0.3356497696D+09  0.4818194962D-08
      0.6479526500D+08  0.2881676081D-07
      0.1508462291D+08  0.1620077761D-06
      0.4112947259D+07  0.7323415772D-06
      0.1280127784D+07  0.2844954921D-05
      0.4447725991D+06  0.9690480523D-05
      0.1692183656D+06  0.2977934451D-04
      0.6935015874D+05  0.8392931563D-04
      0.3019376894D+05  0.2211479191D-03
      0.1380506427D+05  0.5480201572D-03
      0.6565718500D+04  0.1288881480D-02
      0.3223284671D+04  0.2845345191D-02
      0.1623319878D+04  0.5831288752D-02
      0.8345836730D+03  0.1054323910D-01
      0.4363252510D+03  0.1509159840D-01
      0.2312443520D+03  0.1059309870D-01
      0.1239131500D+03 -0.1947239351D-01
      0.6697643600D+02 -0.8288478943D-01
      0.3642955800D+02 -0.9809849683D-01
      0.1988685400D+02  0.2412898091D-01
      0.1086135600D+02  0.3268981411D+00
      0.5911449000D+01  0.2279731901D+00
      0.3190294000D+01 -0.2527270531D+00
      0.1696550000D+01 -0.6321205822D+00
      0.8820620000D+00 -0.2684978151D+00
      0.4440570000D+00  0.4976458062D+00
      0.2139440000D+00  0.6844912152D+00
      0.9727100000D-01  0.2137554381D+00
 S   1 1.00       0.000000000000
      0.4422487900D-01  0.1000000000D+01
 P  23 1.00       0.000000000000
      0.3962126597D+06 -0.1508649700D-06
      0.1091619846D+06 -0.1128177780D-05
      0.3525313309D+05 -0.7265124808D-05
      0.1300268087D+05 -0.3642382180D-04
      0.5353192314D+04 -0.1513284910D-03
      0.2410920603D+04 -0.5295757480D-03
      0.1167070839D+04 -0.1600856430D-02
      0.5980230730D+03 -0.4194902400D-02
      0.3201212920D+03 -0.9454427328D-02
      0.1769958810D+03 -0.1742768780D-01
      0.1001026740D+03 -0.2474615170D-01
      0.5743137600D+02 -0.1727090980D-01
      0.3318679400D+02  0.1810529140D-01
      0.1919504500D+02  0.7771213378D-01
      0.1105144100D+02  0.1150785030D+00
      0.6301662000D+01  0.2995065820D-03
      0.3541601000D+01 -0.1714477350D+00
      0.1952340000D+01 -0.2624918620D+00
      0.1050328000D+01 -0.9115666928D-01
      0.5484170000D+00  0.2718777050D+00
      0.2761940000D+00  0.4713352150D+00
      0.1332090000D+00  0.3677534780D+00
      0.6101900000D-01  0.9300858788D-01
 P   1 1.00       0.000000000000
      0.2795095200D-01  0.1000000000D+01
 S   1 1.00       0.000000000000
      0.3582988000D+01  0.1000000000D+01
 S   1 1.00       0.000000000000
      0.2206575000D+01  0.1000000000D+01
 S   1 1.00       0.000000000000
      0.1358914000D+01  0.1000000000D+01
 S   1 1.00       0.000000000000
      0.8368840000D+00  0.1000000000D+01
 S   1 1.00       0.000000000000
      0.5153930000D+00  0.1000000000D+01
 S   1 1.00       0.000000000000
      0.3174040000D+00  0.1000000000D+01
 P   1 1.00       0.000000000000
      0.2324686000D+01  0.1000000000D+01
 P   1 1.00       0.000000000000
      0.1478874000D+01  0.1000000000D+01
 P   1 1.00       0.000000000000
      0.9408020000D+00  0.1000000000D+01
 P   1 1.00       0.000000000000
      0.5985010000D+00  0.1000000000D+01
 P   1 1.00       0.000000000000
      0.3807430000D+00  0.1000000000D+01
 P   1 1.00       0.000000000000
      0.2422140000D+00  0.1000000000D+01
 D   1 1.00       0.000000000000
      0.1782246000D+01  0.1000000000D+01
 D   1 1.00       0.000000000000
      0.1067202000D+01  0.1000000000D+01
 D   1 1.00       0.000000000000
      0.6390370000D+00  0.1000000000D+01
 D   1 1.00       0.000000000000
      0.3826530000D+00  0.1000000000D+01
 D   1 1.00       0.000000000000
      0.2291310000D+00  0.1000000000D+01
 D   1 1.00       0.000000000000
      0.1372030000D+00  0.1000000000D+01
 D   1 1.00       0.000000000000
      0.8215680000D-01  0.1000000000D+01
 F   1 1.00       0.000000000000
      0.3298738000D+01  0.1000000000D+01
 F   1 1.00       0.000000000000
      0.1711688000D+01  0.1000000000D+01
 F   1 1.00       0.000000000000
      0.8881810000D+00  0.1000000000D+01
 F   1 1.00       0.000000000000
      0.4608700000D+00  0.1000000000D+01
 F   1 1.00       0.000000000000
      0.2391420000D+00  0.1000000000D+01
 F   1 1.00       0.000000000000
      0.1240890000D+00  0.1000000000D+01
 G   1 1.00       0.000000000000
      0.1700656000D+01  0.1000000000D+01
 G   1 1.00       0.000000000000
      0.9584370000D+00  0.1000000000D+01
 G   1 1.00       0.000000000000
      0.5401450000D+00  0.1000000000D+01
 G   1 1.00       0.000000000000
      0.3044090000D+00  0.1000000000D+01
 G   1 1.00       0.000000000000
      0.1715550000D+00  0.1000000000D+01
 H   1 1.00       0.000000000000
      0.9219840000D+00  0.1000000000D+01
 H   1 1.00       0.000000000000
      0.6038540000D+00  0.1000000000D+01
 H   1 1.00       0.000000000000
      0.3954950000D+00  0.1000000000D+01
 H   1 1.00       0.000000000000
      0.2590300000D+00  0.1000000000D+01
 I   1 1.00       0.000000000000
      0.9670880000D+00  0.1000000000D+01
 I   1 1.00       0.000000000000
      0.5703810000D+00  0.1000000000D+01
 I   1 1.00       0.000000000000
      0.3364060000D+00  0.1000000000D+01
 J   1 1.00       0.000000000000
      0.8497156163D+00  0.1000000000D+01
 ****

 There are   162 symmetry adapted cartesian basis functions of AG  symmetry.
 There are    66 symmetry adapted cartesian basis functions of B1G symmetry.
 There are   105 symmetry adapted cartesian basis functions of B2G symmetry.
 There are   105 symmetry adapted cartesian basis functions of B3G symmetry.
 There are    66 symmetry adapted cartesian basis functions of AU  symmetry.
 There are   162 symmetry adapted cartesian basis functions of B1U symmetry.
 There are   105 symmetry adapted cartesian basis functions of B2U symmetry.
 There are   105 symmetry adapted cartesian basis functions of B3U symmetry.
 There are    96 symmetry adapted basis functions of AG  symmetry.
 There are    45 symmetry adapted basis functions of B1G symmetry.
 There are    67 symmetry adapted basis functions of B2G symmetry.
 There are    67 symmetry adapted basis functions of B3G symmetry.
 There are    45 symmetry adapted basis functions of AU  symmetry.
 There are    96 symmetry adapted basis functions of B1U symmetry.
 There are    67 symmetry adapted basis functions of B2U symmetry.
 There are    67 symmetry adapted basis functions of B3U symmetry.
   550 basis functions,  2010 primitive gaussians,   876 cartesian basis functions
    54 alpha electrons       54 beta electrons
       nuclear repulsion energy       353.6985674579 Hartrees.
 NAtoms=    2 NActive=    2 NUniq=    1 SFac= 4.00D+00 NAtFMM=   60 NAOKFM=F Big=F
 Integral buffers will be    131072 words long.
 Raffenetti 2 integral format.
 Two-electron integral symmetry is turned on.
 One-electron integrals computed using PRISM.
 PrsmSu:  requested number of processors reduced to:   2 ShMem   1 Linda.
 NBasis=   550 RedAO= F EigKep=  0.00D+00  NBF=    96    45    67    67    45    96    67    67
 NBsUse=   550 1.00D-04 EigRej=  0.00D+00 NBFU=    96    45    67    67    45    96    67    67
 ExpMin= 2.80D-02 ExpMax= 3.36D+08 ExpMxC= 1.38D+04 IAcc=3 IRadAn=         5 AccDes= 0.00D+00
 Harris functional with IExCor=  205 and IRadAn=       5 diagonalized for initial guess.
 HarFok:  IExCor=  205 AccDes= 0.00D+00 IRadAn=         5 IDoV= 1 UseB2=F ITyADJ=14
 ICtDFT=  3500011 ScaDFX=  1.000000  1.000000  1.000000  1.000000
 Defaulting to unpruned grid for atomic number  54.
 Defaulting to unpruned grid for atomic number  54.
 Defaulting to unpruned grid for atomic number  54.
 Defaulting to unpruned grid for atomic number  54.
 Defaulting to unpruned grid for atomic number  54.
 Defaulting to unpruned grid for atomic number  54.
 Defaulting to unpruned grid for atomic number  54.
 Defaulting to unpruned grid for atomic number  54.
 FoFCou: FMM=F IPFlag=           0 FMFlag=      100000 FMFlg1=           0
         NFxFlg=           0 DoJE=T BraDBF=F KetDBF=T FulRan=T
         wScrn=  0.000000 ICntrl=     500 IOpCl=  0 I1Cent=   200000004 NGrid=           0
         NMat0=    1 NMatS0=      1 NMatT0=    0 NMatD0=    1 NMtDS0=    0 NMtDT0=    0
 Petite list used in FoFCou.
 Initial guess orbital symmetries:
       Occupied  (SGU) (SGG) (SGU) (SGG) (SGU) (SGG) (PIG) (PIG)
                 (PIU) (PIU) (SGU) (SGG) (SGU) (SGG) (PIG) (PIG)
                 (PIU) (PIU) (SGG) (SGU) (PIG) (PIG) (PIU) (PIU)
                 (DLTU) (DLTU) (DLTG) (DLTG) (SGU) (SGG) (SGU)
                 (SGG) (PIG) (PIG) (PIU) (PIU) (SGG) (SGU) (PIU)
                 (PIU) (PIG) (PIG) (DLTG) (DLTG) (DLTU) (DLTU)
                 (SGG) (SGU) (SGG) (PIU) (PIU) (PIG) (PIG) (SGU)
       Virtual   (SGG) (SGU) (PIU) (PIU) (SGG) (PIU) (PIU) (DLTG)
                 (DLTG) (PIG) (PIG) (SGG) (SGU) (DLTU) (DLTU) (PIG)
                 (PIG) (SGU) (SGG) (PIU) (PIU) (DLTG) (DLTG) (SGG)
                 (PIU) (PIU) (PIG) (PIG) (DLTG) (DLTG) (SGU) (PHIU)
                 (PHIU) (DLTU) (DLTU) (SGU) (PHIG) (PHIG) (PIG)
                 (PIG) (PIU) (PIU) (SGG) (DLTU) (DLTU) (SGU) (PIG)
                 (PIG) (SGG) (DLTG) (DLTG) (SGU) (PHIU) (PHIU)
                 (PIU) (PIU) (SGG) (?A) (?A) (?B) (?B) (PHIG) (PHIG)
                 (DLTU) (DLTU) (DLTG) (DLTG) (PHIU) (PHIU) (PIG)
                 (PIG) (SGU) (PHIG) (PHIG) (PIU) (PIU) (SGG) (DLTG)
                 (DLTG) (DLTU) (DLTU) (PIU) (PIU) (DLTU) (DLTU)
                 (SGU) (PIG) (PIG) (SGG) (PIG) (PIG) (SGU) (PIU)
                 (PIU) (SGG) (PIG) (PIG) (DLTG) (DLTG) (PHIU) (PHIU)
                 (PIU) (PIU) (?A) (?A) (?C) (?C) (?D) (?D) (?B)
                 (?B) (SGG) (PHIG) (PHIG) (DLTU) (DLTU) (SGU) (DLTG)
                 (DLTG) (PHIU) (PHIU) (PHIG) (PHIG) (SGU) (PIG)
                 (PIG) (PIU) (PIU) (DLTU) (DLTU) (PIG) (PIG) (SGU)
                 (SGG) (PHIU) (PHIU) (?A) (?A) (DLTG) (DLTG) (?B)
                 (?B) (PHIG) (PHIG) (SGU) (PIU) (PIU) (SGG) (DLTU)
                 (DLTU) (DLTG) (DLTG) (PIU) (PIU) (DLTU) (DLTU)
                 (PIG) (PIG) (SGU) (SGG) (SGG) (PIG) (PIG) (DLTG)
                 (DLTG) (PIU) (PIU) (PHIU) (PHIU) (?A) (?A) (?C)
                 (?C) (?E) (?E) (?F) (?F) (?D) (?D) (?B) (?B) (SGG)
                 (PHIG) (PHIG) (SGU) (DLTU) (DLTU) (PIG) (PIG)
                 (SGU) (PHIU) (PHIU) (DLTG) (DLTG) (?A) (?A) (?C)
                 (?C) (?D) (?D) (?B) (?B) (PIU) (PIU) (SGG) (PHIG)
                 (PHIG) (SGU) (PHIU) (PHIU) (DLTG) (DLTG) (PIU)
                 (PIU) (PIG) (PIG) (DLTU) (DLTU) (PHIG) (PHIG)
                 (SGG) (DLTU) (DLTU) (PIU) (PIU) (PIG) (PIG) (SGG)
                 (PIG) (PIG) (SGU) (PHIU) (PHIU) (?A) (?A) (?B)
                 (?B) (DLTG) (DLTG) (PHIG) (PHIG) (SGU) (DLTU)
                 (DLTU) (PIU) (PIU) (SGU) (PIG) (PIG) (SGG) (DLTG)
                 (DLTG) (PIU) (PIU) (DLTU) (DLTU) (PIG) (PIG) (SGU)
                 (SGG) (DLTG) (DLTG) (PHIU) (PHIU) (PIU) (PIU)
                 (?A) (?A) (?C) (?C) (?E) (?F) (?E) (?F) (?D) (?D)
                 (SGG) (?B) (?B) (PHIG) (PHIG) (SGG) (DLTU) (DLTU)
                 (SGU) (PIG) (PIG) (PHIU) (PHIU) (?A) (?A) (?C)
                 (?C) (?D) (?D) (DLTG) (DLTG) (?B) (?B) (SGU) (PHIG)
                 (PHIG) (PIU) (PIU) (DLTU) (DLTU) (SGG) (PIG) (PIG)
                 (SGU) (PHIU) (PHIU) (?A) (?A) (?B) (?B) (DLTG)
                 (DLTG) (PHIG) (PHIG) (SGG) (PIU) (PIU) (SGU) (DLTU)
                 (DLTU) (PIG) (PIG) (PIU) (PIU) (PIG) (PIG) (SGG)
                 (DLTG) (DLTG) (PHIU) (PHIU) (PHIG) (PHIG) (DLTU)
                 (DLTU) (PIU) (PIU) (SGU) (PIG) (PIG) (SGU) (SGG)
                 (?A) (?B) (?G) (?G) (?H) (?H) (?H) (?H) (?H) (SGG)
                 (?G) (?G) (?H) (?H) (?H) (?G) (?G) (?G) (?G) (?H)
                 (?H) (?A) (?B) (?H) (?H) (?H) (?H) (PIG) (PIG)
                 (SGU) (DLTG) (DLTG) (PIU) (PIU) (DLTU) (DLTU)
                 (PIG) (PIG) (SGU) (SGG) (PHIU) (PHIU) (?A) (?A)
                 (?C) (?C) (?D) (?D) (DLTG) (DLTG) (?B) (?B) (PHIG)
                 (PHIG) (PIU) (PIU) (SGU) (DLTU) (DLTU) (SGG) (PIG)
                 (PIG) (DLTG) (DLTG) (PHIU) (PHIU) (PIU) (PIU)
                 (?A) (?A) (?C) (?C) (?E) (?E) (?F) (?F) (?D) (?D)
                 (?B) (?B) (PHIG) (PHIG) (SGG) (DLTU) (DLTU) (SGU)
                 (PIG) (PIG) (PHIU) (PHIU) (?A) (?A) (DLTG) (DLTG)
                 (?B) (?B) (PHIG) (PHIG) (DLTU) (DLTU) (PIU) (PIU)
                 (SGU) (SGG) (PIG) (PIG) (SGG) (SGU) (DLTG) (DLTG)
                 (PHIU) (PHIU) (PHIG) (PHIG) (DLTU) (DLTU) (PIU)
                 (PIU) (SGG) (PIG) (PIG) (SGU) (PIU) (PIU) (PIG)
                 (PIG) (SGG) (SGU) (DLTG) (DLTG) (PIU) (PIU) (DLTU)
                 (DLTU) (PIG) (PIG) (SGU) (SGG) (SGG) (PIU) (PIU)
                 (SGU) (PIG) (PIG) (SGG) (SGU) (SGG) (SGU)
 The electronic state of the initial guess is 1-SGG.
 Requested convergence on RMS density matrix=1.00D-10 within 128 cycles.
 Requested convergence on MAX density matrix=1.00D-08.
 Requested convergence on             energy=1.00D-08.
 No special actions if energy rises.
 Initial convergence to 1.0D-05 achieved.  Increase integral accuracy.
 SCF Done:  E(ROHF) =  -14464.2756415     A.U. after   14 cycles
            NFock= 14  Conv=0.89D-11     -V/T= 2.0000
 <Sx>= 0.0000 <Sy>= 0.0000 <Sz>= 0.0000 <S**2>= 0.0000 S= 0.0000
 <L.S>= 0.000000000000E+00
 Annihilation of the first spin contaminant:
 S**2 before annihilation     0.0000,   after     0.0000
 GenMOA:  NOpAll=  8 NOp2=8 NOpUse=  8 JSym2X=1
 <Sx>= 0.0000 <Sy>= 0.0000 <Sz>= 0.0000 <S**2>= 0.0000 S= 0.0000
 Range of M.O.s used for correlation:    47   550
 NBasis=   550 NAE=    54 NBE=    54 NFC=    46 NFV=     0
 NROrb=    504 NOA=     8 NOB=     8 NVA=   496 NVB=   496

 **** Warning!!: The largest alpha MO coefficient is  0.15875249D+03


 **** Warning!!: The largest beta MO coefficient is  0.15875249D+03

 Singles contribution to E2=   -0.2042480168D-11
 Disk-based method using OVN memory for  8 occupieds at a time.
 Permanent disk used for amplitudes and <ij||ab> integrals=    45239168 words.
 Estimated scratch disk usage=  1908996224 words.
 IUseRI=2 ITolRI= 6 IR12RI=0
 Actual    scratch disk usage=  1907998848 words.
 GetIJB would need an additional  1759536740 words of memory to use all   8 processors.
 JobTyp=2 Pass  1:  I=   1 to   8 NPSUse=  1 ParTrn=F ParDer=F DoDerP=F.
 (rs|ai) integrals will be sorted in core.
 T,EIJ(AA): I=   1 J=   2      0.5549600E-06     -0.1583690E-05
 T,EIJ(AA): I=   1 J=   3      0.1824332E-03     -0.5770491E-03
 T,EIJ(AA): I=   1 J=   4      0.1884380E-03     -0.5934718E-03
 T,EIJ(AA): I=   1 J=   5      0.1884380E-03     -0.5934718E-03
 T,EIJ(AA): I=   1 J=   6      0.1888262E-03     -0.5964907E-03
 T,EIJ(AA): I=   1 J=   7      0.1888262E-03     -0.5964907E-03
 T,EIJ(AA): I=   1 J=   8      0.1883614E-03     -0.5995982E-03
 T,EIJ(AA): I=   2 J=   3      0.2012123E-03     -0.6195726E-03
 T,EIJ(AA): I=   2 J=   4      0.1931904E-03     -0.6044833E-03
 T,EIJ(AA): I=   2 J=   5      0.1931904E-03     -0.6044833E-03
 T,EIJ(AA): I=   2 J=   6      0.1935293E-03     -0.6073984E-03
 T,EIJ(AA): I=   2 J=   7      0.1935293E-03     -0.6073984E-03
 T,EIJ(AA): I=   2 J=   8      0.1958251E-03     -0.6180971E-03
 T,EIJ(AA): I=   3 J=   4      0.1263933E-02     -0.2610797E-02
 T,EIJ(AA): I=   3 J=   5      0.1263933E-02     -0.2610797E-02
 T,EIJ(AA): I=   3 J=   6      0.1264195E-02     -0.2626043E-02
 T,EIJ(AA): I=   3 J=   7      0.1264195E-02     -0.2626043E-02
 T,EIJ(AA): I=   3 J=   8      0.8581444E-04     -0.1482250E-03
 T,EIJ(AA): I=   4 J=   5      0.1272441E-02     -0.2639820E-02
 T,EIJ(AA): I=   4 J=   6      0.1278501E-02     -0.2659924E-02
 T,EIJ(AA): I=   4 J=   7      0.1667815E-04     -0.2614687E-04
 T,EIJ(AA): I=   4 J=   8      0.1301594E-02     -0.2718971E-02
 T,EIJ(AA): I=   5 J=   6      0.1667815E-04     -0.2614687E-04
 T,EIJ(AA): I=   5 J=   7      0.1278501E-02     -0.2659924E-02
 T,EIJ(AA): I=   5 J=   8      0.1301594E-02     -0.2718971E-02
 T,EIJ(AA): I=   6 J=   7      0.1290867E-02     -0.2687043E-02
 T,EIJ(AA): I=   6 J=   8      0.1321681E-02     -0.2753277E-02
 T,EIJ(AA): I=   7 J=   8      0.1321681E-02     -0.2753277E-02
 T,EIJ(AB): I=   1 J=   1      0.9517485E-03     -0.3945893E-02
 T,EIJ(AB): I=   1 J=   2      0.9533098E-03     -0.3963209E-02
 T,EIJ(AB): I=   1 J=   3      0.8907971E-03     -0.3266948E-02
 T,EIJ(AB): I=   1 J=   4      0.9036071E-03     -0.3318443E-02
 T,EIJ(AB): I=   1 J=   5      0.9036071E-03     -0.3318443E-02
 T,EIJ(AB): I=   1 J=   6      0.9143821E-03     -0.3357448E-02
 T,EIJ(AB): I=   1 J=   7      0.9143821E-03     -0.3357448E-02
 T,EIJ(AB): I=   1 J=   8      0.9436678E-03     -0.3461468E-02
 T,EIJ(AB): I=   2 J=   1      0.9533098E-03     -0.3963209E-02
 T,EIJ(AB): I=   2 J=   2      0.9634362E-03     -0.3997793E-02
 T,EIJ(AB): I=   2 J=   3      0.8914213E-03     -0.3272049E-02
 T,EIJ(AB): I=   2 J=   4      0.9174400E-03     -0.3358814E-02
 T,EIJ(AB): I=   2 J=   5      0.9174400E-03     -0.3358814E-02
 T,EIJ(AB): I=   2 J=   6      0.9289688E-03     -0.3399671E-02
 T,EIJ(AB): I=   2 J=   7      0.9289688E-03     -0.3399671E-02
 T,EIJ(AB): I=   2 J=   8      0.9524244E-03     -0.3482288E-02
 T,EIJ(AB): I=   3 J=   1      0.8907971E-03     -0.3266948E-02
 T,EIJ(AB): I=   3 J=   2      0.8914213E-03     -0.3272049E-02
 T,EIJ(AB): I=   3 J=   3      0.3738849E-02     -0.8787600E-02
 T,EIJ(AB): I=   3 J=   4      0.1612835E-02     -0.3769021E-02
 T,EIJ(AB): I=   3 J=   5      0.1612835E-02     -0.3769021E-02
 T,EIJ(AB): I=   3 J=   6      0.1590684E-02     -0.3754353E-02
 T,EIJ(AB): I=   3 J=   7      0.1590684E-02     -0.3754353E-02
 T,EIJ(AB): I=   3 J=   8      0.3654716E-02     -0.8841206E-02
 T,EIJ(AB): I=   4 J=   1      0.9036071E-03     -0.3318443E-02
 T,EIJ(AB): I=   4 J=   2      0.9174400E-03     -0.3358814E-02
 T,EIJ(AB): I=   4 J=   3      0.1612835E-02     -0.3769021E-02
 T,EIJ(AB): I=   4 J=   4      0.3662502E-02     -0.8768744E-02
 T,EIJ(AB): I=   4 J=   5      0.1616685E-02     -0.3804212E-02
 T,EIJ(AB): I=   4 J=   6      0.1627369E-02     -0.3840252E-02
 T,EIJ(AB): I=   4 J=   7      0.3685982E-02     -0.8850731E-02
 T,EIJ(AB): I=   4 J=   8      0.1669932E-02     -0.3951449E-02
 T,EIJ(AB): I=   5 J=   1      0.9036071E-03     -0.3318443E-02
 T,EIJ(AB): I=   5 J=   2      0.9174400E-03     -0.3358814E-02
 T,EIJ(AB): I=   5 J=   3      0.1612835E-02     -0.3769021E-02
 T,EIJ(AB): I=   5 J=   4      0.1616685E-02     -0.3804212E-02
 T,EIJ(AB): I=   5 J=   5      0.3662502E-02     -0.8768744E-02
 T,EIJ(AB): I=   5 J=   6      0.3685982E-02     -0.8850731E-02
 T,EIJ(AB): I=   5 J=   7      0.1627369E-02     -0.3840252E-02
 T,EIJ(AB): I=   5 J=   8      0.1669932E-02     -0.3951449E-02
 T,EIJ(AB): I=   6 J=   1      0.9143821E-03     -0.3357448E-02
 T,EIJ(AB): I=   6 J=   2      0.9289688E-03     -0.3399671E-02
 T,EIJ(AB): I=   6 J=   3      0.1590684E-02     -0.3754353E-02
 T,EIJ(AB): I=   6 J=   4      0.1627369E-02     -0.3840252E-02
 T,EIJ(AB): I=   6 J=   5      0.3685982E-02     -0.8850731E-02
 T,EIJ(AB): I=   6 J=   6      0.3728879E-02     -0.8952543E-02
 T,EIJ(AB): I=   6 J=   7      0.1646239E-02     -0.3884743E-02
 T,EIJ(AB): I=   6 J=   8      0.1682675E-02     -0.3976933E-02
 T,EIJ(AB): I=   7 J=   1      0.9143821E-03     -0.3357448E-02
 T,EIJ(AB): I=   7 J=   2      0.9289688E-03     -0.3399671E-02
 T,EIJ(AB): I=   7 J=   3      0.1590684E-02     -0.3754353E-02
 T,EIJ(AB): I=   7 J=   4      0.3685982E-02     -0.8850731E-02
 T,EIJ(AB): I=   7 J=   5      0.1627369E-02     -0.3840252E-02
 T,EIJ(AB): I=   7 J=   6      0.1646239E-02     -0.3884743E-02
 T,EIJ(AB): I=   7 J=   7      0.3728879E-02     -0.8952543E-02
 T,EIJ(AB): I=   7 J=   8      0.1682675E-02     -0.3976933E-02
 T,EIJ(AB): I=   8 J=   1      0.9436678E-03     -0.3461468E-02
 T,EIJ(AB): I=   8 J=   2      0.9524244E-03     -0.3482288E-02
 T,EIJ(AB): I=   8 J=   3      0.3654716E-02     -0.8841206E-02
 T,EIJ(AB): I=   8 J=   4      0.1669932E-02     -0.3951449E-02
 T,EIJ(AB): I=   8 J=   5      0.1669932E-02     -0.3951449E-02
 T,EIJ(AB): I=   8 J=   6      0.1682675E-02     -0.3976933E-02
 T,EIJ(AB): I=   8 J=   7      0.1682675E-02     -0.3976933E-02
 T,EIJ(AB): I=   8 J=   8      0.3844416E-02     -0.9257003E-02
 Actual    scratch disk usage=  1907998848 words.
 GetIJB would need an additional  1759536740 words of memory to use all   8 processors.
 JobTyp=3 Pass  1:  I=   1 to   8 NPSUse=  1 ParTrn=F ParDer=F DoDerP=F.
 (rs|ai) integrals will be sorted in core.
 T,EIJ(BB): I=   1 J=   2      0.5549600E-06     -0.1583690E-05
 T,EIJ(BB): I=   1 J=   3      0.1824332E-03     -0.5770491E-03
 T,EIJ(BB): I=   1 J=   4      0.1884380E-03     -0.5934718E-03
 T,EIJ(BB): I=   1 J=   5      0.1884380E-03     -0.5934718E-03
 T,EIJ(BB): I=   1 J=   6      0.1888262E-03     -0.5964907E-03
 T,EIJ(BB): I=   1 J=   7      0.1888262E-03     -0.5964907E-03
 T,EIJ(BB): I=   1 J=   8      0.1883614E-03     -0.5995982E-03
 T,EIJ(BB): I=   2 J=   3      0.2012123E-03     -0.6195726E-03
 T,EIJ(BB): I=   2 J=   4      0.1931904E-03     -0.6044833E-03
 T,EIJ(BB): I=   2 J=   5      0.1931904E-03     -0.6044833E-03
 T,EIJ(BB): I=   2 J=   6      0.1935293E-03     -0.6073984E-03
 T,EIJ(BB): I=   2 J=   7      0.1935293E-03     -0.6073984E-03
 T,EIJ(BB): I=   2 J=   8      0.1958251E-03     -0.6180971E-03
 T,EIJ(BB): I=   3 J=   4      0.1263933E-02     -0.2610797E-02
 T,EIJ(BB): I=   3 J=   5      0.1263933E-02     -0.2610797E-02
 T,EIJ(BB): I=   3 J=   6      0.1264195E-02     -0.2626043E-02
 T,EIJ(BB): I=   3 J=   7      0.1264195E-02     -0.2626043E-02
 T,EIJ(BB): I=   3 J=   8      0.8581444E-04     -0.1482250E-03
 T,EIJ(BB): I=   4 J=   5      0.1272441E-02     -0.2639820E-02
 T,EIJ(BB): I=   4 J=   6      0.1278501E-02     -0.2659924E-02
 T,EIJ(BB): I=   4 J=   7      0.1667815E-04     -0.2614687E-04
 T,EIJ(BB): I=   4 J=   8      0.1301594E-02     -0.2718971E-02
 T,EIJ(BB): I=   5 J=   6      0.1667815E-04     -0.2614687E-04
 T,EIJ(BB): I=   5 J=   7      0.1278501E-02     -0.2659924E-02
 T,EIJ(BB): I=   5 J=   8      0.1301594E-02     -0.2718971E-02
 T,EIJ(BB): I=   6 J=   7      0.1290867E-02     -0.2687043E-02
 T,EIJ(BB): I=   6 J=   8      0.1321681E-02     -0.2753277E-02
 T,EIJ(BB): I=   7 J=   8      0.1321681E-02     -0.2753277E-02
 Spin components of T(2) and E(2):
     alpha-alpha T2 =       0.1783864387D-01 E2=     -0.3948499390D-01
     alpha-beta  T2 =       0.1095152338D+00 E2=     -0.2956915695D+00
     beta-beta   T2 =       0.1783864387D-01 E2=     -0.3948499390D-01
 ANorm=    0.1070136684D+01
 E2 =    -0.3746615573D+00 EUMP2 =    -0.14464650303048D+05

 Complete Basis Set (CBS) Extrapolation:
 M. R. Nyden and G. A. Petersson, JCP 75, 1843 (1981)
 G. A. Petersson and M. A. Al-Laham, JCP 94, 6081 (1991)
 G. A. Petersson, T. Tensfeldt, and J. A. Montgomery, JCP 94, 6091 (1991)
 J. A. Montgomery, J. W. Ochterski, and G. A. Petersson, JCP 101, 5900 (1994)
 
 Minimum Number of PNO for Extrapolation =  25
 Absolute Overlaps: IRadAn =         5
 LocTrn: ILocal=3 LocCor=F DoCore=F.
 Entering OneElI...
 Overlap between basis sets.
 Requested accuracy = 0.1000D-12
 PrsmSu:  NPrtUS=   1 ThrOK=F IAlg=1 NPAlg=1 LenDen=           0.
 Prism:   IPart=     0 DynPar=F LinDyn=F Incr=           1.
 PRISM was handed  1609194018 working-precision words and   130 shell-pairs
 IPart=  0 NShTot=         130 NBatch=          13 AvBLen=        10.0
 PrSmSu:  NxtVal=              2.
 CnvPC2: ToCart=F DoDens=F IPureD=0 IPureF=0.
 Transformed matrix in CnvPC2: 
                 1             2             3             4             5 
      1   0.100000D+01  0.421836D+00  0.000000D+00  0.000000D+00  0.000000D+00
      2   0.421836D+00  0.100000D+01  0.000000D+00  0.000000D+00  0.000000D+00
      3   0.000000D+00  0.000000D+00  0.100000D+01  0.000000D+00  0.000000D+00
      4   0.000000D+00  0.000000D+00  0.000000D+00  0.100000D+01  0.000000D+00
      5   0.000000D+00  0.000000D+00  0.000000D+00  0.000000D+00  0.100000D+01
      6   0.516494D-01  0.493818D+00  0.000000D+00  0.000000D+00  0.000000D+00
      7   0.000000D+00  0.000000D+00  0.505120D+00  0.000000D+00  0.000000D+00
      8   0.000000D+00  0.000000D+00  0.000000D+00  0.505120D+00  0.000000D+00
      9   0.000000D+00  0.000000D+00  0.000000D+00  0.000000D+00  0.505120D+00
     10   0.000000D+00  0.000000D+00  0.000000D+00  0.000000D+00  0.000000D+00
     11   0.000000D+00  0.000000D+00  0.000000D+00  0.000000D+00  0.000000D+00
     12   0.000000D+00  0.000000D+00  0.000000D+00  0.000000D+00  0.000000D+00
     13   0.000000D+00  0.000000D+00  0.000000D+00  0.000000D+00  0.000000D+00
     14   0.000000D+00  0.000000D+00  0.000000D+00  0.000000D+00  0.000000D+00
     15   0.300484D-03  0.328747D-01  0.000000D+00  0.000000D+00  0.000000D+00
     16   0.000000D+00  0.000000D+00  0.466401D-01  0.000000D+00  0.000000D+00
     17   0.000000D+00  0.000000D+00  0.000000D+00  0.466401D-01  0.000000D+00
     18   0.000000D+00  0.000000D+00  0.000000D+00  0.000000D+00  0.466401D-01
     19   0.000000D+00  0.000000D+00  0.000000D+00  0.000000D+00  0.000000D+00
     20   0.000000D+00  0.000000D+00  0.000000D+00  0.000000D+00  0.000000D+00
     21   0.000000D+00  0.000000D+00  0.000000D+00  0.000000D+00  0.000000D+00
     22   0.000000D+00  0.000000D+00  0.000000D+00  0.000000D+00  0.000000D+00
     23   0.000000D+00  0.000000D+00  0.000000D+00  0.000000D+00  0.000000D+00
     24  -0.901374D-03 -0.412282D-02  0.000000D+00  0.000000D+00  0.000000D+00
     25   0.000000D+00  0.000000D+00  0.148975D-02  0.000000D+00  0.000000D+00
     26   0.000000D+00  0.000000D+00  0.000000D+00  0.148975D-02  0.000000D+00
     27   0.000000D+00  0.000000D+00  0.000000D+00  0.000000D+00  0.148975D-02
     28   0.000000D+00  0.000000D+00  0.000000D+00  0.000000D+00  0.000000D+00
     29   0.000000D+00  0.000000D+00  0.000000D+00  0.000000D+00  0.000000D+00
     30   0.000000D+00  0.000000D+00  0.000000D+00  0.000000D+00  0.000000D+00
     31   0.000000D+00  0.000000D+00  0.000000D+00  0.000000D+00  0.000000D+00
     32   0.000000D+00  0.000000D+00  0.000000D+00  0.000000D+00  0.000000D+00
     33   0.000000D+00  0.000000D+00  0.000000D+00  0.000000D+00  0.000000D+00
     34   0.000000D+00  0.000000D+00  0.000000D+00  0.000000D+00  0.000000D+00
     35   0.000000D+00  0.000000D+00  0.000000D+00  0.000000D+00  0.000000D+00
     36   0.000000D+00  0.000000D+00  0.000000D+00  0.000000D+00  0.000000D+00
     37   0.000000D+00  0.000000D+00  0.000000D+00  0.000000D+00  0.000000D+00
     38   0.000000D+00  0.000000D+00  0.000000D+00  0.000000D+00  0.000000D+00
     39   0.000000D+00  0.000000D+00  0.000000D+00  0.000000D+00  0.000000D+00
     40   0.000000D+00  0.000000D+00  0.000000D+00  0.000000D+00  0.000000D+00
     41   0.000000D+00  0.000000D+00  0.000000D+00  0.000000D+00  0.000000D+00
     42   0.000000D+00  0.000000D+00  0.000000D+00  0.000000D+00  0.000000D+00
     43   0.000000D+00  0.000000D+00  0.000000D+00  0.000000D+00  0.000000D+00
     44   0.000000D+00  0.000000D+00  0.000000D+00  0.000000D+00  0.000000D+00
     45   0.000000D+00  0.000000D+00  0.000000D+00  0.000000D+00  0.000000D+00
     46   0.000000D+00  0.000000D+00  0.000000D+00  0.000000D+00  0.000000D+00
     47   0.000000D+00  0.000000D+00  0.000000D+00  0.000000D+00  0.000000D+00
     48   0.000000D+00  0.000000D+00  0.000000D+00  0.000000D+00  0.000000D+00
     49   0.000000D+00  0.000000D+00  0.000000D+00  0.000000D+00  0.000000D+00
     50   0.000000D+00  0.000000D+00  0.000000D+00  0.000000D+00  0.000000D+00
     51   0.000000D+00  0.000000D+00  0.000000D+00  0.000000D+00  0.000000D+00
     52   0.000000D+00  0.000000D+00  0.000000D+00  0.000000D+00  0.000000D+00
     53   0.000000D+00  0.000000D+00  0.000000D+00  0.000000D+00  0.000000D+00
     54   0.000000D+00  0.000000D+00  0.000000D+00  0.000000D+00  0.000000D+00
                 6             7             8             9            10 
      1   0.516494D-01  0.000000D+00  0.000000D+00  0.000000D+00  0.000000D+00
      2   0.493818D+00  0.000000D+00  0.000000D+00  0.000000D+00  0.000000D+00
      3   0.000000D+00  0.505120D+00  0.000000D+00  0.000000D+00  0.000000D+00
      4   0.000000D+00  0.000000D+00  0.505120D+00  0.000000D+00  0.000000D+00
      5   0.000000D+00  0.000000D+00  0.000000D+00  0.505120D+00  0.000000D+00
      6   0.100000D+01  0.000000D+00  0.000000D+00  0.000000D+00  0.000000D+00
      7   0.000000D+00  0.100000D+01  0.000000D+00  0.000000D+00  0.000000D+00
      8   0.000000D+00  0.000000D+00  0.100000D+01  0.000000D+00  0.000000D+00
      9   0.000000D+00  0.000000D+00  0.000000D+00  0.100000D+01  0.000000D+00
     10   0.000000D+00  0.000000D+00  0.000000D+00  0.000000D+00  0.100000D+01
     11   0.000000D+00  0.000000D+00  0.000000D+00  0.000000D+00  0.000000D+00
     12   0.000000D+00  0.000000D+00  0.000000D+00  0.000000D+00  0.000000D+00
     13   0.000000D+00  0.000000D+00  0.000000D+00  0.000000D+00  0.000000D+00
     14   0.000000D+00  0.000000D+00  0.000000D+00  0.000000D+00  0.000000D+00
     15   0.342269D+00  0.000000D+00  0.000000D+00  0.000000D+00  0.000000D+00
     16   0.000000D+00  0.356711D+00  0.000000D+00  0.000000D+00  0.000000D+00
     17   0.000000D+00  0.000000D+00  0.356711D+00  0.000000D+00  0.000000D+00
     18   0.000000D+00  0.000000D+00  0.000000D+00  0.356711D+00  0.000000D+00
     19   0.000000D+00  0.000000D+00  0.000000D+00  0.000000D+00  0.357645D+00
     20   0.000000D+00  0.000000D+00  0.000000D+00  0.000000D+00  0.000000D+00
     21   0.000000D+00  0.000000D+00  0.000000D+00  0.000000D+00  0.000000D+00
     22   0.000000D+00  0.000000D+00  0.000000D+00  0.000000D+00  0.000000D+00
     23   0.000000D+00  0.000000D+00  0.000000D+00  0.000000D+00  0.000000D+00
     24   0.246889D-02  0.000000D+00  0.000000D+00  0.000000D+00  0.000000D+00
     25   0.000000D+00  0.176979D-01  0.000000D+00  0.000000D+00  0.000000D+00
     26   0.000000D+00  0.000000D+00  0.176979D-01  0.000000D+00  0.000000D+00
     27   0.000000D+00  0.000000D+00  0.000000D+00  0.176979D-01  0.000000D+00
     28   0.000000D+00  0.000000D+00  0.000000D+00  0.000000D+00  0.000000D+00
     29   0.000000D+00  0.000000D+00  0.000000D+00  0.000000D+00  0.000000D+00
     30   0.000000D+00  0.000000D+00  0.000000D+00  0.000000D+00  0.000000D+00
     31   0.000000D+00  0.000000D+00  0.000000D+00  0.000000D+00  0.000000D+00
     32   0.000000D+00  0.000000D+00  0.000000D+00  0.000000D+00  0.000000D+00
     33   0.000000D+00  0.000000D+00  0.000000D+00  0.000000D+00  0.000000D+00
     34   0.000000D+00  0.000000D+00  0.000000D+00  0.000000D+00  0.000000D+00
     35   0.000000D+00  0.000000D+00  0.000000D+00  0.000000D+00  0.000000D+00
     36   0.000000D+00  0.000000D+00  0.000000D+00  0.000000D+00  0.000000D+00
     37   0.000000D+00  0.000000D+00  0.000000D+00  0.000000D+00  0.000000D+00
     38   0.000000D+00  0.000000D+00  0.000000D+00  0.000000D+00  0.000000D+00
     39   0.000000D+00  0.000000D+00  0.000000D+00  0.000000D+00  0.000000D+00
     40   0.000000D+00  0.000000D+00  0.000000D+00  0.000000D+00  0.000000D+00
     41   0.000000D+00  0.000000D+00  0.000000D+00  0.000000D+00  0.000000D+00
     42   0.000000D+00  0.000000D+00  0.000000D+00  0.000000D+00  0.000000D+00
     43   0.000000D+00  0.000000D+00  0.000000D+00  0.000000D+00  0.000000D+00
     44   0.000000D+00  0.000000D+00  0.000000D+00  0.000000D+00  0.000000D+00
     45   0.000000D+00  0.000000D+00  0.000000D+00  0.000000D+00  0.000000D+00
     46   0.000000D+00  0.000000D+00  0.000000D+00  0.000000D+00  0.000000D+00
     47   0.000000D+00  0.000000D+00  0.000000D+00  0.000000D+00  0.000000D+00
     48   0.000000D+00  0.000000D+00  0.000000D+00  0.000000D+00  0.000000D+00
     49   0.000000D+00  0.000000D+00  0.000000D+00  0.000000D+00  0.000000D+00
     50   0.000000D+00  0.000000D+00  0.000000D+00  0.000000D+00  0.000000D+00
     51   0.000000D+00  0.000000D+00  0.000000D+00  0.000000D+00  0.000000D+00
     52   0.000000D+00  0.000000D+00  0.000000D+00  0.000000D+00  0.000000D+00
     53   0.000000D+00  0.000000D+00  0.000000D+00  0.000000D+00  0.000000D+00
     54   0.000000D+00  0.000000D+00  0.000000D+00  0.000000D+00  0.000000D+00
                11            12            13            14            15 
      1   0.000000D+00  0.000000D+00  0.000000D+00  0.000000D+00  0.300484D-03
      2   0.000000D+00  0.000000D+00  0.000000D+00  0.000000D+00  0.328747D-01
      3   0.000000D+00  0.000000D+00  0.000000D+00  0.000000D+00  0.000000D+00
      4   0.000000D+00  0.000000D+00  0.000000D+00  0.000000D+00  0.000000D+00
      5   0.000000D+00  0.000000D+00  0.000000D+00  0.000000D+00  0.000000D+00
      6   0.000000D+00  0.000000D+00  0.000000D+00  0.000000D+00  0.342269D+00
      7   0.000000D+00  0.000000D+00  0.000000D+00  0.000000D+00  0.000000D+00
      8   0.000000D+00  0.000000D+00  0.000000D+00  0.000000D+00  0.000000D+00
      9   0.000000D+00  0.000000D+00  0.000000D+00  0.000000D+00  0.000000D+00
     10   0.000000D+00  0.000000D+00  0.000000D+00  0.000000D+00  0.000000D+00
     11   0.100000D+01  0.000000D+00  0.000000D+00  0.000000D+00  0.000000D+00
     12   0.000000D+00  0.100000D+01  0.000000D+00  0.000000D+00  0.000000D+00
     13   0.000000D+00  0.000000D+00  0.100000D+01  0.000000D+00  0.000000D+00
     14   0.000000D+00  0.000000D+00  0.000000D+00  0.100000D+01  0.000000D+00
     15   0.000000D+00  0.000000D+00  0.000000D+00  0.000000D+00  0.100000D+01
     16   0.000000D+00  0.000000D+00  0.000000D+00  0.000000D+00  0.000000D+00
     17   0.000000D+00  0.000000D+00  0.000000D+00  0.000000D+00  0.000000D+00
     18   0.000000D+00  0.000000D+00  0.000000D+00  0.000000D+00  0.000000D+00
     19   0.000000D+00  0.000000D+00  0.000000D+00  0.000000D+00  0.000000D+00
     20   0.357645D+00  0.000000D+00  0.000000D+00  0.000000D+00  0.000000D+00
     21   0.000000D+00  0.357645D+00  0.000000D+00  0.000000D+00  0.000000D+00
     22   0.000000D+00  0.000000D+00  0.357645D+00  0.000000D+00  0.000000D+00
     23   0.000000D+00  0.000000D+00  0.000000D+00  0.357645D+00  0.000000D+00
     24   0.000000D+00  0.000000D+00  0.000000D+00  0.000000D+00  0.273894D+00
     25   0.000000D+00  0.000000D+00  0.000000D+00  0.000000D+00  0.000000D+00
     26   0.000000D+00  0.000000D+00  0.000000D+00  0.000000D+00  0.000000D+00
     27   0.000000D+00  0.000000D+00  0.000000D+00  0.000000D+00  0.000000D+00
     28   0.000000D+00  0.000000D+00  0.000000D+00  0.000000D+00  0.000000D+00
     29   0.000000D+00  0.000000D+00  0.000000D+00  0.000000D+00  0.000000D+00
     30   0.000000D+00  0.000000D+00  0.000000D+00  0.000000D+00  0.000000D+00
     31   0.000000D+00  0.000000D+00  0.000000D+00  0.000000D+00  0.000000D+00
     32   0.000000D+00  0.000000D+00  0.000000D+00  0.000000D+00  0.000000D+00
     33   0.000000D+00  0.000000D+00  0.000000D+00  0.000000D+00  0.000000D+00
     34   0.000000D+00  0.000000D+00  0.000000D+00  0.000000D+00  0.000000D+00
     35   0.000000D+00  0.000000D+00  0.000000D+00  0.000000D+00  0.000000D+00
     36   0.000000D+00  0.000000D+00  0.000000D+00  0.000000D+00  0.000000D+00
     37   0.000000D+00  0.000000D+00  0.000000D+00  0.000000D+00  0.000000D+00
     38   0.000000D+00  0.000000D+00  0.000000D+00  0.000000D+00  0.000000D+00
     39   0.000000D+00  0.000000D+00  0.000000D+00  0.000000D+00  0.000000D+00
     40   0.000000D+00  0.000000D+00  0.000000D+00  0.000000D+00  0.000000D+00
     41   0.000000D+00  0.000000D+00  0.000000D+00  0.000000D+00  0.000000D+00
     42   0.000000D+00  0.000000D+00  0.000000D+00  0.000000D+00  0.000000D+00
     43   0.000000D+00  0.000000D+00  0.000000D+00  0.000000D+00  0.000000D+00
     44   0.000000D+00  0.000000D+00  0.000000D+00  0.000000D+00  0.000000D+00
     45   0.000000D+00  0.000000D+00  0.000000D+00  0.000000D+00  0.000000D+00
     46   0.000000D+00  0.000000D+00  0.000000D+00  0.000000D+00  0.000000D+00
     47   0.000000D+00  0.000000D+00  0.000000D+00  0.000000D+00  0.000000D+00
     48   0.000000D+00  0.000000D+00  0.000000D+00  0.000000D+00  0.000000D+00
     49   0.000000D+00  0.000000D+00  0.000000D+00  0.000000D+00  0.000000D+00
     50   0.000000D+00  0.000000D+00  0.000000D+00  0.000000D+00  0.000000D+00
     51   0.000000D+00  0.000000D+00  0.000000D+00  0.000000D+00  0.334987D-05
     52   0.000000D+00  0.000000D+00  0.000000D+00  0.000000D+00  0.000000D+00
     53   0.000000D+00  0.000000D+00  0.000000D+00  0.000000D+00  0.000000D+00
     54   0.000000D+00  0.000000D+00  0.000000D+00  0.000000D+00  0.106352D-04
                16            17            18            19            20 
      1   0.000000D+00  0.000000D+00  0.000000D+00  0.000000D+00  0.000000D+00
      2   0.000000D+00  0.000000D+00  0.000000D+00  0.000000D+00  0.000000D+00
      3   0.466401D-01  0.000000D+00  0.000000D+00  0.000000D+00  0.000000D+00
      4   0.000000D+00  0.466401D-01  0.000000D+00  0.000000D+00  0.000000D+00
      5   0.000000D+00  0.000000D+00  0.466401D-01  0.000000D+00  0.000000D+00
      6   0.000000D+00  0.000000D+00  0.000000D+00  0.000000D+00  0.000000D+00
      7   0.356711D+00  0.000000D+00  0.000000D+00  0.000000D+00  0.000000D+00
      8   0.000000D+00  0.356711D+00  0.000000D+00  0.000000D+00  0.000000D+00
      9   0.000000D+00  0.000000D+00  0.356711D+00  0.000000D+00  0.000000D+00
     10   0.000000D+00  0.000000D+00  0.000000D+00  0.357645D+00  0.000000D+00
     11   0.000000D+00  0.000000D+00  0.000000D+00  0.000000D+00  0.357645D+00
     12   0.000000D+00  0.000000D+00  0.000000D+00  0.000000D+00  0.000000D+00
     13   0.000000D+00  0.000000D+00  0.000000D+00  0.000000D+00  0.000000D+00
     14   0.000000D+00  0.000000D+00  0.000000D+00  0.000000D+00  0.000000D+00
     15   0.000000D+00  0.000000D+00  0.000000D+00  0.000000D+00  0.000000D+00
     16   0.100000D+01  0.000000D+00  0.000000D+00  0.000000D+00  0.000000D+00
     17   0.000000D+00  0.100000D+01  0.000000D+00  0.000000D+00  0.000000D+00
     18   0.000000D+00  0.000000D+00  0.100000D+01  0.000000D+00  0.000000D+00
     19   0.000000D+00  0.000000D+00  0.000000D+00  0.100000D+01  0.000000D+00
     20   0.000000D+00  0.000000D+00  0.000000D+00  0.000000D+00  0.100000D+01
     21   0.000000D+00  0.000000D+00  0.000000D+00  0.000000D+00  0.000000D+00
     22   0.000000D+00  0.000000D+00  0.000000D+00  0.000000D+00  0.000000D+00
     23   0.000000D+00  0.000000D+00  0.000000D+00  0.000000D+00  0.000000D+00
     24   0.000000D+00  0.000000D+00  0.000000D+00  0.000000D+00  0.000000D+00
     25   0.282566D+00  0.000000D+00  0.000000D+00  0.000000D+00  0.000000D+00
     26   0.000000D+00  0.282566D+00  0.000000D+00  0.000000D+00  0.000000D+00
     27   0.000000D+00  0.000000D+00  0.282566D+00  0.000000D+00  0.000000D+00
     28   0.000000D+00  0.000000D+00  0.000000D+00  0.000000D+00  0.000000D+00
     29   0.000000D+00  0.000000D+00  0.000000D+00  0.000000D+00  0.000000D+00
     30   0.000000D+00  0.000000D+00  0.000000D+00  0.000000D+00  0.000000D+00
     31   0.000000D+00  0.000000D+00  0.000000D+00  0.000000D+00  0.000000D+00
     32   0.000000D+00  0.000000D+00  0.000000D+00  0.000000D+00  0.000000D+00
     33   0.000000D+00  0.000000D+00  0.000000D+00  0.000000D+00  0.000000D+00
     34   0.000000D+00  0.000000D+00  0.000000D+00  0.000000D+00  0.000000D+00
     35   0.000000D+00  0.000000D+00  0.000000D+00  0.000000D+00  0.000000D+00
     36   0.000000D+00  0.000000D+00  0.000000D+00  0.000000D+00  0.000000D+00
     37   0.000000D+00  0.000000D+00  0.000000D+00  0.000000D+00  0.000000D+00
     38   0.000000D+00  0.000000D+00  0.000000D+00  0.000000D+00  0.000000D+00
     39   0.000000D+00  0.000000D+00  0.000000D+00  0.000000D+00  0.000000D+00
     40   0.000000D+00  0.000000D+00  0.000000D+00  0.000000D+00  0.000000D+00
     41   0.000000D+00  0.000000D+00  0.000000D+00  0.000000D+00  0.000000D+00
     42   0.000000D+00  0.000000D+00  0.000000D+00  0.000000D+00  0.000000D+00
     43   0.000000D+00  0.000000D+00  0.000000D+00  0.000000D+00  0.000000D+00
     44   0.000000D+00  0.000000D+00  0.000000D+00  0.000000D+00  0.000000D+00
     45   0.000000D+00  0.000000D+00  0.000000D+00  0.000000D+00  0.000000D+00
     46   0.000000D+00  0.000000D+00  0.000000D+00  0.000000D+00  0.000000D+00
     47   0.000000D+00  0.000000D+00  0.000000D+00  0.000000D+00  0.000000D+00
     48   0.000000D+00  0.000000D+00  0.000000D+00  0.000000D+00  0.000000D+00
     49   0.000000D+00  0.000000D+00  0.000000D+00  0.000000D+00  0.000000D+00
     50   0.000000D+00  0.000000D+00  0.000000D+00  0.000000D+00  0.000000D+00
     51   0.000000D+00  0.000000D+00 -0.496737D-05  0.450525D-05  0.000000D+00
     52   0.000000D+00  0.000000D+00  0.000000D+00  0.000000D+00  0.000000D+00
     53   0.000000D+00  0.000000D+00  0.000000D+00  0.000000D+00  0.000000D+00
     54   0.000000D+00  0.000000D+00 -0.153373D-04  0.134162D-04  0.000000D+00
                21            22            23            24            25 
      1   0.000000D+00  0.000000D+00  0.000000D+00 -0.901374D-03  0.000000D+00
      2   0.000000D+00  0.000000D+00  0.000000D+00 -0.412282D-02  0.000000D+00
      3   0.000000D+00  0.000000D+00  0.000000D+00  0.000000D+00  0.148975D-02
      4   0.000000D+00  0.000000D+00  0.000000D+00  0.000000D+00  0.000000D+00
      5   0.000000D+00  0.000000D+00  0.000000D+00  0.000000D+00  0.000000D+00
      6   0.000000D+00  0.000000D+00  0.000000D+00  0.246889D-02  0.000000D+00
      7   0.000000D+00  0.000000D+00  0.000000D+00  0.000000D+00  0.176979D-01
      8   0.000000D+00  0.000000D+00  0.000000D+00  0.000000D+00  0.000000D+00
      9   0.000000D+00  0.000000D+00  0.000000D+00  0.000000D+00  0.000000D+00
     10   0.000000D+00  0.000000D+00  0.000000D+00  0.000000D+00  0.000000D+00
     11   0.000000D+00  0.000000D+00  0.000000D+00  0.000000D+00  0.000000D+00
     12   0.357645D+00  0.000000D+00  0.000000D+00  0.000000D+00  0.000000D+00
     13   0.000000D+00  0.357645D+00  0.000000D+00  0.000000D+00  0.000000D+00
     14   0.000000D+00  0.000000D+00  0.357645D+00  0.000000D+00  0.000000D+00
     15   0.000000D+00  0.000000D+00  0.000000D+00  0.273894D+00  0.000000D+00
     16   0.000000D+00  0.000000D+00  0.000000D+00  0.000000D+00  0.282566D+00
     17   0.000000D+00  0.000000D+00  0.000000D+00  0.000000D+00  0.000000D+00
     18   0.000000D+00  0.000000D+00  0.000000D+00  0.000000D+00  0.000000D+00
     19   0.000000D+00  0.000000D+00  0.000000D+00  0.000000D+00  0.000000D+00
     20   0.000000D+00  0.000000D+00  0.000000D+00  0.000000D+00  0.000000D+00
     21   0.100000D+01  0.000000D+00  0.000000D+00  0.000000D+00  0.000000D+00
     22   0.000000D+00  0.100000D+01  0.000000D+00  0.000000D+00  0.000000D+00
     23   0.000000D+00  0.000000D+00  0.100000D+01  0.000000D+00  0.000000D+00
     24   0.000000D+00  0.000000D+00  0.000000D+00  0.100000D+01  0.000000D+00
     25   0.000000D+00  0.000000D+00  0.000000D+00  0.000000D+00  0.100000D+01
     26   0.000000D+00  0.000000D+00  0.000000D+00  0.000000D+00  0.000000D+00
     27   0.000000D+00  0.000000D+00  0.000000D+00  0.000000D+00  0.000000D+00
     28   0.000000D+00  0.000000D+00  0.000000D+00  0.000000D+00  0.000000D+00
     29   0.000000D+00  0.000000D+00  0.000000D+00  0.000000D+00  0.000000D+00
     30   0.000000D+00  0.000000D+00  0.000000D+00  0.000000D+00  0.000000D+00
     31   0.000000D+00  0.000000D+00  0.000000D+00  0.000000D+00  0.000000D+00
     32   0.000000D+00  0.000000D+00  0.000000D+00  0.000000D+00  0.000000D+00
     33   0.000000D+00  0.000000D+00  0.000000D+00  0.000000D+00  0.000000D+00
     34   0.000000D+00  0.000000D+00  0.000000D+00  0.000000D+00  0.000000D+00
     35   0.000000D+00  0.000000D+00  0.000000D+00  0.000000D+00  0.000000D+00
     36   0.000000D+00  0.000000D+00  0.000000D+00  0.000000D+00  0.000000D+00
     37   0.000000D+00  0.000000D+00  0.000000D+00  0.000000D+00  0.000000D+00
     38   0.000000D+00  0.000000D+00  0.000000D+00  0.000000D+00  0.000000D+00
     39   0.000000D+00  0.000000D+00  0.000000D+00  0.000000D+00  0.000000D+00
     40   0.000000D+00  0.000000D+00  0.000000D+00  0.000000D+00  0.000000D+00
     41   0.000000D+00  0.000000D+00  0.000000D+00  0.000000D+00  0.000000D+00
     42   0.000000D+00  0.000000D+00  0.000000D+00  0.334987D-05  0.000000D+00
     43   0.000000D+00  0.000000D+00  0.000000D+00  0.000000D+00  0.000000D+00
     44   0.000000D+00  0.000000D+00  0.000000D+00  0.000000D+00  0.000000D+00
     45   0.000000D+00  0.000000D+00  0.000000D+00  0.496737D-05  0.000000D+00
     46   0.000000D+00  0.000000D+00  0.000000D+00  0.450525D-05  0.000000D+00
     47   0.000000D+00  0.000000D+00  0.000000D+00  0.000000D+00  0.000000D+00
     48   0.000000D+00  0.000000D+00  0.000000D+00  0.000000D+00  0.000000D+00
     49   0.000000D+00  0.000000D+00  0.000000D+00  0.000000D+00  0.000000D+00
     50   0.000000D+00  0.000000D+00  0.000000D+00  0.000000D+00  0.000000D+00
     51   0.000000D+00  0.000000D+00  0.000000D+00  0.138143D-02  0.000000D+00
     52   0.000000D+00  0.000000D+00  0.000000D+00  0.000000D+00  0.359962D-03
     53   0.000000D+00  0.000000D+00  0.000000D+00  0.000000D+00  0.000000D+00
     54   0.000000D+00  0.000000D+00  0.000000D+00  0.266821D-02  0.000000D+00
                26            27            28            29            30 
      1   0.000000D+00  0.000000D+00  0.000000D+00  0.000000D+00  0.000000D+00
      2   0.000000D+00  0.000000D+00  0.000000D+00  0.000000D+00  0.000000D+00
      3   0.000000D+00  0.000000D+00  0.000000D+00  0.000000D+00  0.000000D+00
      4   0.148975D-02  0.000000D+00  0.000000D+00  0.000000D+00  0.000000D+00
      5   0.000000D+00  0.148975D-02  0.000000D+00  0.000000D+00  0.000000D+00
      6   0.000000D+00  0.000000D+00  0.000000D+00  0.000000D+00  0.000000D+00
      7   0.000000D+00  0.000000D+00  0.000000D+00  0.000000D+00  0.000000D+00
      8   0.176979D-01  0.000000D+00  0.000000D+00  0.000000D+00  0.000000D+00
      9   0.000000D+00  0.176979D-01  0.000000D+00  0.000000D+00  0.000000D+00
     10   0.000000D+00  0.000000D+00  0.000000D+00  0.000000D+00  0.000000D+00
     11   0.000000D+00  0.000000D+00  0.000000D+00  0.000000D+00  0.000000D+00
     12   0.000000D+00  0.000000D+00  0.000000D+00  0.000000D+00  0.000000D+00
     13   0.000000D+00  0.000000D+00  0.000000D+00  0.000000D+00  0.000000D+00
     14   0.000000D+00  0.000000D+00  0.000000D+00  0.000000D+00  0.000000D+00
     15   0.000000D+00  0.000000D+00  0.000000D+00  0.000000D+00  0.000000D+00
     16   0.000000D+00  0.000000D+00  0.000000D+00  0.000000D+00  0.000000D+00
     17   0.282566D+00  0.000000D+00  0.000000D+00  0.000000D+00  0.000000D+00
     18   0.000000D+00  0.282566D+00  0.000000D+00  0.000000D+00  0.000000D+00
     19   0.000000D+00  0.000000D+00  0.000000D+00  0.000000D+00  0.000000D+00
     20   0.000000D+00  0.000000D+00  0.000000D+00  0.000000D+00  0.000000D+00
     21   0.000000D+00  0.000000D+00  0.000000D+00  0.000000D+00  0.000000D+00
     22   0.000000D+00  0.000000D+00  0.000000D+00  0.000000D+00  0.000000D+00
     23   0.000000D+00  0.000000D+00  0.000000D+00  0.000000D+00  0.000000D+00
     24   0.000000D+00  0.000000D+00  0.000000D+00  0.000000D+00  0.000000D+00
     25   0.000000D+00  0.000000D+00  0.000000D+00  0.000000D+00  0.000000D+00
     26   0.100000D+01  0.000000D+00  0.000000D+00  0.000000D+00  0.000000D+00
     27   0.000000D+00  0.100000D+01  0.000000D+00  0.000000D+00  0.000000D+00
     28   0.000000D+00  0.000000D+00  0.100000D+01  0.421836D+00  0.000000D+00
     29   0.000000D+00  0.000000D+00  0.421836D+00  0.100000D+01  0.000000D+00
     30   0.000000D+00  0.000000D+00  0.000000D+00  0.000000D+00  0.100000D+01
     31   0.000000D+00  0.000000D+00  0.000000D+00  0.000000D+00  0.000000D+00
     32   0.000000D+00  0.000000D+00  0.000000D+00  0.000000D+00  0.000000D+00
     33   0.000000D+00  0.000000D+00  0.516494D-01  0.493818D+00  0.000000D+00
     34   0.000000D+00  0.000000D+00  0.000000D+00  0.000000D+00  0.505120D+00
     35   0.000000D+00  0.000000D+00  0.000000D+00  0.000000D+00  0.000000D+00
     36   0.000000D+00  0.000000D+00  0.000000D+00  0.000000D+00  0.000000D+00
     37   0.000000D+00  0.000000D+00  0.000000D+00  0.000000D+00  0.000000D+00
     38   0.000000D+00  0.000000D+00  0.000000D+00  0.000000D+00  0.000000D+00
     39   0.000000D+00  0.000000D+00  0.000000D+00  0.000000D+00  0.000000D+00
     40   0.000000D+00  0.000000D+00  0.000000D+00  0.000000D+00  0.000000D+00
     41   0.000000D+00  0.000000D+00  0.000000D+00  0.000000D+00  0.000000D+00
     42   0.000000D+00 -0.106352D-04  0.300484D-03  0.328747D-01  0.000000D+00
     43   0.000000D+00  0.000000D+00  0.000000D+00  0.000000D+00  0.466401D-01
     44   0.000000D+00  0.000000D+00  0.000000D+00  0.000000D+00  0.000000D+00
     45   0.000000D+00 -0.153373D-04  0.000000D+00  0.000000D+00  0.000000D+00
     46   0.000000D+00 -0.134162D-04  0.000000D+00  0.000000D+00  0.000000D+00
     47   0.000000D+00  0.000000D+00  0.000000D+00  0.000000D+00  0.000000D+00
     48   0.000000D+00  0.000000D+00  0.000000D+00  0.000000D+00  0.000000D+00
     49   0.000000D+00  0.000000D+00  0.000000D+00  0.000000D+00  0.000000D+00
     50   0.000000D+00  0.000000D+00  0.000000D+00  0.000000D+00  0.000000D+00
     51   0.000000D+00 -0.266821D-02 -0.901374D-03 -0.412282D-02  0.000000D+00
     52   0.000000D+00  0.000000D+00  0.000000D+00  0.000000D+00  0.148975D-02
     53   0.359962D-03  0.000000D+00  0.000000D+00  0.000000D+00  0.000000D+00
     54   0.000000D+00 -0.498022D-02  0.000000D+00  0.000000D+00  0.000000D+00
                31            32            33            34            35 
      1   0.000000D+00  0.000000D+00  0.000000D+00  0.000000D+00  0.000000D+00
      2   0.000000D+00  0.000000D+00  0.000000D+00  0.000000D+00  0.000000D+00
      3   0.000000D+00  0.000000D+00  0.000000D+00  0.000000D+00  0.000000D+00
      4   0.000000D+00  0.000000D+00  0.000000D+00  0.000000D+00  0.000000D+00
      5   0.000000D+00  0.000000D+00  0.000000D+00  0.000000D+00  0.000000D+00
      6   0.000000D+00  0.000000D+00  0.000000D+00  0.000000D+00  0.000000D+00
      7   0.000000D+00  0.000000D+00  0.000000D+00  0.000000D+00  0.000000D+00
      8   0.000000D+00  0.000000D+00  0.000000D+00  0.000000D+00  0.000000D+00
      9   0.000000D+00  0.000000D+00  0.000000D+00  0.000000D+00  0.000000D+00
     10   0.000000D+00  0.000000D+00  0.000000D+00  0.000000D+00  0.000000D+00
     11   0.000000D+00  0.000000D+00  0.000000D+00  0.000000D+00  0.000000D+00
     12   0.000000D+00  0.000000D+00  0.000000D+00  0.000000D+00  0.000000D+00
     13   0.000000D+00  0.000000D+00  0.000000D+00  0.000000D+00  0.000000D+00
     14   0.000000D+00  0.000000D+00  0.000000D+00  0.000000D+00  0.000000D+00
     15   0.000000D+00  0.000000D+00  0.000000D+00  0.000000D+00  0.000000D+00
     16   0.000000D+00  0.000000D+00  0.000000D+00  0.000000D+00  0.000000D+00
[...]
   54    | -0.000044 -0.007782 -0.000183 -0.007782 -0.000044 -0.006832
         |

 AB - AA |     53        54
 BA - BB |     53        54
------------------------------
   47    | -0.003382 -0.000039
   47    | -0.003382 -0.000039
         |
   48    | -0.000018 -0.005305
   48    | -0.000018 -0.005305
         |
   49    | -0.003577 -0.000154
   49    | -0.003577 -0.000154
         |
   50    | -0.000021 -0.005305
   50    | -0.000021 -0.005305
         |
   51    | -0.003345 -0.000039
   51    | -0.003345 -0.000039
         |
   52    | -0.000002 -0.001223
   52    | -0.000002 -0.001223
         |
   53    | -0.018634 -0.000044
   53    |  0.000000 -0.000044
         |
   54    | -0.000049 -0.017939
   54    | -0.000049  0.000000
         |

                     Sum of ab pair energies =    -0.218729 A.U.
                     Sum of ba pair energies =    -0.082365 A.U.
                     Sum of aa pair energies =    -0.039868 A.U.
                     Sum of bb pair energies =    -0.039868 A.U.

           Sum of intraorbital pair energies =    -0.136363 A.U.
           Sum of interorbital pair energies =    -0.244467 A.U.
                                                  ----------
                         Total pair energies =    -0.380830 A.U.

                         Single Excitations  =     0.000000 A.U.

                          Total second order =    -0.380830 A.U.

                         E2(CBS) - E2(Dir) =      -0.012624 A.U.

 E2(CBS)=      -0.387286 CBS-Int=       0.006455 OIii=       2.941563

 **********************************************************************

            Population analysis using the SCF density.

 **********************************************************************

 Orbital symmetries:
       Occupied  (SGU) (SGG) (SGU) (SGG) (PIG) (PIG) (PIU) (PIU)
                 (SGG) (SGU) (SGU) (SGG) (PIG) (PIG) (PIU) (PIU)
                 (SGU) (SGG) (DLTU) (DLTU) (DLTG) (DLTG) (PIG)
                 (PIG) (PIU) (PIU) (SGU) (SGG) (SGU) (SGG) (PIG)
                 (PIG) (PIU) (PIU) (SGU) (SGG) (DLTU) (DLTU) (DLTG)
                 (DLTG) (PIG) (PIG) (PIU) (PIU) (SGU) (SGG) (SGG)
                 (SGU) (SGG) (PIU) (PIU) (PIG) (PIG) (SGU)
       Virtual   (SGU) (PIU) (PIU) (SGG) (PIG) (PIG) (SGG) (SGU)
                 (PIU) (PIU) (DLTG) (DLTG) (DLTU) (DLTU) (SGG)
                 (PIG) (PIG) (SGU) (SGG) (PIU) (PIU) (SGG) (PIU)
                 (PIU) (PIG) (PIG) (DLTG) (DLTG) (DLTG) (DLTG)
                 (DLTU) (DLTU) (SGU) (PHIU) (PHIU) (SGU) (PIG)
                 (PIG) (PHIG) (PHIG) (PIU) (PIU) (SGG) (DLTU) (DLTU)
                 (SGU) (PIG) (PIG) (SGG) (DLTG) (DLTG) (PHIU) (PHIU)
                 (SGU) (?A) (?A) (PIU) (PIU) (?B) (?B) (SGG) (PHIG)
                 (PHIG) (DLTU) (DLTU) (PIG) (PIG) (SGU) (DLTG)
                 (DLTG) (PIU) (PIU) (DLTG) (DLTG) (PHIU) (PHIU)
                 (PHIG) (PHIG) (DLTU) (DLTU) (SGG) (PIU) (PIU)
                 (SGU) (DLTU) (DLTU) (PIG) (PIG) (SGG) (SGU) (PIG)
                 (PIG) (PIU) (PIU) (SGG) (DLTG) (DLTG) (PHIU) (PHIU)
                 (PIG) (PIG) (PIU) (PIU) (?A) (?A) (?C) (?C) (?D)
                 (?D) (?B) (?B) (PHIG) (PHIG) (SGG) (DLTU) (DLTU)
                 (SGU) (SGU) (PIG) (PIG) (PHIU) (PHIU) (DLTG) (DLTG)
                 (PHIG) (PHIG) (PIU) (PIU) (DLTU) (DLTU) (SGG)
                 (PIG) (PIG) (SGU) (PHIU) (PHIU) (?A) (?A) (DLTG)
                 (DLTG) (?B) (?B) (PHIG) (PHIG) (SGU) (PIU) (PIU)
                 (DLTU) (DLTU) (SGG) (DLTG) (DLTG) (PIU) (PIU)
                 (DLTU) (DLTU) (PIG) (PIG) (SGU) (SGG) (SGG) (PIG)
                 (PIG) (DLTG) (DLTG) (PIU) (PIU) (PHIU) (PHIU)
                 (?A) (?A) (?C) (?C) (?E) (?E) (?F) (?F) (?D) (?D)
                 (?B) (?B) (PHIG) (PHIG) (SGG) (SGU) (DLTU) (DLTU)
                 (PIG) (PIG) (SGU) (PHIU) (PHIU) (?A) (?A) (DLTG)
                 (DLTG) (?C) (?C) (?D) (?D) (?B) (?B) (PIU) (PIU)
                 (PHIG) (PHIG) (SGG) (SGU) (DLTU) (DLTU) (PIU)
                 (PIU) (PIG) (PIG) (SGG) (PHIU) (PHIU) (DLTG) (DLTG)
                 (PHIG) (PHIG) (DLTU) (DLTU) (PIU) (PIU) (PIG)
                 (PIG) (PIG) (PIG) (SGG) (SGU) (PHIU) (PHIU) (?A)
                 (?A) (?B) (?B) (DLTG) (DLTG) (SGU) (PHIG) (PHIG)
                 (DLTU) (DLTU) (PIU) (PIU) (SGU) (PIG) (PIG) (SGG)
                 (DLTG) (DLTG) (DLTU) (DLTU) (PIU) (PIU) (PIG)
                 (PIG) (SGU) (SGG) (DLTG) (DLTG) (PHIU) (PHIU)
                 (PIU) (PIU) (?A) (?A) (?C) (?C) (?E) (?E) (?F)
                 (?F) (?D) (?D) (?B) (?B) (SGG) (PHIG) (PHIG) (DLTU)
                 (DLTU) (SGG) (SGU) (PIG) (PIG) (PHIU) (PHIU) (?A)
                 (?A) (?C) (?C) (?D) (?D) (DLTG) (DLTG) (?B) (?B)
                 (PHIG) (PHIG) (SGU) (PIU) (PIU) (DLTU) (DLTU)
                 (SGG) (PIG) (PIG) (SGU) (PHIU) (PHIU) (?A) (?A)
                 (?B) (?B) (DLTG) (DLTG) (PHIG) (PHIG) (SGG) (PIU)
                 (PIU) (SGU) (DLTU) (DLTU) (PIG) (PIG) (PIU) (PIU)
                 (PIG) (PIG) (SGG) (DLTG) (DLTG) (PHIU) (PHIU)
                 (PHIG) (PHIG) (DLTU) (DLTU) (PIU) (PIU) (SGU)
                 (PIG) (PIG) (SGU) (SGG) (?G) (?G) (?H) (?H) (?E)
                 (?E) (?F) (?F) (?C) (?C) (?D) (?D) (?A) (?A) (?B)
                 (?B) (PHIU) (PHIU) (PHIG) (PHIG) (DLTG) (DLTG)
                 (SGG) (PIU) (PIU) (DLTU) (DLTU) (PIG) (PIG) (SGU)
                 (DLTG) (DLTG) (PIU) (PIU) (DLTU) (DLTU) (PIG)
                 (PIG) (SGU) (SGG) (PHIU) (PHIU) (?A) (?A) (?C)
                 (?C) (?D) (?D) (DLTG) (DLTG) (?B) (?B) (PHIG)
                 (PHIG) (PIU) (PIU) (DLTU) (DLTU) (SGU) (SGG) (PIG)
                 (PIG) (DLTG) (DLTG) (PHIU) (PHIU) (PIU) (PIU)
                 (?A) (?A) (?C) (?C) (?E) (?E) (?F) (?F) (?D) (?D)
                 (?B) (?B) (PHIG) (PHIG) (SGG) (DLTU) (DLTU) (SGU)
                 (PIG) (PIG) (PHIU) (PHIU) (?A) (?A) (DLTG) (DLTG)
                 (?B) (?B) (PHIG) (PHIG) (DLTU) (DLTU) (PIU) (PIU)
                 (SGU) (SGG) (PIG) (PIG) (SGG) (SGU) (PIU) (PIU)
                 (DLTG) (DLTG) (PHIU) (PHIU) (PHIG) (PHIG) (PIG)
                 (PIG) (SGG) (DLTU) (DLTU) (PIU) (PIU) (SGU) (PIG)
                 (PIG) (SGG) (SGU) (DLTG) (DLTG) (PIU) (PIU) (DLTU)
                 (DLTU) (PIG) (PIG) (SGU) (SGG) (SGG) (SGU) (PIU)
                 (PIU) (PIG) (PIG) (SGG) (SGU) (SGG) (SGU)
 The electronic state is 1-SGG.
 Alpha  occ. eigenvalues -- ********************-189.33963-189.33963-177.78196
 Alpha  occ. eigenvalues -- -177.78196-177.78196-177.78196-177.78195-177.78195
 Alpha  occ. eigenvalues --  -40.17520 -40.17520 -35.22120 -35.22120 -35.22120
 Alpha  occ. eigenvalues --  -35.22120 -35.22118 -35.22118 -26.11841 -26.11841
 Alpha  occ. eigenvalues --  -26.11841 -26.11841 -26.11839 -26.11839 -26.11839
 Alpha  occ. eigenvalues --  -26.11839 -26.11838 -26.11838  -7.85587  -7.85587
 Alpha  occ. eigenvalues --   -6.00792  -6.00792  -6.00792  -6.00792  -6.00789
 Alpha  occ. eigenvalues --   -6.00789  -2.77749  -2.77749  -2.77749  -2.77749
 Alpha  occ. eigenvalues --   -2.77745  -2.77745  -2.77744  -2.77744  -2.77743
 Alpha  occ. eigenvalues --   -2.77743  -0.94574  -0.94290  -0.46863  -0.45879
 Alpha  occ. eigenvalues --   -0.45879  -0.45547  -0.45547  -0.44600
 Alpha virt. eigenvalues --    0.05496   0.06889   0.06889   0.08019   0.08775
 Alpha virt. eigenvalues --    0.08775   0.09151   0.14563   0.15741   0.15741
 Alpha virt. eigenvalues --    0.16007   0.16007   0.18554   0.18554   0.19642
 Alpha virt. eigenvalues --    0.23162   0.23162   0.23805   0.36411   0.36959
 Alpha virt. eigenvalues --    0.36959   0.39299   0.39793   0.39793   0.39909
 Alpha virt. eigenvalues --    0.39909   0.39962   0.39962   0.40975   0.40975
 Alpha virt. eigenvalues --    0.41520   0.41520   0.42347   0.42744   0.42744
 Alpha virt. eigenvalues --    0.43387   0.43711   0.43711   0.44546   0.44546
 Alpha virt. eigenvalues --    0.45622   0.45622   0.49005   0.49130   0.49130
 Alpha virt. eigenvalues --    0.57956   0.59060   0.59060   0.62500   0.72025
 Alpha virt. eigenvalues --    0.72025   0.72998   0.72998   0.74002   0.75753
 Alpha virt. eigenvalues --    0.75753   0.76264   0.76264   0.76668   0.76668
 Alpha virt. eigenvalues --    0.78783   0.79651   0.79651   0.85412   0.85412
 Alpha virt. eigenvalues --    0.87620   0.87620   0.88225   0.91245   0.91245
 Alpha virt. eigenvalues --    0.91504   0.91504   0.91874   0.91874   0.91932
 Alpha virt. eigenvalues --    0.91932   0.92909   0.92909   0.93164   0.93164
 Alpha virt. eigenvalues --    0.94709   0.96438   0.96438   0.97096   0.97658
 Alpha virt. eigenvalues --    0.97658   0.99575   0.99575   1.03158   1.07914
 Alpha virt. eigenvalues --    1.07950   1.07950   1.20068   1.20068   1.20996
 Alpha virt. eigenvalues --    1.23611   1.23611   1.25087   1.25087   1.25851
 Alpha virt. eigenvalues --    1.25851   1.27825   1.27825   1.28641   1.28641
 Alpha virt. eigenvalues --    1.29737   1.29737   1.29922   1.29922   1.31007
 Alpha virt. eigenvalues --    1.31007   1.35561   1.35561   1.38688   1.44807
 Alpha virt. eigenvalues --    1.44807   1.45827   1.53614   1.56891   1.56891
 Alpha virt. eigenvalues --    1.60236   1.60236   1.60237   1.60237   1.61082
 Alpha virt. eigenvalues --    1.61082   1.62559   1.62559   1.62748   1.62748
 Alpha virt. eigenvalues --    1.65318   1.65462   1.65462   1.66577   1.68907
 Alpha virt. eigenvalues --    1.68907   1.70032   1.70032   1.70602   1.70602
 Alpha virt. eigenvalues --    1.70693   1.70693   1.73101   1.73101   1.74000
 Alpha virt. eigenvalues --    1.80472   1.80472   1.81122   1.81122   1.81468
 Alpha virt. eigenvalues --    1.89125   1.89125   1.90414   1.90414   1.90958
 Alpha virt. eigenvalues --    1.90958   1.91419   1.91419   1.92111   1.94118
 Alpha virt. eigenvalues --    1.98286   2.01575   2.01575   2.09392   2.09392
 Alpha virt. eigenvalues --    2.10680   2.10680   2.12113   2.12113   2.14775
 Alpha virt. eigenvalues --    2.14775   2.15725   2.15725   2.15866   2.15866
 Alpha virt. eigenvalues --    2.15881   2.15881   2.16012   2.16012   2.16984
 Alpha virt. eigenvalues --    2.16984   2.20695   2.20695   2.24027   2.25199
 Alpha virt. eigenvalues --    2.29397   2.29397   2.42020   2.42020   2.47234
 Alpha virt. eigenvalues --    2.65129   2.65129   2.66912   2.66912   2.67038
 Alpha virt. eigenvalues --    2.67038   2.67764   2.67764   2.67930   2.67930
 Alpha virt. eigenvalues --    2.68878   2.68878   2.72300   2.72300   2.72942
 Alpha virt. eigenvalues --    2.72942   2.73778   2.81995   2.82844   2.82844
 Alpha virt. eigenvalues --    2.83693   2.83693   2.84402   2.84402   2.88755
 Alpha virt. eigenvalues --    2.89457   2.89457   2.89491   2.89491   2.90395
 Alpha virt. eigenvalues --    2.90395   2.93395   2.93395   2.94935   2.94935
 Alpha virt. eigenvalues --    2.98169   2.98169   3.03029   3.03029   3.06074
 Alpha virt. eigenvalues --    3.06540   3.14990   3.14990   3.15759   3.15759
 Alpha virt. eigenvalues --    3.16261   3.16261   3.16507   3.16507   3.17495
 Alpha virt. eigenvalues --    3.18168   3.18168   3.24786   3.24786   3.26390
 Alpha virt. eigenvalues --    3.26390   3.27333   3.41869   3.41869   3.50970
 Alpha virt. eigenvalues --    3.69806   3.69806   3.71468   3.71468   3.71479
 Alpha virt. eigenvalues --    3.71479   3.77166   3.77166   3.78554   3.86759
 Alpha virt. eigenvalues --    4.47627   4.47627   4.48931   4.48931   4.49375
 Alpha virt. eigenvalues --    4.49375   4.50863   4.50863   4.51568   4.51568
 Alpha virt. eigenvalues --    4.51670   4.51670   4.51681   4.51681   4.51783
 Alpha virt. eigenvalues --    4.51783   4.52494   4.52494   4.53385   4.54923
 Alpha virt. eigenvalues --    4.54923   4.59493   4.59493   4.59625   4.62985
 Alpha virt. eigenvalues --    4.64641   4.64641   4.74887   4.74887   4.76053
 Alpha virt. eigenvalues --    4.76053   4.76726   4.76726   4.76866   4.76866
 Alpha virt. eigenvalues --    4.77048   4.77048   4.77663   4.77663   4.81205
 Alpha virt. eigenvalues --    4.81205   4.81450   4.85479   4.85479   4.90916
 Alpha virt. eigenvalues --    4.90916   4.95749   5.09112   5.09112   5.17331
 Alpha virt. eigenvalues --    5.67964   5.67964   5.68658   5.68658   5.69070
 Alpha virt. eigenvalues --    5.69070   5.69126   5.69126   5.70562   5.70562
 Alpha virt. eigenvalues --    5.72476   5.74322   5.74322   5.74497   5.74541
 Alpha virt. eigenvalues --    5.74541   5.77060   5.77060   5.82156   5.82156
 Alpha virt. eigenvalues --    5.88939   5.88939   5.94963   6.03830   6.03830
 Alpha virt. eigenvalues --    6.03954   6.03954   6.04777   6.04777   6.07893
 Alpha virt. eigenvalues --    6.07893   6.09140   6.09140   6.10570   6.16946
 Alpha virt. eigenvalues --    6.16946   6.27091   6.37314   6.69000   6.69000
 Alpha virt. eigenvalues --    6.69000   6.69000   6.69002   6.69002   6.69002
 Alpha virt. eigenvalues --    6.69002   6.69003   6.69003   6.69003   6.69003
 Alpha virt. eigenvalues --    6.69004   6.69004   6.69004   6.69004   6.69005
 Alpha virt. eigenvalues --    6.69005   6.69006   6.69006   6.69013   6.69013
 Alpha virt. eigenvalues --    6.69024   6.69027   6.69027   6.69059   6.69059
 Alpha virt. eigenvalues --    6.69589   6.69589   6.69660   7.17398   7.17398
 Alpha virt. eigenvalues --    7.18740   7.18740   7.18925   7.18925   7.23415
 Alpha virt. eigenvalues --    7.23415   7.26278   7.27040   7.85823   7.85823
 Alpha virt. eigenvalues --    7.86931   7.86931   7.87503   7.87503   7.87618
 Alpha virt. eigenvalues --    7.87618   7.87796   7.87796   7.88241   7.88241
 Alpha virt. eigenvalues --    7.90554   7.90554   7.94575   7.94617   7.94617
 Alpha virt. eigenvalues --    7.94734   7.94734   7.99564   7.99564   8.00011
 Alpha virt. eigenvalues --    8.34822   8.34822   8.35787   8.35787   8.36836
 Alpha virt. eigenvalues --    8.36836   8.36945   8.36945   8.37399   8.37399
 Alpha virt. eigenvalues --    8.37464   8.37464   8.37472   8.37472   8.37544
 Alpha virt. eigenvalues --    8.37544   8.38058   8.38058   8.40232   8.40232
 Alpha virt. eigenvalues --    8.44916   8.46629   8.46629   8.49844   8.58852
 Alpha virt. eigenvalues --    8.58852   9.71797   9.71797   9.72389   9.72389
 Alpha virt. eigenvalues --    9.72703   9.72703   9.72728   9.72728   9.73964
 Alpha virt. eigenvalues --    9.73964   9.77441   9.77441   9.77623   9.77623
 Alpha virt. eigenvalues --    9.78196   9.82723   9.83105   9.83105  10.24765
 Alpha virt. eigenvalues --   10.67902  11.49961  11.49961  11.50500  11.50500
 Alpha virt. eigenvalues --   11.50628  11.50628  11.51322  11.51322  11.51388
 Alpha virt. eigenvalues --   11.51388  11.51984  11.53686  11.53686  11.54249
 Alpha virt. eigenvalues --   11.54249  11.59924  11.62427  11.62427  11.81240
 Alpha virt. eigenvalues --   11.90215  14.84536  14.84536  14.85803  14.85803
 Alpha virt. eigenvalues --   14.85971  14.85971  14.90334  14.90334  14.92178
 Alpha virt. eigenvalues --   14.93741  23.45039  23.80674  23.81309  23.81309
 Alpha virt. eigenvalues --   23.85659  23.85659  23.96791  24.24477 671.50314
 Alpha virt. eigenvalues --  684.22782
          Condensed to atoms (all electrons):
              1          2
     1  Xe  54.005160  -0.005160
     2  Xe  -0.005160  54.005160
          Atomic-Atomic Spin Densities.
              1          2
     1  Xe   0.000000   0.000000
     2  Xe   0.000000   0.000000
 Mulliken charges and spin densities:
              1          2
     1  Xe   0.000000   0.000000
     2  Xe   0.000000   0.000000
 Sum of Mulliken charges =   0.00000 spin densities =   0.000000
 Mulliken charges and spin densities with hydrogens summed into heavy atoms:
              1          2
     1  Xe   0.000000   0.000000
     2  Xe   0.000000   0.000000
 Sum of Mulliken charges with hydrogens summed into heavy atoms =   0.00000 spin densities =   0.000000
 Electronic spatial extent (au):  <R**2>=           1960.5629
 Charge=              0.0000 electrons
 Dipole moment (field-independent basis, Debye):
    X=              0.0000    Y=              0.0000    Z=              0.0000  Tot=              0.0000
 Quadrupole moment (field-independent basis, Debye-Ang):
   XX=            -56.1674   YY=            -56.1674   ZZ=            -56.3461
   XY=              0.0000   XZ=              0.0000   YZ=              0.0000
 Traceless Quadrupole moment (field-independent basis, Debye-Ang):
   XX=              0.0596   YY=              0.0596   ZZ=             -0.1191
   XY=              0.0000   XZ=              0.0000   YZ=              0.0000
 Octapole moment (field-independent basis, Debye-Ang**2):
  XXX=              0.0000  YYY=              0.0000  ZZZ=              0.0000  XYY=              0.0000
  XXY=              0.0000  XXZ=              0.0000  XZZ=              0.0000  YZZ=              0.0000
  YYZ=              0.0000  XYZ=              0.0000
 Hexadecapole moment (field-independent basis, Debye-Ang**3):
 XXXX=            -70.9335 YYYY=            -70.9335 ZZZZ=          -1676.8984 XXXY=              0.0000
 XXXZ=              0.0000 YYYX=              0.0000 YYYZ=              0.0000 ZZZX=              0.0000
 ZZZY=              0.0000 XXYY=            -23.6445 XXZZ=           -291.0635 YYZZ=           -291.0635
 XXYZ=              0.0000 YYXZ=              0.0000 ZZXY=              0.0000
 N-N= 3.536985674579D+02 E-N=-5.255677738718D+04  KE= 2.169643271466D+04
                          Isotropic Fermi Contact Couplings
        Atom                 a.u.       MegaHertz       Gauss      10(-4) cm-1
     1  Xe(129             0.00000       0.00000       0.00000       0.00000
     2  Xe(129             0.00000       0.00000       0.00000       0.00000
 --------------------------------------------------------
       Center         ----  Spin Dipole Couplings  ----
                      3XX-RR        3YY-RR        3ZZ-RR
 --------------------------------------------------------
     1   Atom        0.000000      0.000000      0.000000
     2   Atom        0.000000      0.000000      0.000000
 --------------------------------------------------------
                        XY            XZ            YZ
 --------------------------------------------------------
     1   Atom        0.000000      0.000000      0.000000
     2   Atom        0.000000      0.000000      0.000000
 --------------------------------------------------------


 ---------------------------------------------------------------------------------
              Anisotropic Spin Dipole Couplings in Principal Axis System
 ---------------------------------------------------------------------------------

       Atom             a.u.   MegaHertz   Gauss  10(-4) cm-1        Axes

              Baa     0.0000     0.000     0.000     0.000  1.0000  0.0000  0.0000
     1 Xe(129 Bbb     0.0000     0.000     0.000     0.000  0.0000  1.0000  0.0000
              Bcc     0.0000     0.000     0.000     0.000  0.0000  0.0000  1.0000
 
              Baa     0.0000     0.000     0.000     0.000  1.0000  0.0000  0.0000
     2 Xe(129 Bbb     0.0000     0.000     0.000     0.000  0.0000  1.0000  0.0000
              Bcc     0.0000     0.000     0.000     0.000  0.0000  0.0000  1.0000
 

 ---------------------------------------------------------------------------------


 Test job not archived.
 1\1\GINC-C31\SP\ROMP2-RW\Gen\Xe2\GPETERSSON\16-Jun-2013\0\\# ROMP2(RW)
  Gen GFinput Int=NoBasisTransform Int(Grid=Ultrafine) IOp(3/32=2,5/6=1
 0,8/11=1,9/33=1) Maxdisk=128GB CBSextrapolate(Nmin=25,MinPop)\\Xe2\\0,
 1\Xe\Xe,1,4.3627\\Version=EM64L-GDVRevH.12\State=1-SGG\HF=-14464.27564
 15\MP2=-14464.650303\E2(CBS)=-0.3872858\CBS-Int=-0.3808304\OIii=2.9415
 626\RMSD=8.922e-12\PG=D*H [C*(Xe1.Xe1)]\\@


 Experience is what you get when you don't get what you want.
 -- Dan Stanford
 Job cpu time:  4 days 23 hours 55 minutes 34.2 seconds.
 File lengths (MBytes):  RWF=  14983 Int=      0 D2E=      0 Chk=     24 Scr=      1
 Normal termination of Gaussian DV at Sun Jun 16 08:25:07 2013.
