 Entering Gaussian System, Link 0=gdv
 AtFile(1): 6ZaPa-NR.gbs
 Initial command:
 /share/apps/gaussian/gdvh12/gdv/l1.exe /localscratch/940920/Gau-1774.inp -scrdir=/localscratch/940920/
 Entering Link 1 = /share/apps/gaussian/gdvh12/gdv/l1.exe PID=      1775.
  
 Copyright (c) 1988,1990,1992,1993,1995,1998,2003,2009,2011,
            Gaussian, Inc.  All Rights Reserved.
  
 This is the private, development version of
 the Gaussian(R) DV system of programs. It is based on
 the Gaussian(R) 09 system (copyright 2009, Gaussian, Inc.),
 the Gaussian(R) 03 system (copyright 2003, Gaussian, Inc.),
 the Gaussian(R) 98 system (copyright 1998, Gaussian, Inc.),
 the Gaussian(R) 94 system (copyright 1995, Gaussian, Inc.),
 the Gaussian 92(TM) system (copyright 1992, Gaussian, Inc.),
 the Gaussian 90(TM) system (copyright 1990, Gaussian, Inc.),
 the Gaussian 88(TM) system (copyright 1988, Gaussian, Inc.),
 the Gaussian 86(TM) system (copyright 1986, Carnegie Mellon
 University), and the Gaussian 82(TM) system (copyright 1983,
 Carnegie Mellon University). Gaussian is a federally registered
 trademark of Gaussian, Inc.
  
 This software contains proprietary and confidential information,
 including trade secrets, belonging to Gaussian, Inc.
  
 This software is provided under written license and may be
 used, copied, transmitted, or stored only in accord with that
 written license.
  
 The following legend is applicable only to US Government
 contracts under FAR:
  
                    RESTRICTED RIGHTS LEGEND
  
 Use, reproduction and disclosure by the US Government is
 subject to restrictions as set forth in subparagraphs (a)
 and (c) of the Commercial Computer Software - Restricted
 Rights clause in FAR 52.227-19.
  
 Gaussian, Inc.
 340 Quinnipiac St., Bldg. 40, Wallingford CT 06492
  
  
 ---------------------------------------------------------------
 Warning -- This program may not be used in any manner that
 competes with the business of Gaussian, Inc. or will provide
 assistance to any competitor of Gaussian, Inc.  The licensee
 of this program is prohibited from giving any competitor of
 Gaussian, Inc. access to this program.  By using this program,
 the user acknowledges that Gaussian, Inc. is engaged in the
 business of creating and licensing software in the field of
 computational chemistry and represents and warrants to the
 licensee that it is not a competitor of Gaussian, Inc. and that
 it will not use this program in any manner prohibited above.
 ---------------------------------------------------------------
  

 Cite this work as:
 Gaussian Development Version, Revision H.12,
 M. J. Frisch, G. W. Trucks, H. B. Schlegel, G. E. Scuseria, 
 M. A. Robb, J. R. Cheeseman, G. Scalmani, V. Barone, B. Mennucci, 
 G. A. Petersson, H. Nakatsuji, M. Caricato, X. Li, H. P. Hratchian, 
 A. F. Izmaylov, J. Bloino, G. Zheng, J. L. Sonnenberg, M. Hada, 
 M. Ehara, K. Toyota, R. Fukuda, J. Hasegawa, M. Ishida, T. Nakajima, 
 Y. Honda, O. Kitao, H. Nakai, T. Vreven, J. A. Montgomery, Jr., 
 J. E. Peralta, F. Ogliaro, M. Bearpark, J. J. Heyd, E. Brothers, 
 K. N. Kudin, V. N. Staroverov, T. Keith, R. Kobayashi, J. Normand, 
 K. Raghavachari, A. Rendell, J. C. Burant, S. S. Iyengar, J. Tomasi, 
 M. Cossi, N. Rega, J. M. Millam, M. Klene, J. E. Knox, J. B. Cross, 
 V. Bakken, C. Adamo, J. Jaramillo, R. Gomperts, R. E. Stratmann, 
 O. Yazyev, A. J. Austin, R. Cammi, C. Pomelli, J. W. Ochterski, 
 R. L. Martin, K. Morokuma, V. G. Zakrzewski, G. A. Voth, 
 P. Salvador, J. J. Dannenberg, S. Dapprich, P. V. Parandekar, 
 N. J. Mayhall, A. D. Daniels, O. Farkas, J. B. Foresman, 
 J. V. Ortiz, J. Cioslowski, and D. J. Fox, 
 Gaussian, Inc., Wallingford CT, 2010.
 
 ******************************************
 Gaussian DV:  EM64L-GDVRevH.12  9-Jun-2011
                15-Jun-2013 
 ******************************************
 % Mem=12GB
 % Nproc=8
 Will use up to    8 processors via shared memory.
 ----------------------------------------------------------------------
 # ROMP2(RW) Gen GFinput Int=NoBasisTransform Int(Grid=Ultrafine) IOp(3
 /32=2,5/6=10,8/11=1,9/33=1) Maxdisk=128GB CBSextrapolate(Nmin=20,MinPo
 p)
 ----------------------------------------------------------------------
 1/38=1/1;
 2/12=2,17=6,18=5,40=1/2;
 3/5=7,11=2,16=1,24=10,25=1,30=1,32=2,60=-1,75=-5,116=101/1,2,3;
 4//1;
 5/5=2,6=10,38=5/2;
 8/5=-1,10=91,11=1/1;
 9/16=-3,33=1,75=2,81=20,83=4/6,4;
 6/7=2,8=2,9=2,10=2/1;
 99/5=1,9=1/99;
 ---
 Xe2
 ---
 Charge =  0 Multiplicity = 1
 Symbolic Z-Matrix:
 Xe
 Xe                   1     4.3627 
 
                          Input orientation:                          
 ---------------------------------------------------------------------
 Center     Atomic      Atomic             Coordinates (Angstroms)
 Number     Number       Type             X           Y           Z
 ---------------------------------------------------------------------
      1         54           0        0.000000    0.000000    0.000000
      2         54           0        0.000000    0.000000    4.362700
 ---------------------------------------------------------------------
 Stoichiometry    Xe2
 Framework group  D*H[C*(Xe.Xe)]
 Deg. of freedom     1
 Full point group                 D*H     NOp   8
 Largest Abelian subgroup         D2H     NOp   8
 Largest concise Abelian subgroup C2      NOp   2
                         Standard orientation:                         
 ---------------------------------------------------------------------
 Center     Atomic      Atomic             Coordinates (Angstroms)
 Number     Number       Type             X           Y           Z
 ---------------------------------------------------------------------
      1         54           0        0.000000    0.000000    2.181350
      2         54           0        0.000000    0.000000   -2.181350
 ---------------------------------------------------------------------
 Rotational constants (GHZ):      0.0000000      0.4026038      0.4026038
 General basis read from cards:  (5D, 7F)
 AO basis set in the form of general basis input (Overlap normalization):
      1 0
 S  20 1.00       0.000000000000
      0.1215518849D+09  0.7453850446D-06
      0.2212682327D+08  0.4830623457D-05
      0.5010348203D+07  0.2755101649D-04
      0.1356845786D+07  0.1242319140D-03
      0.4248534175D+06  0.4741131580D-03
      0.1494663829D+06  0.1579041838D-02
      0.5767907468D+05  0.4727213381D-02
      0.2393702582D+05  0.1295555426D-01
      0.1051345959D+05  0.3277838574D-01
      0.4825453096D+04  0.7590876062D-01
      0.2291898484D+04  0.1558931826D+00
      0.1118219691D+04  0.2639893569D+00
      0.5574580960D+03  0.3187234898D+00
      0.2828825150D+03  0.2100023470D+00
      0.1457297480D+03  0.5265304723D-01
      0.7606228900D+02  0.1710926491D-01
      0.4015126800D+02  0.1424706989D-01
      0.2139309600D+02  0.4155159070D-02
      0.1147471500D+02  0.5995224012D-03
      0.6172689000D+01  0.3964923589D-03
 S  14 1.00       0.000000000000
      0.5767907468D+05 -0.7730656211D-05
      0.2393702582D+05 -0.5160928777D-04
      0.1051345959D+05 -0.3223992394D-03
      0.4825453096D+04 -0.1683701952D-02
      0.2291898484D+04 -0.7508480438D-02
      0.1118219691D+04 -0.2769336574D-01
      0.5574580960D+03 -0.7334187937D-01
      0.2828825150D+03 -0.9432839882D-01
      0.1457297480D+03  0.9220880273D-01
      0.7606228900D+02  0.4641831559D+00
      0.4015126800D+02  0.4510125280D+00
      0.2139309600D+02  0.1248018094D+00
      0.1147471500D+02  0.9505296752D-02
      0.6172689000D+01  0.1194707684D-02
 P  15 1.00       0.000000000000
      0.1873564335D+06  0.9007563945D-05
      0.4922313622D+05  0.7272139555D-04
      0.1569529095D+05  0.4639290386D-03
      0.5825430473D+04  0.2240051489D-02
      0.2430500566D+04  0.8751745220D-02
      0.1107681353D+04  0.2830932538D-01
      0.5387907760D+03  0.7689109926D-01
      0.2746245550D+03  0.1696949826D+00
      0.1446084530D+03  0.2874877626D+00
      0.7782126700D+02  0.3293900192D+00
      0.4245833500D+02  0.2074330559D+00
      0.2334492500D+02  0.6004001418D-01
      0.1287618800D+02  0.1253535953D-01
      0.7096496000D+01  0.4967783542D-02
      0.3892743000D+01  0.7548758846D-03
 S  12 1.00       0.000000000000
      0.1118219691D+04  0.2238824037D-03
      0.5574580960D+03  0.1595723208D-02
      0.2828825150D+03  0.5225080012D-02
      0.1457297480D+03 -0.6179492019D-02
      0.7606228900D+02 -0.1209865384D+00
      0.4015126800D+02 -0.2609080479D+00
      0.2139309600D+02  0.8232520962D-01
      0.1147471500D+02  0.7056364706D+00
      0.6172689000D+01  0.4273321771D+00
      0.3312607000D+01  0.3751413820D-01
      0.1760608000D+01 -0.1241992828D-01
      0.9177640000D+00 -0.5968167021D-02
 P  13 1.00       0.000000000000
      0.2430500566D+04 -0.3860001378D-04
      0.1107681353D+04 -0.2877255997D-03
      0.5387907760D+03 -0.1812324874D-02
      0.2746245550D+03 -0.7341756396D-02
      0.1446084530D+03 -0.2115543226D-01
      0.7782126700D+02 -0.2866206919D-01
      0.4245833500D+02  0.5218530830D-01
      0.2334492500D+02  0.2822259274D+00
      0.1287618800D+02  0.4562099854D+00
      0.7096496000D+01  0.2625167685D+00
      0.3892743000D+01  0.4741845057D-01
      0.2115500000D+01  0.2820693214D-02
      0.1132151000D+01 -0.3183473906D-03
 D  14 1.00       0.000000000000
      0.7929898915D+04  0.2238671242D-04
      0.2461438700D+04  0.2310794644D-03
      0.9463206040D+03  0.1534594003D-02
      0.4216510750D+03  0.7164606128D-02
      0.2072375210D+03  0.2532174187D-01
      0.1084701460D+03  0.6999265170D-01
      0.5904618200D+02  0.1546860053D+00
      0.3293122500D+02  0.2574335376D+00
      0.1864788800D+02  0.3184446160D+00
      0.1065859200D+02  0.2565471796D+00
      0.6115436000D+01  0.1116227462D+00
      0.3494482000D+01  0.2388191450D-01
      0.1962874000D+01  0.1864612698D-02
      0.1061289000D+01  0.3851970243D-03
 S  11 1.00       0.000000000000
      0.1457297480D+03 -0.2962332785D-03
      0.7606228900D+02  0.6628930292D-02
      0.4015126800D+02  0.1587370382D-01
      0.2139309600D+02  0.1363594489D-01
      0.1147471500D+02 -0.2662721336D+00
      0.6172689000D+01 -0.3219937226D+00
      0.3312607000D+01  0.4267358949D+00
      0.1760608000D+01  0.7297202457D+00
      0.9177640000D+00  0.2181566008D+00
      0.4633420000D+00  0.5017204256D-02
      0.2229780000D+00  0.3335637596D-02
 P  12 1.00       0.000000000000
      0.1446084530D+03 -0.1046794893D-03
      0.7782126700D+02 -0.4623292830D-03
      0.4245833500D+02  0.4678346465D-02
      0.2334492500D+02  0.2128904165D-01
      0.1287618800D+02  0.8276385847D-01
      0.7096496000D+01 -0.1075173531D-01
      0.3892743000D+01 -0.3443835558D+00
      0.2115500000D+01 -0.4912588132D+00
      0.1132151000D+01 -0.2366002435D+00
      0.5918550000D+00 -0.2899951308D-01
      0.2989730000D+00 -0.2571752491D-02
      0.1438600000D+00  0.7035662958D-03
 D  14 1.00       0.000000000000
      0.9463206040D+03  0.3014972377D-05
      0.4216510750D+03  0.2062995491D-04
      0.2072375210D+03  0.1675306919D-03
      0.1084701460D+03  0.7295811915D-03
      0.5904618200D+02  0.2792265941D-02
      0.3293122500D+02  0.3236791670D-02
      0.1864788800D+02 -0.1726332465D-02
      0.1065859200D+02 -0.4237398939D-01
      0.6115436000D+01 -0.1664768545D+00
      0.3494482000D+01 -0.3056481674D+00
      0.1962874000D+01 -0.3521896795D+00
      0.1061289000D+01 -0.2328472793D+00
      0.5350950000D+00 -0.6934189999D-01
      0.2404630000D+00 -0.7025497967D-02
 S  10 1.00       0.000000000000
      0.4015126800D+02  0.1142510627D-02
      0.2139309600D+02  0.5005863084D-03
      0.1147471500D+02 -0.2075838165D-01
      0.6172689000D+01 -0.4381962361D-01
      0.3312607000D+01  0.4750213692D-01
      0.1760608000D+01 -0.1053038026D+00
      0.9177640000D+00 -0.1393403902D+00
      0.4633420000D+00  0.3963983750D+00
      0.2229780000D+00  0.6024738627D+00
      0.1002920000D+00  0.2018953809D+00
 S   1 1.00       0.000000000000
      0.4510976500D-01  0.1000000000D+01
 P  10 1.00       0.000000000000
      0.2334492500D+02 -0.2553762607D-03
      0.1287618800D+02  0.1235758792D-02
      0.7096496000D+01 -0.5562132836D-02
      0.3892743000D+01 -0.1038574691D-01
      0.2115500000D+01 -0.4639355446D-01
      0.1132151000D+01 -0.2487543479D-01
      0.5918550000D+00  0.2310124433D+00
      0.2989730000D+00  0.4338514998D+00
      0.1438600000D+00  0.3726470275D+00
      0.6473200000D-01  0.1061195268D+00
 P   1 1.00       0.000000000000
      0.2912715000D-01  0.1000000000D+01
 S   1 1.00       0.000000000000
      0.2897409000D+01  0.1000000000D+01
 S   1 1.00       0.000000000000
      0.1706278000D+01  0.1000000000D+01
 S   1 1.00       0.000000000000
      0.1004823000D+01  0.1000000000D+01
 S   1 1.00       0.000000000000
      0.5917380000D+00  0.1000000000D+01
 S   1 1.00       0.000000000000
      0.3484730000D+00  0.1000000000D+01
 P   1 1.00       0.000000000000
      0.2066347000D+01  0.1000000000D+01
 P   1 1.00       0.000000000000
      0.1230000000D+01  0.1000000000D+01
 P   1 1.00       0.000000000000
      0.7321610000D+00  0.1000000000D+01
 P   1 1.00       0.000000000000
      0.4358210000D+00  0.1000000000D+01
 P   1 1.00       0.000000000000
      0.2594240000D+00  0.1000000000D+01
 D   1 1.00       0.000000000000
      0.1494460000D+01  0.1000000000D+01
 D   1 1.00       0.000000000000
      0.8316440000D+00  0.1000000000D+01
 D   1 1.00       0.000000000000
      0.4627970000D+00  0.1000000000D+01
 D   1 1.00       0.000000000000
      0.2575390000D+00  0.1000000000D+01
 D   1 1.00       0.000000000000
      0.1433170000D+00  0.1000000000D+01
 D   1 1.00       0.000000000000
      0.7975400000D-01  0.1000000000D+01
 F   1 1.00       0.000000000000
      0.1800207000D+01  0.1000000000D+01
 F   1 1.00       0.000000000000
      0.9353460000D+00  0.1000000000D+01
 F   1 1.00       0.000000000000
      0.4859840000D+00  0.1000000000D+01
 F   1 1.00       0.000000000000
      0.2525060000D+00  0.1000000000D+01
 F   1 1.00       0.000000000000
      0.1311960000D+00  0.1000000000D+01
 G   1 1.00       0.000000000000
      0.7918370000D+00  0.1000000000D+01
 G   1 1.00       0.000000000000
      0.5061450000D+00  0.1000000000D+01
 G   1 1.00       0.000000000000
      0.3235290000D+00  0.1000000000D+01
 G   1 1.00       0.000000000000
      0.2068010000D+00  0.1000000000D+01
 H   1 1.00       0.000000000000
      0.8416860000D+00  0.1000000000D+01
 H   1 1.00       0.000000000000
      0.4693980000D+00  0.1000000000D+01
 H   1 1.00       0.000000000000
      0.2617780000D+00  0.1000000000D+01
 I   1 1.00       0.000000000000
      0.7411541800D+00  0.1000000000D+01
 ****
      2 0
 S  20 1.00       0.000000000000
      0.1215518849D+09  0.7453850446D-06
      0.2212682327D+08  0.4830623457D-05
      0.5010348203D+07  0.2755101649D-04
      0.1356845786D+07  0.1242319140D-03
      0.4248534175D+06  0.4741131580D-03
      0.1494663829D+06  0.1579041838D-02
      0.5767907468D+05  0.4727213381D-02
      0.2393702582D+05  0.1295555426D-01
      0.1051345959D+05  0.3277838574D-01
      0.4825453096D+04  0.7590876062D-01
      0.2291898484D+04  0.1558931826D+00
      0.1118219691D+04  0.2639893569D+00
      0.5574580960D+03  0.3187234898D+00
      0.2828825150D+03  0.2100023470D+00
      0.1457297480D+03  0.5265304723D-01
      0.7606228900D+02  0.1710926491D-01
      0.4015126800D+02  0.1424706989D-01
      0.2139309600D+02  0.4155159070D-02
      0.1147471500D+02  0.5995224012D-03
      0.6172689000D+01  0.3964923589D-03
 S  14 1.00       0.000000000000
      0.5767907468D+05 -0.7730656211D-05
      0.2393702582D+05 -0.5160928777D-04
      0.1051345959D+05 -0.3223992394D-03
      0.4825453096D+04 -0.1683701952D-02
      0.2291898484D+04 -0.7508480438D-02
      0.1118219691D+04 -0.2769336574D-01
      0.5574580960D+03 -0.7334187937D-01
      0.2828825150D+03 -0.9432839882D-01
      0.1457297480D+03  0.9220880273D-01
      0.7606228900D+02  0.4641831559D+00
      0.4015126800D+02  0.4510125280D+00
      0.2139309600D+02  0.1248018094D+00
      0.1147471500D+02  0.9505296752D-02
      0.6172689000D+01  0.1194707684D-02
 P  15 1.00       0.000000000000
      0.1873564335D+06  0.9007563945D-05
      0.4922313622D+05  0.7272139555D-04
      0.1569529095D+05  0.4639290386D-03
      0.5825430473D+04  0.2240051489D-02
      0.2430500566D+04  0.8751745220D-02
      0.1107681353D+04  0.2830932538D-01
      0.5387907760D+03  0.7689109926D-01
      0.2746245550D+03  0.1696949826D+00
      0.1446084530D+03  0.2874877626D+00
      0.7782126700D+02  0.3293900192D+00
      0.4245833500D+02  0.2074330559D+00
      0.2334492500D+02  0.6004001418D-01
      0.1287618800D+02  0.1253535953D-01
      0.7096496000D+01  0.4967783542D-02
      0.3892743000D+01  0.7548758846D-03
 S  12 1.00       0.000000000000
      0.1118219691D+04  0.2238824037D-03
      0.5574580960D+03  0.1595723208D-02
      0.2828825150D+03  0.5225080012D-02
      0.1457297480D+03 -0.6179492019D-02
      0.7606228900D+02 -0.1209865384D+00
      0.4015126800D+02 -0.2609080479D+00
      0.2139309600D+02  0.8232520962D-01
      0.1147471500D+02  0.7056364706D+00
      0.6172689000D+01  0.4273321771D+00
      0.3312607000D+01  0.3751413820D-01
      0.1760608000D+01 -0.1241992828D-01
      0.9177640000D+00 -0.5968167021D-02
 P  13 1.00       0.000000000000
      0.2430500566D+04 -0.3860001378D-04
      0.1107681353D+04 -0.2877255997D-03
      0.5387907760D+03 -0.1812324874D-02
      0.2746245550D+03 -0.7341756396D-02
      0.1446084530D+03 -0.2115543226D-01
      0.7782126700D+02 -0.2866206919D-01
      0.4245833500D+02  0.5218530830D-01
      0.2334492500D+02  0.2822259274D+00
      0.1287618800D+02  0.4562099854D+00
      0.7096496000D+01  0.2625167685D+00
      0.3892743000D+01  0.4741845057D-01
      0.2115500000D+01  0.2820693214D-02
      0.1132151000D+01 -0.3183473906D-03
 D  14 1.00       0.000000000000
      0.7929898915D+04  0.2238671242D-04
      0.2461438700D+04  0.2310794644D-03
      0.9463206040D+03  0.1534594003D-02
      0.4216510750D+03  0.7164606128D-02
      0.2072375210D+03  0.2532174187D-01
      0.1084701460D+03  0.6999265170D-01
      0.5904618200D+02  0.1546860053D+00
      0.3293122500D+02  0.2574335376D+00
      0.1864788800D+02  0.3184446160D+00
      0.1065859200D+02  0.2565471796D+00
      0.6115436000D+01  0.1116227462D+00
      0.3494482000D+01  0.2388191450D-01
      0.1962874000D+01  0.1864612698D-02
      0.1061289000D+01  0.3851970243D-03
 S  11 1.00       0.000000000000
      0.1457297480D+03 -0.2962332785D-03
      0.7606228900D+02  0.6628930292D-02
      0.4015126800D+02  0.1587370382D-01
      0.2139309600D+02  0.1363594489D-01
      0.1147471500D+02 -0.2662721336D+00
      0.6172689000D+01 -0.3219937226D+00
      0.3312607000D+01  0.4267358949D+00
      0.1760608000D+01  0.7297202457D+00
      0.9177640000D+00  0.2181566008D+00
      0.4633420000D+00  0.5017204256D-02
      0.2229780000D+00  0.3335637596D-02
 P  12 1.00       0.000000000000
      0.1446084530D+03 -0.1046794893D-03
      0.7782126700D+02 -0.4623292830D-03
      0.4245833500D+02  0.4678346465D-02
      0.2334492500D+02  0.2128904165D-01
      0.1287618800D+02  0.8276385847D-01
      0.7096496000D+01 -0.1075173531D-01
      0.3892743000D+01 -0.3443835558D+00
      0.2115500000D+01 -0.4912588132D+00
      0.1132151000D+01 -0.2366002435D+00
      0.5918550000D+00 -0.2899951308D-01
      0.2989730000D+00 -0.2571752491D-02
      0.1438600000D+00  0.7035662958D-03
 D  14 1.00       0.000000000000
      0.9463206040D+03  0.3014972377D-05
      0.4216510750D+03  0.2062995491D-04
      0.2072375210D+03  0.1675306919D-03
      0.1084701460D+03  0.7295811915D-03
      0.5904618200D+02  0.2792265941D-02
      0.3293122500D+02  0.3236791670D-02
      0.1864788800D+02 -0.1726332465D-02
      0.1065859200D+02 -0.4237398939D-01
      0.6115436000D+01 -0.1664768545D+00
      0.3494482000D+01 -0.3056481674D+00
      0.1962874000D+01 -0.3521896795D+00
      0.1061289000D+01 -0.2328472793D+00
      0.5350950000D+00 -0.6934189999D-01
      0.2404630000D+00 -0.7025497967D-02
 S  10 1.00       0.000000000000
      0.4015126800D+02  0.1142510627D-02
      0.2139309600D+02  0.5005863084D-03
      0.1147471500D+02 -0.2075838165D-01
      0.6172689000D+01 -0.4381962361D-01
      0.3312607000D+01  0.4750213692D-01
      0.1760608000D+01 -0.1053038026D+00
      0.9177640000D+00 -0.1393403902D+00
      0.4633420000D+00  0.3963983750D+00
      0.2229780000D+00  0.6024738627D+00
      0.1002920000D+00  0.2018953809D+00
 S   1 1.00       0.000000000000
      0.4510976500D-01  0.1000000000D+01
 P  10 1.00       0.000000000000
      0.2334492500D+02 -0.2553762607D-03
      0.1287618800D+02  0.1235758792D-02
      0.7096496000D+01 -0.5562132836D-02
      0.3892743000D+01 -0.1038574691D-01
      0.2115500000D+01 -0.4639355446D-01
      0.1132151000D+01 -0.2487543479D-01
      0.5918550000D+00  0.2310124433D+00
      0.2989730000D+00  0.4338514998D+00
      0.1438600000D+00  0.3726470275D+00
      0.6473200000D-01  0.1061195268D+00
 P   1 1.00       0.000000000000
      0.2912715000D-01  0.1000000000D+01
 S   1 1.00       0.000000000000
      0.2897409000D+01  0.1000000000D+01
 S   1 1.00       0.000000000000
      0.1706278000D+01  0.1000000000D+01
 S   1 1.00       0.000000000000
      0.1004823000D+01  0.1000000000D+01
 S   1 1.00       0.000000000000
      0.5917380000D+00  0.1000000000D+01
 S   1 1.00       0.000000000000
      0.3484730000D+00  0.1000000000D+01
 P   1 1.00       0.000000000000
      0.2066347000D+01  0.1000000000D+01
 P   1 1.00       0.000000000000
      0.1230000000D+01  0.1000000000D+01
 P   1 1.00       0.000000000000
      0.7321610000D+00  0.1000000000D+01
 P   1 1.00       0.000000000000
      0.4358210000D+00  0.1000000000D+01
 P   1 1.00       0.000000000000
      0.2594240000D+00  0.1000000000D+01
 D   1 1.00       0.000000000000
      0.1494460000D+01  0.1000000000D+01
 D   1 1.00       0.000000000000
      0.8316440000D+00  0.1000000000D+01
 D   1 1.00       0.000000000000
      0.4627970000D+00  0.1000000000D+01
 D   1 1.00       0.000000000000
      0.2575390000D+00  0.1000000000D+01
 D   1 1.00       0.000000000000
      0.1433170000D+00  0.1000000000D+01
 D   1 1.00       0.000000000000
      0.7975400000D-01  0.1000000000D+01
 F   1 1.00       0.000000000000
      0.1800207000D+01  0.1000000000D+01
 F   1 1.00       0.000000000000
      0.9353460000D+00  0.1000000000D+01
 F   1 1.00       0.000000000000
      0.4859840000D+00  0.1000000000D+01
 F   1 1.00       0.000000000000
      0.2525060000D+00  0.1000000000D+01
 F   1 1.00       0.000000000000
      0.1311960000D+00  0.1000000000D+01
 G   1 1.00       0.000000000000
      0.7918370000D+00  0.1000000000D+01
 G   1 1.00       0.000000000000
      0.5061450000D+00  0.1000000000D+01
 G   1 1.00       0.000000000000
      0.3235290000D+00  0.1000000000D+01
 G   1 1.00       0.000000000000
      0.2068010000D+00  0.1000000000D+01
 H   1 1.00       0.000000000000
      0.8416860000D+00  0.1000000000D+01
 H   1 1.00       0.000000000000
      0.4693980000D+00  0.1000000000D+01
 H   1 1.00       0.000000000000
      0.2617780000D+00  0.1000000000D+01
 I   1 1.00       0.000000000000
      0.7411541800D+00  0.1000000000D+01
 ****

 There are   112 symmetry adapted cartesian basis functions of AG  symmetry.
 There are    40 symmetry adapted cartesian basis functions of B1G symmetry.
 There are    69 symmetry adapted cartesian basis functions of B2G symmetry.
 There are    69 symmetry adapted cartesian basis functions of B3G symmetry.
 There are    40 symmetry adapted cartesian basis functions of AU  symmetry.
 There are   112 symmetry adapted cartesian basis functions of B1U symmetry.
 There are    69 symmetry adapted cartesian basis functions of B2U symmetry.
 There are    69 symmetry adapted cartesian basis functions of B3U symmetry.
 There are    72 symmetry adapted basis functions of AG  symmetry.
 There are    30 symmetry adapted basis functions of B1G symmetry.
 There are    48 symmetry adapted basis functions of B2G symmetry.
 There are    48 symmetry adapted basis functions of B3G symmetry.
 There are    30 symmetry adapted basis functions of AU  symmetry.
 There are    72 symmetry adapted basis functions of B1U symmetry.
 There are    48 symmetry adapted basis functions of B2U symmetry.
 There are    48 symmetry adapted basis functions of B3U symmetry.
   396 basis functions,  1292 primitive gaussians,   580 cartesian basis functions
    54 alpha electrons       54 beta electrons
       nuclear repulsion energy       353.6985674579 Hartrees.
 NAtoms=    2 NActive=    2 NUniq=    1 SFac= 4.00D+00 NAtFMM=   60 NAOKFM=F Big=F
 Integral buffers will be    131072 words long.
 Raffenetti 2 integral format.
 Two-electron integral symmetry is turned on.
 One-electron integrals computed using PRISM.
 PrsmSu:  requested number of processors reduced to:   4 ShMem   1 Linda.
 NBasis=   396 RedAO= F EigKep=  0.00D+00  NBF=    72    30    48    48    30    72    48    48
 NBsUse=   396 1.00D-04 EigRej=  0.00D+00 NBFU=    72    30    48    48    30    72    48    48
 ExpMin= 2.91D-02 ExpMax= 1.22D+08 ExpMxC= 2.39D+04 IAcc=3 IRadAn=         5 AccDes= 0.00D+00
 Harris functional with IExCor=  205 and IRadAn=       5 diagonalized for initial guess.
 HarFok:  IExCor=  205 AccDes= 0.00D+00 IRadAn=         5 IDoV= 1 UseB2=F ITyADJ=14
 ICtDFT=  3500011 ScaDFX=  1.000000  1.000000  1.000000  1.000000
 Defaulting to unpruned grid for atomic number  54.
 Defaulting to unpruned grid for atomic number  54.
 Defaulting to unpruned grid for atomic number  54.
 Defaulting to unpruned grid for atomic number  54.
 Defaulting to unpruned grid for atomic number  54.
 Defaulting to unpruned grid for atomic number  54.
 Defaulting to unpruned grid for atomic number  54.
 Defaulting to unpruned grid for atomic number  54.
 FoFCou: FMM=F IPFlag=           0 FMFlag=      100000 FMFlg1=           0
         NFxFlg=           0 DoJE=T BraDBF=F KetDBF=T FulRan=T
         wScrn=  0.000000 ICntrl=     500 IOpCl=  0 I1Cent=   200000004 NGrid=           0
         NMat0=    1 NMatS0=      1 NMatT0=    0 NMatD0=    1 NMtDS0=    0 NMtDT0=    0
 Petite list used in FoFCou.
 Initial guess orbital symmetries:
       Occupied  (SGU) (SGG) (SGU) (SGG) (SGU) (SGG) (PIG) (PIG)
                 (PIU) (PIU) (SGU) (SGG) (SGU) (SGG) (PIG) (PIG)
                 (PIU) (PIU) (SGU) (SGG) (PIG) (PIG) (DLTU) (DLTU)
                 (PIU) (PIU) (DLTG) (DLTG) (SGU) (SGG) (SGU) (SGG)
                 (PIG) (PIG) (PIU) (PIU) (SGG) (SGU) (PIU) (PIU)
                 (PIG) (PIG) (DLTG) (DLTU) (DLTG) (DLTU) (SGG)
                 (SGU) (SGG) (PIU) (PIU) (PIG) (PIG) (SGU)
       Virtual   (SGG) (SGU) (PIU) (PIU) (SGG) (PIU) (PIU) (DLTG)
                 (DLTG) (PIG) (PIG) (SGG) (SGU) (DLTU) (DLTU) (PIG)
                 (PIG) (SGU) (SGG) (PIU) (PIU) (DLTG) (DLTG) (SGU)
                 (DLTG) (DLTG) (PIU) (PIU) (SGG) (DLTU) (DLTU)
                 (PHIU) (PHIU) (PIG) (PIG) (PHIG) (PHIG) (SGU)
                 (PIU) (PIU) (PIG) (PIG) (DLTU) (DLTU) (SGG) (PIG)
                 (PIG) (SGG) (SGU) (SGU) (DLTG) (DLTG) (PIU) (PIU)
                 (PHIU) (PHIU) (SGG) (?A) (?A) (?B) (?B) (PHIG)
                 (PHIG) (DLTU) (DLTU) (DLTG) (DLTG) (PIG) (PIG)
                 (PHIU) (PHIU) (SGU) (PHIG) (PHIG) (PIU) (PIU)
                 (SGG) (DLTU) (DLTU) (DLTG) (DLTG) (PIU) (PIU)
                 (SGU) (DLTU) (DLTU) (PIG) (PIG) (SGG) (PIG) (PIG)
                 (SGU) (SGG) (PIU) (PIU) (DLTG) (DLTG) (PIU) (PIU)
                 (PIG) (PIG) (PHIU) (PHIU) (?A) (?A) (?C) (?C)
                 (?D) (?D) (?B) (?B) (SGG) (PHIG) (PHIG) (DLTU)
                 (DLTU) (SGU) (PIG) (PIG) (DLTG) (DLTG) (PHIU)
                 (PHIU) (PHIG) (PHIG) (DLTU) (DLTU) (PIU) (PIU)
                 (PIG) (PIG) (SGG) (SGU) (PHIU) (PHIU) (DLTG) (DLTG)
                 (?A) (?A) (?B) (?B) (SGU) (PHIG) (PHIG) (PIU)
                 (PIU) (DLTU) (DLTU) (SGU) (SGG) (PIG) (PIG) (SGU)
                 (DLTG) (DLTG) (PIU) (PIU) (DLTU) (DLTU) (SGG)
                 (PIG) (PIG) (SGG) (SGU) (DLTG) (DLTG) (PHIU) (PHIU)
                 (PIU) (PIU) (SGG) (?A) (?A) (?C) (?C) (?D) (?D)
                 (?B) (?B) (PHIG) (PHIG) (DLTU) (DLTU) (PIG) (PIG)
                 (SGU) (PHIU) (PHIU) (DLTG) (DLTG) (?A) (?A) (?B)
                 (?B) (PHIG) (PHIG) (SGG) (PIU) (PIU) (DLTU) (DLTU)
                 (SGU) (DLTG) (DLTG) (PIG) (PIG) (PHIU) (PHIU)
                 (PHIG) (PHIG) (SGG) (PIG) (PIG) (PIU) (PIU) (DLTU)
                 (DLTU) (PIU) (PIU) (SGU) (PIG) (PIG) (SGG) (SGU)
                 (DLTG) (DLTG) (PIU) (PIU) (DLTU) (DLTU) (SGU)
                 (PIG) (PIG) (SGG) (?E) (?E) (?F) (?F) (?G) (?B)
                 (?H) (?H) (?H) (?G) (?B) (?H) (?E) (?E) (?F) (?F)
                 (?H) (?H) (?H) (?H) (?G) (?E) (?E) (PIG) (PIG)
                 (SGU) (PHIU) (PHIU) (DLTG) (DLTG) (?A) (?A) (?B)
                 (?B) (PHIG) (PHIG) (DLTU) (DLTU) (PIU) (PIU) (SGU)
                 (SGG) (PIG) (PIG) (SGG) (DLTG) (DLTG) (PHIU) (PHIU)
                 (?A) (?A) (?C) (?C) (?D) (?D) (?B) (?B) (PIU)
                 (PIU) (SGU) (PHIG) (PHIG) (SGG) (DLTU) (DLTU)
                 (PIG) (PIG) (SGU) (DLTG) (DLTG) (PHIU) (PHIU)
                 (PHIG) (PHIG) (DLTU) (DLTU) (PIU) (PIU) (PIG)
                 (PIG) (SGU) (SGG) (PIU) (PIU) (PIG) (PIG) (SGG)
                 (SGU) (DLTG) (DLTG) (PIU) (PIU) (DLTU) (DLTU)
                 (PIG) (PIG) (SGU) (SGG) (SGG) (SGU) (PIU) (PIU)
                 (PIG) (PIG) (SGG) (SGU) (SGG) (SGU)
 The electronic state of the initial guess is 1-SGG.
 Requested convergence on RMS density matrix=1.00D-10 within 128 cycles.
 Requested convergence on MAX density matrix=1.00D-08.
 Requested convergence on             energy=1.00D-08.
 No special actions if energy rises.
 Initial convergence to 1.0D-05 achieved.  Increase integral accuracy.
 DSYEVD returned Info=          97 IAlg= 4 N=    48 NDim=   396 NE2=     4064626 trying DSYEV.
 DSYEVD returned Info=          97 IAlg= 4 N=    48 NDim=   396 NE2=     4064626 trying DSYEV.
 SCF Done:  E(ROHF) =  -14464.2755151     A.U. after   13 cycles
            NFock= 13  Conv=0.77D-10     -V/T= 2.0000
 <Sx>= 0.0000 <Sy>= 0.0000 <Sz>= 0.0000 <S**2>= 0.0000 S= 0.0000
 <L.S>= 0.000000000000E+00
 Annihilation of the first spin contaminant:
 S**2 before annihilation     0.0000,   after     0.0000
 GenMOA:  NOpAll=  8 NOp2=8 NOpUse=  8 JSym2X=1
 <Sx>= 0.0000 <Sy>= 0.0000 <Sz>= 0.0000 <S**2>= 0.0000 S= 0.0000
 Range of M.O.s used for correlation:    47   396
 NBasis=   396 NAE=    54 NBE=    54 NFC=    46 NFV=     0
 NROrb=    350 NOA=     8 NOB=     8 NVA=   342 NVB=   342

 **** Warning!!: The largest alpha MO coefficient is  0.98254741D+02


 **** Warning!!: The largest beta MO coefficient is  0.98254741D+02

 Singles contribution to E2=   -0.5579280825D-11
 Disk-based method using OVN memory for  8 occupieds at a time.
 Permanent disk used for amplitudes and <ij||ab> integrals=    21502224 words.
 Estimated scratch disk usage=   589994672 words.
 IUseRI=2 ITolRI= 6 IR12RI=0
 Actual    scratch disk usage=   586669744 words.
 GetIJB would need an additional  1419254265 words of memory to use all   8 processors.
 JobTyp=2 Pass  1:  I=   1 to   8 NPSUse=  1 ParTrn=F ParDer=F DoDerP=F.
 (rs|ai) integrals will be sorted in core.
 T,EIJ(AA): I=   1 J=   2      0.5497963E-06     -0.1560455E-05
 T,EIJ(AA): I=   1 J=   3      0.1821572E-03     -0.5738793E-03
 T,EIJ(AA): I=   1 J=   4      0.1881423E-03     -0.5902005E-03
 T,EIJ(AA): I=   1 J=   5      0.1881423E-03     -0.5902005E-03
 T,EIJ(AA): I=   1 J=   6      0.1885405E-03     -0.5932042E-03
 T,EIJ(AA): I=   1 J=   7      0.1885405E-03     -0.5932042E-03
 T,EIJ(AA): I=   1 J=   8      0.1880580E-03     -0.5961907E-03
 T,EIJ(AA): I=   2 J=   3      0.2008988E-03     -0.6161702E-03
 T,EIJ(AA): I=   2 J=   4      0.1929051E-03     -0.6012374E-03
 T,EIJ(AA): I=   2 J=   5      0.1929051E-03     -0.6012374E-03
 T,EIJ(AA): I=   2 J=   6      0.1932532E-03     -0.6041463E-03
 T,EIJ(AA): I=   2 J=   7      0.1932532E-03     -0.6041463E-03
 T,EIJ(AA): I=   2 J=   8      0.1955468E-03     -0.6147503E-03
 T,EIJ(AA): I=   3 J=   4      0.1262264E-02     -0.2604165E-02
 T,EIJ(AA): I=   3 J=   5      0.1262264E-02     -0.2604165E-02
 T,EIJ(AA): I=   3 J=   6      0.1262493E-02     -0.2619322E-02
 T,EIJ(AA): I=   3 J=   7      0.1262493E-02     -0.2619322E-02
 T,EIJ(AA): I=   3 J=   8      0.8539191E-04     -0.1469756E-03
 T,EIJ(AA): I=   4 J=   5      0.1270744E-02     -0.2633194E-02
 T,EIJ(AA): I=   4 J=   6      0.1276794E-02     -0.2653263E-02
 T,EIJ(AA): I=   4 J=   7      0.1661012E-04     -0.2603059E-04
 T,EIJ(AA): I=   4 J=   8      0.1299810E-02     -0.2712091E-02
 T,EIJ(AA): I=   5 J=   6      0.1661012E-04     -0.2603059E-04
 T,EIJ(AA): I=   5 J=   7      0.1276794E-02     -0.2653263E-02
 T,EIJ(AA): I=   5 J=   8      0.1299810E-02     -0.2712091E-02
 T,EIJ(AA): I=   6 J=   7      0.1289141E-02     -0.2680346E-02
 T,EIJ(AA): I=   6 J=   8      0.1319927E-02     -0.2746448E-02
 T,EIJ(AA): I=   7 J=   8      0.1319927E-02     -0.2746448E-02
 T,EIJ(AB): I=   1 J=   1      0.9452929E-03     -0.3872835E-02
 T,EIJ(AB): I=   1 J=   2      0.9468288E-03     -0.3889740E-02
 T,EIJ(AB): I=   1 J=   3      0.8836141E-03     -0.3190340E-02
 T,EIJ(AB): I=   1 J=   4      0.8964968E-03     -0.3241259E-02
 T,EIJ(AB): I=   1 J=   5      0.8964968E-03     -0.3241259E-02
 T,EIJ(AB): I=   1 J=   6      0.9072322E-03     -0.3279531E-02
 T,EIJ(AB): I=   1 J=   7      0.9072322E-03     -0.3279531E-02
 T,EIJ(AB): I=   1 J=   8      0.9363841E-03     -0.3381465E-02
 T,EIJ(AB): I=   2 J=   1      0.9468288E-03     -0.3889740E-02
 T,EIJ(AB): I=   2 J=   2      0.9569156E-03     -0.3923860E-02
 T,EIJ(AB): I=   2 J=   3      0.8845075E-03     -0.3196324E-02
 T,EIJ(AB): I=   2 J=   4      0.9103163E-03     -0.3281144E-02
 T,EIJ(AB): I=   2 J=   5      0.9103163E-03     -0.3281144E-02
 T,EIJ(AB): I=   2 J=   6      0.9217794E-03     -0.3321183E-02
 T,EIJ(AB): I=   2 J=   7      0.9217794E-03     -0.3321183E-02
 T,EIJ(AB): I=   2 J=   8      0.9452269E-03     -0.3402548E-02
 T,EIJ(AB): I=   3 J=   1      0.8836141E-03     -0.3190340E-02
 T,EIJ(AB): I=   3 J=   2      0.8845075E-03     -0.3196324E-02
 T,EIJ(AB): I=   3 J=   3      0.3717727E-02     -0.8644756E-02
 T,EIJ(AB): I=   3 J=   4      0.1604915E-02     -0.3712136E-02
 T,EIJ(AB): I=   3 J=   5      0.1604915E-02     -0.3712136E-02
 T,EIJ(AB): I=   3 J=   6      0.1583129E-02     -0.3698281E-02
 T,EIJ(AB): I=   3 J=   7      0.1583129E-02     -0.3698281E-02
 T,EIJ(AB): I=   3 J=   8      0.3635227E-02     -0.8700955E-02
 T,EIJ(AB): I=   4 J=   1      0.8964968E-03     -0.3241259E-02
 T,EIJ(AB): I=   4 J=   2      0.9103163E-03     -0.3281144E-02
 T,EIJ(AB): I=   4 J=   3      0.1604915E-02     -0.3712136E-02
 T,EIJ(AB): I=   4 J=   4      0.3642967E-02     -0.8629925E-02
 T,EIJ(AB): I=   4 J=   5      0.1608854E-02     -0.3747087E-02
 T,EIJ(AB): I=   4 J=   6      0.1619499E-02     -0.3782590E-02
 T,EIJ(AB): I=   4 J=   7      0.3666255E-02     -0.8710375E-02
 T,EIJ(AB): I=   4 J=   8      0.1661824E-02     -0.3891966E-02
 T,EIJ(AB): I=   5 J=   1      0.8964968E-03     -0.3241259E-02
 T,EIJ(AB): I=   5 J=   2      0.9103163E-03     -0.3281144E-02
 T,EIJ(AB): I=   5 J=   3      0.1604915E-02     -0.3712136E-02
 T,EIJ(AB): I=   5 J=   4      0.1608854E-02     -0.3747087E-02
 T,EIJ(AB): I=   5 J=   5      0.3642967E-02     -0.8629925E-02
 T,EIJ(AB): I=   5 J=   6      0.3666255E-02     -0.8710375E-02
 T,EIJ(AB): I=   5 J=   7      0.1619499E-02     -0.3782590E-02
 T,EIJ(AB): I=   5 J=   8      0.1661824E-02     -0.3891966E-02
 T,EIJ(AB): I=   6 J=   1      0.9072322E-03     -0.3279531E-02
 T,EIJ(AB): I=   6 J=   2      0.9217794E-03     -0.3321183E-02
 T,EIJ(AB): I=   6 J=   3      0.1583129E-02     -0.3698281E-02
 T,EIJ(AB): I=   6 J=   4      0.1619499E-02     -0.3782590E-02
 T,EIJ(AB): I=   6 J=   5      0.3666255E-02     -0.8710375E-02
 T,EIJ(AB): I=   6 J=   6      0.3708907E-02     -0.8810562E-02
 T,EIJ(AB): I=   6 J=   7      0.1638285E-02     -0.3826467E-02
 T,EIJ(AB): I=   6 J=   8      0.1674672E-02     -0.3917664E-02
 T,EIJ(AB): I=   7 J=   1      0.9072322E-03     -0.3279531E-02
 T,EIJ(AB): I=   7 J=   2      0.9217794E-03     -0.3321183E-02
 T,EIJ(AB): I=   7 J=   3      0.1583129E-02     -0.3698281E-02
 T,EIJ(AB): I=   7 J=   4      0.3666255E-02     -0.8710375E-02
 T,EIJ(AB): I=   7 J=   5      0.1619499E-02     -0.3782590E-02
 T,EIJ(AB): I=   7 J=   6      0.1638285E-02     -0.3826467E-02
 T,EIJ(AB): I=   7 J=   7      0.3708907E-02     -0.8810562E-02
 T,EIJ(AB): I=   7 J=   8      0.1674672E-02     -0.3917664E-02
 T,EIJ(AB): I=   8 J=   1      0.9363841E-03     -0.3381465E-02
 T,EIJ(AB): I=   8 J=   2      0.9452269E-03     -0.3402548E-02
 T,EIJ(AB): I=   8 J=   3      0.3635227E-02     -0.8700955E-02
 T,EIJ(AB): I=   8 J=   4      0.1661824E-02     -0.3891966E-02
 T,EIJ(AB): I=   8 J=   5      0.1661824E-02     -0.3891966E-02
 T,EIJ(AB): I=   8 J=   6      0.1674672E-02     -0.3917664E-02
 T,EIJ(AB): I=   8 J=   7      0.1674672E-02     -0.3917664E-02
 T,EIJ(AB): I=   8 J=   8      0.3824705E-02     -0.9113265E-02
 Actual    scratch disk usage=   586669744 words.
 GetIJB would need an additional  1419254265 words of memory to use all   8 processors.
 JobTyp=3 Pass  1:  I=   1 to   8 NPSUse=  1 ParTrn=F ParDer=F DoDerP=F.
 (rs|ai) integrals will be sorted in core.
 T,EIJ(BB): I=   1 J=   2      0.5497963E-06     -0.1560455E-05
 T,EIJ(BB): I=   1 J=   3      0.1821572E-03     -0.5738793E-03
 T,EIJ(BB): I=   1 J=   4      0.1881423E-03     -0.5902005E-03
 T,EIJ(BB): I=   1 J=   5      0.1881423E-03     -0.5902005E-03
 T,EIJ(BB): I=   1 J=   6      0.1885405E-03     -0.5932042E-03
 T,EIJ(BB): I=   1 J=   7      0.1885405E-03     -0.5932042E-03
 T,EIJ(BB): I=   1 J=   8      0.1880580E-03     -0.5961907E-03
 T,EIJ(BB): I=   2 J=   3      0.2008988E-03     -0.6161702E-03
 T,EIJ(BB): I=   2 J=   4      0.1929051E-03     -0.6012374E-03
 T,EIJ(BB): I=   2 J=   5      0.1929051E-03     -0.6012374E-03
 T,EIJ(BB): I=   2 J=   6      0.1932532E-03     -0.6041463E-03
 T,EIJ(BB): I=   2 J=   7      0.1932532E-03     -0.6041463E-03
 T,EIJ(BB): I=   2 J=   8      0.1955468E-03     -0.6147503E-03
 T,EIJ(BB): I=   3 J=   4      0.1262264E-02     -0.2604165E-02
 T,EIJ(BB): I=   3 J=   5      0.1262264E-02     -0.2604165E-02
 T,EIJ(BB): I=   3 J=   6      0.1262493E-02     -0.2619322E-02
 T,EIJ(BB): I=   3 J=   7      0.1262493E-02     -0.2619322E-02
 T,EIJ(BB): I=   3 J=   8      0.8539191E-04     -0.1469756E-03
 T,EIJ(BB): I=   4 J=   5      0.1270744E-02     -0.2633194E-02
 T,EIJ(BB): I=   4 J=   6      0.1276794E-02     -0.2653263E-02
 T,EIJ(BB): I=   4 J=   7      0.1661012E-04     -0.2603059E-04
 T,EIJ(BB): I=   4 J=   8      0.1299810E-02     -0.2712091E-02
 T,EIJ(BB): I=   5 J=   6      0.1661012E-04     -0.2603059E-04
 T,EIJ(BB): I=   5 J=   7      0.1276794E-02     -0.2653263E-02
 T,EIJ(BB): I=   5 J=   8      0.1299810E-02     -0.2712091E-02
 T,EIJ(BB): I=   6 J=   7      0.1289141E-02     -0.2680346E-02
 T,EIJ(BB): I=   6 J=   8      0.1319927E-02     -0.2746448E-02
 T,EIJ(BB): I=   7 J=   8      0.1319927E-02     -0.2746448E-02
 Spin components of T(2) and E(2):
     alpha-alpha T2 =       0.1781396500D-01 E2=     -0.3936328251D-01
     alpha-beta  T2 =       0.1088907175D+00 E2=     -0.2904500592D+00
     beta-beta   T2 =       0.1781396500D-01 E2=     -0.3936328251D-01
 ANorm=    0.1069821783D+01
 E2 =    -0.3691766242D+00 EUMP2 =    -0.14464644691728D+05

 Complete Basis Set (CBS) Extrapolation:
 M. R. Nyden and G. A. Petersson, JCP 75, 1843 (1981)
 G. A. Petersson and M. A. Al-Laham, JCP 94, 6081 (1991)
 G. A. Petersson, T. Tensfeldt, and J. A. Montgomery, JCP 94, 6091 (1991)
 J. A. Montgomery, J. W. Ochterski, and G. A. Petersson, JCP 101, 5900 (1994)
 
 Minimum Number of PNO for Extrapolation =  20
 Absolute Overlaps: IRadAn =         5
 LocTrn: ILocal=3 LocCor=F DoCore=F.
 Entering OneElI...
 Overlap between basis sets.
 Requested accuracy = 0.1000D-12
 PrsmSu:  NPrtUS=   1 ThrOK=F IAlg=1 NPAlg=1 LenDen=           0.
 Prism:   IPart=     0 DynPar=F LinDyn=F Incr=           1.
 PRISM was handed  1609916516 working-precision words and   130 shell-pairs
 IPart=  0 NShTot=         130 NBatch=          13 AvBLen=        10.0
 PrSmSu:  NxtVal=              2.
 CnvPC2: ToCart=F DoDens=F IPureD=0 IPureF=0.
 Transformed matrix in CnvPC2: 
                 1             2             3             4             5 
      1   0.100000D+01  0.421836D+00  0.000000D+00  0.000000D+00  0.000000D+00
      2   0.421836D+00  0.100000D+01  0.000000D+00  0.000000D+00  0.000000D+00
      3   0.000000D+00  0.000000D+00  0.100000D+01  0.000000D+00  0.000000D+00
      4   0.000000D+00  0.000000D+00  0.000000D+00  0.100000D+01  0.000000D+00
      5   0.000000D+00  0.000000D+00  0.000000D+00  0.000000D+00  0.100000D+01
      6   0.516494D-01  0.493818D+00  0.000000D+00  0.000000D+00  0.000000D+00
      7   0.000000D+00  0.000000D+00  0.505120D+00  0.000000D+00  0.000000D+00
      8   0.000000D+00  0.000000D+00  0.000000D+00  0.505120D+00  0.000000D+00
      9   0.000000D+00  0.000000D+00  0.000000D+00  0.000000D+00  0.505120D+00
     10   0.000000D+00  0.000000D+00  0.000000D+00  0.000000D+00  0.000000D+00
     11   0.000000D+00  0.000000D+00  0.000000D+00  0.000000D+00  0.000000D+00
     12   0.000000D+00  0.000000D+00  0.000000D+00  0.000000D+00  0.000000D+00
     13   0.000000D+00  0.000000D+00  0.000000D+00  0.000000D+00  0.000000D+00
     14   0.000000D+00  0.000000D+00  0.000000D+00  0.000000D+00  0.000000D+00
     15   0.300484D-03  0.328747D-01  0.000000D+00  0.000000D+00  0.000000D+00
     16   0.000000D+00  0.000000D+00  0.466401D-01  0.000000D+00  0.000000D+00
     17   0.000000D+00  0.000000D+00  0.000000D+00  0.466401D-01  0.000000D+00
     18   0.000000D+00  0.000000D+00  0.000000D+00  0.000000D+00  0.466401D-01
     19   0.000000D+00  0.000000D+00  0.000000D+00  0.000000D+00  0.000000D+00
     20   0.000000D+00  0.000000D+00  0.000000D+00  0.000000D+00  0.000000D+00
     21   0.000000D+00  0.000000D+00  0.000000D+00  0.000000D+00  0.000000D+00
     22   0.000000D+00  0.000000D+00  0.000000D+00  0.000000D+00  0.000000D+00
     23   0.000000D+00  0.000000D+00  0.000000D+00  0.000000D+00  0.000000D+00
     24  -0.901374D-03 -0.412282D-02  0.000000D+00  0.000000D+00  0.000000D+00
     25   0.000000D+00  0.000000D+00  0.148975D-02  0.000000D+00  0.000000D+00
     26   0.000000D+00  0.000000D+00  0.000000D+00  0.148975D-02  0.000000D+00
     27   0.000000D+00  0.000000D+00  0.000000D+00  0.000000D+00  0.148975D-02
     28   0.000000D+00  0.000000D+00  0.000000D+00  0.000000D+00  0.000000D+00
     29   0.000000D+00  0.000000D+00  0.000000D+00  0.000000D+00  0.000000D+00
     30   0.000000D+00  0.000000D+00  0.000000D+00  0.000000D+00  0.000000D+00
     31   0.000000D+00  0.000000D+00  0.000000D+00  0.000000D+00  0.000000D+00
     32   0.000000D+00  0.000000D+00  0.000000D+00  0.000000D+00  0.000000D+00
     33   0.000000D+00  0.000000D+00  0.000000D+00  0.000000D+00  0.000000D+00
     34   0.000000D+00  0.000000D+00  0.000000D+00  0.000000D+00  0.000000D+00
     35   0.000000D+00  0.000000D+00  0.000000D+00  0.000000D+00  0.000000D+00
     36   0.000000D+00  0.000000D+00  0.000000D+00  0.000000D+00  0.000000D+00
     37   0.000000D+00  0.000000D+00  0.000000D+00  0.000000D+00  0.000000D+00
     38   0.000000D+00  0.000000D+00  0.000000D+00  0.000000D+00  0.000000D+00
     39   0.000000D+00  0.000000D+00  0.000000D+00  0.000000D+00  0.000000D+00
     40   0.000000D+00  0.000000D+00  0.000000D+00  0.000000D+00  0.000000D+00
     41   0.000000D+00  0.000000D+00  0.000000D+00  0.000000D+00  0.000000D+00
     42   0.000000D+00  0.000000D+00  0.000000D+00  0.000000D+00  0.000000D+00
     43   0.000000D+00  0.000000D+00  0.000000D+00  0.000000D+00  0.000000D+00
     44   0.000000D+00  0.000000D+00  0.000000D+00  0.000000D+00  0.000000D+00
     45   0.000000D+00  0.000000D+00  0.000000D+00  0.000000D+00  0.000000D+00
     46   0.000000D+00  0.000000D+00  0.000000D+00  0.000000D+00  0.000000D+00
     47   0.000000D+00  0.000000D+00  0.000000D+00  0.000000D+00  0.000000D+00
     48   0.000000D+00  0.000000D+00  0.000000D+00  0.000000D+00  0.000000D+00
     49   0.000000D+00  0.000000D+00  0.000000D+00  0.000000D+00  0.000000D+00
     50   0.000000D+00  0.000000D+00  0.000000D+00  0.000000D+00  0.000000D+00
     51   0.000000D+00  0.000000D+00  0.000000D+00  0.000000D+00  0.000000D+00
     52   0.000000D+00  0.000000D+00  0.000000D+00  0.000000D+00  0.000000D+00
     53   0.000000D+00  0.000000D+00  0.000000D+00  0.000000D+00  0.000000D+00
     54   0.000000D+00  0.000000D+00  0.000000D+00  0.000000D+00  0.000000D+00
                 6             7             8             9            10 
      1   0.516494D-01  0.000000D+00  0.000000D+00  0.000000D+00  0.000000D+00
      2   0.493818D+00  0.000000D+00  0.000000D+00  0.000000D+00  0.000000D+00
      3   0.000000D+00  0.505120D+00  0.000000D+00  0.000000D+00  0.000000D+00
      4   0.000000D+00  0.000000D+00  0.505120D+00  0.000000D+00  0.000000D+00
      5   0.000000D+00  0.000000D+00  0.000000D+00  0.505120D+00  0.000000D+00
      6   0.100000D+01  0.000000D+00  0.000000D+00  0.000000D+00  0.000000D+00
      7   0.000000D+00  0.100000D+01  0.000000D+00  0.000000D+00  0.000000D+00
      8   0.000000D+00  0.000000D+00  0.100000D+01  0.000000D+00  0.000000D+00
      9   0.000000D+00  0.000000D+00  0.000000D+00  0.100000D+01  0.000000D+00
     10   0.000000D+00  0.000000D+00  0.000000D+00  0.000000D+00  0.100000D+01
     11   0.000000D+00  0.000000D+00  0.000000D+00  0.000000D+00  0.000000D+00
     12   0.000000D+00  0.000000D+00  0.000000D+00  0.000000D+00  0.000000D+00
     13   0.000000D+00  0.000000D+00  0.000000D+00  0.000000D+00  0.000000D+00
     14   0.000000D+00  0.000000D+00  0.000000D+00  0.000000D+00  0.000000D+00
     15   0.342269D+00  0.000000D+00  0.000000D+00  0.000000D+00  0.000000D+00
     16   0.000000D+00  0.356711D+00  0.000000D+00  0.000000D+00  0.000000D+00
     17   0.000000D+00  0.000000D+00  0.356711D+00  0.000000D+00  0.000000D+00
     18   0.000000D+00  0.000000D+00  0.000000D+00  0.356711D+00  0.000000D+00
     19   0.000000D+00  0.000000D+00  0.000000D+00  0.000000D+00  0.357645D+00
     20   0.000000D+00  0.000000D+00  0.000000D+00  0.000000D+00  0.000000D+00
     21   0.000000D+00  0.000000D+00  0.000000D+00  0.000000D+00  0.000000D+00
     22   0.000000D+00  0.000000D+00  0.000000D+00  0.000000D+00  0.000000D+00
     23   0.000000D+00  0.000000D+00  0.000000D+00  0.000000D+00  0.000000D+00
     24   0.246889D-02  0.000000D+00  0.000000D+00  0.000000D+00  0.000000D+00
     25   0.000000D+00  0.176979D-01  0.000000D+00  0.000000D+00  0.000000D+00
     26   0.000000D+00  0.000000D+00  0.176979D-01  0.000000D+00  0.000000D+00
     27   0.000000D+00  0.000000D+00  0.000000D+00  0.176979D-01  0.000000D+00
     28   0.000000D+00  0.000000D+00  0.000000D+00  0.000000D+00  0.000000D+00
     29   0.000000D+00  0.000000D+00  0.000000D+00  0.000000D+00  0.000000D+00
     30   0.000000D+00  0.000000D+00  0.000000D+00  0.000000D+00  0.000000D+00
     31   0.000000D+00  0.000000D+00  0.000000D+00  0.000000D+00  0.000000D+00
     32   0.000000D+00  0.000000D+00  0.000000D+00  0.000000D+00  0.000000D+00
     33   0.000000D+00  0.000000D+00  0.000000D+00  0.000000D+00  0.000000D+00
     34   0.000000D+00  0.000000D+00  0.000000D+00  0.000000D+00  0.000000D+00
     35   0.000000D+00  0.000000D+00  0.000000D+00  0.000000D+00  0.000000D+00
     36   0.000000D+00  0.000000D+00  0.000000D+00  0.000000D+00  0.000000D+00
     37   0.000000D+00  0.000000D+00  0.000000D+00  0.000000D+00  0.000000D+00
     38   0.000000D+00  0.000000D+00  0.000000D+00  0.000000D+00  0.000000D+00
     39   0.000000D+00  0.000000D+00  0.000000D+00  0.000000D+00  0.000000D+00
     40   0.000000D+00  0.000000D+00  0.000000D+00  0.000000D+00  0.000000D+00
     41   0.000000D+00  0.000000D+00  0.000000D+00  0.000000D+00  0.000000D+00
     42   0.000000D+00  0.000000D+00  0.000000D+00  0.000000D+00  0.000000D+00
     43   0.000000D+00  0.000000D+00  0.000000D+00  0.000000D+00  0.000000D+00
     44   0.000000D+00  0.000000D+00  0.000000D+00  0.000000D+00  0.000000D+00
     45   0.000000D+00  0.000000D+00  0.000000D+00  0.000000D+00  0.000000D+00
     46   0.000000D+00  0.000000D+00  0.000000D+00  0.000000D+00  0.000000D+00
     47   0.000000D+00  0.000000D+00  0.000000D+00  0.000000D+00  0.000000D+00
     48   0.000000D+00  0.000000D+00  0.000000D+00  0.000000D+00  0.000000D+00
     49   0.000000D+00  0.000000D+00  0.000000D+00  0.000000D+00  0.000000D+00
     50   0.000000D+00  0.000000D+00  0.000000D+00  0.000000D+00  0.000000D+00
     51   0.000000D+00  0.000000D+00  0.000000D+00  0.000000D+00  0.000000D+00
     52   0.000000D+00  0.000000D+00  0.000000D+00  0.000000D+00  0.000000D+00
     53   0.000000D+00  0.000000D+00  0.000000D+00  0.000000D+00  0.000000D+00
     54   0.000000D+00  0.000000D+00  0.000000D+00  0.000000D+00  0.000000D+00
                11            12            13            14            15 
      1   0.000000D+00  0.000000D+00  0.000000D+00  0.000000D+00  0.300484D-03
      2   0.000000D+00  0.000000D+00  0.000000D+00  0.000000D+00  0.328747D-01
      3   0.000000D+00  0.000000D+00  0.000000D+00  0.000000D+00  0.000000D+00
      4   0.000000D+00  0.000000D+00  0.000000D+00  0.000000D+00  0.000000D+00
      5   0.000000D+00  0.000000D+00  0.000000D+00  0.000000D+00  0.000000D+00
      6   0.000000D+00  0.000000D+00  0.000000D+00  0.000000D+00  0.342269D+00
      7   0.000000D+00  0.000000D+00  0.000000D+00  0.000000D+00  0.000000D+00
      8   0.000000D+00  0.000000D+00  0.000000D+00  0.000000D+00  0.000000D+00
      9   0.000000D+00  0.000000D+00  0.000000D+00  0.000000D+00  0.000000D+00
     10   0.000000D+00  0.000000D+00  0.000000D+00  0.000000D+00  0.000000D+00
     11   0.100000D+01  0.000000D+00  0.000000D+00  0.000000D+00  0.000000D+00
     12   0.000000D+00  0.100000D+01  0.000000D+00  0.000000D+00  0.000000D+00
     13   0.000000D+00  0.000000D+00  0.100000D+01  0.000000D+00  0.000000D+00
     14   0.000000D+00  0.000000D+00  0.000000D+00  0.100000D+01  0.000000D+00
     15   0.000000D+00  0.000000D+00  0.000000D+00  0.000000D+00  0.100000D+01
     16   0.000000D+00  0.000000D+00  0.000000D+00  0.000000D+00  0.000000D+00
     17   0.000000D+00  0.000000D+00  0.000000D+00  0.000000D+00  0.000000D+00
     18   0.000000D+00  0.000000D+00  0.000000D+00  0.000000D+00  0.000000D+00
     19   0.000000D+00  0.000000D+00  0.000000D+00  0.000000D+00  0.000000D+00
     20   0.357645D+00  0.000000D+00  0.000000D+00  0.000000D+00  0.000000D+00
     21   0.000000D+00  0.357645D+00  0.000000D+00  0.000000D+00  0.000000D+00
     22   0.000000D+00  0.000000D+00  0.357645D+00  0.000000D+00  0.000000D+00
     23   0.000000D+00  0.000000D+00  0.000000D+00  0.357645D+00  0.000000D+00
     24   0.000000D+00  0.000000D+00  0.000000D+00  0.000000D+00  0.273894D+00
     25   0.000000D+00  0.000000D+00  0.000000D+00  0.000000D+00  0.000000D+00
     26   0.000000D+00  0.000000D+00  0.000000D+00  0.000000D+00  0.000000D+00
     27   0.000000D+00  0.000000D+00  0.000000D+00  0.000000D+00  0.000000D+00
     28   0.000000D+00  0.000000D+00  0.000000D+00  0.000000D+00  0.000000D+00
     29   0.000000D+00  0.000000D+00  0.000000D+00  0.000000D+00  0.000000D+00
     30   0.000000D+00  0.000000D+00  0.000000D+00  0.000000D+00  0.000000D+00
     31   0.000000D+00  0.000000D+00  0.000000D+00  0.000000D+00  0.000000D+00
     32   0.000000D+00  0.000000D+00  0.000000D+00  0.000000D+00  0.000000D+00
     33   0.000000D+00  0.000000D+00  0.000000D+00  0.000000D+00  0.000000D+00
     34   0.000000D+00  0.000000D+00  0.000000D+00  0.000000D+00  0.000000D+00
     35   0.000000D+00  0.000000D+00  0.000000D+00  0.000000D+00  0.000000D+00
     36   0.000000D+00  0.000000D+00  0.000000D+00  0.000000D+00  0.000000D+00
     37   0.000000D+00  0.000000D+00  0.000000D+00  0.000000D+00  0.000000D+00
     38   0.000000D+00  0.000000D+00  0.000000D+00  0.000000D+00  0.000000D+00
     39   0.000000D+00  0.000000D+00  0.000000D+00  0.000000D+00  0.000000D+00
     40   0.000000D+00  0.000000D+00  0.000000D+00  0.000000D+00  0.000000D+00
     41   0.000000D+00  0.000000D+00  0.000000D+00  0.000000D+00  0.000000D+00
     42   0.000000D+00  0.000000D+00  0.000000D+00  0.000000D+00  0.000000D+00
     43   0.000000D+00  0.000000D+00  0.000000D+00  0.000000D+00  0.000000D+00
     44   0.000000D+00  0.000000D+00  0.000000D+00  0.000000D+00  0.000000D+00
     45   0.000000D+00  0.000000D+00  0.000000D+00  0.000000D+00  0.000000D+00
     46   0.000000D+00  0.000000D+00  0.000000D+00  0.000000D+00  0.000000D+00
     47   0.000000D+00  0.000000D+00  0.000000D+00  0.000000D+00  0.000000D+00
     48   0.000000D+00  0.000000D+00  0.000000D+00  0.000000D+00  0.000000D+00
     49   0.000000D+00  0.000000D+00  0.000000D+00  0.000000D+00  0.000000D+00
     50   0.000000D+00  0.000000D+00  0.000000D+00  0.000000D+00  0.000000D+00
     51   0.000000D+00  0.000000D+00  0.000000D+00  0.000000D+00  0.334987D-05
     52   0.000000D+00  0.000000D+00  0.000000D+00  0.000000D+00  0.000000D+00
     53   0.000000D+00  0.000000D+00  0.000000D+00  0.000000D+00  0.000000D+00
     54   0.000000D+00  0.000000D+00  0.000000D+00  0.000000D+00  0.106352D-04
                16            17            18            19            20 
      1   0.000000D+00  0.000000D+00  0.000000D+00  0.000000D+00  0.000000D+00
      2   0.000000D+00  0.000000D+00  0.000000D+00  0.000000D+00  0.000000D+00
      3   0.466401D-01  0.000000D+00  0.000000D+00  0.000000D+00  0.000000D+00
      4   0.000000D+00  0.466401D-01  0.000000D+00  0.000000D+00  0.000000D+00
      5   0.000000D+00  0.000000D+00  0.466401D-01  0.000000D+00  0.000000D+00
      6   0.000000D+00  0.000000D+00  0.000000D+00  0.000000D+00  0.000000D+00
      7   0.356711D+00  0.000000D+00  0.000000D+00  0.000000D+00  0.000000D+00
      8   0.000000D+00  0.356711D+00  0.000000D+00  0.000000D+00  0.000000D+00
      9   0.000000D+00  0.000000D+00  0.356711D+00  0.000000D+00  0.000000D+00
     10   0.000000D+00  0.000000D+00  0.000000D+00  0.357645D+00  0.000000D+00
     11   0.000000D+00  0.000000D+00  0.000000D+00  0.000000D+00  0.357645D+00
     12   0.000000D+00  0.000000D+00  0.000000D+00  0.000000D+00  0.000000D+00
     13   0.000000D+00  0.000000D+00  0.000000D+00  0.000000D+00  0.000000D+00
     14   0.000000D+00  0.000000D+00  0.000000D+00  0.000000D+00  0.000000D+00
     15   0.000000D+00  0.000000D+00  0.000000D+00  0.000000D+00  0.000000D+00
     16   0.100000D+01  0.000000D+00  0.000000D+00  0.000000D+00  0.000000D+00
     17   0.000000D+00  0.100000D+01  0.000000D+00  0.000000D+00  0.000000D+00
     18   0.000000D+00  0.000000D+00  0.100000D+01  0.000000D+00  0.000000D+00
     19   0.000000D+00  0.000000D+00  0.000000D+00  0.100000D+01  0.000000D+00
     20   0.000000D+00  0.000000D+00  0.000000D+00  0.000000D+00  0.100000D+01
     21   0.000000D+00  0.000000D+00  0.000000D+00  0.000000D+00  0.000000D+00
     22   0.000000D+00  0.000000D+00  0.000000D+00  0.000000D+00  0.000000D+00
     23   0.000000D+00  0.000000D+00  0.000000D+00  0.000000D+00  0.000000D+00
     24   0.000000D+00  0.000000D+00  0.000000D+00  0.000000D+00  0.000000D+00
     25   0.282566D+00  0.000000D+00  0.000000D+00  0.000000D+00  0.000000D+00
     26   0.000000D+00  0.282566D+00  0.000000D+00  0.000000D+00  0.000000D+00
     27   0.000000D+00  0.000000D+00  0.282566D+00  0.000000D+00  0.000000D+00
     28   0.000000D+00  0.000000D+00  0.000000D+00  0.000000D+00  0.000000D+00
     29   0.000000D+00  0.000000D+00  0.000000D+00  0.000000D+00  0.000000D+00
     30   0.000000D+00  0.000000D+00  0.000000D+00  0.000000D+00  0.000000D+00
     31   0.000000D+00  0.000000D+00  0.000000D+00  0.000000D+00  0.000000D+00
     32   0.000000D+00  0.000000D+00  0.000000D+00  0.000000D+00  0.000000D+00
     33   0.000000D+00  0.000000D+00  0.000000D+00  0.000000D+00  0.000000D+00
     34   0.000000D+00  0.000000D+00  0.000000D+00  0.000000D+00  0.000000D+00
     35   0.000000D+00  0.000000D+00  0.000000D+00  0.000000D+00  0.000000D+00
     36   0.000000D+00  0.000000D+00  0.000000D+00  0.000000D+00  0.000000D+00
     37   0.000000D+00  0.000000D+00  0.000000D+00  0.000000D+00  0.000000D+00
     38   0.000000D+00  0.000000D+00  0.000000D+00  0.000000D+00  0.000000D+00
     39   0.000000D+00  0.000000D+00  0.000000D+00  0.000000D+00  0.000000D+00
     40   0.000000D+00  0.000000D+00  0.000000D+00  0.000000D+00  0.000000D+00
     41   0.000000D+00  0.000000D+00  0.000000D+00  0.000000D+00  0.000000D+00
     42   0.000000D+00  0.000000D+00  0.000000D+00  0.000000D+00  0.000000D+00
     43   0.000000D+00  0.000000D+00  0.000000D+00  0.000000D+00  0.000000D+00
     44   0.000000D+00  0.000000D+00  0.000000D+00  0.000000D+00  0.000000D+00
     45   0.000000D+00  0.000000D+00  0.000000D+00  0.000000D+00  0.000000D+00
     46   0.000000D+00  0.000000D+00  0.000000D+00  0.000000D+00  0.000000D+00
     47   0.000000D+00  0.000000D+00  0.000000D+00  0.000000D+00  0.000000D+00
     48   0.000000D+00  0.000000D+00  0.000000D+00  0.000000D+00  0.000000D+00
     49   0.000000D+00  0.000000D+00  0.000000D+00  0.000000D+00  0.000000D+00
     50   0.000000D+00  0.000000D+00  0.000000D+00  0.000000D+00  0.000000D+00
     51   0.000000D+00  0.000000D+00 -0.496737D-05  0.450525D-05  0.000000D+00
     52   0.000000D+00  0.000000D+00  0.000000D+00  0.000000D+00  0.000000D+00
     53   0.000000D+00  0.000000D+00  0.000000D+00  0.000000D+00  0.000000D+00
     54   0.000000D+00  0.000000D+00 -0.153373D-04  0.134162D-04  0.000000D+00
                21            22            23            24            25 
      1   0.000000D+00  0.000000D+00  0.000000D+00 -0.901374D-03  0.000000D+00
      2   0.000000D+00  0.000000D+00  0.000000D+00 -0.412282D-02  0.000000D+00
      3   0.000000D+00  0.000000D+00  0.000000D+00  0.000000D+00  0.148975D-02
      4   0.000000D+00  0.000000D+00  0.000000D+00  0.000000D+00  0.000000D+00
      5   0.000000D+00  0.000000D+00  0.000000D+00  0.000000D+00  0.000000D+00
      6   0.000000D+00  0.000000D+00  0.000000D+00  0.246889D-02  0.000000D+00
      7   0.000000D+00  0.000000D+00  0.000000D+00  0.000000D+00  0.176979D-01
      8   0.000000D+00  0.000000D+00  0.000000D+00  0.000000D+00  0.000000D+00
      9   0.000000D+00  0.000000D+00  0.000000D+00  0.000000D+00  0.000000D+00
     10   0.000000D+00  0.000000D+00  0.000000D+00  0.000000D+00  0.000000D+00
     11   0.000000D+00  0.000000D+00  0.000000D+00  0.000000D+00  0.000000D+00
     12   0.357645D+00  0.000000D+00  0.000000D+00  0.000000D+00  0.000000D+00
     13   0.000000D+00  0.357645D+00  0.000000D+00  0.000000D+00  0.000000D+00
     14   0.000000D+00  0.000000D+00  0.357645D+00  0.000000D+00  0.000000D+00
     15   0.000000D+00  0.000000D+00  0.000000D+00  0.273894D+00  0.000000D+00
     16   0.000000D+00  0.000000D+00  0.000000D+00  0.000000D+00  0.282566D+00
     17   0.000000D+00  0.000000D+00  0.000000D+00  0.000000D+00  0.000000D+00
     18   0.000000D+00  0.000000D+00  0.000000D+00  0.000000D+00  0.000000D+00
     19   0.000000D+00  0.000000D+00  0.000000D+00  0.000000D+00  0.000000D+00
     20   0.000000D+00  0.000000D+00  0.000000D+00  0.000000D+00  0.000000D+00
     21   0.100000D+01  0.000000D+00  0.000000D+00  0.000000D+00  0.000000D+00
     22   0.000000D+00  0.100000D+01  0.000000D+00  0.000000D+00  0.000000D+00
     23   0.000000D+00  0.000000D+00  0.100000D+01  0.000000D+00  0.000000D+00
     24   0.000000D+00  0.000000D+00  0.000000D+00  0.100000D+01  0.000000D+00
     25   0.000000D+00  0.000000D+00  0.000000D+00  0.000000D+00  0.100000D+01
     26   0.000000D+00  0.000000D+00  0.000000D+00  0.000000D+00  0.000000D+00
     27   0.000000D+00  0.000000D+00  0.000000D+00  0.000000D+00  0.000000D+00
     28   0.000000D+00  0.000000D+00  0.000000D+00  0.000000D+00  0.000000D+00
     29   0.000000D+00  0.000000D+00  0.000000D+00  0.000000D+00  0.000000D+00
     30   0.000000D+00  0.000000D+00  0.000000D+00  0.000000D+00  0.000000D+00
     31   0.000000D+00  0.000000D+00  0.000000D+00  0.000000D+00  0.000000D+00
     32   0.000000D+00  0.000000D+00  0.000000D+00  0.000000D+00  0.000000D+00
     33   0.000000D+00  0.000000D+00  0.000000D+00  0.000000D+00  0.000000D+00
     34   0.000000D+00  0.000000D+00  0.000000D+00  0.000000D+00  0.000000D+00
     35   0.000000D+00  0.000000D+00  0.000000D+00  0.000000D+00  0.000000D+00
     36   0.000000D+00  0.000000D+00  0.000000D+00  0.000000D+00  0.000000D+00
     37   0.000000D+00  0.000000D+00  0.000000D+00  0.000000D+00  0.000000D+00
     38   0.000000D+00  0.000000D+00  0.000000D+00  0.000000D+00  0.000000D+00
     39   0.000000D+00  0.000000D+00  0.000000D+00  0.000000D+00  0.000000D+00
     40   0.000000D+00  0.000000D+00  0.000000D+00  0.000000D+00  0.000000D+00
     41   0.000000D+00  0.000000D+00  0.000000D+00  0.000000D+00  0.000000D+00
     42   0.000000D+00  0.000000D+00  0.000000D+00  0.334987D-05  0.000000D+00
     43   0.000000D+00  0.000000D+00  0.000000D+00  0.000000D+00  0.000000D+00
     44   0.000000D+00  0.000000D+00  0.000000D+00  0.000000D+00  0.000000D+00
     45   0.000000D+00  0.000000D+00  0.000000D+00  0.496737D-05  0.000000D+00
     46   0.000000D+00  0.000000D+00  0.000000D+00  0.450525D-05  0.000000D+00
     47   0.000000D+00  0.000000D+00  0.000000D+00  0.000000D+00  0.000000D+00
     48   0.000000D+00  0.000000D+00  0.000000D+00  0.000000D+00  0.000000D+00
     49   0.000000D+00  0.000000D+00  0.000000D+00  0.000000D+00  0.000000D+00
     50   0.000000D+00  0.000000D+00  0.000000D+00  0.000000D+00  0.000000D+00
     51   0.000000D+00  0.000000D+00  0.000000D+00  0.138143D-02  0.000000D+00
     52   0.000000D+00  0.000000D+00  0.000000D+00  0.000000D+00  0.359962D-03
     53   0.000000D+00  0.000000D+00  0.000000D+00  0.000000D+00  0.000000D+00
     54   0.000000D+00  0.000000D+00  0.000000D+00  0.266821D-02  0.000000D+00
                26            27            28            29            30 
      1   0.000000D+00  0.000000D+00  0.000000D+00  0.000000D+00  0.000000D+00
      2   0.000000D+00  0.000000D+00  0.000000D+00  0.000000D+00  0.000000D+00
      3   0.000000D+00  0.000000D+00  0.000000D+00  0.000000D+00  0.000000D+00
      4   0.148975D-02  0.000000D+00  0.000000D+00  0.000000D+00  0.000000D+00
      5   0.000000D+00  0.148975D-02  0.000000D+00  0.000000D+00  0.000000D+00
      6   0.000000D+00  0.000000D+00  0.000000D+00  0.000000D+00  0.000000D+00
      7   0.000000D+00  0.000000D+00  0.000000D+00  0.000000D+00  0.000000D+00
      8   0.176979D-01  0.000000D+00  0.000000D+00  0.000000D+00  0.000000D+00
      9   0.000000D+00  0.176979D-01  0.000000D+00  0.000000D+00  0.000000D+00
     10   0.000000D+00  0.000000D+00  0.000000D+00  0.000000D+00  0.000000D+00
     11   0.000000D+00  0.000000D+00  0.000000D+00  0.000000D+00  0.000000D+00
     12   0.000000D+00  0.000000D+00  0.000000D+00  0.000000D+00  0.000000D+00
     13   0.000000D+00  0.000000D+00  0.000000D+00  0.000000D+00  0.000000D+00
     14   0.000000D+00  0.000000D+00  0.000000D+00  0.000000D+00  0.000000D+00
     15   0.000000D+00  0.000000D+00  0.000000D+00  0.000000D+00  0.000000D+00
     16   0.000000D+00  0.000000D+00  0.000000D+00  0.000000D+00  0.000000D+00
     17   0.282566D+00  0.000000D+00  0.000000D+00  0.000000D+00  0.000000D+00
     18   0.000000D+00  0.282566D+00  0.000000D+00  0.000000D+00  0.000000D+00
     19   0.000000D+00  0.000000D+00  0.000000D+00  0.000000D+00  0.000000D+00
     20   0.000000D+00  0.000000D+00  0.000000D+00  0.000000D+00  0.000000D+00
     21   0.000000D+00  0.000000D+00  0.000000D+00  0.000000D+00  0.000000D+00
     22   0.000000D+00  0.000000D+00  0.000000D+00  0.000000D+00  0.000000D+00
     23   0.000000D+00  0.000000D+00  0.000000D+00  0.000000D+00  0.000000D+00
     24   0.000000D+00  0.000000D+00  0.000000D+00  0.000000D+00  0.000000D+00
     25   0.000000D+00  0.000000D+00  0.000000D+00  0.000000D+00  0.000000D+00
     26   0.100000D+01  0.000000D+00  0.000000D+00  0.000000D+00  0.000000D+00
     27   0.000000D+00  0.100000D+01  0.000000D+00  0.000000D+00  0.000000D+00
     28   0.000000D+00  0.000000D+00  0.100000D+01  0.421836D+00  0.000000D+00
     29   0.000000D+00  0.000000D+00  0.421836D+00  0.100000D+01  0.000000D+00
     30   0.000000D+00  0.000000D+00  0.000000D+00  0.000000D+00  0.100000D+01
     31   0.000000D+00  0.000000D+00  0.000000D+00  0.000000D+00  0.000000D+00
     32   0.000000D+00  0.000000D+00  0.000000D+00  0.000000D+00  0.000000D+00
     33   0.000000D+00  0.000000D+00  0.516494D-01  0.493818D+00  0.000000D+00
     34   0.000000D+00  0.000000D+00  0.000000D+00  0.000000D+00  0.505120D+00
     35   0.000000D+00  0.000000D+00  0.000000D+00  0.000000D+00  0.000000D+00
     36   0.000000D+00  0.000000D+00  0.000000D+00  0.000000D+00  0.000000D+00
     37   0.000000D+00  0.000000D+00  0.000000D+00  0.000000D+00  0.000000D+00
     38   0.000000D+00  0.000000D+00  0.000000D+00  0.000000D+00  0.000000D+00
     39   0.000000D+00  0.000000D+00  0.000000D+00  0.000000D+00  0.000000D+00
     40   0.000000D+00  0.000000D+00  0.000000D+00  0.000000D+00  0.000000D+00
     41   0.000000D+00  0.000000D+00  0.000000D+00  0.000000D+00  0.000000D+00
     42   0.000000D+00 -0.106352D-04  0.300484D-03  0.328747D-01  0.000000D+00
     43   0.000000D+00  0.000000D+00  0.000000D+00  0.000000D+00  0.466401D-01
     44   0.000000D+00  0.000000D+00  0.000000D+00  0.000000D+00  0.000000D+00
     45   0.000000D+00 -0.153373D-04  0.000000D+00  0.000000D+00  0.000000D+00
     46   0.000000D+00 -0.134162D-04  0.000000D+00  0.000000D+00  0.000000D+00
     47   0.000000D+00  0.000000D+00  0.000000D+00  0.000000D+00  0.000000D+00
     48   0.000000D+00  0.000000D+00  0.000000D+00  0.000000D+00  0.000000D+00
     49   0.000000D+00  0.000000D+00  0.000000D+00  0.000000D+00  0.000000D+00
     50   0.000000D+00  0.000000D+00  0.000000D+00  0.000000D+00  0.000000D+00
     51   0.000000D+00 -0.266821D-02 -0.901374D-03 -0.412282D-02  0.000000D+00
     52   0.000000D+00  0.000000D+00  0.000000D+00  0.000000D+00  0.148975D-02
     53   0.359962D-03  0.000000D+00  0.000000D+00  0.000000D+00  0.000000D+00
     54   0.000000D+00 -0.498022D-02  0.000000D+00  0.000000D+00  0.000000D+00
                31            32            33            34            35 
      1   0.000000D+00  0.000000D+00  0.000000D+00  0.000000D+00  0.000000D+00
      2   0.000000D+00  0.000000D+00  0.000000D+00  0.000000D+00  0.000000D+00
      3   0.000000D+00  0.000000D+00  0.000000D+00  0.000000D+00  0.000000D+00
      4   0.000000D+00  0.000000D+00  0.000000D+00  0.000000D+00  0.000000D+00
      5   0.000000D+00  0.000000D+00  0.000000D+00  0.000000D+00  0.000000D+00
      6   0.000000D+00  0.000000D+00  0.000000D+00  0.000000D+00  0.000000D+00
      7   0.000000D+00  0.000000D+00  0.000000D+00  0.000000D+00  0.000000D+00
      8   0.000000D+00  0.000000D+00  0.000000D+00  0.000000D+00  0.000000D+00
      9   0.000000D+00  0.000000D+00  0.000000D+00  0.000000D+00  0.000000D+00
     10   0.000000D+00  0.000000D+00  0.000000D+00  0.000000D+00  0.000000D+00
     11   0.000000D+00  0.000000D+00  0.000000D+00  0.000000D+00  0.000000D+00
     12   0.000000D+00  0.000000D+00  0.000000D+00  0.000000D+00  0.000000D+00
     13   0.000000D+00  0.000000D+00  0.000000D+00  0.000000D+00  0.000000D+00
     14   0.000000D+00  0.000000D+00  0.000000D+00  0.000000D+00  0.000000D+00
     15   0.000000D+00  0.000000D+00  0.000000D+00  0.000000D+00  0.000000D+00
     16   0.000000D+00  0.000000D+00  0.000000D+00  0.000000D+00  0.000000D+00
     17   0.000000D+00  0.000000D+00  0.000000D+00  0.000000D+00  0.000000D+00
     18   0.000000D+00  0.000000D+00  0.000000D+00  0.000000D+00  0.000000D+00
     19   0.000000D+00  0.000000D+00  0.000000D+00  0.000000D+00  0.000000D+00
     20   0.000000D+00  0.000000D+00  0.000000D+00  0.000000D+00  0.000000D+00
     21   0.000000D+00  0.000000D+00  0.000000D+00  0.000000D+00  0.000000D+00
     22   0.000000D+00  0.000000D+00  0.000000D+00  0.000000D+00  0.000000D+00
     23   0.000000D+00  0.000000D+00  0.000000D+00  0.000000D+00  0.000000D+00
     24   0.000000D+00  0.000000D+00  0.000000D+00  0.000000D+00  0.000000D+00
     25   0.000000D+00  0.000000D+00  0.000000D+00  0.000000D+00  0.000000D+00
     26   0.000000D+00  0.000000D+00  0.000000D+00  0.000000D+00  0.000000D+00
     27   0.000000D+00  0.000000D+00  0.000000D+00  0.000000D+00  0.000000D+00
     28   0.000000D+00  0.000000D+00  0.516494D-01  0.000000D+00  0.000000D+00
     29   0.000000D+00  0.000000D+00  0.493818D+00  0.000000D+00  0.000000D+00
     30   0.000000D+00  0.000000D+00  0.000000D+00  0.505120D+00  0.000000D+00
     31   0.100000D+01  0.000000D+00  0.000000D+00  0.000000D+00  0.505120D+00
     32   0.000000D+00  0.100000D+01  0.000000D+00  0.000000D+00  0.000000D+00
     33   0.000000D+00  0.000000D+00  0.100000D+01  0.000000D+00  0.000000D+00
     34   0.000000D+00  0.000000D+00  0.000000D+00  0.100000D+01  0.000000D+00
     35   0.505120D+00  0.000000D+00  0.000000D+00  0.000000D+00  0.100000D+01
     36   0.000000D+00  0.505120D+00  0.000000D+00  0.000000D+00  0.000000D+00
     37   0.000000D+00  0.000000D+00  0.000000D+00  0.000000D+00  0.000000D+00
     38   0.000000D+00  0.000000D+00  0.000000D+00  0.000000D+00  0.000000D+00
     39   0.000000D+00  0.000000D+00  0.000000D+00  0.000000D+00  0.000000D+00
     40   0.000000D+00  0.000000D+00  0.000000D+00  0.000000D+00  0.000000D+00
     41   0.000000D+00  0.000000D+00  0.000000D+00  0.000000D+00  0.000000D+00
     42   0.000000D+00  0.000000D+00  0.342269D+00  0.000000D+00  0.000000D+00
     43   0.000000D+00  0.000000D+00  0.000000D+00  0.356711D+00  0.000000D+00
     44   0.466401D-01  0.000000D+00  0.000000D+00  0.000000D+00  0.356711D+00
     45   0.000000D+00  0.466401D-01  0.000000D+00  0.000000D+00  0.000000D+00
     46   0.000000D+00  0.000000D+00  0.000000D+00  0.000000D+00  0.000000D+00
     47   0.000000D+00  0.000000D+00  0.000000D+00  0.000000D+00  0.000000D+00
     48   0.000000D+00  0.000000D+00  0.000000D+00  0.000000D+00  0.000000D+00
     49   0.000000D+00  0.000000D+00  0.000000D+00  0.000000D+00  0.000000D+00
     50   0.000000D+00  0.000000D+00  0.000000D+00  0.000000D+00  0.000000D+00
     51   0.000000D+00  0.000000D+00  0.246889D-02  0.000000D+00  0.000000D+00
     52   0.000000D+00  0.000000D+00  0.000000D+00  0.176979D-01  0.000000D+00
     53   0.148975D-02  0.000000D+00  0.000000D+00  0.000000D+00  0.176979D-01
     54   0.000000D+00  0.148975D-02  0.000000D+00  0.000000D+00  0.000000D+00
                36            37            38            39            40 
      1   0.000000D+00  0.000000D+00  0.000000D+00  0.000000D+00  0.000000D+00
      2   0.000000D+00  0.000000D+00  0.000000D+00  0.000000D+00  0.000000D+00
      3   0.000000D+00  0.000000D+00  0.000000D+00  0.000000D+00  0.000000D+00
      4   0.000000D+00  0.000000D+00  0.000000D+00  0.000000D+00  0.000000D+00
      5   0.000000D+00  0.000000D+00  0.000000D+00  0.000000D+00  0.000000D+00
      6   0.000000D+00  0.000000D+00  0.000000D+00  0.000000D+00  0.000000D+00
      7   0.000000D+00  0.000000D+00  0.000000D+00  0.000000D+00  0.000000D+00
      8   0.000000D+00  0.000000D+00  0.000000D+00  0.000000D+00  0.000000D+00
      9   0.000000D+00  0.000000D+00  0.000000D+00  0.000000D+00  0.000000D+00
     10   0.000000D+00  0.000000D+00  0.000000D+00  0.000000D+00  0.000000D+00
     11   0.000000D+00  0.000000D+00  0.000000D+00  0.000000D+00  0.000000D+00
     12   0.000000D+00  0.000000D+00  0.000000D+00  0.000000D+00  0.000000D+00
     13   0.000000D+00  0.000000D+00  0.000000D+00  0.000000D+00  0.000000D+00
     14   0.000000D+00  0.000000D+00  0.000000D+00  0.000000D+00  0.000000D+00
     15   0.000000D+00  0.000000D+00  0.000000D+00  0.000000D+00  0.000000D+00
     16   0.000000D+00  0.000000D+00  0.000000D+00  0.000000D+00  0.000000D+00
     17   0.000000D+00  0.000000D+00  0.000000D+00  0.000000D+00  0.000000D+00
     18   0.000000D+00  0.000000D+00  0.000000D+00  0.000000D+00  0.000000D+00
     19   0.000000D+00  0.000000D+00  0.000000D+00  0.000000D+00  0.000000D+00
     20   0.000000D+00  0.000000D+00  0.000000D+00  0.000000D+00  0.000000D+00
     21   0.000000D+00  0.000000D+00  0.000000D+00  0.000000D+00  0.000000D+00
     22   0.000000D+00  0.000000D+00  0.000000D+00  0.000000D+00  0.000000D+00
     23   0.000000D+00  0.000000D+00  0.000000D+00  0.000000D+00  0.000000D+00
     24   0.000000D+00  0.000000D+00  0.000000D+00  0.000000D+00  0.000000D+00
     25   0.000000D+00  0.000000D+00  0.000000D+00  0.000000D+00  0.000000D+00
     26   0.000000D+00  0.000000D+00  0.000000D+00  0.000000D+00  0.000000D+00
     27   0.000000D+00  0.000000D+00  0.000000D+00  0.000000D+00  0.000000D+00
     28   0.000000D+00  0.000000D+00  0.000000D+00  0.000000D+00  0.000000D+00
     29   0.000000D+00  0.000000D+00  0.000000D+00  0.000000D+00  0.000000D+00
     30   0.000000D+00  0.000000D+00  0.000000D+00  0.000000D+00  0.000000D+00
     31   0.000000D+00  0.000000D+00  0.000000D+00  0.000000D+00  0.000000D+00
     32   0.505120D+00  0.000000D+00  0.000000D+00  0.000000D+00  0.000000D+00
     33   0.000000D+00  0.000000D+00  0.000000D+00  0.000000D+00  0.000000D+00
     34   0.000000D+00  0.000000D+00  0.000000D+00  0.000000D+00  0.000000D+00
     35   0.000000D+00  0.000000D+00  0.000000D+00  0.000000D+00  0.000000D+00
     36   0.100000D+01  0.000000D+00  0.000000D+00  0.000000D+00  0.000000D+00
     37   0.000000D+00  0.100000D+01  0.000000D+00  0.000000D+00  0.000000D+00
     38   0.000000D+00  0.000000D+00  0.100000D+01  0.000000D+00  0.000000D+00
     39   0.000000D+00  0.000000D+00  0.000000D+00  0.100000D+01  0.000000D+00
     40   0.000000D+00  0.000000D+00  0.000000D+00  0.000000D+00  0.100000D+01
     41   0.000000D+00  0.000000D+00  0.000000D+00  0.000000D+00  0.000000D+00
     42   0.000000D+00  0.000000D+00  0.000000D+00  0.000000D+00  0.000000D+00
     43   0.000000D+00  0.000000D+00  0.000000D+00  0.000000D+00  0.000000D+00
     44   0.000000D+00  0.000000D+00  0.000000D+00  0.000000D+00  0.000000D+00
     45   0.356711D+00  0.000000D+00  0.000000D+00  0.000000D+00  0.000000D+00
     46   0.000000D+00  0.357645D+00  0.000000D+00  0.000000D+00  0.000000D+00
     47   0.000000D+00  0.000000D+00  0.357645D+00  0.000000D+00  0.000000D+00
     48   0.000000D+00  0.000000D+00  0.000000D+00  0.357645D+00  0.000000D+00
     49   0.000000D+00  0.000000D+00  0.000000D+00  0.000000D+00  0.357645D+00
     50   0.000000D+00  0.000000D+00  0.000000D+00  0.000000D+00  0.000000D+00
     51   0.000000D+00  0.000000D+00  0.000000D+00  0.000000D+00  0.000000D+00
     52   0.000000D+00  0.000000D+00  0.000000D+00  0.000000D+00  0.000000D+00
     53   0.000000D+00  0.000000D+00  0.000000D+00  0.000000D+00  0.000000D+00
     54   0.176979D-01  0.000000D+00  0.000000D+00  0.000000D+00  0.000000D+00
                41            42            43            44            45 
      1   0.000000D+00  0.000000D+00  0.000000D+00  0.000000D+00  0.000000D+00
      2   0.000000D+00  0.000000D+00  0.000000D+00  0.000000D+00  0.000000D+00
      3   0.000000D+00  0.000000D+00  0.000000D+00  0.000000D+00  0.000000D+00
      4   0.000000D+00  0.000000D+00  0.000000D+00  0.000000D+00  0.000000D+00
      5   0.000000D+00  0.000000D+00  0.000000D+00  0.000000D+00  0.000000D+00
      6   0.000000D+00  0.000000D+00  0.000000D+00  0.000000D+00  0.000000D+00
      7   0.000000D+00  0.000000D+00  0.000000D+00  0.000000D+00  0.000000D+00
      8   0.000000D+00  0.000000D+00  0.000000D+00  0.000000D+00  0.000000D+00
      9   0.000000D+00  0.000000D+00  0.000000D+00  0.000000D+00  0.000000D+00
     10   0.000000D+00  0.000000D+00  0.000000D+00  0.000000D+00  0.000000D+00
     11   0.000000D+00  0.000000D+00  0.000000D+00  0.000000D+00  0.000000D+00
     12   0.000000D+00  0.000000D+00  0.000000D+00  0.000000D+00  0.000000D+00
     13   0.000000D+00  0.000000D+00  0.000000D+00  0.000000D+00  0.000000D+00
     14   0.000000D+00  0.000000D+00  0.000000D+00  0.000000D+00  0.000000D+00
     15   0.000000D+00  0.000000D+00  0.000000D+00  0.000000D+00  0.000000D+00
     16   0.000000D+00  0.000000D+00  0.000000D+00  0.000000D+00  0.000000D+00
     17   0.000000D+00  0.000000D+00  0.000000D+00  0.000000D+00  0.000000D+00
     18   0.000000D+00  0.000000D+00  0.000000D+00  0.000000D+00  0.000000D+00
     19   0.000000D+00  0.000000D+00  0.000000D+00  0.000000D+00  0.000000D+00
     20   0.000000D+00  0.000000D+00  0.000000D+00  0.000000D+00  0.000000D+00
     21   0.000000D+00  0.000000D+00  0.000000D+00  0.000000D+00  0.000000D+00
     22   0.000000D+00  0.000000D+00  0.000000D+00  0.000000D+00  0.000000D+00
     23   0.000000D+00  0.000000D+00  0.000000D+00  0.000000D+00  0.000000D+00
     24   0.000000D+00  0.334987D-05  0.000000D+00  0.000000D+00  0.496737D-05
     25   0.000000D+00  0.000000D+00  0.000000D+00  0.000000D+00  0.000000D+00
     26   0.000000D+00  0.000000D+00  0.000000D+00  0.000000D+00  0.000000D+00
     27   0.000000D+00 -0.106352D-04  0.000000D+00  0.000000D+00 -0.153373D-04
     28   0.000000D+00  0.300484D-03  0.000000D+00  0.000000D+00  0.000000D+00
     29   0.000000D+00  0.328747D-01  0.000000D+00  0.000000D+00  0.000000D+00
     30   0.000000D+00  0.000000D+00  0.466401D-01  0.000000D+00  0.000000D+00
     31   0.000000D+00  0.000000D+00  0.000000D+00  0.466401D-01  0.000000D+00
     32   0.000000D+00  0.000000D+00  0.000000D+00  0.000000D+00  0.466401D-01
     33   0.000000D+00  0.342269D+00  0.000000D+00  0.000000D+00  0.000000D+00
     34   0.000000D+00  0.000000D+00  0.356711D+00  0.000000D+00  0.000000D+00
     35   0.000000D+00  0.000000D+00  0.000000D+00  0.356711D+00  0.000000D+00
     36   0.000000D+00  0.000000D+00  0.000000D+00  0.000000D+00  0.356711D+00
     37   0.000000D+00  0.000000D+00  0.000000D+00  0.000000D+00  0.000000D+00
     38   0.000000D+00  0.000000D+00  0.000000D+00  0.000000D+00  0.000000D+00
     39   0.000000D+00  0.000000D+00  0.000000D+00  0.000000D+00  0.000000D+00
     40   0.000000D+00  0.000000D+00  0.000000D+00  0.000000D+00  0.000000D+00
     41   0.100000D+01  0.000000D+00  0.000000D+00  0.000000D+00  0.000000D+00
     42   0.000000D+00  0.100000D+01  0.000000D+00  0.000000D+00  0.000000D+00
     43   0.000000D+00  0.000000D+00  0.100000D+01  0.000000D+00  0.000000D+00
     44   0.000000D+00  0.000000D+00  0.000000D+00  0.100000D+01  0.000000D+00
     45   0.000000D+00  0.000000D+00  0.000000D+00  0.000000D+00  0.100000D+01
     46   0.000000D+00  0.000000D+00  0.000000D+00  0.000000D+00  0.000000D+00
     47   0.000000D+00  0.000000D+00  0.000000D+00  0.000000D+00  0.000000D+00
     48   0.000000D+00  0.000000D+00  0.000000D+00  0.000000D+00  0.000000D+00
     49   0.000000D+00  0.000000D+00  0.000000D+00  0.000000D+00  0.000000D+00
     50   0.357645D+00  0.000000D+00  0.000000D+00  0.000000D+00  0.000000D+00
     51   0.000000D+00  0.273894D+00  0.000000D+00  0.000000D+00  0.000000D+00
     52   0.000000D+00  0.000000D+00  0.282566D+00  0.000000D+00  0.000000D+00
     53   0.000000D+00  0.000000D+00  0.000000D+00  0.282566D+00  0.000000D+00
     54   0.000000D+00  0.000000D+00  0.000000D+00  0.000000D+00  0.282566D+00
                46            47            48            49            50 
      1   0.000000D+00  0.000000D+00  0.000000D+00  0.000000D+00  0.000000D+00
      2   0.000000D+00  0.000000D+00  0.000000D+00  0.000000D+00  0.000000D+00
      3   0.000000D+00  0.000000D+00  0.000000D+00  0.000000D+00  0.000000D+00
[...]
   50    | -0.007914 -0.000027 -0.000001  0.000000 -0.005348 -0.000023
         |
   51    | -0.007914 -0.000023 -0.000001 -0.007910 -0.018332 -0.000026
   51    | -0.007914 -0.000023 -0.000001 -0.007910  0.000000 -0.000026
         |
   52    | -0.000060 -0.007910 -0.007094 -0.000023 -0.000027 -0.018332
   52    | -0.000060 -0.007910 -0.007094 -0.000023 -0.000027  0.000000
         |
   53    | -0.000188 -0.007897 -0.006692 -0.000061 -0.000061 -0.007897
   53    | -0.000188 -0.007897 -0.006692 -0.000061 -0.000061 -0.007897
         |
   54    | -0.007033 -0.000003  0.000000 -0.007080 -0.007080 -0.000003
   54    | -0.007033 -0.000003  0.000000 -0.007080 -0.007080 -0.000003
         |

 AB - AA |     53        54
 BA - BB |     53        54
------------------------------
   47    | -0.000159 -0.001234
   47    | -0.000159 -0.001234
         |
   48    | -0.005254 -0.000003
   48    | -0.005254 -0.000003
         |
   49    | -0.001240  0.000000
   49    | -0.001240  0.000000
         |
   50    | -0.000056 -0.001249
   50    | -0.000056 -0.001249
         |
   51    | -0.000056 -0.001249
   51    | -0.000056 -0.001249
         |
   52    | -0.005254 -0.000003
   52    | -0.005254 -0.000003
         |
   53    | -0.018470 -0.000011
   53    |  0.000000 -0.000011
         |
   54    | -0.000015 -0.008453
   54    | -0.000015  0.000000
         |

                     Sum of ab pair energies =    -0.217686 A.U.
                     Sum of ba pair energies =    -0.090078 A.U.
                     Sum of aa pair energies =    -0.040015 A.U.
                     Sum of bb pair energies =    -0.040015 A.U.

           Sum of intraorbital pair energies =    -0.127608 A.U.
           Sum of interorbital pair energies =    -0.260184 A.U.
                                                  ----------
                         Total pair energies =    -0.387793 A.U.

                         Single Excitations  =     0.000000 A.U.

                          Total second order =    -0.387793 A.U.



            MP2(CBS) (With Interference Correction) 
            ---------------------------------------

 AB - AA |     47        48        49        50        51        52
 BA - BB |     47        48        49        50        51        52
----------------------------------------------------------------------
   47    | -0.017761 -0.000055 -0.000005 -0.005320 -0.005320 -0.000055
   47    |  0.000000 -0.000055 -0.000005 -0.005320 -0.005320 -0.000055
         |
   48    | -0.000060 -0.017735 -0.001327 -0.000026 -0.000023 -0.005332
   48    | -0.000060  0.000000 -0.001327 -0.000026 -0.000023 -0.005332
         |
   49    | -0.000009 -0.006872 -0.008698 -0.000001 -0.000001 -0.001327
   49    | -0.000009 -0.006872  0.000000 -0.000001 -0.000001 -0.001327
         |
   50    | -0.007747 -0.000027 -0.000001 -0.017735 -0.005332 -0.000023
   50    | -0.007747 -0.000027 -0.000001  0.000000 -0.005332 -0.000023
         |
   51    | -0.007747 -0.000023 -0.000001 -0.007745 -0.017735 -0.000026
   51    | -0.007747 -0.000023 -0.000001 -0.007745  0.000000 -0.000026
         |
   52    | -0.000060 -0.007745 -0.006872 -0.000023 -0.000027 -0.017735
   52    | -0.000060 -0.007745 -0.006872 -0.000023 -0.000027  0.000000
         |
   53    | -0.000187 -0.007730 -0.006485 -0.000061 -0.000061 -0.007730
   53    | -0.000187 -0.007730 -0.006485 -0.000061 -0.000061 -0.007730
         |
   54    | -0.006809 -0.000003  0.000000 -0.006855 -0.006855 -0.000003
   54    | -0.006809 -0.000003  0.000000 -0.006855 -0.006855 -0.000003
         |

 AB - AA |     53        54
 BA - BB |     53        54
------------------------------
   47    | -0.000159 -0.001229
   47    | -0.000159 -0.001229
         |
   48    | -0.005238 -0.000003
   48    | -0.005238 -0.000003
         |
   49    | -0.001234  0.000000
   49    | -0.001234  0.000000
         |
   50    | -0.000056 -0.001243
   50    | -0.000056 -0.001243
         |
   51    | -0.000056 -0.001243
   51    | -0.000056 -0.001243
         |
   52    | -0.005238 -0.000003
   52    | -0.005238 -0.000003
         |
   53    | -0.017882 -0.000011
   53    |  0.000000 -0.000011
         |
   54    | -0.000015 -0.008172
   54    | -0.000015  0.000000
         |

                     Sum of ab pair energies =    -0.211205 A.U.
                     Sum of ba pair energies =    -0.087752 A.U.
                     Sum of aa pair energies =    -0.039885 A.U.
                     Sum of bb pair energies =    -0.039885 A.U.

           Sum of intraorbital pair energies =    -0.123453 A.U.
           Sum of interorbital pair energies =    -0.255275 A.U.
                                                  ----------
                         Total pair energies =    -0.378728 A.U.

                         Single Excitations  =     0.000000 A.U.

                          Total second order =    -0.378728 A.U.

                         E2(CBS) - E2(Dir) =      -0.018616 A.U.

 E2(CBS)=      -0.387793 CBS-Int=       0.009064 OIii=       3.178298

 **********************************************************************

            Population analysis using the SCF density.

 **********************************************************************

 Orbital symmetries:
       Occupied  (SGU) (SGG) (SGU) (SGG) (PIG) (PIG) (PIU) (PIU)
                 (SGG) (SGU) (SGU) (SGG) (PIG) (PIG) (PIU) (PIU)
                 (SGU) (SGG) (DLTU) (DLTU) (DLTG) (DLTG) (PIG)
                 (PIG) (PIU) (PIU) (SGU) (SGG) (SGU) (SGG) (PIG)
                 (PIG) (PIU) (PIU) (SGU) (SGG) (DLTU) (DLTU) (DLTG)
                 (DLTG) (PIG) (PIG) (PIU) (PIU) (SGU) (SGG) (SGG)
                 (SGU) (SGG) (PIU) (PIU) (PIG) (PIG) (SGU)
       Virtual   (SGU) (PIU) (PIU) (SGG) (PIG) (PIG) (SGG) (SGU)
                 (PIU) (PIU) (DLTG) (DLTG) (DLTU) (DLTU) (SGG)
                 (PIG) (PIG) (SGU) (SGG) (PIU) (PIU) (DLTG) (DLTG)
                 (SGG) (PIU) (PIU) (DLTG) (DLTG) (DLTU) (DLTU)
                 (PIG) (PIG) (SGU) (PHIU) (PHIU) (PIG) (PIG) (SGU)
                 (PHIG) (PHIG) (PIU) (PIU) (DLTU) (DLTU) (SGG)
                 (PIG) (PIG) (SGG) (SGU) (SGU) (DLTG) (DLTG) (PHIU)
                 (PHIU) (PIU) (PIU) (?A) (?A) (?B) (?B) (SGG) (PHIG)
                 (PHIG) (DLTU) (DLTU) (PIG) (PIG) (SGU) (DLTG)
                 (DLTG) (PHIU) (PHIU) (PIU) (PIU) (PHIG) (PHIG)
                 (DLTG) (DLTG) (DLTU) (DLTU) (SGG) (PIU) (PIU)
                 (SGU) (DLTU) (DLTU) (PIG) (PIG) (SGG) (PIG) (PIG)
                 (SGU) (SGG) (DLTG) (DLTG) (PIU) (PIU) (PHIU) (PHIU)
                 (PIU) (PIU) (?A) (?A) (?C) (?C) (?D) (?D) (?B)
                 (?B) (PIG) (PIG) (PHIG) (PHIG) (SGG) (DLTU) (DLTU)
                 (SGU) (PIG) (PIG) (DLTG) (DLTG) (PHIU) (PHIU)
                 (PHIG) (PHIG) (PIU) (PIU) (DLTU) (DLTU) (SGG)
                 (PIG) (PIG) (SGU) (PHIU) (PHIU) (DLTG) (DLTG)
                 (?A) (?A) (?B) (?B) (SGU) (PHIG) (PHIG) (PIU)
                 (PIU) (DLTU) (DLTU) (SGU) (SGG) (PIG) (PIG) (SGU)
                 (DLTG) (DLTG) (PIU) (PIU) (DLTU) (DLTU) (SGG)
                 (PIG) (PIG) (SGG) (SGU) (DLTG) (DLTG) (PHIU) (PHIU)
                 (PIU) (PIU) (?A) (?A) (SGG) (?C) (?C) (?D) (?D)
                 (?B) (?B) (PHIG) (PHIG) (DLTU) (DLTU) (PIG) (PIG)
                 (SGU) (PHIU) (PHIU) (DLTG) (DLTG) (?A) (?A) (?B)
                 (?B) (PHIG) (PHIG) (SGG) (PIU) (PIU) (SGU) (DLTU)
                 (DLTU) (PIG) (PIG) (DLTG) (DLTG) (PHIU) (PHIU)
                 (PHIG) (PHIG) (PIU) (PIU) (SGG) (PIG) (PIG) (DLTU)
                 (DLTU) (PIU) (PIU) (SGU) (PIG) (PIG) (SGG) (SGU)
                 (DLTG) (DLTG) (PIU) (PIU) (DLTU) (DLTU) (SGU)
                 (PIG) (PIG) (SGG) (?E) (?E) (?F) (?F) (?C) (?C)
                 (?D) (?D) (?A) (?A) (?B) (?B) (PHIU) (PHIU) (PHIG)
                 (PHIG) (DLTG) (DLTG) (DLTU) (DLTU) (PIU) (PIU)
                 (SGG) (PIG) (PIG) (SGU) (PHIU) (PHIU) (DLTG) (DLTG)
                 (?A) (?A) (?B) (?B) (PHIG) (PHIG) (DLTU) (DLTU)
                 (PIU) (PIU) (SGG) (SGU) (PIG) (PIG) (SGG) (DLTG)
                 (DLTG) (PHIU) (PHIU) (?A) (?A) (?C) (?C) (?D)
                 (?D) (?B) (?B) (PIU) (PIU) (SGU) (PHIG) (PHIG)
                 (SGG) (DLTU) (DLTU) (PIG) (PIG) (SGU) (DLTG) (DLTG)
                 (PHIU) (PHIU) (PHIG) (PHIG) (DLTU) (DLTU) (PIU)
                 (PIU) (PIG) (PIG) (SGU) (SGG) (PIU) (PIU) (PIG)
                 (PIG) (SGG) (SGU) (DLTG) (DLTG) (PIU) (PIU) (DLTU)
                 (DLTU) (PIG) (PIG) (SGU) (SGG) (SGG) (SGU) (PIU)
                 (PIU) (PIG) (PIG) (SGG) (SGU) (SGG) (SGU)
 The electronic state is 1-SGG.
 Alpha  occ. eigenvalues -- ********************-189.33955-189.33955-177.78187
 Alpha  occ. eigenvalues -- -177.78187-177.78187-177.78187-177.78186-177.78186
 Alpha  occ. eigenvalues --  -40.17518 -40.17518 -35.22118 -35.22118 -35.22118
 Alpha  occ. eigenvalues --  -35.22118 -35.22116 -35.22116 -26.11838 -26.11838
 Alpha  occ. eigenvalues --  -26.11838 -26.11838 -26.11836 -26.11836 -26.11836
 Alpha  occ. eigenvalues --  -26.11836 -26.11835 -26.11835  -7.85588  -7.85588
 Alpha  occ. eigenvalues --   -6.00793  -6.00793  -6.00793  -6.00793  -6.00790
 Alpha  occ. eigenvalues --   -6.00790  -2.77750  -2.77750  -2.77750  -2.77750
 Alpha  occ. eigenvalues --   -2.77745  -2.77745  -2.77745  -2.77745  -2.77744
 Alpha  occ. eigenvalues --   -2.77744  -0.94575  -0.94291  -0.46864  -0.45880
 Alpha  occ. eigenvalues --   -0.45880  -0.45548  -0.45548  -0.44601
 Alpha virt. eigenvalues --    0.05822   0.07343   0.07343   0.08617   0.09308
 Alpha virt. eigenvalues --    0.09308   0.09714   0.15815   0.16053   0.16053
 Alpha virt. eigenvalues --    0.16425   0.16425   0.18932   0.18932   0.19884
 Alpha virt. eigenvalues --    0.23603   0.23603   0.25141   0.39358   0.40211
 Alpha virt. eigenvalues --    0.40211   0.41805   0.41805   0.42842   0.42993
 Alpha virt. eigenvalues --    0.42993   0.43092   0.43092   0.43462   0.43462
 Alpha virt. eigenvalues --    0.44223   0.44223   0.44616   0.44950   0.44950
 Alpha virt. eigenvalues --    0.45820   0.45820   0.46445   0.46561   0.46561
 Alpha virt. eigenvalues --    0.47638   0.47638   0.51050   0.51050   0.52762
 Alpha virt. eigenvalues --    0.61294   0.61294   0.69274   0.69599   0.79295
 Alpha virt. eigenvalues --    0.79892   0.79892   0.82561   0.82561   0.82719
 Alpha virt. eigenvalues --    0.82719   0.84889   0.84889   0.85470   0.85470
 Alpha virt. eigenvalues --    0.86497   0.87781   0.87781   0.92962   0.92962
 Alpha virt. eigenvalues --    0.95374   0.95374   0.96090   0.99107   0.99107
 Alpha virt. eigenvalues --    0.99461   0.99461   0.99930   0.99930   1.00450
 Alpha virt. eigenvalues --    1.00450   1.00556   1.00556   1.02082   1.02082
 Alpha virt. eigenvalues --    1.02563   1.04387   1.04387   1.04887   1.05336
 Alpha virt. eigenvalues --    1.05336   1.08035   1.08035   1.13880   1.17114
 Alpha virt. eigenvalues --    1.17114   1.21073   1.36721   1.38891   1.38891
 Alpha virt. eigenvalues --    1.39655   1.39655   1.41549   1.41549   1.43217
 Alpha virt. eigenvalues --    1.43217   1.44289   1.44289   1.44958   1.44958
 Alpha virt. eigenvalues --    1.45059   1.45059   1.45720   1.45720   1.46085
 Alpha virt. eigenvalues --    1.46085   1.48897   1.48897   1.52149   1.56301
 Alpha virt. eigenvalues --    1.56301   1.61432   1.66771   1.66771   1.73466
 Alpha virt. eigenvalues --    1.73466   1.73525   1.73525   1.74371   1.74371
 Alpha virt. eigenvalues --    1.75574   1.75574   1.75848   1.75848   1.77551
 Alpha virt. eigenvalues --    1.78588   1.78588   1.79879   1.80668   1.80668
 Alpha virt. eigenvalues --    1.81206   1.81206   1.81888   1.81888   1.82387
 Alpha virt. eigenvalues --    1.82387   1.83456   1.84641   1.84641   1.91537
 Alpha virt. eigenvalues --    1.91537   1.93968   1.93968   1.99731   2.04403
 Alpha virt. eigenvalues --    2.11859   2.11859   2.21106   2.21432   2.21432
 Alpha virt. eigenvalues --    2.22559   2.22559   2.23265   2.23265   2.31064
 Alpha virt. eigenvalues --    2.32977   2.32977   2.35210   2.69230   3.15637
 Alpha virt. eigenvalues --    3.15637   3.16564   3.16564   3.17596   3.17596
 Alpha virt. eigenvalues --    3.18455   3.18455   3.18753   3.18944   3.18944
 Alpha virt. eigenvalues --    3.19020   3.19020   3.19510   3.19510   3.21623
 Alpha virt. eigenvalues --    3.21623   3.25483   3.25483   3.29914   3.29914
 Alpha virt. eigenvalues --    3.30695   3.33134   3.33134   3.33975   3.33975
 Alpha virt. eigenvalues --    3.34061   3.34061   3.34486   3.34486   3.36378
 Alpha virt. eigenvalues --    3.36378   3.38479   3.39755   3.39755   3.41631
 Alpha virt. eigenvalues --    3.42116   3.42116   3.47572   3.47572   3.51530
 Alpha virt. eigenvalues --    3.51530   3.51755   3.51755   3.52642   3.52642
 Alpha virt. eigenvalues --    3.54493   3.54493   3.54589   3.55043   3.55043
 Alpha virt. eigenvalues --    3.56894   3.56894   3.58439   3.58439   3.60504
 Alpha virt. eigenvalues --    3.74266   3.74266   3.93961   4.02294   4.72562
 Alpha virt. eigenvalues --    4.72562   4.73790   4.73790   4.74163   4.74163
 Alpha virt. eigenvalues --    4.77631   4.79149   4.79149   4.83889   5.00406
 Alpha virt. eigenvalues --    5.00406   5.00406   5.00406   5.00408   5.00408
 Alpha virt. eigenvalues --    5.00408   5.00408   5.00408   5.00408   5.00408
 Alpha virt. eigenvalues --    5.00408   5.00408   5.00408   5.00410   5.00410
 Alpha virt. eigenvalues --    5.00418   5.00418   5.00451   5.00455   5.00455
 Alpha virt. eigenvalues --    5.00463   5.00463   5.01214   5.01214   5.02436
 Alpha virt. eigenvalues --    5.48174   5.48174   5.49067   5.49067   5.49073
 Alpha virt. eigenvalues --    5.49073   5.49443   5.49443   5.50768   5.50768
 Alpha virt. eigenvalues --    5.53975   5.53975   5.54012   5.54012   5.55936
 Alpha virt. eigenvalues --    5.56049   5.58040   5.58040   5.98705   6.03106
 Alpha virt. eigenvalues --    6.03106   6.03763   6.03763   6.04948   6.04948
 Alpha virt. eigenvalues --    6.05278   6.05278   6.05331   6.05331   6.05681
 Alpha virt. eigenvalues --    6.05681   6.06349   6.06349   6.07116   6.07441
 Alpha virt. eigenvalues --    6.07441   6.12142   6.12332   6.12332   6.20050
 Alpha virt. eigenvalues --    6.20050   6.32412   6.51984   6.51984   6.52211
 Alpha virt. eigenvalues --    6.52211   6.52980   6.52980   6.55603   6.55603
 Alpha virt. eigenvalues --    6.56027   6.56027   6.61290   6.61290   6.61429
 Alpha virt. eigenvalues --    6.66806   7.95874   7.95874   8.00527   8.00527
 Alpha virt. eigenvalues --    8.11063   8.38942  10.65591  10.65591  10.66629
 Alpha virt. eigenvalues --   10.66629  10.67022  10.67022  10.71521  10.71521
 Alpha virt. eigenvalues --   10.72054  10.74671  15.28605  15.51176  18.35559
 Alpha virt. eigenvalues --   18.35559  18.39549  18.39549  18.46696  18.77149
 Alpha virt. eigenvalues --  392.36612 396.43635
          Condensed to atoms (all electrons):
              1          2
     1  Xe  54.004308  -0.004308
     2  Xe  -0.004308  54.004308
          Atomic-Atomic Spin Densities.
              1          2
     1  Xe   0.000000   0.000000
     2  Xe   0.000000   0.000000
 Mulliken charges and spin densities:
              1          2
     1  Xe   0.000000   0.000000
     2  Xe   0.000000   0.000000
 Sum of Mulliken charges =   0.00000 spin densities =   0.000000
 Mulliken charges and spin densities with hydrogens summed into heavy atoms:
              1          2
     1  Xe   0.000000   0.000000
     2  Xe   0.000000   0.000000
 Sum of Mulliken charges with hydrogens summed into heavy atoms =   0.00000 spin densities =   0.000000
 Electronic spatial extent (au):  <R**2>=           1960.5647
 Charge=              0.0000 electrons
 Dipole moment (field-independent basis, Debye):
    X=              0.0000    Y=              0.0000    Z=              0.0000  Tot=              0.0000
 Quadrupole moment (field-independent basis, Debye-Ang):
   XX=            -56.1684   YY=            -56.1684   ZZ=            -56.3467
   XY=              0.0000   XZ=              0.0000   YZ=              0.0000
 Traceless Quadrupole moment (field-independent basis, Debye-Ang):
   XX=              0.0594   YY=              0.0594   ZZ=             -0.1188
   XY=              0.0000   XZ=              0.0000   YZ=              0.0000
 Octapole moment (field-independent basis, Debye-Ang**2):
  XXX=              0.0000  YYY=              0.0000  ZZZ=              0.0000  XYY=              0.0000
  XXY=              0.0000  XXZ=              0.0000  XZZ=              0.0000  YZZ=              0.0000
  YYZ=              0.0000  XYZ=              0.0000
 Hexadecapole moment (field-independent basis, Debye-Ang**3):
 XXXX=            -70.9356 YYYY=            -70.9356 ZZZZ=          -1676.9188 XXXY=              0.0000
 XXXZ=              0.0000 YYYX=              0.0000 YYYZ=              0.0000 ZZZX=              0.0000
 ZZZY=              0.0000 XXYY=            -23.6452 XXZZ=           -291.0677 YYZZ=           -291.0677
 XXYZ=              0.0000 YYXZ=              0.0000 ZZXY=              0.0000
 N-N= 3.536985674579D+02 E-N=-5.255679505631D+04  KE= 2.169644713135D+04
                          Isotropic Fermi Contact Couplings
        Atom                 a.u.       MegaHertz       Gauss      10(-4) cm-1
     1  Xe(129             0.00000       0.00000       0.00000       0.00000
     2  Xe(129             0.00000       0.00000       0.00000       0.00000
 --------------------------------------------------------
       Center         ----  Spin Dipole Couplings  ----
                      3XX-RR        3YY-RR        3ZZ-RR
 --------------------------------------------------------
     1   Atom        0.000000      0.000000      0.000000
     2   Atom        0.000000      0.000000      0.000000
 --------------------------------------------------------
                        XY            XZ            YZ
 --------------------------------------------------------
     1   Atom        0.000000      0.000000      0.000000
     2   Atom        0.000000      0.000000      0.000000
 --------------------------------------------------------


 ---------------------------------------------------------------------------------
              Anisotropic Spin Dipole Couplings in Principal Axis System
 ---------------------------------------------------------------------------------

       Atom             a.u.   MegaHertz   Gauss  10(-4) cm-1        Axes

              Baa     0.0000     0.000     0.000     0.000  1.0000  0.0000  0.0000
     1 Xe(129 Bbb     0.0000     0.000     0.000     0.000  0.0000  1.0000  0.0000
              Bcc     0.0000     0.000     0.000     0.000  0.0000  0.0000  1.0000
 
              Baa     0.0000     0.000     0.000     0.000  1.0000  0.0000  0.0000
     2 Xe(129 Bbb     0.0000     0.000     0.000     0.000  0.0000  1.0000  0.0000
              Bcc     0.0000     0.000     0.000     0.000  0.0000  0.0000  1.0000
 

 ---------------------------------------------------------------------------------


 Test job not archived.
 1\1\GINC-C31\SP\ROMP2-RW\Gen\Xe2\GPETERSSON\15-Jun-2013\0\\# ROMP2(RW)
  Gen GFinput Int=NoBasisTransform Int(Grid=Ultrafine) IOp(3/32=2,5/6=1
 0,8/11=1,9/33=1) Maxdisk=128GB CBSextrapolate(Nmin=20,MinPop)\\Xe2\\0,
 1\Xe\Xe,1,4.3627\\Version=EM64L-GDVRevH.12\State=1-SGG\HF=-14464.27551
 51\MP2=-14464.6446917\E2(CBS)=-0.3877926\CBS-Int=-0.3787282\OIii=3.178
 298\RMSD=7.656e-11\PG=D*H [C*(Xe1.Xe1)]\\@


 ... A MOLECULAR SYSTEM ... (PASSES) ... FROM ONE STATE OF EQUILIBRIUM 
 TO ANOTHER ... BY MEANS OF ALL POSSIBLE INTERMEDIATE PATHS, 
 BUT THE PATH MOST ECONOMICAL OF ENERGY WILL BE THE MORE OFTEN TRAVELED.

                      -- HENRY EYRING, 1945
 Job cpu time:  0 days 18 hours 35 minutes  2.0 seconds.
 File lengths (MBytes):  RWF=   4691 Int=      0 D2E=      0 Chk=     13 Scr=      1
 Normal termination of Gaussian DV at Sat Jun 15 17:16:00 2013.
