 Entering Gaussian System, Link 0=gdv
 AtFile(1): 5ZaPa-NR.gbs
 Initial command:
 /share/apps/gaussian/gdvh12/gdv/l1.exe /localscratch/940913/Gau-1591.inp -scrdir=/localscratch/940913/
 Entering Link 1 = /share/apps/gaussian/gdvh12/gdv/l1.exe PID=      1592.
  
 Copyright (c) 1988,1990,1992,1993,1995,1998,2003,2009,2011,
            Gaussian, Inc.  All Rights Reserved.
  
 This is the private, development version of
 the Gaussian(R) DV system of programs. It is based on
 the Gaussian(R) 09 system (copyright 2009, Gaussian, Inc.),
 the Gaussian(R) 03 system (copyright 2003, Gaussian, Inc.),
 the Gaussian(R) 98 system (copyright 1998, Gaussian, Inc.),
 the Gaussian(R) 94 system (copyright 1995, Gaussian, Inc.),
 the Gaussian 92(TM) system (copyright 1992, Gaussian, Inc.),
 the Gaussian 90(TM) system (copyright 1990, Gaussian, Inc.),
 the Gaussian 88(TM) system (copyright 1988, Gaussian, Inc.),
 the Gaussian 86(TM) system (copyright 1986, Carnegie Mellon
 University), and the Gaussian 82(TM) system (copyright 1983,
 Carnegie Mellon University). Gaussian is a federally registered
 trademark of Gaussian, Inc.
  
 This software contains proprietary and confidential information,
 including trade secrets, belonging to Gaussian, Inc.
  
 This software is provided under written license and may be
 used, copied, transmitted, or stored only in accord with that
 written license.
  
 The following legend is applicable only to US Government
 contracts under FAR:
  
                    RESTRICTED RIGHTS LEGEND
  
 Use, reproduction and disclosure by the US Government is
 subject to restrictions as set forth in subparagraphs (a)
 and (c) of the Commercial Computer Software - Restricted
 Rights clause in FAR 52.227-19.
  
 Gaussian, Inc.
 340 Quinnipiac St., Bldg. 40, Wallingford CT 06492
  
  
 ---------------------------------------------------------------
 Warning -- This program may not be used in any manner that
 competes with the business of Gaussian, Inc. or will provide
 assistance to any competitor of Gaussian, Inc.  The licensee
 of this program is prohibited from giving any competitor of
 Gaussian, Inc. access to this program.  By using this program,
 the user acknowledges that Gaussian, Inc. is engaged in the
 business of creating and licensing software in the field of
 computational chemistry and represents and warrants to the
 licensee that it is not a competitor of Gaussian, Inc. and that
 it will not use this program in any manner prohibited above.
 ---------------------------------------------------------------
  

 Cite this work as:
 Gaussian Development Version, Revision H.12,
 M. J. Frisch, G. W. Trucks, H. B. Schlegel, G. E. Scuseria, 
 M. A. Robb, J. R. Cheeseman, G. Scalmani, V. Barone, B. Mennucci, 
 G. A. Petersson, H. Nakatsuji, M. Caricato, X. Li, H. P. Hratchian, 
 A. F. Izmaylov, J. Bloino, G. Zheng, J. L. Sonnenberg, M. Hada, 
 M. Ehara, K. Toyota, R. Fukuda, J. Hasegawa, M. Ishida, T. Nakajima, 
 Y. Honda, O. Kitao, H. Nakai, T. Vreven, J. A. Montgomery, Jr., 
 J. E. Peralta, F. Ogliaro, M. Bearpark, J. J. Heyd, E. Brothers, 
 K. N. Kudin, V. N. Staroverov, T. Keith, R. Kobayashi, J. Normand, 
 K. Raghavachari, A. Rendell, J. C. Burant, S. S. Iyengar, J. Tomasi, 
 M. Cossi, N. Rega, J. M. Millam, M. Klene, J. E. Knox, J. B. Cross, 
 V. Bakken, C. Adamo, J. Jaramillo, R. Gomperts, R. E. Stratmann, 
 O. Yazyev, A. J. Austin, R. Cammi, C. Pomelli, J. W. Ochterski, 
 R. L. Martin, K. Morokuma, V. G. Zakrzewski, G. A. Voth, 
 P. Salvador, J. J. Dannenberg, S. Dapprich, P. V. Parandekar, 
 N. J. Mayhall, A. D. Daniels, O. Farkas, J. B. Foresman, 
 J. V. Ortiz, J. Cioslowski, and D. J. Fox, 
 Gaussian, Inc., Wallingford CT, 2010.
 
 ******************************************
 Gaussian DV:  EM64L-GDVRevH.12  9-Jun-2011
                15-Jun-2013 
 ******************************************
 % Mem=12GB
 % Nproc=8
 Will use up to    8 processors via shared memory.
 ----------------------------------------------------------------------
 # ROMP2(RW) Gen GFinput Int=NoBasisTransform Int(Grid=Ultrafine) IOp(3
 /32=2,5/6=10,8/11=1,9/33=1) Maxdisk=128GB CBSextrapolate(Nmin=15,MinPo
 p)
 ----------------------------------------------------------------------
 1/38=1/1;
 2/12=2,17=6,18=5,40=1/2;
 3/5=7,11=2,16=1,24=10,25=1,30=1,32=2,60=-1,75=-5,116=101/1,2,3;
 4//1;
 5/5=2,6=10,38=5/2;
 8/5=-1,10=91,11=1/1;
 9/16=-3,33=1,75=2,81=15,83=4/6,4;
 6/7=2,8=2,9=2,10=2/1;
 99/5=1,9=1/99;
 ---
 Xe2
 ---
 Charge =  0 Multiplicity = 1
 Symbolic Z-Matrix:
 Xe
 Xe                   1     4.3627 
 
                          Input orientation:                          
 ---------------------------------------------------------------------
 Center     Atomic      Atomic             Coordinates (Angstroms)
 Number     Number       Type             X           Y           Z
 ---------------------------------------------------------------------
      1         54           0        0.000000    0.000000    0.000000
      2         54           0        0.000000    0.000000    4.362700
 ---------------------------------------------------------------------
 Stoichiometry    Xe2
 Framework group  D*H[C*(Xe.Xe)]
 Deg. of freedom     1
 Full point group                 D*H     NOp   8
 Largest Abelian subgroup         D2H     NOp   8
 Largest concise Abelian subgroup C2      NOp   2
                         Standard orientation:                         
 ---------------------------------------------------------------------
 Center     Atomic      Atomic             Coordinates (Angstroms)
 Number     Number       Type             X           Y           Z
 ---------------------------------------------------------------------
      1         54           0        0.000000    0.000000    2.181350
      2         54           0        0.000000    0.000000   -2.181350
 ---------------------------------------------------------------------
 Rotational constants (GHZ):      0.0000000      0.4026038      0.4026038
 General basis read from cards:  (5D, 7F)
 AO basis set in the form of general basis input (Overlap normalization):
      1 0
 S  17 1.00       0.000000000000
      0.6723323017D+08  0.1579826630D-05
      0.1200274218D+08  0.1049643948D-04
      0.2698431351D+07  0.5996301737D-04
      0.7309721300D+06  0.2691613744D-03
      0.2298271936D+06  0.1018238719D-02
      0.8128890327D+05  0.3357788089D-02
      0.3152180159D+05  0.9931814893D-02
      0.1312505065D+05  0.2676202327D-01
      0.5772156193D+04  0.6556476845D-01
      0.2647115855D+04  0.1423663249D+00
      0.1253738742D+04  0.2560238297D+00
      0.6088770820D+03  0.3314938492D+00
      0.3016163210D+03  0.2353267706D+00
      0.1517954520D+03  0.6083931708D-01
      0.7736000100D+02  0.1412444036D-01
      0.3979596900D+02  0.1157861413D-01
      0.2058784200D+02  0.2817693037D-02
 S  12 1.00       0.000000000000
      0.3152180159D+05 -0.3053630238D-04
      0.1312505065D+05 -0.1925434324D-03
      0.5772156193D+04 -0.1191276600D-02
      0.2647115855D+04 -0.5826458667D-02
      0.1253738742D+04 -0.2352767118D-01
      0.6088770820D+03 -0.6866125693D-01
      0.3016163210D+03 -0.1010049091D+00
      0.1517954520D+03  0.7429129127D-01
      0.7736000100D+02  0.4744469711D+00
      0.3979596900D+02  0.4674017716D+00
      0.2058784200D+02  0.1155463438D+00
      0.1065923600D+02  0.6127575247D-02
 P  13 1.00       0.000000000000
      0.1084322862D+06  0.2366027292D-04
      0.2829050365D+05  0.1931589384D-03
      0.9004536349D+04  0.1221052099D-02
      0.3344610874D+04  0.5786207162D-02
      0.1397135394D+04  0.2170070016D-01
      0.6367323760D+03  0.6595102250D-01
      0.3089166010D+03  0.1594071703D+00
      0.1564612820D+03  0.2901037753D+00
      0.8146968900D+02  0.3509318650D+00
      0.4309525000D+02  0.2232606631D+00
      0.2294339300D+02  0.5652723780D-01
      0.1220150100D+02  0.5415165740D-02
      0.6439647000D+01  0.1097912868D-02
 S  10 1.00       0.000000000000
      0.6088770820D+03  0.1088338526D-02
      0.3016163210D+03  0.4481579646D-02
      0.1517954520D+03 -0.3643942177D-02
      0.7736000100D+02 -0.1150111883D+00
      0.3979596900D+02 -0.2666713686D+00
      0.2058784200D+02  0.1339133394D+00
      0.1065923600D+02  0.7424403935D+00
      0.5486892000D+01  0.3361579870D+00
      0.2783157000D+01  0.2848088000D-01
      0.1374697000D+01  0.1058838386D-01
 P  11 1.00       0.000000000000
      0.1397135394D+04 -0.1480665621D-03
      0.6367323760D+03 -0.1187185866D-02
      0.3089166010D+03 -0.5955834104D-02
      0.1564612820D+03 -0.1957104284D-01
      0.8146968900D+02 -0.3043661505D-01
      0.4309525000D+02  0.5043707697D-01
      0.2294339300D+02  0.3071929014D+00
      0.1220150100D+02  0.4813186677D+00
      0.6439647000D+01  0.2335026797D+00
      0.3351622000D+01  0.2859537333D-01
      0.1708361000D+01  0.2481608264D-02
 D  12 1.00       0.000000000000
      0.4432331720D+04  0.8375701552D-04
      0.1354968930D+04  0.8489911423D-03
      0.5239801270D+03  0.5286823606D-02
      0.2344947320D+03  0.2252961677D-01
      0.1143917120D+03  0.7108109100D-01
      0.5863175600D+02  0.1708640338D+00
      0.3095724600D+02  0.2928469404D+00
      0.1668917500D+02  0.3444513081D+00
      0.9149506000D+01  0.2337345990D+00
      0.5073996000D+01  0.7573020639D-01
      0.2810615000D+01  0.1073854628D-01
      0.1515051000D+01  0.3295235459D-03
 S   9 1.00       0.000000000000
      0.7736000100D+02  0.1957056535D-02
      0.3979596900D+02  0.1007407581D-01
      0.2058784200D+02  0.8602052697D-02
      0.1065923600D+02 -0.2947049702D+00
      0.5486892000D+01 -0.2327567181D+00
      0.2783157000D+01  0.6770920623D+00
      0.1374697000D+01  0.6139593939D+00
      0.6510880000D+00  0.5888699599D-01
      0.2899600000D+00  0.3284618245D-02
 P  10 1.00       0.000000000000
      0.8146968900D+02 -0.4224401674D-03
      0.4309525000D+02  0.4231034231D-02
      0.2294339300D+02  0.2335660917D-01
      0.1220150100D+02  0.8818518411D-01
      0.6439647000D+01 -0.5865806779D-01
      0.3351622000D+01 -0.4576038068D+00
      0.1708361000D+01 -0.4758065850D+00
      0.8456920000D+00 -0.1254544081D+00
      0.4023170000D+00 -0.5673934759D-02
      0.1814500000D+00 -0.1447261021D-02
 D  12 1.00       0.000000000000
      0.5239801270D+03  0.4948757972D-05
      0.2344947320D+03  0.1060556166D-03
      0.1143917120D+03  0.6108088195D-03
      0.5863175600D+02  0.2847130905D-02
      0.3095724600D+02  0.2959893278D-02
      0.1668917500D+02 -0.5743686836D-02
      0.9149506000D+01 -0.7339190438D-01
      0.5073996000D+01 -0.2290289089D+00
      0.2810615000D+01 -0.3545868225D+00
      0.1515051000D+01 -0.3384052808D+00
      0.7593260000D+00 -0.1544862195D+00
      0.3295230000D+00 -0.2248395359D-01
 S   8 1.00       0.000000000000
      0.2058784200D+02 -0.1460448521D-02
      0.1065923600D+02  0.2518682634D-01
      0.5486892000D+01  0.9940868225D-02
      0.2783157000D+01 -0.8666406998D-01
      0.1374697000D+01 -0.3507115012D+00
      0.6510880000D+00  0.1147188894D+00
      0.2899600000D+00  0.7714324672D+00
      0.1185040000D+00  0.3642398328D+00
 S   1 1.00       0.000000000000
      0.4843150100D-01  0.1000000000D+01
 P   8 1.00       0.000000000000
      0.1220150100D+02  0.1863917330D-02
      0.6439647000D+01 -0.8011512735D-02
      0.3351622000D+01 -0.1753033483D-01
      0.1708361000D+01 -0.7083739223D-01
      0.8456920000D+00  0.7982224932D-01
      0.4023170000D+00  0.4198927832D+00
      0.1814500000D+00  0.4728275503D+00
      0.7624800000D-01  0.1749805719D+00
 P   1 1.00       0.000000000000
      0.3204054800D-01  0.1000000000D+01
 S   1 1.00       0.000000000000
      0.2046509000D+01  0.1000000000D+01
 S   1 1.00       0.000000000000
      0.1136122000D+01  0.1000000000D+01
 S   1 1.00       0.000000000000
      0.6307190000D+00  0.1000000000D+01
 S   1 1.00       0.000000000000
      0.3501440000D+00  0.1000000000D+01
 P   1 1.00       0.000000000000
      0.1208079000D+01  0.1000000000D+01
 P   1 1.00       0.000000000000
      0.7294880000D+00  0.1000000000D+01
 P   1 1.00       0.000000000000
      0.4404940000D+00  0.1000000000D+01
 P   1 1.00       0.000000000000
      0.2659890000D+00  0.1000000000D+01
 D   1 1.00       0.000000000000
      0.1284933000D+01  0.1000000000D+01
 D   1 1.00       0.000000000000
      0.6454970000D+00  0.1000000000D+01
 D   1 1.00       0.000000000000
      0.3242710000D+00  0.1000000000D+01
 D   1 1.00       0.000000000000
      0.1629010000D+00  0.1000000000D+01
 D   1 1.00       0.000000000000
      0.8183510000D-01  0.1000000000D+01
 F   1 1.00       0.000000000000
      0.6757120000D+00  0.1000000000D+01
 F   1 1.00       0.000000000000
      0.4650920000D+00  0.1000000000D+01
 F   1 1.00       0.000000000000
      0.3201230000D+00  0.1000000000D+01
 F   1 1.00       0.000000000000
      0.2203410000D+00  0.1000000000D+01
 G   1 1.00       0.000000000000
      0.6757120000D+00  0.1000000000D+01
 G   1 1.00       0.000000000000
      0.3201230000D+00  0.1000000000D+01
 G   1 1.00       0.000000000000
      0.1516600000D+00  0.1000000000D+01
 H   1 1.00       0.000000000000
      0.6358978372D+00  0.1000000000D+01
 ****
      2 0
 S  17 1.00       0.000000000000
      0.6723323017D+08  0.1579826630D-05
      0.1200274218D+08  0.1049643948D-04
      0.2698431351D+07  0.5996301737D-04
      0.7309721300D+06  0.2691613744D-03
      0.2298271936D+06  0.1018238719D-02
      0.8128890327D+05  0.3357788089D-02
      0.3152180159D+05  0.9931814893D-02
      0.1312505065D+05  0.2676202327D-01
      0.5772156193D+04  0.6556476845D-01
      0.2647115855D+04  0.1423663249D+00
      0.1253738742D+04  0.2560238297D+00
      0.6088770820D+03  0.3314938492D+00
      0.3016163210D+03  0.2353267706D+00
      0.1517954520D+03  0.6083931708D-01
      0.7736000100D+02  0.1412444036D-01
      0.3979596900D+02  0.1157861413D-01
      0.2058784200D+02  0.2817693037D-02
 S  12 1.00       0.000000000000
      0.3152180159D+05 -0.3053630238D-04
      0.1312505065D+05 -0.1925434324D-03
      0.5772156193D+04 -0.1191276600D-02
      0.2647115855D+04 -0.5826458667D-02
      0.1253738742D+04 -0.2352767118D-01
      0.6088770820D+03 -0.6866125693D-01
      0.3016163210D+03 -0.1010049091D+00
      0.1517954520D+03  0.7429129127D-01
      0.7736000100D+02  0.4744469711D+00
      0.3979596900D+02  0.4674017716D+00
      0.2058784200D+02  0.1155463438D+00
      0.1065923600D+02  0.6127575247D-02
 P  13 1.00       0.000000000000
      0.1084322862D+06  0.2366027292D-04
      0.2829050365D+05  0.1931589384D-03
      0.9004536349D+04  0.1221052099D-02
      0.3344610874D+04  0.5786207162D-02
      0.1397135394D+04  0.2170070016D-01
      0.6367323760D+03  0.6595102250D-01
      0.3089166010D+03  0.1594071703D+00
      0.1564612820D+03  0.2901037753D+00
      0.8146968900D+02  0.3509318650D+00
      0.4309525000D+02  0.2232606631D+00
      0.2294339300D+02  0.5652723780D-01
      0.1220150100D+02  0.5415165740D-02
      0.6439647000D+01  0.1097912868D-02
 S  10 1.00       0.000000000000
      0.6088770820D+03  0.1088338526D-02
      0.3016163210D+03  0.4481579646D-02
      0.1517954520D+03 -0.3643942177D-02
      0.7736000100D+02 -0.1150111883D+00
      0.3979596900D+02 -0.2666713686D+00
      0.2058784200D+02  0.1339133394D+00
      0.1065923600D+02  0.7424403935D+00
      0.5486892000D+01  0.3361579870D+00
      0.2783157000D+01  0.2848088000D-01
      0.1374697000D+01  0.1058838386D-01
 P  11 1.00       0.000000000000
      0.1397135394D+04 -0.1480665621D-03
      0.6367323760D+03 -0.1187185866D-02
      0.3089166010D+03 -0.5955834104D-02
      0.1564612820D+03 -0.1957104284D-01
      0.8146968900D+02 -0.3043661505D-01
      0.4309525000D+02  0.5043707697D-01
      0.2294339300D+02  0.3071929014D+00
      0.1220150100D+02  0.4813186677D+00
      0.6439647000D+01  0.2335026797D+00
      0.3351622000D+01  0.2859537333D-01
      0.1708361000D+01  0.2481608264D-02
 D  12 1.00       0.000000000000
      0.4432331720D+04  0.8375701552D-04
      0.1354968930D+04  0.8489911423D-03
      0.5239801270D+03  0.5286823606D-02
      0.2344947320D+03  0.2252961677D-01
      0.1143917120D+03  0.7108109100D-01
      0.5863175600D+02  0.1708640338D+00
      0.3095724600D+02  0.2928469404D+00
      0.1668917500D+02  0.3444513081D+00
      0.9149506000D+01  0.2337345990D+00
      0.5073996000D+01  0.7573020639D-01
      0.2810615000D+01  0.1073854628D-01
      0.1515051000D+01  0.3295235459D-03
 S   9 1.00       0.000000000000
      0.7736000100D+02  0.1957056535D-02
      0.3979596900D+02  0.1007407581D-01
      0.2058784200D+02  0.8602052697D-02
      0.1065923600D+02 -0.2947049702D+00
      0.5486892000D+01 -0.2327567181D+00
      0.2783157000D+01  0.6770920623D+00
      0.1374697000D+01  0.6139593939D+00
      0.6510880000D+00  0.5888699599D-01
      0.2899600000D+00  0.3284618245D-02
 P  10 1.00       0.000000000000
      0.8146968900D+02 -0.4224401674D-03
      0.4309525000D+02  0.4231034231D-02
      0.2294339300D+02  0.2335660917D-01
      0.1220150100D+02  0.8818518411D-01
      0.6439647000D+01 -0.5865806779D-01
      0.3351622000D+01 -0.4576038068D+00
      0.1708361000D+01 -0.4758065850D+00
      0.8456920000D+00 -0.1254544081D+00
      0.4023170000D+00 -0.5673934759D-02
      0.1814500000D+00 -0.1447261021D-02
 D  12 1.00       0.000000000000
      0.5239801270D+03  0.4948757972D-05
      0.2344947320D+03  0.1060556166D-03
      0.1143917120D+03  0.6108088195D-03
      0.5863175600D+02  0.2847130905D-02
      0.3095724600D+02  0.2959893278D-02
      0.1668917500D+02 -0.5743686836D-02
      0.9149506000D+01 -0.7339190438D-01
      0.5073996000D+01 -0.2290289089D+00
      0.2810615000D+01 -0.3545868225D+00
      0.1515051000D+01 -0.3384052808D+00
      0.7593260000D+00 -0.1544862195D+00
      0.3295230000D+00 -0.2248395359D-01
 S   8 1.00       0.000000000000
      0.2058784200D+02 -0.1460448521D-02
      0.1065923600D+02  0.2518682634D-01
      0.5486892000D+01  0.9940868225D-02
      0.2783157000D+01 -0.8666406998D-01
      0.1374697000D+01 -0.3507115012D+00
      0.6510880000D+00  0.1147188894D+00
      0.2899600000D+00  0.7714324672D+00
      0.1185040000D+00  0.3642398328D+00
 S   1 1.00       0.000000000000
      0.4843150100D-01  0.1000000000D+01
 P   8 1.00       0.000000000000
      0.1220150100D+02  0.1863917330D-02
      0.6439647000D+01 -0.8011512735D-02
      0.3351622000D+01 -0.1753033483D-01
      0.1708361000D+01 -0.7083739223D-01
      0.8456920000D+00  0.7982224932D-01
      0.4023170000D+00  0.4198927832D+00
      0.1814500000D+00  0.4728275503D+00
      0.7624800000D-01  0.1749805719D+00
 P   1 1.00       0.000000000000
      0.3204054800D-01  0.1000000000D+01
 S   1 1.00       0.000000000000
      0.2046509000D+01  0.1000000000D+01
 S   1 1.00       0.000000000000
      0.1136122000D+01  0.1000000000D+01
 S   1 1.00       0.000000000000
      0.6307190000D+00  0.1000000000D+01
 S   1 1.00       0.000000000000
      0.3501440000D+00  0.1000000000D+01
 P   1 1.00       0.000000000000
      0.1208079000D+01  0.1000000000D+01
 P   1 1.00       0.000000000000
      0.7294880000D+00  0.1000000000D+01
 P   1 1.00       0.000000000000
      0.4404940000D+00  0.1000000000D+01
 P   1 1.00       0.000000000000
      0.2659890000D+00  0.1000000000D+01
 D   1 1.00       0.000000000000
      0.1284933000D+01  0.1000000000D+01
 D   1 1.00       0.000000000000
      0.6454970000D+00  0.1000000000D+01
 D   1 1.00       0.000000000000
      0.3242710000D+00  0.1000000000D+01
 D   1 1.00       0.000000000000
      0.1629010000D+00  0.1000000000D+01
 D   1 1.00       0.000000000000
      0.8183510000D-01  0.1000000000D+01
 F   1 1.00       0.000000000000
      0.6757120000D+00  0.1000000000D+01
 F   1 1.00       0.000000000000
      0.4650920000D+00  0.1000000000D+01
 F   1 1.00       0.000000000000
      0.3201230000D+00  0.1000000000D+01
 F   1 1.00       0.000000000000
      0.2203410000D+00  0.1000000000D+01
 G   1 1.00       0.000000000000
      0.6757120000D+00  0.1000000000D+01
 G   1 1.00       0.000000000000
      0.3201230000D+00  0.1000000000D+01
 G   1 1.00       0.000000000000
      0.1516600000D+00  0.1000000000D+01
 H   1 1.00       0.000000000000
      0.6358978372D+00  0.1000000000D+01
 ****

 There are    76 symmetry adapted cartesian basis functions of AG  symmetry.
 There are    23 symmetry adapted cartesian basis functions of B1G symmetry.
 There are    43 symmetry adapted cartesian basis functions of B2G symmetry.
 There are    43 symmetry adapted cartesian basis functions of B3G symmetry.
 There are    23 symmetry adapted cartesian basis functions of AU  symmetry.
 There are    76 symmetry adapted cartesian basis functions of B1U symmetry.
 There are    43 symmetry adapted cartesian basis functions of B2U symmetry.
 There are    43 symmetry adapted cartesian basis functions of B3U symmetry.
 There are    53 symmetry adapted basis functions of AG  symmetry.
 There are    19 symmetry adapted basis functions of B1G symmetry.
 There are    33 symmetry adapted basis functions of B2G symmetry.
 There are    33 symmetry adapted basis functions of B3G symmetry.
 There are    19 symmetry adapted basis functions of AU  symmetry.
 There are    53 symmetry adapted basis functions of B1U symmetry.
 There are    33 symmetry adapted basis functions of B2U symmetry.
 There are    33 symmetry adapted basis functions of B3U symmetry.
   276 basis functions,   964 primitive gaussians,   370 cartesian basis functions
    54 alpha electrons       54 beta electrons
       nuclear repulsion energy       353.6985674579 Hartrees.
 NAtoms=    2 NActive=    2 NUniq=    1 SFac= 4.00D+00 NAtFMM=   60 NAOKFM=F Big=F
 Integral buffers will be    131072 words long.
 Raffenetti 2 integral format.
 Two-electron integral symmetry is turned on.
 One-electron integrals computed using PRISM.
 NBasis=   276 RedAO= F EigKep=  0.00D+00  NBF=    53    19    33    33    19    53    33    33
 NBsUse=   276 1.00D-04 EigRej=  0.00D+00 NBFU=    53    19    33    33    19    53    33    33
 ExpMin= 3.20D-02 ExpMax= 6.72D+07 ExpMxC= 1.31D+04 IAcc=3 IRadAn=         5 AccDes= 0.00D+00
 Harris functional with IExCor=  205 and IRadAn=       5 diagonalized for initial guess.
 HarFok:  IExCor=  205 AccDes= 0.00D+00 IRadAn=         5 IDoV= 1 UseB2=F ITyADJ=14
 ICtDFT=  3500011 ScaDFX=  1.000000  1.000000  1.000000  1.000000
 Defaulting to unpruned grid for atomic number  54.
 Defaulting to unpruned grid for atomic number  54.
 Defaulting to unpruned grid for atomic number  54.
 Defaulting to unpruned grid for atomic number  54.
 Defaulting to unpruned grid for atomic number  54.
 Defaulting to unpruned grid for atomic number  54.
 Defaulting to unpruned grid for atomic number  54.
 Defaulting to unpruned grid for atomic number  54.
 FoFCou: FMM=F IPFlag=           0 FMFlag=      100000 FMFlg1=           0
         NFxFlg=           0 DoJE=T BraDBF=F KetDBF=T FulRan=T
         wScrn=  0.000000 ICntrl=     500 IOpCl=  0 I1Cent=   200000004 NGrid=           0
         NMat0=    1 NMatS0=      1 NMatT0=    0 NMatD0=    1 NMtDS0=    0 NMtDT0=    0
 Petite list used in FoFCou.
 Initial guess orbital symmetries:
       Occupied  (SGU) (SGG) (SGU) (SGG) (SGU) (SGG) (PIG) (PIG)
                 (PIU) (PIU) (SGU) (SGG) (SGU) (SGG) (PIG) (PIG)
                 (PIU) (PIU) (SGU) (PIG) (PIG) (SGG) (DLTU) (DLTU)
                 (PIU) (PIU) (DLTG) (DLTG) (SGU) (SGG) (SGU) (SGG)
                 (PIG) (PIG) (PIU) (PIU) (SGG) (SGU) (PIU) (PIU)
                 (PIG) (PIG) (DLTU) (DLTG) (DLTU) (DLTG) (SGG)
                 (SGU) (SGG) (PIU) (PIU) (PIG) (PIG) (SGU)
       Virtual   (SGG) (SGU) (PIU) (PIU) (SGG) (PIU) (PIU) (DLTG)
                 (DLTG) (PIG) (PIG) (SGG) (SGU) (DLTU) (DLTU) (PIG)
                 (PIG) (SGU) (SGG) (PIU) (PIU) (DLTG) (DLTG) (SGU)
                 (PIU) (PIU) (SGG) (PIG) (PIG) (DLTU) (DLTU) (PIG)
                 (PIG) (SGU) (PIU) (PIU) (DLTG) (DLTG) (PHIU) (PHIU)
                 (PHIG) (PHIG) (SGG) (DLTU) (DLTU) (PIG) (PIG)
                 (SGG) (SGU) (DLTG) (DLTG) (PHIU) (PHIU) (?A) (?A)
                 (?B) (?B) (PIU) (PIU) (PHIG) (PHIG) (SGG) (SGU)
                 (DLTU) (DLTU) (PIG) (PIG) (SGU) (PIU) (PIU) (DLTG)
                 (DLTG) (SGG) (PHIU) (PHIU) (PHIG) (PHIG) (DLTU)
                 (DLTU) (DLTG) (DLTG) (PIU) (PIU) (DLTU) (DLTU)
                 (SGU) (PIG) (PIG) (SGG) (PIG) (PIG) (SGU) (PIU)
                 (PIU) (PIG) (PIG) (SGG) (SGU) (PHIU) (PHIU) (?A)
                 (?A) (DLTG) (DLTG) (?B) (?B) (PIG) (PIG) (PHIG)
                 (PHIG) (DLTU) (DLTU) (PIU) (PIU) (SGG) (SGU) (DLTG)
                 (DLTG) (PHIU) (PHIU) (PIU) (PIU) (PHIG) (PHIG)
                 (SGG) (DLTU) (DLTU) (SGU) (PIG) (PIG) (SGG) (SGU)
                 (DLTG) (DLTG) (PIU) (PIU) (DLTU) (DLTU) (SGG)
                 (PIG) (PIG) (SGU) (PIG) (PIG) (DLTU) (DLTU) (DLTG)
                 (DLTG) (PIU) (PIU) (?C) (?C) (?D) (?D) (?A) (?B)
                 (?A) (?B) (?D) (?D) (?C) (?C) (SGG) (SGU) (PHIU)
                 (PHIU) (?A) (?A) (DLTG) (DLTG) (?B) (?B) (PIG)
                 (PIG) (PHIG) (PHIG) (SGG) (SGU) (DLTU) (DLTU)
                 (PIU) (PIU) (PIU) (PIU) (PIG) (PIG) (SGG) (SGU)
                 (DLTG) (DLTG) (PHIU) (PHIU) (PHIG) (PHIG) (PIU)
                 (PIU) (DLTU) (DLTU) (PIG) (PIG) (SGG) (SGU) (DLTG)
                 (DLTG) (PIU) (PIU) (DLTU) (DLTU) (SGG) (SGU) (PIG)
                 (PIG) (SGG) (SGU) (PIU) (PIU) (PIG) (PIG) (SGG)
                 (SGU) (SGG) (SGU)
 The electronic state of the initial guess is 1-SGG.
 Requested convergence on RMS density matrix=1.00D-10 within 128 cycles.
 Requested convergence on MAX density matrix=1.00D-08.
 Requested convergence on             energy=1.00D-08.
 No special actions if energy rises.
 DSYEVD returned Info=          80 IAlg= 4 N=    53 NDim=   276 NE2=     5834035 trying DSYEV.
 DSYEVD returned Info=          80 IAlg= 4 N=    53 NDim=   276 NE2=     5834035 trying DSYEV.
 DSYEVD returned Info=          80 IAlg= 4 N=    53 NDim=   276 NE2=     5834035 trying DSYEV.
 Initial convergence to 1.0D-05 achieved.  Increase integral accuracy.
 SCF Done:  E(ROHF) =  -14464.2750843     A.U. after   13 cycles
            NFock= 13  Conv=0.62D-10     -V/T= 2.0000
 <Sx>= 0.0000 <Sy>= 0.0000 <Sz>= 0.0000 <S**2>= 0.0000 S= 0.0000
 <L.S>= 0.000000000000E+00
 Annihilation of the first spin contaminant:
 S**2 before annihilation     0.0000,   after     0.0000
 GenMOA:  NOpAll=  8 NOp2=8 NOpUse=  8 JSym2X=1
 <Sx>= 0.0000 <Sy>= 0.0000 <Sz>= 0.0000 <S**2>= 0.0000 S= 0.0000
 Range of M.O.s used for correlation:    47   276
 NBasis=   276 NAE=    54 NBE=    54 NFC=    46 NFV=     0
 NROrb=    230 NOA=     8 NOB=     8 NVA=   222 NVB=   222

 **** Warning!!: The largest alpha MO coefficient is  0.11089851D+03


 **** Warning!!: The largest beta MO coefficient is  0.11089851D+03

 Singles contribution to E2=   -0.7206047481D-13
 Disk-based method using OVN memory for  8 occupieds at a time.
 Permanent disk used for amplitudes and <ij||ab> integrals=     9055824 words.
 Estimated scratch disk usage=   158034528 words.
 IUseRI=2 ITolRI= 6 IR12RI=0
 Actual    scratch disk usage=   156464736 words.
 JobTyp=2 Pass  1:  I=   1 to   8 NPSUse=  8 ParTrn=T ParDer=T DoDerP=F.
 (rs|ai) integrals will be sorted in core.
 T,EIJ(AA): I=   1 J=   2      0.5354772E-06     -0.1504036E-05
 T,EIJ(AA): I=   1 J=   3      0.1815993E-03     -0.5666412E-03
 T,EIJ(AA): I=   1 J=   4      0.1875712E-03     -0.5827907E-03
 T,EIJ(AA): I=   1 J=   5      0.1875712E-03     -0.5827907E-03
 T,EIJ(AA): I=   1 J=   6      0.1879980E-03     -0.5857717E-03
 T,EIJ(AA): I=   1 J=   7      0.1879980E-03     -0.5857717E-03
 T,EIJ(AA): I=   1 J=   8      0.1875084E-03     -0.5885177E-03
 T,EIJ(AA): I=   2 J=   3      0.2001542E-03     -0.6082856E-03
 T,EIJ(AA): I=   2 J=   4      0.1923689E-03     -0.5938901E-03
 T,EIJ(AA): I=   2 J=   5      0.1923689E-03     -0.5938901E-03
 T,EIJ(AA): I=   2 J=   6      0.1927535E-03     -0.5968030E-03
 T,EIJ(AA): I=   2 J=   7      0.1927535E-03     -0.5968030E-03
 T,EIJ(AA): I=   2 J=   8      0.1950634E-03     -0.6072095E-03
 T,EIJ(AA): I=   3 J=   4      0.1259193E-02     -0.2591283E-02
 T,EIJ(AA): I=   3 J=   5      0.1259193E-02     -0.2591283E-02
 T,EIJ(AA): I=   3 J=   6      0.1259482E-02     -0.2606378E-02
 T,EIJ(AA): I=   3 J=   7      0.1259482E-02     -0.2606378E-02
 T,EIJ(AA): I=   3 J=   8      0.8393838E-04     -0.1435538E-03
 T,EIJ(AA): I=   4 J=   5      0.1267758E-02     -0.2620437E-02
 T,EIJ(AA): I=   4 J=   6      0.1636020E-04     -0.2567326E-04
 T,EIJ(AA): I=   4 J=   7      0.1273968E-02     -0.2640613E-02
 T,EIJ(AA): I=   4 J=   8      0.1296985E-02     -0.2699197E-02
 T,EIJ(AA): I=   5 J=   6      0.1273968E-02     -0.2640613E-02
 T,EIJ(AA): I=   5 J=   7      0.1636020E-04     -0.2567326E-04
 T,EIJ(AA): I=   5 J=   8      0.1296985E-02     -0.2699197E-02
 T,EIJ(AA): I=   6 J=   7      0.1286339E-02     -0.2667665E-02
 T,EIJ(AA): I=   6 J=   8      0.1317186E-02     -0.2733669E-02
 T,EIJ(AA): I=   7 J=   8      0.1317186E-02     -0.2733669E-02
 T,EIJ(AB): I=   1 J=   1      0.9380959E-03     -0.3756328E-02
 T,EIJ(AB): I=   1 J=   2      0.9396409E-03     -0.3772596E-02
 T,EIJ(AB): I=   1 J=   3      0.8705297E-03     -0.3054698E-02
 T,EIJ(AB): I=   1 J=   4      0.8837911E-03     -0.3104655E-02
 T,EIJ(AB): I=   1 J=   5      0.8837911E-03     -0.3104655E-02
 T,EIJ(AB): I=   1 J=   6      0.8945547E-03     -0.3141710E-02
 T,EIJ(AB): I=   1 J=   7      0.8945547E-03     -0.3141710E-02
 T,EIJ(AB): I=   1 J=   8      0.9234783E-03     -0.3240106E-02
 T,EIJ(AB): I=   2 J=   1      0.9396409E-03     -0.3772596E-02
 T,EIJ(AB): I=   2 J=   2      0.9497260E-03     -0.3805991E-02
 T,EIJ(AB): I=   2 J=   3      0.8720065E-03     -0.3062250E-02
 T,EIJ(AB): I=   2 J=   4      0.8976188E-03     -0.3143714E-02
 T,EIJ(AB): I=   2 J=   5      0.8976188E-03     -0.3143714E-02
 T,EIJ(AB): I=   2 J=   6      0.9090541E-03     -0.3182385E-02
 T,EIJ(AB): I=   2 J=   7      0.9090541E-03     -0.3182385E-02
 T,EIJ(AB): I=   2 J=   8      0.9325600E-03     -0.3261698E-02
 T,EIJ(AB): I=   3 J=   1      0.8705297E-03     -0.3054698E-02
 T,EIJ(AB): I=   3 J=   2      0.8720065E-03     -0.3062250E-02
 T,EIJ(AB): I=   3 J=   3      0.3677716E-02     -0.8401525E-02
 T,EIJ(AB): I=   3 J=   4      0.1588073E-02     -0.3610643E-02
 T,EIJ(AB): I=   3 J=   5      0.1588073E-02     -0.3610643E-02
 T,EIJ(AB): I=   3 J=   6      0.1567301E-02     -0.3598702E-02
 T,EIJ(AB): I=   3 J=   7      0.1567301E-02     -0.3598702E-02
 T,EIJ(AB): I=   3 J=   8      0.3600660E-02     -0.8465647E-02
 T,EIJ(AB): I=   4 J=   1      0.8837911E-03     -0.3104655E-02
 T,EIJ(AB): I=   4 J=   2      0.8976188E-03     -0.3143714E-02
 T,EIJ(AB): I=   4 J=   3      0.1588073E-02     -0.3610643E-02
 T,EIJ(AB): I=   4 J=   4      0.3607844E-02     -0.8396213E-02
 T,EIJ(AB): I=   4 J=   5      0.1592597E-02     -0.3645514E-02
 T,EIJ(AB): I=   4 J=   6      0.3631006E-02     -0.8474263E-02
 T,EIJ(AB): I=   4 J=   7      0.1603240E-02     -0.3680161E-02
 T,EIJ(AB): I=   4 J=   8      0.1645062E-02     -0.3786432E-02
 T,EIJ(AB): I=   5 J=   1      0.8837911E-03     -0.3104655E-02
 T,EIJ(AB): I=   5 J=   2      0.8976188E-03     -0.3143714E-02
 T,EIJ(AB): I=   5 J=   3      0.1588073E-02     -0.3610643E-02
 T,EIJ(AB): I=   5 J=   4      0.1592597E-02     -0.3645514E-02
 T,EIJ(AB): I=   5 J=   5      0.3607844E-02     -0.8396213E-02
 T,EIJ(AB): I=   5 J=   6      0.1603240E-02     -0.3680161E-02
 T,EIJ(AB): I=   5 J=   7      0.3631006E-02     -0.8474263E-02
 T,EIJ(AB): I=   5 J=   8      0.1645062E-02     -0.3786432E-02
 T,EIJ(AB): I=   6 J=   1      0.8945547E-03     -0.3141710E-02
 T,EIJ(AB): I=   6 J=   2      0.9090541E-03     -0.3182385E-02
 T,EIJ(AB): I=   6 J=   3      0.1567301E-02     -0.3598702E-02
 T,EIJ(AB): I=   6 J=   4      0.3631006E-02     -0.8474263E-02
 T,EIJ(AB): I=   6 J=   5      0.1603240E-02     -0.3680161E-02
 T,EIJ(AB): I=   6 J=   6      0.3673394E-02     -0.8571869E-02
 T,EIJ(AB): I=   6 J=   7      0.1621944E-02     -0.3723047E-02
 T,EIJ(AB): I=   6 J=   8      0.1658315E-02     -0.3812828E-02
 T,EIJ(AB): I=   7 J=   1      0.8945547E-03     -0.3141710E-02
 T,EIJ(AB): I=   7 J=   2      0.9090541E-03     -0.3182385E-02
 T,EIJ(AB): I=   7 J=   3      0.1567301E-02     -0.3598702E-02
 T,EIJ(AB): I=   7 J=   4      0.1603240E-02     -0.3680161E-02
 T,EIJ(AB): I=   7 J=   5      0.3631006E-02     -0.8474263E-02
 T,EIJ(AB): I=   7 J=   6      0.1621944E-02     -0.3723047E-02
 T,EIJ(AB): I=   7 J=   7      0.3673394E-02     -0.8571869E-02
 T,EIJ(AB): I=   7 J=   8      0.1658315E-02     -0.3812828E-02
 T,EIJ(AB): I=   8 J=   1      0.9234783E-03     -0.3240106E-02
 T,EIJ(AB): I=   8 J=   2      0.9325600E-03     -0.3261698E-02
 T,EIJ(AB): I=   8 J=   3      0.3600660E-02     -0.8465647E-02
 T,EIJ(AB): I=   8 J=   4      0.1645062E-02     -0.3786432E-02
 T,EIJ(AB): I=   8 J=   5      0.1645062E-02     -0.3786432E-02
 T,EIJ(AB): I=   8 J=   6      0.1658315E-02     -0.3812828E-02
 T,EIJ(AB): I=   8 J=   7      0.1658315E-02     -0.3812828E-02
 T,EIJ(AB): I=   8 J=   8      0.3791240E-02     -0.8874428E-02
 Actual    scratch disk usage=   156464736 words.
 JobTyp=3 Pass  1:  I=   1 to   8 NPSUse=  8 ParTrn=T ParDer=T DoDerP=F.
 (rs|ai) integrals will be sorted in core.
 T,EIJ(BB): I=   1 J=   2      0.5354772E-06     -0.1504036E-05
 T,EIJ(BB): I=   1 J=   3      0.1815993E-03     -0.5666412E-03
 T,EIJ(BB): I=   1 J=   4      0.1875712E-03     -0.5827907E-03
 T,EIJ(BB): I=   1 J=   5      0.1875712E-03     -0.5827907E-03
 T,EIJ(BB): I=   1 J=   6      0.1879980E-03     -0.5857717E-03
 T,EIJ(BB): I=   1 J=   7      0.1879980E-03     -0.5857717E-03
 T,EIJ(BB): I=   1 J=   8      0.1875084E-03     -0.5885177E-03
 T,EIJ(BB): I=   2 J=   3      0.2001542E-03     -0.6082856E-03
 T,EIJ(BB): I=   2 J=   4      0.1923689E-03     -0.5938901E-03
 T,EIJ(BB): I=   2 J=   5      0.1923689E-03     -0.5938901E-03
 T,EIJ(BB): I=   2 J=   6      0.1927535E-03     -0.5968030E-03
 T,EIJ(BB): I=   2 J=   7      0.1927535E-03     -0.5968030E-03
 T,EIJ(BB): I=   2 J=   8      0.1950634E-03     -0.6072095E-03
 T,EIJ(BB): I=   3 J=   4      0.1259193E-02     -0.2591283E-02
 T,EIJ(BB): I=   3 J=   5      0.1259193E-02     -0.2591283E-02
 T,EIJ(BB): I=   3 J=   6      0.1259482E-02     -0.2606378E-02
 T,EIJ(BB): I=   3 J=   7      0.1259482E-02     -0.2606378E-02
 T,EIJ(BB): I=   3 J=   8      0.8393838E-04     -0.1435538E-03
 T,EIJ(BB): I=   4 J=   5      0.1267758E-02     -0.2620437E-02
 T,EIJ(BB): I=   4 J=   6      0.1636020E-04     -0.2567326E-04
 T,EIJ(BB): I=   4 J=   7      0.1273968E-02     -0.2640613E-02
 T,EIJ(BB): I=   4 J=   8      0.1296985E-02     -0.2699197E-02
 T,EIJ(BB): I=   5 J=   6      0.1273968E-02     -0.2640613E-02
 T,EIJ(BB): I=   5 J=   7      0.1636020E-04     -0.2567326E-04
 T,EIJ(BB): I=   5 J=   8      0.1296985E-02     -0.2699197E-02
 T,EIJ(BB): I=   6 J=   7      0.1286339E-02     -0.2667665E-02
 T,EIJ(BB): I=   6 J=   8      0.1317186E-02     -0.2733669E-02
 T,EIJ(BB): I=   7 J=   8      0.1317186E-02     -0.2733669E-02
 Spin components of T(2) and E(2):
     alpha-alpha T2 =       0.1777062614D-01 E2=     -0.3911595119D-01
     alpha-beta  T2 =       0.1077381422D+00 E2=     -0.2813675228D+00
     beta-beta   T2 =       0.1777062614D-01 E2=     -0.3911595119D-01
 ANorm=    0.1069242440D+01
 E2 =    -0.3595994252D+00 EUMP2 =    -0.14464634683716D+05

 Complete Basis Set (CBS) Extrapolation:
 M. R. Nyden and G. A. Petersson, JCP 75, 1843 (1981)
 G. A. Petersson and M. A. Al-Laham, JCP 94, 6081 (1991)
 G. A. Petersson, T. Tensfeldt, and J. A. Montgomery, JCP 94, 6091 (1991)
 J. A. Montgomery, J. W. Ochterski, and G. A. Petersson, JCP 101, 5900 (1994)
 
 Minimum Number of PNO for Extrapolation =  15
 Absolute Overlaps: IRadAn =         5
 LocTrn: ILocal=3 LocCor=F DoCore=F.
 Entering OneElI...
 Overlap between basis sets.
 Requested accuracy = 0.1000D-12
 PrsmSu:  NPrtUS=   1 ThrOK=F IAlg=1 NPAlg=1 LenDen=           0.
 Prism:   IPart=     0 DynPar=F LinDyn=F Incr=           1.
 PRISM was handed  1610277416 working-precision words and   130 shell-pairs
 IPart=  0 NShTot=         130 NBatch=          13 AvBLen=        10.0
 PrSmSu:  NxtVal=              2.
 CnvPC2: ToCart=F DoDens=F IPureD=0 IPureF=0.
 Transformed matrix in CnvPC2: 
                 1             2             3             4             5 
      1   0.100000D+01  0.421836D+00  0.000000D+00  0.000000D+00  0.000000D+00
      2   0.421836D+00  0.100000D+01  0.000000D+00  0.000000D+00  0.000000D+00
      3   0.000000D+00  0.000000D+00  0.100000D+01  0.000000D+00  0.000000D+00
      4   0.000000D+00  0.000000D+00  0.000000D+00  0.100000D+01  0.000000D+00
      5   0.000000D+00  0.000000D+00  0.000000D+00  0.000000D+00  0.100000D+01
      6   0.516494D-01  0.493818D+00  0.000000D+00  0.000000D+00  0.000000D+00
      7   0.000000D+00  0.000000D+00  0.505120D+00  0.000000D+00  0.000000D+00
      8   0.000000D+00  0.000000D+00  0.000000D+00  0.505120D+00  0.000000D+00
      9   0.000000D+00  0.000000D+00  0.000000D+00  0.000000D+00  0.505120D+00
     10   0.000000D+00  0.000000D+00  0.000000D+00  0.000000D+00  0.000000D+00
     11   0.000000D+00  0.000000D+00  0.000000D+00  0.000000D+00  0.000000D+00
     12   0.000000D+00  0.000000D+00  0.000000D+00  0.000000D+00  0.000000D+00
     13   0.000000D+00  0.000000D+00  0.000000D+00  0.000000D+00  0.000000D+00
     14   0.000000D+00  0.000000D+00  0.000000D+00  0.000000D+00  0.000000D+00
     15   0.300484D-03  0.328747D-01  0.000000D+00  0.000000D+00  0.000000D+00
     16   0.000000D+00  0.000000D+00  0.466401D-01  0.000000D+00  0.000000D+00
     17   0.000000D+00  0.000000D+00  0.000000D+00  0.466401D-01  0.000000D+00
     18   0.000000D+00  0.000000D+00  0.000000D+00  0.000000D+00  0.466401D-01
     19   0.000000D+00  0.000000D+00  0.000000D+00  0.000000D+00  0.000000D+00
     20   0.000000D+00  0.000000D+00  0.000000D+00  0.000000D+00  0.000000D+00
     21   0.000000D+00  0.000000D+00  0.000000D+00  0.000000D+00  0.000000D+00
     22   0.000000D+00  0.000000D+00  0.000000D+00  0.000000D+00  0.000000D+00
     23   0.000000D+00  0.000000D+00  0.000000D+00  0.000000D+00  0.000000D+00
     24  -0.901374D-03 -0.412282D-02  0.000000D+00  0.000000D+00  0.000000D+00
     25   0.000000D+00  0.000000D+00  0.148975D-02  0.000000D+00  0.000000D+00
     26   0.000000D+00  0.000000D+00  0.000000D+00  0.148975D-02  0.000000D+00
     27   0.000000D+00  0.000000D+00  0.000000D+00  0.000000D+00  0.148975D-02
     28   0.000000D+00  0.000000D+00  0.000000D+00  0.000000D+00  0.000000D+00
     29   0.000000D+00  0.000000D+00  0.000000D+00  0.000000D+00  0.000000D+00
     30   0.000000D+00  0.000000D+00  0.000000D+00  0.000000D+00  0.000000D+00
     31   0.000000D+00  0.000000D+00  0.000000D+00  0.000000D+00  0.000000D+00
     32   0.000000D+00  0.000000D+00  0.000000D+00  0.000000D+00  0.000000D+00
     33   0.000000D+00  0.000000D+00  0.000000D+00  0.000000D+00  0.000000D+00
     34   0.000000D+00  0.000000D+00  0.000000D+00  0.000000D+00  0.000000D+00
     35   0.000000D+00  0.000000D+00  0.000000D+00  0.000000D+00  0.000000D+00
     36   0.000000D+00  0.000000D+00  0.000000D+00  0.000000D+00  0.000000D+00
     37   0.000000D+00  0.000000D+00  0.000000D+00  0.000000D+00  0.000000D+00
     38   0.000000D+00  0.000000D+00  0.000000D+00  0.000000D+00  0.000000D+00
     39   0.000000D+00  0.000000D+00  0.000000D+00  0.000000D+00  0.000000D+00
     40   0.000000D+00  0.000000D+00  0.000000D+00  0.000000D+00  0.000000D+00
     41   0.000000D+00  0.000000D+00  0.000000D+00  0.000000D+00  0.000000D+00
     42   0.000000D+00  0.000000D+00  0.000000D+00  0.000000D+00  0.000000D+00
     43   0.000000D+00  0.000000D+00  0.000000D+00  0.000000D+00  0.000000D+00
     44   0.000000D+00  0.000000D+00  0.000000D+00  0.000000D+00  0.000000D+00
     45   0.000000D+00  0.000000D+00  0.000000D+00  0.000000D+00  0.000000D+00
     46   0.000000D+00  0.000000D+00  0.000000D+00  0.000000D+00  0.000000D+00
     47   0.000000D+00  0.000000D+00  0.000000D+00  0.000000D+00  0.000000D+00
     48   0.000000D+00  0.000000D+00  0.000000D+00  0.000000D+00  0.000000D+00
     49   0.000000D+00  0.000000D+00  0.000000D+00  0.000000D+00  0.000000D+00
     50   0.000000D+00  0.000000D+00  0.000000D+00  0.000000D+00  0.000000D+00
     51   0.000000D+00  0.000000D+00  0.000000D+00  0.000000D+00  0.000000D+00
     52   0.000000D+00  0.000000D+00  0.000000D+00  0.000000D+00  0.000000D+00
     53   0.000000D+00  0.000000D+00  0.000000D+00  0.000000D+00  0.000000D+00
     54   0.000000D+00  0.000000D+00  0.000000D+00  0.000000D+00  0.000000D+00
                 6             7             8             9            10 
      1   0.516494D-01  0.000000D+00  0.000000D+00  0.000000D+00  0.000000D+00
      2   0.493818D+00  0.000000D+00  0.000000D+00  0.000000D+00  0.000000D+00
      3   0.000000D+00  0.505120D+00  0.000000D+00  0.000000D+00  0.000000D+00
      4   0.000000D+00  0.000000D+00  0.505120D+00  0.000000D+00  0.000000D+00
      5   0.000000D+00  0.000000D+00  0.000000D+00  0.505120D+00  0.000000D+00
      6   0.100000D+01  0.000000D+00  0.000000D+00  0.000000D+00  0.000000D+00
      7   0.000000D+00  0.100000D+01  0.000000D+00  0.000000D+00  0.000000D+00
      8   0.000000D+00  0.000000D+00  0.100000D+01  0.000000D+00  0.000000D+00
      9   0.000000D+00  0.000000D+00  0.000000D+00  0.100000D+01  0.000000D+00
     10   0.000000D+00  0.000000D+00  0.000000D+00  0.000000D+00  0.100000D+01
     11   0.000000D+00  0.000000D+00  0.000000D+00  0.000000D+00  0.000000D+00
     12   0.000000D+00  0.000000D+00  0.000000D+00  0.000000D+00  0.000000D+00
     13   0.000000D+00  0.000000D+00  0.000000D+00  0.000000D+00  0.000000D+00
     14   0.000000D+00  0.000000D+00  0.000000D+00  0.000000D+00  0.000000D+00
     15   0.342269D+00  0.000000D+00  0.000000D+00  0.000000D+00  0.000000D+00
     16   0.000000D+00  0.356711D+00  0.000000D+00  0.000000D+00  0.000000D+00
     17   0.000000D+00  0.000000D+00  0.356711D+00  0.000000D+00  0.000000D+00
     18   0.000000D+00  0.000000D+00  0.000000D+00  0.356711D+00  0.000000D+00
     19   0.000000D+00  0.000000D+00  0.000000D+00  0.000000D+00  0.357645D+00
     20   0.000000D+00  0.000000D+00  0.000000D+00  0.000000D+00  0.000000D+00
     21   0.000000D+00  0.000000D+00  0.000000D+00  0.000000D+00  0.000000D+00
     22   0.000000D+00  0.000000D+00  0.000000D+00  0.000000D+00  0.000000D+00
     23   0.000000D+00  0.000000D+00  0.000000D+00  0.000000D+00  0.000000D+00
     24   0.246889D-02  0.000000D+00  0.000000D+00  0.000000D+00  0.000000D+00
     25   0.000000D+00  0.176979D-01  0.000000D+00  0.000000D+00  0.000000D+00
     26   0.000000D+00  0.000000D+00  0.176979D-01  0.000000D+00  0.000000D+00
     27   0.000000D+00  0.000000D+00  0.000000D+00  0.176979D-01  0.000000D+00
     28   0.000000D+00  0.000000D+00  0.000000D+00  0.000000D+00  0.000000D+00
     29   0.000000D+00  0.000000D+00  0.000000D+00  0.000000D+00  0.000000D+00
     30   0.000000D+00  0.000000D+00  0.000000D+00  0.000000D+00  0.000000D+00
     31   0.000000D+00  0.000000D+00  0.000000D+00  0.000000D+00  0.000000D+00
     32   0.000000D+00  0.000000D+00  0.000000D+00  0.000000D+00  0.000000D+00
     33   0.000000D+00  0.000000D+00  0.000000D+00  0.000000D+00  0.000000D+00
     34   0.000000D+00  0.000000D+00  0.000000D+00  0.000000D+00  0.000000D+00
     35   0.000000D+00  0.000000D+00  0.000000D+00  0.000000D+00  0.000000D+00
     36   0.000000D+00  0.000000D+00  0.000000D+00  0.000000D+00  0.000000D+00
     37   0.000000D+00  0.000000D+00  0.000000D+00  0.000000D+00  0.000000D+00
     38   0.000000D+00  0.000000D+00  0.000000D+00  0.000000D+00  0.000000D+00
     39   0.000000D+00  0.000000D+00  0.000000D+00  0.000000D+00  0.000000D+00
     40   0.000000D+00  0.000000D+00  0.000000D+00  0.000000D+00  0.000000D+00
     41   0.000000D+00  0.000000D+00  0.000000D+00  0.000000D+00  0.000000D+00
     42   0.000000D+00  0.000000D+00  0.000000D+00  0.000000D+00  0.000000D+00
     43   0.000000D+00  0.000000D+00  0.000000D+00  0.000000D+00  0.000000D+00
     44   0.000000D+00  0.000000D+00  0.000000D+00  0.000000D+00  0.000000D+00
     45   0.000000D+00  0.000000D+00  0.000000D+00  0.000000D+00  0.000000D+00
     46   0.000000D+00  0.000000D+00  0.000000D+00  0.000000D+00  0.000000D+00
     47   0.000000D+00  0.000000D+00  0.000000D+00  0.000000D+00  0.000000D+00
     48   0.000000D+00  0.000000D+00  0.000000D+00  0.000000D+00  0.000000D+00
     49   0.000000D+00  0.000000D+00  0.000000D+00  0.000000D+00  0.000000D+00
     50   0.000000D+00  0.000000D+00  0.000000D+00  0.000000D+00  0.000000D+00
     51   0.000000D+00  0.000000D+00  0.000000D+00  0.000000D+00  0.000000D+00
     52   0.000000D+00  0.000000D+00  0.000000D+00  0.000000D+00  0.000000D+00
     53   0.000000D+00  0.000000D+00  0.000000D+00  0.000000D+00  0.000000D+00
     54   0.000000D+00  0.000000D+00  0.000000D+00  0.000000D+00  0.000000D+00
                11            12            13            14            15 
      1   0.000000D+00  0.000000D+00  0.000000D+00  0.000000D+00  0.300484D-03
      2   0.000000D+00  0.000000D+00  0.000000D+00  0.000000D+00  0.328747D-01
      3   0.000000D+00  0.000000D+00  0.000000D+00  0.000000D+00  0.000000D+00
      4   0.000000D+00  0.000000D+00  0.000000D+00  0.000000D+00  0.000000D+00
      5   0.000000D+00  0.000000D+00  0.000000D+00  0.000000D+00  0.000000D+00
      6   0.000000D+00  0.000000D+00  0.000000D+00  0.000000D+00  0.342269D+00
      7   0.000000D+00  0.000000D+00  0.000000D+00  0.000000D+00  0.000000D+00
      8   0.000000D+00  0.000000D+00  0.000000D+00  0.000000D+00  0.000000D+00
      9   0.000000D+00  0.000000D+00  0.000000D+00  0.000000D+00  0.000000D+00
     10   0.000000D+00  0.000000D+00  0.000000D+00  0.000000D+00  0.000000D+00
     11   0.100000D+01  0.000000D+00  0.000000D+00  0.000000D+00  0.000000D+00
     12   0.000000D+00  0.100000D+01  0.000000D+00  0.000000D+00  0.000000D+00
     13   0.000000D+00  0.000000D+00  0.100000D+01  0.000000D+00  0.000000D+00
     14   0.000000D+00  0.000000D+00  0.000000D+00  0.100000D+01  0.000000D+00
     15   0.000000D+00  0.000000D+00  0.000000D+00  0.000000D+00  0.100000D+01
     16   0.000000D+00  0.000000D+00  0.000000D+00  0.000000D+00  0.000000D+00
     17   0.000000D+00  0.000000D+00  0.000000D+00  0.000000D+00  0.000000D+00
     18   0.000000D+00  0.000000D+00  0.000000D+00  0.000000D+00  0.000000D+00
     19   0.000000D+00  0.000000D+00  0.000000D+00  0.000000D+00  0.000000D+00
     20   0.357645D+00  0.000000D+00  0.000000D+00  0.000000D+00  0.000000D+00
     21   0.000000D+00  0.357645D+00  0.000000D+00  0.000000D+00  0.000000D+00
     22   0.000000D+00  0.000000D+00  0.357645D+00  0.000000D+00  0.000000D+00
     23   0.000000D+00  0.000000D+00  0.000000D+00  0.357645D+00  0.000000D+00
     24   0.000000D+00  0.000000D+00  0.000000D+00  0.000000D+00  0.273894D+00
     25   0.000000D+00  0.000000D+00  0.000000D+00  0.000000D+00  0.000000D+00
     26   0.000000D+00  0.000000D+00  0.000000D+00  0.000000D+00  0.000000D+00
     27   0.000000D+00  0.000000D+00  0.000000D+00  0.000000D+00  0.000000D+00
     28   0.000000D+00  0.000000D+00  0.000000D+00  0.000000D+00  0.000000D+00
     29   0.000000D+00  0.000000D+00  0.000000D+00  0.000000D+00  0.000000D+00
     30   0.000000D+00  0.000000D+00  0.000000D+00  0.000000D+00  0.000000D+00
     31   0.000000D+00  0.000000D+00  0.000000D+00  0.000000D+00  0.000000D+00
     32   0.000000D+00  0.000000D+00  0.000000D+00  0.000000D+00  0.000000D+00
     33   0.000000D+00  0.000000D+00  0.000000D+00  0.000000D+00  0.000000D+00
     34   0.000000D+00  0.000000D+00  0.000000D+00  0.000000D+00  0.000000D+00
     35   0.000000D+00  0.000000D+00  0.000000D+00  0.000000D+00  0.000000D+00
     36   0.000000D+00  0.000000D+00  0.000000D+00  0.000000D+00  0.000000D+00
     37   0.000000D+00  0.000000D+00  0.000000D+00  0.000000D+00  0.000000D+00
     38   0.000000D+00  0.000000D+00  0.000000D+00  0.000000D+00  0.000000D+00
     39   0.000000D+00  0.000000D+00  0.000000D+00  0.000000D+00  0.000000D+00
     40   0.000000D+00  0.000000D+00  0.000000D+00  0.000000D+00  0.000000D+00
     41   0.000000D+00  0.000000D+00  0.000000D+00  0.000000D+00  0.000000D+00
     42   0.000000D+00  0.000000D+00  0.000000D+00  0.000000D+00  0.000000D+00
     43   0.000000D+00  0.000000D+00  0.000000D+00  0.000000D+00  0.000000D+00
     44   0.000000D+00  0.000000D+00  0.000000D+00  0.000000D+00  0.000000D+00
     45   0.000000D+00  0.000000D+00  0.000000D+00  0.000000D+00  0.000000D+00
     46   0.000000D+00  0.000000D+00  0.000000D+00  0.000000D+00  0.000000D+00
     47   0.000000D+00  0.000000D+00  0.000000D+00  0.000000D+00  0.000000D+00
     48   0.000000D+00  0.000000D+00  0.000000D+00  0.000000D+00  0.000000D+00
     49   0.000000D+00  0.000000D+00  0.000000D+00  0.000000D+00  0.000000D+00
     50   0.000000D+00  0.000000D+00  0.000000D+00  0.000000D+00  0.000000D+00
     51   0.000000D+00  0.000000D+00  0.000000D+00  0.000000D+00  0.334987D-05
     52   0.000000D+00  0.000000D+00  0.000000D+00  0.000000D+00  0.000000D+00
     53   0.000000D+00  0.000000D+00  0.000000D+00  0.000000D+00  0.000000D+00
     54   0.000000D+00  0.000000D+00  0.000000D+00  0.000000D+00  0.106352D-04
                16            17            18            19            20 
      1   0.000000D+00  0.000000D+00  0.000000D+00  0.000000D+00  0.000000D+00
      2   0.000000D+00  0.000000D+00  0.000000D+00  0.000000D+00  0.000000D+00
      3   0.466401D-01  0.000000D+00  0.000000D+00  0.000000D+00  0.000000D+00
      4   0.000000D+00  0.466401D-01  0.000000D+00  0.000000D+00  0.000000D+00
      5   0.000000D+00  0.000000D+00  0.466401D-01  0.000000D+00  0.000000D+00
      6   0.000000D+00  0.000000D+00  0.000000D+00  0.000000D+00  0.000000D+00
      7   0.356711D+00  0.000000D+00  0.000000D+00  0.000000D+00  0.000000D+00
      8   0.000000D+00  0.356711D+00  0.000000D+00  0.000000D+00  0.000000D+00
      9   0.000000D+00  0.000000D+00  0.356711D+00  0.000000D+00  0.000000D+00
     10   0.000000D+00  0.000000D+00  0.000000D+00  0.357645D+00  0.000000D+00
     11   0.000000D+00  0.000000D+00  0.000000D+00  0.000000D+00  0.357645D+00
     12   0.000000D+00  0.000000D+00  0.000000D+00  0.000000D+00  0.000000D+00
     13   0.000000D+00  0.000000D+00  0.000000D+00  0.000000D+00  0.000000D+00
     14   0.000000D+00  0.000000D+00  0.000000D+00  0.000000D+00  0.000000D+00
     15   0.000000D+00  0.000000D+00  0.000000D+00  0.000000D+00  0.000000D+00
     16   0.100000D+01  0.000000D+00  0.000000D+00  0.000000D+00  0.000000D+00
     17   0.000000D+00  0.100000D+01  0.000000D+00  0.000000D+00  0.000000D+00
     18   0.000000D+00  0.000000D+00  0.100000D+01  0.000000D+00  0.000000D+00
     19   0.000000D+00  0.000000D+00  0.000000D+00  0.100000D+01  0.000000D+00
     20   0.000000D+00  0.000000D+00  0.000000D+00  0.000000D+00  0.100000D+01
     21   0.000000D+00  0.000000D+00  0.000000D+00  0.000000D+00  0.000000D+00
     22   0.000000D+00  0.000000D+00  0.000000D+00  0.000000D+00  0.000000D+00
     23   0.000000D+00  0.000000D+00  0.000000D+00  0.000000D+00  0.000000D+00
     24   0.000000D+00  0.000000D+00  0.000000D+00  0.000000D+00  0.000000D+00
     25   0.282566D+00  0.000000D+00  0.000000D+00  0.000000D+00  0.000000D+00
     26   0.000000D+00  0.282566D+00  0.000000D+00  0.000000D+00  0.000000D+00
     27   0.000000D+00  0.000000D+00  0.282566D+00  0.000000D+00  0.000000D+00
     28   0.000000D+00  0.000000D+00  0.000000D+00  0.000000D+00  0.000000D+00
     29   0.000000D+00  0.000000D+00  0.000000D+00  0.000000D+00  0.000000D+00
     30   0.000000D+00  0.000000D+00  0.000000D+00  0.000000D+00  0.000000D+00
     31   0.000000D+00  0.000000D+00  0.000000D+00  0.000000D+00  0.000000D+00
     32   0.000000D+00  0.000000D+00  0.000000D+00  0.000000D+00  0.000000D+00
     33   0.000000D+00  0.000000D+00  0.000000D+00  0.000000D+00  0.000000D+00
     34   0.000000D+00  0.000000D+00  0.000000D+00  0.000000D+00  0.000000D+00
     35   0.000000D+00  0.000000D+00  0.000000D+00  0.000000D+00  0.000000D+00
     36   0.000000D+00  0.000000D+00  0.000000D+00  0.000000D+00  0.000000D+00
     37   0.000000D+00  0.000000D+00  0.000000D+00  0.000000D+00  0.000000D+00
     38   0.000000D+00  0.000000D+00  0.000000D+00  0.000000D+00  0.000000D+00
     39   0.000000D+00  0.000000D+00  0.000000D+00  0.000000D+00  0.000000D+00
     40   0.000000D+00  0.000000D+00  0.000000D+00  0.000000D+00  0.000000D+00
     41   0.000000D+00  0.000000D+00  0.000000D+00  0.000000D+00  0.000000D+00
     42   0.000000D+00  0.000000D+00  0.000000D+00  0.000000D+00  0.000000D+00
     43   0.000000D+00  0.000000D+00  0.000000D+00  0.000000D+00  0.000000D+00
     44   0.000000D+00  0.000000D+00  0.000000D+00  0.000000D+00  0.000000D+00
     45   0.000000D+00  0.000000D+00  0.000000D+00  0.000000D+00  0.000000D+00
     46   0.000000D+00  0.000000D+00  0.000000D+00  0.000000D+00  0.000000D+00
     47   0.000000D+00  0.000000D+00  0.000000D+00  0.000000D+00  0.000000D+00
     48   0.000000D+00  0.000000D+00  0.000000D+00  0.000000D+00  0.000000D+00
     49   0.000000D+00  0.000000D+00  0.000000D+00  0.000000D+00  0.000000D+00
     50   0.000000D+00  0.000000D+00  0.000000D+00  0.000000D+00  0.000000D+00
     51   0.000000D+00  0.000000D+00 -0.496737D-05  0.450525D-05  0.000000D+00
     52   0.000000D+00  0.000000D+00  0.000000D+00  0.000000D+00  0.000000D+00
     53   0.000000D+00  0.000000D+00  0.000000D+00  0.000000D+00  0.000000D+00
     54   0.000000D+00  0.000000D+00 -0.153373D-04  0.134162D-04  0.000000D+00
                21            22            23            24            25 
      1   0.000000D+00  0.000000D+00  0.000000D+00 -0.901374D-03  0.000000D+00
      2   0.000000D+00  0.000000D+00  0.000000D+00 -0.412282D-02  0.000000D+00
      3   0.000000D+00  0.000000D+00  0.000000D+00  0.000000D+00  0.148975D-02
      4   0.000000D+00  0.000000D+00  0.000000D+00  0.000000D+00  0.000000D+00
      5   0.000000D+00  0.000000D+00  0.000000D+00  0.000000D+00  0.000000D+00
      6   0.000000D+00  0.000000D+00  0.000000D+00  0.246889D-02  0.000000D+00
      7   0.000000D+00  0.000000D+00  0.000000D+00  0.000000D+00  0.176979D-01
      8   0.000000D+00  0.000000D+00  0.000000D+00  0.000000D+00  0.000000D+00
      9   0.000000D+00  0.000000D+00  0.000000D+00  0.000000D+00  0.000000D+00
     10   0.000000D+00  0.000000D+00  0.000000D+00  0.000000D+00  0.000000D+00
     11   0.000000D+00  0.000000D+00  0.000000D+00  0.000000D+00  0.000000D+00
     12   0.357645D+00  0.000000D+00  0.000000D+00  0.000000D+00  0.000000D+00
     13   0.000000D+00  0.357645D+00  0.000000D+00  0.000000D+00  0.000000D+00
     14   0.000000D+00  0.000000D+00  0.357645D+00  0.000000D+00  0.000000D+00
     15   0.000000D+00  0.000000D+00  0.000000D+00  0.273894D+00  0.000000D+00
     16   0.000000D+00  0.000000D+00  0.000000D+00  0.000000D+00  0.282566D+00
     17   0.000000D+00  0.000000D+00  0.000000D+00  0.000000D+00  0.000000D+00
     18   0.000000D+00  0.000000D+00  0.000000D+00  0.000000D+00  0.000000D+00
     19   0.000000D+00  0.000000D+00  0.000000D+00  0.000000D+00  0.000000D+00
     20   0.000000D+00  0.000000D+00  0.000000D+00  0.000000D+00  0.000000D+00
     21   0.100000D+01  0.000000D+00  0.000000D+00  0.000000D+00  0.000000D+00
     22   0.000000D+00  0.100000D+01  0.000000D+00  0.000000D+00  0.000000D+00
     23   0.000000D+00  0.000000D+00  0.100000D+01  0.000000D+00  0.000000D+00
     24   0.000000D+00  0.000000D+00  0.000000D+00  0.100000D+01  0.000000D+00
     25   0.000000D+00  0.000000D+00  0.000000D+00  0.000000D+00  0.100000D+01
     26   0.000000D+00  0.000000D+00  0.000000D+00  0.000000D+00  0.000000D+00
     27   0.000000D+00  0.000000D+00  0.000000D+00  0.000000D+00  0.000000D+00
     28   0.000000D+00  0.000000D+00  0.000000D+00  0.000000D+00  0.000000D+00
     29   0.000000D+00  0.000000D+00  0.000000D+00  0.000000D+00  0.000000D+00
     30   0.000000D+00  0.000000D+00  0.000000D+00  0.000000D+00  0.000000D+00
     31   0.000000D+00  0.000000D+00  0.000000D+00  0.000000D+00  0.000000D+00
     32   0.000000D+00  0.000000D+00  0.000000D+00  0.000000D+00  0.000000D+00
     33   0.000000D+00  0.000000D+00  0.000000D+00  0.000000D+00  0.000000D+00
     34   0.000000D+00  0.000000D+00  0.000000D+00  0.000000D+00  0.000000D+00
     35   0.000000D+00  0.000000D+00  0.000000D+00  0.000000D+00  0.000000D+00
     36   0.000000D+00  0.000000D+00  0.000000D+00  0.000000D+00  0.000000D+00
     37   0.000000D+00  0.000000D+00  0.000000D+00  0.000000D+00  0.000000D+00
     38   0.000000D+00  0.000000D+00  0.000000D+00  0.000000D+00  0.000000D+00
     39   0.000000D+00  0.000000D+00  0.000000D+00  0.000000D+00  0.000000D+00
     40   0.000000D+00  0.000000D+00  0.000000D+00  0.000000D+00  0.000000D+00
     41   0.000000D+00  0.000000D+00  0.000000D+00  0.000000D+00  0.000000D+00
     42   0.000000D+00  0.000000D+00  0.000000D+00  0.334987D-05  0.000000D+00
     43   0.000000D+00  0.000000D+00  0.000000D+00  0.000000D+00  0.000000D+00
     44   0.000000D+00  0.000000D+00  0.000000D+00  0.000000D+00  0.000000D+00
     45   0.000000D+00  0.000000D+00  0.000000D+00  0.496737D-05  0.000000D+00
     46   0.000000D+00  0.000000D+00  0.000000D+00  0.450525D-05  0.000000D+00
     47   0.000000D+00  0.000000D+00  0.000000D+00  0.000000D+00  0.000000D+00
     48   0.000000D+00  0.000000D+00  0.000000D+00  0.000000D+00  0.000000D+00
     49   0.000000D+00  0.000000D+00  0.000000D+00  0.000000D+00  0.000000D+00
     50   0.000000D+00  0.000000D+00  0.000000D+00  0.000000D+00  0.000000D+00
     51   0.000000D+00  0.000000D+00  0.000000D+00  0.138143D-02  0.000000D+00
     52   0.000000D+00  0.000000D+00  0.000000D+00  0.000000D+00  0.359962D-03
     53   0.000000D+00  0.000000D+00  0.000000D+00  0.000000D+00  0.000000D+00
     54   0.000000D+00  0.000000D+00  0.000000D+00  0.266821D-02  0.000000D+00
                26            27            28            29            30 
      1   0.000000D+00  0.000000D+00  0.000000D+00  0.000000D+00  0.000000D+00
      2   0.000000D+00  0.000000D+00  0.000000D+00  0.000000D+00  0.000000D+00
      3   0.000000D+00  0.000000D+00  0.000000D+00  0.000000D+00  0.000000D+00
      4   0.148975D-02  0.000000D+00  0.000000D+00  0.000000D+00  0.000000D+00
      5   0.000000D+00  0.148975D-02  0.000000D+00  0.000000D+00  0.000000D+00
      6   0.000000D+00  0.000000D+00  0.000000D+00  0.000000D+00  0.000000D+00
      7   0.000000D+00  0.000000D+00  0.000000D+00  0.000000D+00  0.000000D+00
      8   0.176979D-01  0.000000D+00  0.000000D+00  0.000000D+00  0.000000D+00
      9   0.000000D+00  0.176979D-01  0.000000D+00  0.000000D+00  0.000000D+00
     10   0.000000D+00  0.000000D+00  0.000000D+00  0.000000D+00  0.000000D+00
     11   0.000000D+00  0.000000D+00  0.000000D+00  0.000000D+00  0.000000D+00
     12   0.000000D+00  0.000000D+00  0.000000D+00  0.000000D+00  0.000000D+00
     13   0.000000D+00  0.000000D+00  0.000000D+00  0.000000D+00  0.000000D+00
     14   0.000000D+00  0.000000D+00  0.000000D+00  0.000000D+00  0.000000D+00
     15   0.000000D+00  0.000000D+00  0.000000D+00  0.000000D+00  0.000000D+00
     16   0.000000D+00  0.000000D+00  0.000000D+00  0.000000D+00  0.000000D+00
     17   0.282566D+00  0.000000D+00  0.000000D+00  0.000000D+00  0.000000D+00
     18   0.000000D+00  0.282566D+00  0.000000D+00  0.000000D+00  0.000000D+00
     19   0.000000D+00  0.000000D+00  0.000000D+00  0.000000D+00  0.000000D+00
     20   0.000000D+00  0.000000D+00  0.000000D+00  0.000000D+00  0.000000D+00
     21   0.000000D+00  0.000000D+00  0.000000D+00  0.000000D+00  0.000000D+00
     22   0.000000D+00  0.000000D+00  0.000000D+00  0.000000D+00  0.000000D+00
     23   0.000000D+00  0.000000D+00  0.000000D+00  0.000000D+00  0.000000D+00
     24   0.000000D+00  0.000000D+00  0.000000D+00  0.000000D+00  0.000000D+00
     25   0.000000D+00  0.000000D+00  0.000000D+00  0.000000D+00  0.000000D+00
     26   0.100000D+01  0.000000D+00  0.000000D+00  0.000000D+00  0.000000D+00
     27   0.000000D+00  0.100000D+01  0.000000D+00  0.000000D+00  0.000000D+00
     28   0.000000D+00  0.000000D+00  0.100000D+01  0.421836D+00  0.000000D+00
     29   0.000000D+00  0.000000D+00  0.421836D+00  0.100000D+01  0.000000D+00
     30   0.000000D+00  0.000000D+00  0.000000D+00  0.000000D+00  0.100000D+01
     31   0.000000D+00  0.000000D+00  0.000000D+00  0.000000D+00  0.000000D+00
     32   0.000000D+00  0.000000D+00  0.000000D+00  0.000000D+00  0.000000D+00
     33   0.000000D+00  0.000000D+00  0.516494D-01  0.493818D+00  0.000000D+00
     34   0.000000D+00  0.000000D+00  0.000000D+00  0.000000D+00  0.505120D+00
     35   0.000000D+00  0.000000D+00  0.000000D+00  0.000000D+00  0.000000D+00
     36   0.000000D+00  0.000000D+00  0.000000D+00  0.000000D+00  0.000000D+00
     37   0.000000D+00  0.000000D+00  0.000000D+00  0.000000D+00  0.000000D+00
     38   0.000000D+00  0.000000D+00  0.000000D+00  0.000000D+00  0.000000D+00
     39   0.000000D+00  0.000000D+00  0.000000D+00  0.000000D+00  0.000000D+00
     40   0.000000D+00  0.000000D+00  0.000000D+00  0.000000D+00  0.000000D+00
     41   0.000000D+00  0.000000D+00  0.000000D+00  0.000000D+00  0.000000D+00
     42   0.000000D+00 -0.106352D-04  0.300484D-03  0.328747D-01  0.000000D+00
     43   0.000000D+00  0.000000D+00  0.000000D+00  0.000000D+00  0.466401D-01
     44   0.000000D+00  0.000000D+00  0.000000D+00  0.000000D+00  0.000000D+00
     45   0.000000D+00 -0.153373D-04  0.000000D+00  0.000000D+00  0.000000D+00
     46   0.000000D+00 -0.134162D-04  0.000000D+00  0.000000D+00  0.000000D+00
     47   0.000000D+00  0.000000D+00  0.000000D+00  0.000000D+00  0.000000D+00
     48   0.000000D+00  0.000000D+00  0.000000D+00  0.000000D+00  0.000000D+00
     49   0.000000D+00  0.000000D+00  0.000000D+00  0.000000D+00  0.000000D+00
     50   0.000000D+00  0.000000D+00  0.000000D+00  0.000000D+00  0.000000D+00
     51   0.000000D+00 -0.266821D-02 -0.901374D-03 -0.412282D-02  0.000000D+00
     52   0.000000D+00  0.000000D+00  0.000000D+00  0.000000D+00  0.148975D-02
     53   0.359962D-03  0.000000D+00  0.000000D+00  0.000000D+00  0.000000D+00
     54   0.000000D+00 -0.498022D-02  0.000000D+00  0.000000D+00  0.000000D+00
                31            32            33            34            35 
      1   0.000000D+00  0.000000D+00  0.000000D+00  0.000000D+00  0.000000D+00
      2   0.000000D+00  0.000000D+00  0.000000D+00  0.000000D+00  0.000000D+00
      3   0.000000D+00  0.000000D+00  0.000000D+00  0.000000D+00  0.000000D+00
      4   0.000000D+00  0.000000D+00  0.000000D+00  0.000000D+00  0.000000D+00
      5   0.000000D+00  0.000000D+00  0.000000D+00  0.000000D+00  0.000000D+00
      6   0.000000D+00  0.000000D+00  0.000000D+00  0.000000D+00  0.000000D+00
      7   0.000000D+00  0.000000D+00  0.000000D+00  0.000000D+00  0.000000D+00
      8   0.000000D+00  0.000000D+00  0.000000D+00  0.000000D+00  0.000000D+00
      9   0.000000D+00  0.000000D+00  0.000000D+00  0.000000D+00  0.000000D+00
     10   0.000000D+00  0.000000D+00  0.000000D+00  0.000000D+00  0.000000D+00
     11   0.000000D+00  0.000000D+00  0.000000D+00  0.000000D+00  0.000000D+00
     12   0.000000D+00  0.000000D+00  0.000000D+00  0.000000D+00  0.000000D+00
     13   0.000000D+00  0.000000D+00  0.000000D+00  0.000000D+00  0.000000D+00
     14   0.000000D+00  0.000000D+00  0.000000D+00  0.000000D+00  0.000000D+00
     15   0.000000D+00  0.000000D+00  0.000000D+00  0.000000D+00  0.000000D+00
     16   0.000000D+00  0.000000D+00  0.000000D+00  0.000000D+00  0.000000D+00
     17   0.000000D+00  0.000000D+00  0.000000D+00  0.000000D+00  0.000000D+00
     18   0.000000D+00  0.000000D+00  0.000000D+00  0.000000D+00  0.000000D+00
     19   0.000000D+00  0.000000D+00  0.000000D+00  0.000000D+00  0.000000D+00
     20   0.000000D+00  0.000000D+00  0.000000D+00  0.000000D+00  0.000000D+00
     21   0.000000D+00  0.000000D+00  0.000000D+00  0.000000D+00  0.000000D+00
     22   0.000000D+00  0.000000D+00  0.000000D+00  0.000000D+00  0.000000D+00
     23   0.000000D+00  0.000000D+00  0.000000D+00  0.000000D+00  0.000000D+00
     24   0.000000D+00  0.000000D+00  0.000000D+00  0.000000D+00  0.000000D+00
     25   0.000000D+00  0.000000D+00  0.000000D+00  0.000000D+00  0.000000D+00
     26   0.000000D+00  0.000000D+00  0.000000D+00  0.000000D+00  0.000000D+00
     27   0.000000D+00  0.000000D+00  0.000000D+00  0.000000D+00  0.000000D+00
     28   0.000000D+00  0.000000D+00  0.516494D-01  0.000000D+00  0.000000D+00
     29   0.000000D+00  0.000000D+00  0.493818D+00  0.000000D+00  0.000000D+00
     30   0.000000D+00  0.000000D+00  0.000000D+00  0.505120D+00  0.000000D+00
     31   0.100000D+01  0.000000D+00  0.000000D+00  0.000000D+00  0.505120D+00
     32   0.000000D+00  0.100000D+01  0.000000D+00  0.000000D+00  0.000000D+00
     33   0.000000D+00  0.000000D+00  0.100000D+01  0.000000D+00  0.000000D+00
     34   0.000000D+00  0.000000D+00  0.000000D+00  0.100000D+01  0.000000D+00
     35   0.505120D+00  0.000000D+00  0.000000D+00  0.000000D+00  0.100000D+01
     36   0.000000D+00  0.505120D+00  0.000000D+00  0.000000D+00  0.000000D+00
     37   0.000000D+00  0.000000D+00  0.000000D+00  0.000000D+00  0.000000D+00
     38   0.000000D+00  0.000000D+00  0.000000D+00  0.000000D+00  0.000000D+00
     39   0.000000D+00  0.000000D+00  0.000000D+00  0.000000D+00  0.000000D+00
     40   0.000000D+00  0.000000D+00  0.000000D+00  0.000000D+00  0.000000D+00
     41   0.000000D+00  0.000000D+00  0.000000D+00  0.000000D+00  0.000000D+00
     42   0.000000D+00  0.000000D+00  0.342269D+00  0.000000D+00  0.000000D+00
     43   0.000000D+00  0.000000D+00  0.000000D+00  0.356711D+00  0.000000D+00
     44   0.466401D-01  0.000000D+00  0.000000D+00  0.000000D+00  0.356711D+00
     45   0.000000D+00  0.466401D-01  0.000000D+00  0.000000D+00  0.000000D+00
     46   0.000000D+00  0.000000D+00  0.000000D+00  0.000000D+00  0.000000D+00
     47   0.000000D+00  0.000000D+00  0.000000D+00  0.000000D+00  0.000000D+00
     48   0.000000D+00  0.000000D+00  0.000000D+00  0.000000D+00  0.000000D+00
     49   0.000000D+00  0.000000D+00  0.000000D+00  0.000000D+00  0.000000D+00
     50   0.000000D+00  0.000000D+00  0.000000D+00  0.000000D+00  0.000000D+00
     51   0.000000D+00  0.000000D+00  0.246889D-02  0.000000D+00  0.000000D+00
     52   0.000000D+00  0.000000D+00  0.000000D+00  0.176979D-01  0.000000D+00
     53   0.148975D-02  0.000000D+00  0.000000D+00  0.000000D+00  0.176979D-01
     54   0.000000D+00  0.148975D-02  0.000000D+00  0.000000D+00  0.000000D+00
                36            37            38            39            40 
      1   0.000000D+00  0.000000D+00  0.000000D+00  0.000000D+00  0.000000D+00
      2   0.000000D+00  0.000000D+00  0.000000D+00  0.000000D+00  0.000000D+00
      3   0.000000D+00  0.000000D+00  0.000000D+00  0.000000D+00  0.000000D+00
      4   0.000000D+00  0.000000D+00  0.000000D+00  0.000000D+00  0.000000D+00
      5   0.000000D+00  0.000000D+00  0.000000D+00  0.000000D+00  0.000000D+00
      6   0.000000D+00  0.000000D+00  0.000000D+00  0.000000D+00  0.000000D+00
      7   0.000000D+00  0.000000D+00  0.000000D+00  0.000000D+00  0.000000D+00
      8   0.000000D+00  0.000000D+00  0.000000D+00  0.000000D+00  0.000000D+00
      9   0.000000D+00  0.000000D+00  0.000000D+00  0.000000D+00  0.000000D+00
     10   0.000000D+00  0.000000D+00  0.000000D+00  0.000000D+00  0.000000D+00
     11   0.000000D+00  0.000000D+00  0.000000D+00  0.000000D+00  0.000000D+00
     12   0.000000D+00  0.000000D+00  0.000000D+00  0.000000D+00  0.000000D+00
     13   0.000000D+00  0.000000D+00  0.000000D+00  0.000000D+00  0.000000D+00
     14   0.000000D+00  0.000000D+00  0.000000D+00  0.000000D+00  0.000000D+00
     15   0.000000D+00  0.000000D+00  0.000000D+00  0.000000D+00  0.000000D+00
     16   0.000000D+00  0.000000D+00  0.000000D+00  0.000000D+00  0.000000D+00
     17   0.000000D+00  0.000000D+00  0.000000D+00  0.000000D+00  0.000000D+00
     18   0.000000D+00  0.000000D+00  0.000000D+00  0.000000D+00  0.000000D+00
     19   0.000000D+00  0.000000D+00  0.000000D+00  0.000000D+00  0.000000D+00
     20   0.000000D+00  0.000000D+00  0.000000D+00  0.000000D+00  0.000000D+00
     21   0.000000D+00  0.000000D+00  0.000000D+00  0.000000D+00  0.000000D+00
     22   0.000000D+00  0.000000D+00  0.000000D+00  0.000000D+00  0.000000D+00
     23   0.000000D+00  0.000000D+00  0.000000D+00  0.000000D+00  0.000000D+00
     24   0.000000D+00  0.000000D+00  0.000000D+00  0.000000D+00  0.000000D+00
     25   0.000000D+00  0.000000D+00  0.000000D+00  0.000000D+00  0.000000D+00
     26   0.000000D+00  0.000000D+00  0.000000D+00  0.000000D+00  0.000000D+00
     27   0.000000D+00  0.000000D+00  0.000000D+00  0.000000D+00  0.000000D+00
     28   0.000000D+00  0.000000D+00  0.000000D+00  0.000000D+00  0.000000D+00
     29   0.000000D+00  0.000000D+00  0.000000D+00  0.000000D+00  0.000000D+00
     30   0.000000D+00  0.000000D+00  0.000000D+00  0.000000D+00  0.000000D+00
     31   0.000000D+00  0.000000D+00  0.000000D+00  0.000000D+00  0.000000D+00
     32   0.505120D+00  0.000000D+00  0.000000D+00  0.000000D+00  0.000000D+00
     33   0.000000D+00  0.000000D+00  0.000000D+00  0.000000D+00  0.000000D+00
     34   0.000000D+00  0.000000D+00  0.000000D+00  0.000000D+00  0.000000D+00
     35   0.000000D+00  0.000000D+00  0.000000D+00  0.000000D+00  0.000000D+00
     36   0.100000D+01  0.000000D+00  0.000000D+00  0.000000D+00  0.000000D+00
     37   0.000000D+00  0.100000D+01  0.000000D+00  0.000000D+00  0.000000D+00
     38   0.000000D+00  0.000000D+00  0.100000D+01  0.000000D+00  0.000000D+00
     39   0.000000D+00  0.000000D+00  0.000000D+00  0.100000D+01  0.000000D+00
     40   0.000000D+00  0.000000D+00  0.000000D+00  0.000000D+00  0.100000D+01
     41   0.000000D+00  0.000000D+00  0.000000D+00  0.000000D+00  0.000000D+00
     42   0.000000D+00  0.000000D+00  0.000000D+00  0.000000D+00  0.000000D+00
     43   0.000000D+00  0.000000D+00  0.000000D+00  0.000000D+00  0.000000D+00
     44   0.000000D+00  0.000000D+00  0.000000D+00  0.000000D+00  0.000000D+00
     45   0.356711D+00  0.000000D+00  0.000000D+00  0.000000D+00  0.000000D+00
     46   0.000000D+00  0.357645D+00  0.000000D+00  0.000000D+00  0.000000D+00
     47   0.000000D+00  0.000000D+00  0.357645D+00  0.000000D+00  0.000000D+00
     48   0.000000D+00  0.000000D+00  0.000000D+00  0.357645D+00  0.000000D+00
     49   0.000000D+00  0.000000D+00  0.000000D+00  0.000000D+00  0.357645D+00
     50   0.000000D+00  0.000000D+00  0.000000D+00  0.000000D+00  0.000000D+00
     51   0.000000D+00  0.000000D+00  0.000000D+00  0.000000D+00  0.000000D+00
     52   0.000000D+00  0.000000D+00  0.000000D+00  0.000000D+00  0.000000D+00
     53   0.000000D+00  0.000000D+00  0.000000D+00  0.000000D+00  0.000000D+00
     54   0.176979D-01  0.000000D+00  0.000000D+00  0.000000D+00  0.000000D+00
                41            42            43            44            45 
      1   0.000000D+00  0.000000D+00  0.000000D+00  0.000000D+00  0.000000D+00
      2   0.000000D+00  0.000000D+00  0.000000D+00  0.000000D+00  0.000000D+00
      3   0.000000D+00  0.000000D+00  0.000000D+00  0.000000D+00  0.000000D+00
      4   0.000000D+00  0.000000D+00  0.000000D+00  0.000000D+00  0.000000D+00
      5   0.000000D+00  0.000000D+00  0.000000D+00  0.000000D+00  0.000000D+00
      6   0.000000D+00  0.000000D+00  0.000000D+00  0.000000D+00  0.000000D+00
      7   0.000000D+00  0.000000D+00  0.000000D+00  0.000000D+00  0.000000D+00
      8   0.000000D+00  0.000000D+00  0.000000D+00  0.000000D+00  0.000000D+00
      9   0.000000D+00  0.000000D+00  0.000000D+00  0.000000D+00  0.000000D+00
     10   0.000000D+00  0.000000D+00  0.000000D+00  0.000000D+00  0.000000D+00
     11   0.000000D+00  0.000000D+00  0.000000D+00  0.000000D+00  0.000000D+00
     12   0.000000D+00  0.000000D+00  0.000000D+00  0.000000D+00  0.000000D+00
     13   0.000000D+00  0.000000D+00  0.000000D+00  0.000000D+00  0.000000D+00
     14   0.000000D+00  0.000000D+00  0.000000D+00  0.000000D+00  0.000000D+00
     15   0.000000D+00  0.000000D+00  0.000000D+00  0.000000D+00  0.000000D+00
     16   0.000000D+00  0.000000D+00  0.000000D+00  0.000000D+00  0.000000D+00
     17   0.000000D+00  0.000000D+00  0.000000D+00  0.000000D+00  0.000000D+00
     18   0.000000D+00  0.000000D+00  0.000000D+00  0.000000D+00  0.000000D+00
     19   0.000000D+00  0.000000D+00  0.000000D+00  0.000000D+00  0.000000D+00
     20   0.000000D+00  0.000000D+00  0.000000D+00  0.000000D+00  0.000000D+00
     21   0.000000D+00  0.000000D+00  0.000000D+00  0.000000D+00  0.000000D+00
     22   0.000000D+00  0.000000D+00  0.000000D+00  0.000000D+00  0.000000D+00
     23   0.000000D+00  0.000000D+00  0.000000D+00  0.000000D+00  0.000000D+00
     24   0.000000D+00  0.334987D-05  0.000000D+00  0.000000D+00  0.496737D-05
     25   0.000000D+00  0.000000D+00  0.000000D+00  0.000000D+00  0.000000D+00
     26   0.000000D+00  0.000000D+00  0.000000D+00  0.000000D+00  0.000000D+00
     27   0.000000D+00 -0.106352D-04  0.000000D+00  0.000000D+00 -0.153373D-04
     28   0.000000D+00  0.300484D-03  0.000000D+00  0.000000D+00  0.000000D+00
     29   0.000000D+00  0.328747D-01  0.000000D+00  0.000000D+00  0.000000D+00
     30   0.000000D+00  0.000000D+00  0.466401D-01  0.000000D+00  0.000000D+00
     31   0.000000D+00  0.000000D+00  0.000000D+00  0.466401D-01  0.000000D+00
     32   0.000000D+00  0.000000D+00  0.000000D+00  0.000000D+00  0.466401D-01
     33   0.000000D+00  0.342269D+00  0.000000D+00  0.000000D+00  0.000000D+00
     34   0.000000D+00  0.000000D+00  0.356711D+00  0.000000D+00  0.000000D+00
     35   0.000000D+00  0.000000D+00  0.000000D+00  0.356711D+00  0.000000D+00
     36   0.000000D+00  0.000000D+00  0.000000D+00  0.000000D+00  0.356711D+00
     37   0.000000D+00  0.000000D+00  0.000000D+00  0.000000D+00  0.000000D+00
     38   0.000000D+00  0.000000D+00  0.000000D+00  0.000000D+00  0.000000D+00
     39   0.000000D+00  0.000000D+00  0.000000D+00  0.000000D+00  0.000000D+00
     40   0.000000D+00  0.000000D+00  0.000000D+00  0.000000D+00  0.000000D+00
     41   0.100000D+01  0.000000D+00  0.000000D+00  0.000000D+00  0.000000D+00
     42   0.000000D+00  0.100000D+01  0.000000D+00  0.000000D+00  0.000000D+00
     43   0.000000D+00  0.000000D+00  0.100000D+01  0.000000D+00  0.000000D+00
     44   0.000000D+00  0.000000D+00  0.000000D+00  0.100000D+01  0.000000D+00
     45   0.000000D+00  0.000000D+00  0.000000D+00  0.000000D+00  0.100000D+01
     46   0.000000D+00  0.000000D+00  0.000000D+00  0.000000D+00  0.000000D+00
     47   0.000000D+00  0.000000D+00  0.000000D+00  0.000000D+00  0.000000D+00
     48   0.000000D+00  0.000000D+00  0.000000D+00  0.000000D+00  0.000000D+00
     49   0.000000D+00  0.000000D+00  0.000000D+00  0.000000D+00  0.000000D+00
     50   0.357645D+00  0.000000D+00  0.000000D+00  0.000000D+00  0.000000D+00
     51   0.000000D+00  0.273894D+00  0.000000D+00  0.000000D+00  0.000000D+00
     52   0.000000D+00  0.000000D+00  0.282566D+00  0.000000D+00  0.000000D+00
     53   0.000000D+00  0.000000D+00  0.000000D+00  0.282566D+00  0.000000D+00
     54   0.000000D+00  0.000000D+00  0.000000D+00  0.000000D+00  0.282566D+00
                46            47            48            49            50 
      1   0.000000D+00  0.000000D+00  0.000000D+00  0.000000D+00  0.000000D+00
      2   0.000000D+00  0.000000D+00  0.000000D+00  0.000000D+00  0.000000D+00
      3   0.000000D+00  0.000000D+00  0.000000D+00  0.000000D+00  0.000000D+00
      4   0.000000D+00  0.000000D+00  0.000000D+00  0.000000D+00  0.000000D+00
      5   0.000000D+00  0.000000D+00  0.000000D+00  0.000000D+00  0.000000D+00
      6   0.000000D+00  0.000000D+00  0.000000D+00  0.000000D+00  0.000000D+00
      7   0.000000D+00  0.000000D+00  0.000000D+00  0.000000D+00  0.000000D+00
      8   0.000000D+00  0.000000D+00  0.000000D+00  0.000000D+00  0.000000D+00
      9   0.000000D+00  0.000000D+00  0.000000D+00  0.000000D+00  0.000000D+00
     10   0.000000D+00  0.000000D+00  0.000000D+00  0.000000D+00  0.000000D+00
     11   0.000000D+00  0.000000D+00  0.000000D+00  0.000000D+00  0.000000D+00
     12   0.000000D+00  0.000000D+00  0.000000D+00  0.000000D+00  0.000000D+00
     13   0.000000D+00  0.000000D+00  0.000000D+00  0.000000D+00  0.000000D+00
     14   0.000000D+00  0.000000D+00  0.000000D+00  0.000000D+00  0.000000D+00
     15   0.000000D+00  0.000000D+00  0.000000D+00  0.000000D+00  0.000000D+00
     16   0.000000D+00  0.000000D+00  0.000000D+00  0.000000D+00  0.000000D+00
     17   0.000000D+00  0.000000D+00  0.000000D+00  0.000000D+00  0.000000D+00
     18   0.000000D+00  0.000000D+00  0.000000D+00  0.000000D+00  0.000000D+00
     19   0.000000D+00  0.000000D+00  0.000000D+00  0.000000D+00  0.000000D+00
     20   0.000000D+00  0.000000D+00  0.000000D+00  0.000000D+00  0.000000D+00
     21   0.000000D+00  0.000000D+00  0.000000D+00  0.000000D+00  0.000000D+00
     22   0.000000D+00  0.000000D+00  0.000000D+00  0.000000D+00  0.000000D+00
     23   0.000000D+00  0.000000D+00  0.000000D+00  0.000000D+00  0.000000D+00
     24   0.450525D-05  0.000000D+00  0.000000D+00  0.000000D+00  0.000000D+00
     25   0.000000D+00  0.000000D+00  0.000000D+00  0.000000D+00  0.000000D+00
     26   0.000000D+00  0.000000D+00  0.000000D+00  0.000000D+00  0.000000D+00
     27  -0.134162D-04  0.000000D+00  0.000000D+00  0.000000D+00  0.000000D+00
     28   0.000000D+00  0.000000D+00  0.000000D+00  0.000000D+00  0.000000D+00
     29   0.000000D+00  0.000000D+00  0.000000D+00  0.000000D+00  0.000000D+00
     30   0.000000D+00  0.000000D+00  0.000000D+00  0.000000D+00  0.000000D+00
     31   0.000000D+00  0.000000D+00  0.000000D+00  0.000000D+00  0.000000D+00
     32   0.000000D+00  0.000000D+00  0.000000D+00  0.000000D+00  0.000000D+00
     33   0.000000D+00  0.000000D+00  0.000000D+00  0.000000D+00  0.000000D+00
     34   0.000000D+00  0.000000D+00  0.000000D+00  0.000000D+00  0.000000D+00
     35   0.000000D+00  0.000000D+00  0.000000D+00  0.000000D+00  0.000000D+00
     36   0.000000D+00  0.000000D+00  0.000000D+00  0.000000D+00  0.000000D+00
     37   0.357645D+00  0.000000D+00  0.000000D+00  0.000000D+00  0.000000D+00
     38   0.000000D+00  0.357645D+00  0.000000D+00  0.000000D+00  0.000000D+00
     39   0.000000D+00  0.000000D+00  0.357645D+00  0.000000D+00  0.000000D+00
     40   0.000000D+00  0.000000D+00  0.000000D+00  0.357645D+00  0.000000D+00
     41   0.000000D+00  0.000000D+00  0.000000D+00  0.000000D+00  0.357645D+00
     42   0.000000D+00  0.000000D+00  0.000000D+00  0.000000D+00  0.000000D+00
     43   0.000000D+00  0.000000D+00  0.000000D+00  0.000000D+00  0.000000D+00
     44   0.000000D+00  0.000000D+00  0.000000D+00  0.000000D+00  0.000000D+00
     45   0.000000D+00  0.000000D+00  0.000000D+00  0.000000D+00  0.000000D+00
     46   0.100000D+01  0.000000D+00  0.000000D+00  0.000000D+00  0.000000D+00
     47   0.000000D+00  0.100000D+01  0.000000D+00  0.000000D+00  0.000000D+00
     48   0.000000D+00  0.000000D+00  0.100000D+01  0.000000D+00  0.000000D+00
     49   0.000000D+00  0.000000D+00  0.000000D+00  0.100000D+01  0.000000D+00
     50   0.000000D+00  0.000000D+00  0.000000D+00  0.000000D+00  0.100000D+01
     51   0.000000D+00  0.000000D+00  0.000000D+00  0.000000D+00  0.000000D+00
     52   0.000000D+00  0.000000D+00  0.000000D+00  0.000000D+00  0.000000D+00
     53   0.000000D+00  0.000000D+00  0.000000D+00  0.000000D+00  0.000000D+00
     54   0.000000D+00  0.000000D+00  0.000000D+00  0.000000D+00  0.000000D+00
                51            52            53            54 
      1   0.000000D+00  0.000000D+00  0.000000D+00  0.000000D+00
[...]
         |
   54    | -0.000001 -0.012448
   54    | -0.000001  0.000000
         |

                     Delta Factors
                     -------------

 AB - AA |     47        48        49        50        51        52
 BA - BB |     47        48        49        50        51        52
----------------------------------------------------------------------
   47    |  1.668667 -0.289952  0.979200 -0.266306  0.988307  0.117632
   47    |  0.000000 -0.289952  0.979200 -0.266306  0.988307  0.117633
         |
   48    | -0.727031  1.654163 -0.478124  0.995570  0.174600  1.290559
   48    | -0.727031  0.000000 -0.478124  0.995570  0.174600  1.290734
         |
   49    |  1.497019 -0.833609  1.668667 -0.163503  0.988255  0.121362
   49    |  1.497019 -0.833609  0.000000 -0.163503  0.988255  0.121363
         |
   50    | -0.711298  1.509900 -0.645284  1.666514  0.385605  1.272287
   50    | -0.711298  1.509900 -0.645284  0.000000  0.385605  1.272448
         |
   51    |  1.508687 -0.398540  1.508624 -0.222255  1.657663  0.769335
   51    |  1.508687 -0.398540  1.508624 -0.222255  0.000000  0.769352
         |
   52    | -0.441630  1.657969 -0.438787  1.646510  0.118251  1.565073
   52    | -0.441629  1.658070 -0.438786  1.646606  0.118268  0.000000
         |
   53    |  3.793391  0.034461  3.793220  0.871581  3.815708  1.651546
   53    |  3.793391  0.034461  3.793220  0.871581  3.815708  1.651578
         |
   54    | -0.242012  2.482458 -0.242831  2.483941  0.763859  2.471753
   54    | -0.242103  2.481999 -0.242921  2.483478  0.763388  2.470505
         |

 AB - AA |     53        54
 BA - BB |     53        54
------------------------------
   47    |  2.818296  0.362972
   47    |  2.818296  0.362869
         |
   48    |  0.626551  2.145335
   48    |  0.626551  2.145009
         |
   49    |  2.817464  0.361288
   49    |  2.817464  0.361187
         |
   50    |  1.503685  2.083913
   50    |  1.503685  2.083620
         |
   51    |  2.975359  1.464113
   51    |  2.975359  1.463616
         |
   52    |  2.348934  3.252590
   52    |  2.348891  3.252175
         |
   53    |  4.573729  3.269328
   53    |  0.000000  3.269148
         |
   54    |  2.438246  2.287124
   54    |  2.438017  0.000000
         |

                   MP2(CBS) Pair Energies
                   ----------------------

 AB - AA |     47        48        49        50        51        52
 BA - BB |     47        48        49        50        51        52
----------------------------------------------------------------------
   47    | -0.018297 -0.000025 -0.005368 -0.000026 -0.005328 -0.000048
   47    |  0.000000 -0.000025 -0.005368 -0.000026 -0.005328 -0.000048
         |
   48    | -0.000026 -0.018397 -0.000022 -0.005295 -0.000054 -0.004210
   48    | -0.000026  0.000000 -0.000022 -0.005295 -0.000054 -0.004209
         |
   49    | -0.007906 -0.000023 -0.018297 -0.000028 -0.005328 -0.000048
   49    | -0.007906 -0.000023  0.000000 -0.000028 -0.005328 -0.000048
         |
   50    | -0.000027 -0.007884 -0.000030 -0.018312 -0.000066 -0.004266
   50    | -0.000027 -0.007884 -0.000030  0.000000 -0.000066 -0.004266
         |
   51    | -0.007901 -0.000059 -0.007901 -0.000073 -0.018373 -0.000140
   51    | -0.007901 -0.000059 -0.007901 -0.000073  0.000000 -0.000139
         |
   52    | -0.000052 -0.007555 -0.000052 -0.007630 -0.000163 -0.019036
   52    | -0.000052 -0.007555 -0.000052 -0.007630 -0.000163  0.000000
         |
   53    | -0.007132 -0.000002 -0.007133 -0.000003 -0.006953 -0.000010
   53    | -0.007132 -0.000002 -0.007133 -0.000003 -0.006953 -0.000010
         |
   54    | -0.000006 -0.007080 -0.000006 -0.007266 -0.000020 -0.003701
   54    | -0.000006 -0.007080 -0.000006 -0.007266 -0.000020 -0.003702
         |

 AB - AA |     53        54
 BA - BB |     53        54
------------------------------
   47    | -0.001293 -0.000006
   47    | -0.001293 -0.000006
         |
   48    | -0.000002 -0.002402
   48    | -0.000002 -0.002403
         |
   49    | -0.001293 -0.000006
   49    | -0.001293 -0.000006
         |
   50    | -0.000002 -0.002457
   50    | -0.000002 -0.002458
         |
   51    | -0.001251 -0.000015
   51    | -0.001251 -0.000015
         |
   52    | -0.000007 -0.001343
   52    | -0.000007 -0.001343
         |
   53    | -0.008760 -0.000001
   53    |  0.000000 -0.000001
         |
   54    | -0.000001 -0.014854
   54    | -0.000001  0.000000
         |

                     Sum of ab pair energies =    -0.220918 A.U.
                     Sum of ba pair energies =    -0.086594 A.U.
                     Sum of aa pair energies =    -0.040331 A.U.
                     Sum of bb pair energies =    -0.040331 A.U.

           Sum of intraorbital pair energies =    -0.134325 A.U.
           Sum of interorbital pair energies =    -0.253848 A.U.
                                                  ----------
                         Total pair energies =    -0.388173 A.U.

                         Single Excitations  =     0.000000 A.U.

                          Total second order =    -0.388173 A.U.



            MP2(CBS) (With Interference Correction) 
            ---------------------------------------

 AB - AA |     47        48        49        50        51        52
 BA - BB |     47        48        49        50        51        52
----------------------------------------------------------------------
   47    | -0.017471 -0.000025 -0.005342 -0.000026 -0.005302 -0.000048
   47    |  0.000000 -0.000025 -0.005342 -0.000026 -0.005302 -0.000048
         |
   48    | -0.000026 -0.017567 -0.000022 -0.005269 -0.000054 -0.004185
   48    | -0.000026  0.000000 -0.000022 -0.005269 -0.000054 -0.004184
         |
   49    | -0.007667 -0.000023 -0.017471 -0.000028 -0.005302 -0.000048
   49    | -0.007667 -0.000023  0.000000 -0.000028 -0.005302 -0.000048
         |
   50    | -0.000027 -0.007647 -0.000030 -0.017486 -0.000066 -0.004241
   50    | -0.000027 -0.007647 -0.000030  0.000000 -0.000066 -0.004241
         |
   51    | -0.007662 -0.000059 -0.007662 -0.000073 -0.017543 -0.000139
   51    | -0.007662 -0.000059 -0.007662 -0.000073  0.000000 -0.000139
         |
   52    | -0.000051 -0.007323 -0.000052 -0.007394 -0.000162 -0.018123
   52    | -0.000051 -0.007322 -0.000052 -0.007394 -0.000162  0.000000
         |
   53    | -0.006799 -0.000002 -0.006800 -0.000003 -0.006632 -0.000010
   53    | -0.006799 -0.000002 -0.006800 -0.000003 -0.006632 -0.000010
         |
   54    | -0.000006 -0.006816 -0.000006 -0.006992 -0.000019 -0.003602
   54    | -0.000006 -0.006817 -0.000006 -0.006992 -0.000019 -0.003603
         |

 AB - AA |     53        54
 BA - BB |     53        54
------------------------------
   47    | -0.001284 -0.000006
   47    | -0.001284 -0.000006
         |
   48    | -0.000002 -0.002383
   48    | -0.000002 -0.002384
         |
   49    | -0.001284 -0.000006
   49    | -0.001284 -0.000006
         |
   50    | -0.000002 -0.002439
   50    | -0.000002 -0.002439
         |
   51    | -0.001242 -0.000015
   51    | -0.001242 -0.000015
         |
   52    | -0.000007 -0.001332
   52    | -0.000007 -0.001332
         |
   53    | -0.008337 -0.000001
   53    |  0.000000 -0.000001
         |
   54    | -0.000001 -0.014133
   54    | -0.000001  0.000000
         |

                     Sum of ab pair energies =    -0.211677 A.U.
                     Sum of ba pair energies =    -0.083548 A.U.
                     Sum of aa pair energies =    -0.040099 A.U.
                     Sum of bb pair energies =    -0.040099 A.U.

           Sum of intraorbital pair energies =    -0.128130 A.U.
           Sum of interorbital pair energies =    -0.247292 A.U.
                                                  ----------
                         Total pair energies =    -0.375422 A.U.

                         Single Excitations  =     0.000000 A.U.

                          Total second order =    -0.375422 A.U.

                         E2(CBS) - E2(Dir) =      -0.028573 A.U.

 E2(CBS)=      -0.388173 CBS-Int=       0.012751 OIii=       3.471595

 **********************************************************************

            Population analysis using the SCF density.

 **********************************************************************

 Orbital symmetries:
       Occupied  (SGU) (SGG) (SGU) (SGG) (PIG) (PIG) (PIU) (PIU)
                 (SGG) (SGU) (SGU) (SGG) (PIG) (PIG) (PIU) (PIU)
                 (SGU) (SGG) (DLTU) (DLTU) (DLTG) (DLTG) (PIG)
                 (PIG) (PIU) (PIU) (SGU) (SGG) (SGU) (SGG) (PIG)
                 (PIG) (PIU) (PIU) (SGU) (SGG) (DLTU) (DLTU) (DLTG)
                 (DLTG) (PIG) (PIG) (PIU) (PIU) (SGU) (SGG) (SGG)
                 (SGU) (SGG) (PIU) (PIU) (PIG) (PIG) (SGU)
       Virtual   (SGU) (PIU) (PIU) (SGG) (PIG) (PIG) (SGG) (SGU)
                 (PIU) (PIU) (DLTG) (DLTG) (DLTU) (DLTU) (SGG)
                 (PIG) (PIG) (SGU) (SGG) (PIU) (PIU) (DLTG) (DLTG)
                 (PIG) (PIG) (PIU) (PIU) (SGG) (DLTU) (DLTU) (SGU)
                 (PIG) (PIG) (SGU) (PIU) (PIU) (DLTG) (DLTG) (PHIU)
                 (PHIU) (SGG) (PHIG) (PHIG) (DLTU) (DLTU) (PIG)
                 (PIG) (SGG) (PHIU) (PHIU) (SGU) (DLTG) (DLTG)
                 (?A) (?A) (?B) (?B) (PIU) (PIU) (PHIG) (PHIG)
                 (SGG) (DLTU) (DLTU) (SGU) (PIG) (PIG) (SGU) (PIU)
                 (PIU) (SGG) (DLTG) (DLTG) (PHIU) (PHIU) (DLTG)
                 (DLTG) (PHIG) (PHIG) (DLTU) (DLTU) (PIU) (PIU)
                 (DLTU) (DLTU) (PIG) (PIG) (SGU) (SGG) (PIG) (PIG)
                 (SGU) (PIU) (PIU) (PIG) (PIG) (SGG) (SGU) (PHIU)
                 (PHIU) (?A) (?A) (DLTG) (DLTG) (?B) (?B) (PIG)
                 (PIG) (PHIG) (PHIG) (DLTU) (DLTU) (PIU) (PIU)
                 (SGU) (SGG) (DLTG) (DLTG) (PHIU) (PHIU) (PHIG)
                 (PHIG) (PIU) (PIU) (DLTU) (DLTU) (SGG) (SGU) (PIG)
                 (PIG) (SGG) (SGU) (DLTG) (DLTG) (PIU) (PIU) (DLTU)
                 (DLTU) (SGG) (PIG) (PIG) (SGU) (PIG) (PIG) (DLTU)
                 (DLTU) (DLTG) (DLTG) (PIU) (PIU) (PHIU) (PHIU)
                 (PHIG) (PHIG) (?C) (?C) (?D) (?D) (?A) (?A) (?B)
                 (?B) (SGG) (SGU) (PHIU) (PHIU) (?A) (?A) (DLTG)
                 (DLTG) (?B) (?B) (PIG) (PIG) (PHIG) (PHIG) (SGG)
                 (SGU) (DLTU) (DLTU) (PIU) (PIU) (PIU) (PIU) (PIG)
                 (PIG) (SGG) (SGU) (DLTG) (DLTG) (PHIU) (PHIU)
                 (PHIG) (PHIG) (PIU) (PIU) (DLTU) (DLTU) (PIG)
                 (PIG) (SGG) (SGU) (SGG) (SGU) (DLTG) (DLTG) (PIU)
                 (PIU) (DLTU) (DLTU) (SGG) (PIG) (PIG) (SGU) (PIU)
                 (PIU) (PIG) (PIG) (SGG) (SGU) (SGG) (SGU)
 The electronic state is 1-SGG.
 Alpha  occ. eigenvalues -- ********************-189.33975-189.33975-177.78207
 Alpha  occ. eigenvalues -- -177.78207-177.78207-177.78207-177.78206-177.78206
 Alpha  occ. eigenvalues --  -40.17530 -40.17530 -35.22130 -35.22130 -35.22130
 Alpha  occ. eigenvalues --  -35.22130 -35.22128 -35.22128 -26.11852 -26.11852
 Alpha  occ. eigenvalues --  -26.11852 -26.11852 -26.11849 -26.11849 -26.11849
 Alpha  occ. eigenvalues --  -26.11849 -26.11848 -26.11848  -7.85597  -7.85597
 Alpha  occ. eigenvalues --   -6.00803  -6.00803  -6.00803  -6.00803  -6.00799
 Alpha  occ. eigenvalues --   -6.00799  -2.77760  -2.77760  -2.77760  -2.77760
 Alpha  occ. eigenvalues --   -2.77755  -2.77755  -2.77754  -2.77754  -2.77753
 Alpha  occ. eigenvalues --   -2.77753  -0.94581  -0.94298  -0.46871  -0.45887
 Alpha  occ. eigenvalues --   -0.45887  -0.45555  -0.45555  -0.44608
 Alpha virt. eigenvalues --    0.06832   0.08031   0.08031   0.09414   0.10143
 Alpha virt. eigenvalues --    0.10143   0.10459   0.16895   0.16900   0.16900
 Alpha virt. eigenvalues --    0.17618   0.17618   0.19992   0.19992   0.20505
 Alpha virt. eigenvalues --    0.24645   0.24645   0.27943   0.42779   0.44685
 Alpha virt. eigenvalues --    0.44685   0.47204   0.47204   0.47580   0.47580
 Alpha virt. eigenvalues --    0.48142   0.48142   0.48299   0.48796   0.48796
 Alpha virt. eigenvalues --    0.49353   0.50019   0.50019   0.54166   0.57587
 Alpha virt. eigenvalues --    0.57587   0.58302   0.58302   0.61268   0.61268
 Alpha virt. eigenvalues --    0.61380   0.61856   0.61856   0.62857   0.62857
 Alpha virt. eigenvalues --    0.67113   0.67113   0.69711   0.70249   0.70249
 Alpha virt. eigenvalues --    0.70642   0.70719   0.70719   0.72938   0.72938
 Alpha virt. eigenvalues --    0.74003   0.74003   0.76762   0.76762   0.77405
 Alpha virt. eigenvalues --    0.77405   0.82569   0.84488   0.84488   0.85303
 Alpha virt. eigenvalues --    0.89701   0.89701   0.92597   1.19710   1.19710
 Alpha virt. eigenvalues --    1.19811   1.20784   1.20784   1.22089   1.22089
 Alpha virt. eigenvalues --    1.22603   1.22603   1.22696   1.22696   1.23661
 Alpha virt. eigenvalues --    1.23661   1.25204   1.25204   1.26845   1.26845
 Alpha virt. eigenvalues --    1.28386   1.28386   1.28895   1.34694   1.38440
 Alpha virt. eigenvalues --    1.38440   1.45211   1.50019   1.50019   1.54691
 Alpha virt. eigenvalues --    1.54691   1.56628   1.73409   1.77103   1.77103
 Alpha virt. eigenvalues --    1.78374   1.78374   1.78690   1.78690   1.79012
 Alpha virt. eigenvalues --    1.79012   1.80357   1.80357   1.80836   1.80836
 Alpha virt. eigenvalues --    1.82951   1.82951   1.85578   1.85578   1.86989
 Alpha virt. eigenvalues --    1.87667   2.43352   2.43352   2.44491   2.44491
 Alpha virt. eigenvalues --    2.45124   2.45124   2.45357   2.45357   2.48840
 Alpha virt. eigenvalues --    2.48840   2.49468   2.60127   2.60827   2.60827
 Alpha virt. eigenvalues --    2.66729   2.69039   3.00479   3.00479   3.00885
 Alpha virt. eigenvalues --    3.00885   3.02001   3.02001   3.03212   3.06398
 Alpha virt. eigenvalues --    3.06398   3.19679   3.53894   3.53894   3.54000
 Alpha virt. eigenvalues --    3.54000   3.54029   3.54029   3.54063   3.54063
 Alpha virt. eigenvalues --    3.54095   3.54095   3.54098   3.54098   3.54104
 Alpha virt. eigenvalues --    3.54104   3.54104   3.54104   3.54105   3.54105
 Alpha virt. eigenvalues --    3.54105   3.54105   3.54232   3.56966   3.59379
 Alpha virt. eigenvalues --    3.59379   3.60203   3.60203   3.60602   3.60602
 Alpha virt. eigenvalues --    3.60624   3.60624   3.61467   3.61467   3.61817
 Alpha virt. eigenvalues --    3.61817   3.62316   3.62820   3.62997   3.62997
 Alpha virt. eigenvalues --    3.65019   3.65019   3.77111   3.77111   3.79404
 Alpha virt. eigenvalues --    3.79404   3.83005   3.86591   3.90488   3.90488
 Alpha virt. eigenvalues --    3.91342   3.91342   3.92016   3.92016   3.94294
 Alpha virt. eigenvalues --    3.94294   3.95680   3.95680   4.06308   4.06308
 Alpha virt. eigenvalues --    4.17064   4.18991   7.64121   7.68235   7.68474
 Alpha virt. eigenvalues --    7.68474   7.68895   7.68895   7.69762   7.69762
 Alpha virt. eigenvalues --    7.71850   7.73310   7.73310   7.90955   9.33289
 Alpha virt. eigenvalues --    9.33289   9.36022   9.36022   9.41517   9.50178
 Alpha virt. eigenvalues --  425.80197 432.08387
          Condensed to atoms (all electrons):
              1          2
     1  Xe  54.007455  -0.007455
     2  Xe  -0.007455  54.007455
          Atomic-Atomic Spin Densities.
              1          2
     1  Xe   0.000000   0.000000
     2  Xe   0.000000   0.000000
 Mulliken charges and spin densities:
              1          2
     1  Xe   0.000000   0.000000
     2  Xe   0.000000   0.000000
 Sum of Mulliken charges =   0.00000 spin densities =   0.000000
 Mulliken charges and spin densities with hydrogens summed into heavy atoms:
              1          2
     1  Xe   0.000000   0.000000
     2  Xe   0.000000   0.000000
 Sum of Mulliken charges with hydrogens summed into heavy atoms =   0.00000 spin densities =   0.000000
 Electronic spatial extent (au):  <R**2>=           1960.5812
 Charge=              0.0000 electrons
 Dipole moment (field-independent basis, Debye):
    X=              0.0000    Y=              0.0000    Z=              0.0000  Tot=              0.0000
 Quadrupole moment (field-independent basis, Debye-Ang):
   XX=            -56.1799   YY=            -56.1799   ZZ=            -56.3458
   XY=              0.0000   XZ=              0.0000   YZ=              0.0000
 Traceless Quadrupole moment (field-independent basis, Debye-Ang):
   XX=              0.0553   YY=              0.0553   ZZ=             -0.1106
   XY=              0.0000   XZ=              0.0000   YZ=              0.0000
 Octapole moment (field-independent basis, Debye-Ang**2):
  XXX=              0.0000  YYY=              0.0000  ZZZ=              0.0000  XYY=              0.0000
  XXY=              0.0000  XXZ=              0.0000  XZZ=              0.0000  YZZ=              0.0000
  YYZ=              0.0000  XYZ=              0.0000
 Hexadecapole moment (field-independent basis, Debye-Ang**3):
 XXXX=            -70.9597 YYYY=            -70.9597 ZZZZ=          -1676.8573 XXXY=              0.0000
 XXXZ=              0.0000 YYYX=              0.0000 YYYZ=              0.0000 ZZZX=              0.0000
 ZZZY=              0.0000 XXYY=            -23.6532 XXZZ=           -291.1217 YYZZ=           -291.1217
 XXYZ=              0.0000 YYXZ=              0.0000 ZZXY=              0.0000
 N-N= 3.536985674579D+02 E-N=-5.255676117712D+04  KE= 2.169643425340D+04
                          Isotropic Fermi Contact Couplings
        Atom                 a.u.       MegaHertz       Gauss      10(-4) cm-1
     1  Xe(129             0.00000       0.00000       0.00000       0.00000
     2  Xe(129             0.00000       0.00000       0.00000       0.00000
 --------------------------------------------------------
       Center         ----  Spin Dipole Couplings  ----
                      3XX-RR        3YY-RR        3ZZ-RR
 --------------------------------------------------------
     1   Atom        0.000000      0.000000      0.000000
     2   Atom        0.000000      0.000000      0.000000
 --------------------------------------------------------
                        XY            XZ            YZ
 --------------------------------------------------------
     1   Atom        0.000000      0.000000      0.000000
     2   Atom        0.000000      0.000000      0.000000
 --------------------------------------------------------


 ---------------------------------------------------------------------------------
              Anisotropic Spin Dipole Couplings in Principal Axis System
 ---------------------------------------------------------------------------------

       Atom             a.u.   MegaHertz   Gauss  10(-4) cm-1        Axes

              Baa     0.0000     0.000     0.000     0.000  1.0000  0.0000  0.0000
     1 Xe(129 Bbb     0.0000     0.000     0.000     0.000  0.0000  1.0000  0.0000
              Bcc     0.0000     0.000     0.000     0.000  0.0000  0.0000  1.0000
 
              Baa     0.0000     0.000     0.000     0.000  1.0000  0.0000  0.0000
     2 Xe(129 Bbb     0.0000     0.000     0.000     0.000  0.0000  1.0000  0.0000
              Bcc     0.0000     0.000     0.000     0.000  0.0000  0.0000  1.0000
 

 ---------------------------------------------------------------------------------


 Test job not archived.
 1\1\GINC-C31\SP\ROMP2-RW\Gen\Xe2\GPETERSSON\15-Jun-2013\0\\# ROMP2(RW)
  Gen GFinput Int=NoBasisTransform Int(Grid=Ultrafine) IOp(3/32=2,5/6=1
 0,8/11=1,9/33=1) Maxdisk=128GB CBSextrapolate(Nmin=15,MinPop)\\Xe2\\0,
 1\Xe\Xe,1,4.3627\\Version=EM64L-GDVRevH.12\State=1-SGG\HF=-14464.27508
 43\MP2=-14464.6346837\E2(CBS)=-0.3881727\CBS-Int=-0.3754221\OIii=3.471
 5948\RMSD=6.180e-11\PG=D*H [C*(Xe1.Xe1)]\\@


 THERE ARE PEOPLE SO ADDICTED TO EXAGERATING THEY
 CAN'T TELL THE TRUTH WITHOUT LYING. -- FORTUNE COOKIE
 Job cpu time:  0 days  2 hours 45 minutes 36.4 seconds.
 File lengths (MBytes):  RWF=   1290 Int=      0 D2E=      0 Chk=      7 Scr=      1
 Normal termination of Gaussian DV at Sat Jun 15 14:35:42 2013.
