 Entering Gaussian System, Link 0=gdv
 AtFile(1): 5ZaPa-NR.gbs
 Initial command:
 /share/apps/gaussian/gdvh12/gdv/l1.exe /localscratch/984072/Gau-18695.inp -scrdir=/localscratch/984072/
 Entering Link 1 = /share/apps/gaussian/gdvh12/gdv/l1.exe PID=     18696.
  
 Copyright (c) 1988,1990,1992,1993,1995,1998,2003,2009,2011,
            Gaussian, Inc.  All Rights Reserved.
  
 This is the private, development version of
 the Gaussian(R) DV system of programs. It is based on
 the Gaussian(R) 09 system (copyright 2009, Gaussian, Inc.),
 the Gaussian(R) 03 system (copyright 2003, Gaussian, Inc.),
 the Gaussian(R) 98 system (copyright 1998, Gaussian, Inc.),
 the Gaussian(R) 94 system (copyright 1995, Gaussian, Inc.),
 the Gaussian 92(TM) system (copyright 1992, Gaussian, Inc.),
 the Gaussian 90(TM) system (copyright 1990, Gaussian, Inc.),
 the Gaussian 88(TM) system (copyright 1988, Gaussian, Inc.),
 the Gaussian 86(TM) system (copyright 1986, Carnegie Mellon
 University), and the Gaussian 82(TM) system (copyright 1983,
 Carnegie Mellon University). Gaussian is a federally registered
 trademark of Gaussian, Inc.
  
 This software contains proprietary and confidential information,
 including trade secrets, belonging to Gaussian, Inc.
  
 This software is provided under written license and may be
 used, copied, transmitted, or stored only in accord with that
 written license.
  
 The following legend is applicable only to US Government
 contracts under FAR:
  
                    RESTRICTED RIGHTS LEGEND
  
 Use, reproduction and disclosure by the US Government is
 subject to restrictions as set forth in subparagraphs (a)
 and (c) of the Commercial Computer Software - Restricted
 Rights clause in FAR 52.227-19.
  
 Gaussian, Inc.
 340 Quinnipiac St., Bldg. 40, Wallingford CT 06492
  
  
 ---------------------------------------------------------------
 Warning -- This program may not be used in any manner that
 competes with the business of Gaussian, Inc. or will provide
 assistance to any competitor of Gaussian, Inc.  The licensee
 of this program is prohibited from giving any competitor of
 Gaussian, Inc. access to this program.  By using this program,
 the user acknowledges that Gaussian, Inc. is engaged in the
 business of creating and licensing software in the field of
 computational chemistry and represents and warrants to the
 licensee that it is not a competitor of Gaussian, Inc. and that
 it will not use this program in any manner prohibited above.
 ---------------------------------------------------------------
  

 Cite this work as:
 Gaussian Development Version, Revision H.12,
 M. J. Frisch, G. W. Trucks, H. B. Schlegel, G. E. Scuseria, 
 M. A. Robb, J. R. Cheeseman, G. Scalmani, V. Barone, B. Mennucci, 
 G. A. Petersson, H. Nakatsuji, M. Caricato, X. Li, H. P. Hratchian, 
 A. F. Izmaylov, J. Bloino, G. Zheng, J. L. Sonnenberg, M. Hada, 
 M. Ehara, K. Toyota, R. Fukuda, J. Hasegawa, M. Ishida, T. Nakajima, 
 Y. Honda, O. Kitao, H. Nakai, T. Vreven, J. A. Montgomery, Jr., 
 J. E. Peralta, F. Ogliaro, M. Bearpark, J. J. Heyd, E. Brothers, 
 K. N. Kudin, V. N. Staroverov, T. Keith, R. Kobayashi, J. Normand, 
 K. Raghavachari, A. Rendell, J. C. Burant, S. S. Iyengar, J. Tomasi, 
 M. Cossi, N. Rega, J. M. Millam, M. Klene, J. E. Knox, J. B. Cross, 
 V. Bakken, C. Adamo, J. Jaramillo, R. Gomperts, R. E. Stratmann, 
 O. Yazyev, A. J. Austin, R. Cammi, C. Pomelli, J. W. Ochterski, 
 R. L. Martin, K. Morokuma, V. G. Zakrzewski, G. A. Voth, 
 P. Salvador, J. J. Dannenberg, S. Dapprich, P. V. Parandekar, 
 N. J. Mayhall, A. D. Daniels, O. Farkas, J. B. Foresman, 
 J. V. Ortiz, J. Cioslowski, and D. J. Fox, 
 Gaussian, Inc., Wallingford CT, 2010.
 
 ******************************************
 Gaussian DV:  EM64L-GDVRevH.12  9-Jun-2011
                12-Jul-2013 
 ******************************************
 % Mem=12GB
 % Nproc=8
 Will use up to    8 processors via shared memory.
 ----------------------------------------------------------------------
 # ROMP2(RW) Gen GFinput Int=NoBasisTransform Int(Grid=Ultrafine) IOp(3
 /32=2,5/6=10,8/11=1,9/33=1) Maxdisk=128GB CBSextrapolate(Nmin=15,MinPo
 p)
 ----------------------------------------------------------------------
 1/38=1/1;
 2/12=2,17=6,18=5,40=1/2;
 3/5=7,11=2,16=1,24=10,25=1,30=1,32=2,60=-1,75=-5,116=101/1,2,3;
 4//1;
 5/5=2,6=10,38=5/2;
 8/5=-1,10=91,11=1/1;
 9/16=-3,33=1,75=2,81=15,83=4/6,4;
 6/7=2,8=2,9=2,10=2/1;
 99/5=1,9=1/99;
 ------------
 Zn...Zn 1Sg+
 ------------
 Charge =  0 Multiplicity = 1
 Symbolic Z-Matrix:
 Zn
 Zn                   1     3.847 
 
                          Input orientation:                          
 ---------------------------------------------------------------------
 Center     Atomic      Atomic             Coordinates (Angstroms)
 Number     Number       Type             X           Y           Z
 ---------------------------------------------------------------------
      1         30           0        0.000000    0.000000    0.000000
      2         30           0        0.000000    0.000000    3.847000
 ---------------------------------------------------------------------
 Stoichiometry    Zn2
 Framework group  D*H[C*(Zn.Zn)]
 Deg. of freedom     1
 Full point group                 D*H     NOp   8
 Largest Abelian subgroup         D2H     NOp   8
 Largest concise Abelian subgroup C2      NOp   2
                         Standard orientation:                         
 ---------------------------------------------------------------------
 Center     Atomic      Atomic             Coordinates (Angstroms)
 Number     Number       Type             X           Y           Z
 ---------------------------------------------------------------------
      1         30           0        0.000000    0.000000    1.923500
      2         30           0        0.000000    0.000000   -1.923500
 ---------------------------------------------------------------------
 Rotational constants (GHZ):      0.0000000      1.0683263      1.0683263
 General basis read from cards:  (5D, 7F)
 AO basis set in the form of general basis input (Overlap normalization):
      1 0
 S  14 1.00       0.000000000000
      0.7712242570D+07  0.5441091299D-05
      0.1379565890D+07  0.3612554206D-04
      0.3094678300D+06  0.2072830227D-03
      0.8355154360D+05  0.9334115998D-03
      0.2620410670D+05  0.3525026616D-02
      0.9261882680D+04  0.1149429428D-01
      0.3595722460D+04  0.3304970414D-01
      0.1500543130D+04  0.8378534862D-01
      0.6610813800D+03  0.1813904450D+00
      0.3028991990D+03  0.3084923571D+00
      0.1425503730D+03  0.3394842623D+00
      0.6819103000D+02  0.1668118976D+00
      0.3286105400D+02  0.1897170303D-01
      0.1582546700D+02  0.1624532879D-02
 S  12 1.00       0.000000000000
      0.9261882680D+04 -0.3361796486D-04
      0.3595722460D+04 -0.2433297820D-03
      0.1500543130D+04 -0.1658040911D-02
      0.6610813800D+03 -0.8278135655D-02
      0.3028991990D+03 -0.3340260038D-01
      0.1425503730D+03 -0.8577760060D-01
      0.6819103000D+02 -0.7132409399D-01
      0.3286105400D+02  0.2416525669D+00
      0.1582546700D+02  0.5859051146D+00
      0.7559104000D+01  0.2927685481D+00
      0.3553914000D+01  0.2074829820D-01
      0.1631137000D+01  0.5269842182D-02
 P  13 1.00       0.000000000000
      0.3413817080D+05  0.2200904883D-04
      0.8196472160D+04  0.1998674583D-03
      0.2604532540D+04  0.1205617029D-02
      0.9950835960D+03  0.5324867103D-02
      0.4272207060D+03  0.1905141872D-01
      0.1971606620D+03  0.5737423596D-01
      0.9525840400D+02  0.1422077403D+00
      0.4753570200D+02  0.2680786931D+00
      0.2435670300D+02  0.3492214370D+00
      0.1277110800D+02  0.2550086598D+00
      0.6811016000D+01  0.8104538563D-01
      0.3643457000D+01  0.9765062852D-02
      0.1902891000D+01  0.4113030246D-03
 S  10 1.00       0.000000000000
      0.1425503730D+03  0.1621284441D-02
      0.6819103000D+02  0.2749259023D-02
      0.3286105400D+02 -0.1634089058D-01
      0.1582546700D+02 -0.1706892486D+00
      0.7559104000D+01 -0.1482937366D+00
      0.3553914000D+01  0.4194882928D+00
      0.1631137000D+01  0.6227863225D+00
      0.7240330000D+00  0.1866388806D+00
      0.3074220000D+00 -0.1575744551D-02
      0.1232280000D+00  0.3221912599D-02
 P  12 1.00       0.000000000000
      0.9950835960D+03 -0.9813305449D-05
      0.4272207060D+03 -0.1014008861D-03
      0.1971606620D+03 -0.7075116870D-03
      0.9525840400D+02 -0.3572952645D-02
      0.4753570200D+02 -0.1130829899D-01
      0.2435670300D+02 -0.2295514232D-01
      0.1277110800D+02  0.7109328555D-02
      0.6811016000D+01  0.1609107695D+00
      0.3643457000D+01  0.3360606749D+00
      0.1902891000D+01  0.3840722116D+00
      0.9274240000D+00  0.2147886621D+00
      0.3938310000D+00  0.3099679857D-01
 D  12 1.00       0.000000000000
      0.9025580140D+03  0.9546602554D-04
      0.2761848650D+03  0.9255571414D-03
      0.1060948420D+03  0.5521197122D-02
      0.4696762300D+02  0.2146324091D-01
      0.2256063700D+02  0.6107271652D-01
      0.1129431100D+02  0.1383976691D+00
      0.5743408000D+01  0.2309933171D+00
      0.2918343000D+01  0.2841483981D+00
      0.1463169000D+01  0.2764018881D+00
      0.7137210000D+00  0.2126320031D+00
      0.3316980000D+00  0.1120140180D+00
      0.1420790000D+00  0.2600274191D-01
 S   9 1.00       0.000000000000
      0.3286105400D+02  0.4663865557D-04
      0.1582546700D+02  0.4307601510D-02
      0.7559104000D+01  0.2382887439D-02
      0.3553914000D+01 -0.1733463476D-01
      0.1631137000D+01 -0.8249270672D-01
      0.7240330000D+00 -0.1258942755D+00
      0.3074220000D+00  0.1195471553D+00
      0.1232280000D+00  0.5958451007D+00
      0.4589800000D-01  0.4351581925D+00
 S   1 1.00       0.000000000000
      0.1709535500D-01  0.1000000000D+01
 P   8 1.00       0.000000000000
      0.2435670300D+02  0.4515683094D-02
      0.1277110800D+02 -0.1131370476D-01
      0.6811016000D+01  0.9998069501D-02
      0.3643457000D+01 -0.7515464501D-01
      0.1902891000D+01  0.3574228282D-01
      0.9274240000D+00 -0.1375401436D+00
      0.3938310000D+00  0.2555937861D+00
      0.7355246580D-01  0.8990570736D+00
 S   1 1.00       0.000000000000
      0.4410668000D+01  0.1000000000D+01
 S   1 1.00       0.000000000000
      0.1710184000D+01  0.1000000000D+01
 S   1 1.00       0.000000000000
      0.6631030000D+00  0.1000000000D+01
 S   1 1.00       0.000000000000
      0.2571100000D+00  0.1000000000D+01
 P   1 1.00       0.000000000000
      0.2898752000D+01  0.1000000000D+01
 P   1 1.00       0.000000000000
      0.1196562000D+01  0.1000000000D+01
 P   1 1.00       0.000000000000
      0.4939230000D+00  0.1000000000D+01
 P   1 1.00       0.000000000000
      0.2038840000D+00  0.1000000000D+01
 P   1 1.00       0.000000000000
      0.8416000000D-01  0.1000000000D+01
 D   1 1.00       0.000000000000
      0.3975617000D+01  0.1000000000D+01
 D   1 1.00       0.000000000000
      0.1531067000D+01  0.1000000000D+01
 D   1 1.00       0.000000000000
      0.5896360000D+00  0.1000000000D+01
 D   1 1.00       0.000000000000
      0.2270770000D+00  0.1000000000D+01
 D   1 1.00       0.000000000000
      0.8745000000D-01  0.1000000000D+01
 F   1 1.00       0.000000000000
      0.1214376100D+02  0.1000000000D+01
 F   1 1.00       0.000000000000
      0.4339582000D+01  0.1000000000D+01
 F   1 1.00       0.000000000000
      0.1550752000D+01  0.1000000000D+01
 F   1 1.00       0.000000000000
      0.5541620000D+00  0.1000000000D+01
 F   1 1.00       0.000000000000
      0.1980300000D+00  0.1000000000D+01
 G   1 1.00       0.000000000000
      0.9804470000D+01  0.1000000000D+01
 G   1 1.00       0.000000000000
      0.3461596000D+01  0.1000000000D+01
 G   1 1.00       0.000000000000
      0.1222162000D+01  0.1000000000D+01
 G   1 1.00       0.000000000000
      0.4315000000D+00  0.1000000000D+01
 H   1 1.00       0.000000000000
      0.7313344000D+01  0.1000000000D+01
 H   1 1.00       0.000000000000
      0.2333350000D+01  0.1000000000D+01
 H   1 1.00       0.000000000000
      0.7444640000D+00  0.1000000000D+01
 I   1 1.00       0.000000000000
      0.5600301841D+01  0.1000000000D+01
 ****
      2 0
 S  14 1.00       0.000000000000
      0.7712242570D+07  0.5441091299D-05
      0.1379565890D+07  0.3612554206D-04
      0.3094678300D+06  0.2072830227D-03
      0.8355154360D+05  0.9334115998D-03
      0.2620410670D+05  0.3525026616D-02
      0.9261882680D+04  0.1149429428D-01
      0.3595722460D+04  0.3304970414D-01
      0.1500543130D+04  0.8378534862D-01
      0.6610813800D+03  0.1813904450D+00
      0.3028991990D+03  0.3084923571D+00
      0.1425503730D+03  0.3394842623D+00
      0.6819103000D+02  0.1668118976D+00
      0.3286105400D+02  0.1897170303D-01
      0.1582546700D+02  0.1624532879D-02
 S  12 1.00       0.000000000000
      0.9261882680D+04 -0.3361796486D-04
      0.3595722460D+04 -0.2433297820D-03
      0.1500543130D+04 -0.1658040911D-02
      0.6610813800D+03 -0.8278135655D-02
      0.3028991990D+03 -0.3340260038D-01
      0.1425503730D+03 -0.8577760060D-01
      0.6819103000D+02 -0.7132409399D-01
      0.3286105400D+02  0.2416525669D+00
      0.1582546700D+02  0.5859051146D+00
      0.7559104000D+01  0.2927685481D+00
      0.3553914000D+01  0.2074829820D-01
      0.1631137000D+01  0.5269842182D-02
 P  13 1.00       0.000000000000
      0.3413817080D+05  0.2200904883D-04
      0.8196472160D+04  0.1998674583D-03
      0.2604532540D+04  0.1205617029D-02
      0.9950835960D+03  0.5324867103D-02
      0.4272207060D+03  0.1905141872D-01
      0.1971606620D+03  0.5737423596D-01
      0.9525840400D+02  0.1422077403D+00
      0.4753570200D+02  0.2680786931D+00
      0.2435670300D+02  0.3492214370D+00
      0.1277110800D+02  0.2550086598D+00
      0.6811016000D+01  0.8104538563D-01
      0.3643457000D+01  0.9765062852D-02
      0.1902891000D+01  0.4113030246D-03
 S  10 1.00       0.000000000000
      0.1425503730D+03  0.1621284441D-02
      0.6819103000D+02  0.2749259023D-02
      0.3286105400D+02 -0.1634089058D-01
      0.1582546700D+02 -0.1706892486D+00
      0.7559104000D+01 -0.1482937366D+00
      0.3553914000D+01  0.4194882928D+00
      0.1631137000D+01  0.6227863225D+00
      0.7240330000D+00  0.1866388806D+00
      0.3074220000D+00 -0.1575744551D-02
      0.1232280000D+00  0.3221912599D-02
 P  12 1.00       0.000000000000
      0.9950835960D+03 -0.9813305449D-05
      0.4272207060D+03 -0.1014008861D-03
      0.1971606620D+03 -0.7075116870D-03
      0.9525840400D+02 -0.3572952645D-02
      0.4753570200D+02 -0.1130829899D-01
      0.2435670300D+02 -0.2295514232D-01
      0.1277110800D+02  0.7109328555D-02
      0.6811016000D+01  0.1609107695D+00
      0.3643457000D+01  0.3360606749D+00
      0.1902891000D+01  0.3840722116D+00
      0.9274240000D+00  0.2147886621D+00
      0.3938310000D+00  0.3099679857D-01
 D  12 1.00       0.000000000000
      0.9025580140D+03  0.9546602554D-04
      0.2761848650D+03  0.9255571414D-03
      0.1060948420D+03  0.5521197122D-02
      0.4696762300D+02  0.2146324091D-01
      0.2256063700D+02  0.6107271652D-01
      0.1129431100D+02  0.1383976691D+00
      0.5743408000D+01  0.2309933171D+00
      0.2918343000D+01  0.2841483981D+00
      0.1463169000D+01  0.2764018881D+00
      0.7137210000D+00  0.2126320031D+00
      0.3316980000D+00  0.1120140180D+00
      0.1420790000D+00  0.2600274191D-01
 S   9 1.00       0.000000000000
      0.3286105400D+02  0.4663865557D-04
      0.1582546700D+02  0.4307601510D-02
      0.7559104000D+01  0.2382887439D-02
      0.3553914000D+01 -0.1733463476D-01
      0.1631137000D+01 -0.8249270672D-01
      0.7240330000D+00 -0.1258942755D+00
      0.3074220000D+00  0.1195471553D+00
      0.1232280000D+00  0.5958451007D+00
      0.4589800000D-01  0.4351581925D+00
 S   1 1.00       0.000000000000
      0.1709535500D-01  0.1000000000D+01
 P   8 1.00       0.000000000000
      0.2435670300D+02  0.4515683094D-02
      0.1277110800D+02 -0.1131370476D-01
      0.6811016000D+01  0.9998069501D-02
      0.3643457000D+01 -0.7515464501D-01
      0.1902891000D+01  0.3574228282D-01
      0.9274240000D+00 -0.1375401436D+00
      0.3938310000D+00  0.2555937861D+00
      0.7355246580D-01  0.8990570736D+00
 S   1 1.00       0.000000000000
      0.4410668000D+01  0.1000000000D+01
 S   1 1.00       0.000000000000
      0.1710184000D+01  0.1000000000D+01
 S   1 1.00       0.000000000000
      0.6631030000D+00  0.1000000000D+01
 S   1 1.00       0.000000000000
      0.2571100000D+00  0.1000000000D+01
 P   1 1.00       0.000000000000
      0.2898752000D+01  0.1000000000D+01
 P   1 1.00       0.000000000000
      0.1196562000D+01  0.1000000000D+01
 P   1 1.00       0.000000000000
      0.4939230000D+00  0.1000000000D+01
 P   1 1.00       0.000000000000
      0.2038840000D+00  0.1000000000D+01
 P   1 1.00       0.000000000000
      0.8416000000D-01  0.1000000000D+01
 D   1 1.00       0.000000000000
      0.3975617000D+01  0.1000000000D+01
 D   1 1.00       0.000000000000
      0.1531067000D+01  0.1000000000D+01
 D   1 1.00       0.000000000000
      0.5896360000D+00  0.1000000000D+01
 D   1 1.00       0.000000000000
      0.2270770000D+00  0.1000000000D+01
 D   1 1.00       0.000000000000
      0.8745000000D-01  0.1000000000D+01
 F   1 1.00       0.000000000000
      0.1214376100D+02  0.1000000000D+01
 F   1 1.00       0.000000000000
      0.4339582000D+01  0.1000000000D+01
 F   1 1.00       0.000000000000
      0.1550752000D+01  0.1000000000D+01
 F   1 1.00       0.000000000000
      0.5541620000D+00  0.1000000000D+01
 F   1 1.00       0.000000000000
      0.1980300000D+00  0.1000000000D+01
 G   1 1.00       0.000000000000
      0.9804470000D+01  0.1000000000D+01
 G   1 1.00       0.000000000000
      0.3461596000D+01  0.1000000000D+01
 G   1 1.00       0.000000000000
      0.1222162000D+01  0.1000000000D+01
 G   1 1.00       0.000000000000
      0.4315000000D+00  0.1000000000D+01
 H   1 1.00       0.000000000000
      0.7313344000D+01  0.1000000000D+01
 H   1 1.00       0.000000000000
      0.2333350000D+01  0.1000000000D+01
 H   1 1.00       0.000000000000
      0.7444640000D+00  0.1000000000D+01
 I   1 1.00       0.000000000000
      0.5600301841D+01  0.1000000000D+01
 ****

 There are   102 symmetry adapted cartesian basis functions of AG  symmetry.
 There are    38 symmetry adapted cartesian basis functions of B1G symmetry.
 There are    65 symmetry adapted cartesian basis functions of B2G symmetry.
 There are    65 symmetry adapted cartesian basis functions of B3G symmetry.
 There are    38 symmetry adapted cartesian basis functions of AU  symmetry.
 There are   102 symmetry adapted cartesian basis functions of B1U symmetry.
 There are    65 symmetry adapted cartesian basis functions of B2U symmetry.
 There are    65 symmetry adapted cartesian basis functions of B3U symmetry.
 There are    64 symmetry adapted basis functions of AG  symmetry.
 There are    28 symmetry adapted basis functions of B1G symmetry.
 There are    44 symmetry adapted basis functions of B2G symmetry.
 There are    44 symmetry adapted basis functions of B3G symmetry.
 There are    28 symmetry adapted basis functions of AU  symmetry.
 There are    64 symmetry adapted basis functions of B1U symmetry.
 There are    44 symmetry adapted basis functions of B2U symmetry.
 There are    44 symmetry adapted basis functions of B3U symmetry.
   360 basis functions,   934 primitive gaussians,   540 cartesian basis functions
    30 alpha electrons       30 beta electrons
       nuclear repulsion energy       123.8002307593 Hartrees.
 NAtoms=    2 NActive=    2 NUniq=    1 SFac= 4.00D+00 NAtFMM=   60 NAOKFM=F Big=F
 Integral buffers will be    131072 words long.
 Raffenetti 2 integral format.
 Two-electron integral symmetry is turned on.
 One-electron integrals computed using PRISM.
 NBasis=   360 RedAO= F EigKep=  0.00D+00  NBF=    64    28    44    44    28    64    44    44
 NBsUse=   360 1.00D-04 EigRej=  0.00D+00 NBFU=    64    28    44    44    28    64    44    44
 ExpMin= 1.71D-02 ExpMax= 7.71D+06 ExpMxC= 9.26D+03 IAcc=3 IRadAn=         5 AccDes= 0.00D+00
 Harris functional with IExCor=  205 and IRadAn=       5 diagonalized for initial guess.
 HarFok:  IExCor=  205 AccDes= 0.00D+00 IRadAn=         5 IDoV= 1 UseB2=F ITyADJ=14
 ICtDFT=  3500011 ScaDFX=  1.000000  1.000000  1.000000  1.000000
 FoFCou: FMM=F IPFlag=           0 FMFlag=      100000 FMFlg1=           0
         NFxFlg=           0 DoJE=T BraDBF=F KetDBF=T FulRan=T
         wScrn=  0.000000 ICntrl=     500 IOpCl=  0 I1Cent=   200000004 NGrid=           0
         NMat0=    1 NMatS0=      1 NMatT0=    0 NMatD0=    1 NMtDS0=    0 NMtDT0=    0
 Petite list used in FoFCou.
 DSYEVD returned Info=         406 IAlg= 4 N=   360 NDim=   360 NE2=     4472291 trying DSYEV.
 Initial guess orbital symmetries:
       Occupied  (SGU) (SGG) (SGU) (SGG) (SGU) (SGG) (PIG) (PIG)
                 (PIU) (PIU) (SGG) (SGU) (SGG) (SGU) (PIU) (PIU)
                 (PIG) (PIG) (SGG) (PIU) (PIU) (DLTG) (DLTG) (DLTU)
                 (DLTU) (PIG) (PIG) (SGU) (SGG) (SGU)
       Virtual   (SGG) (PIU) (PIU) (PIG) (PIG) (SGU) (SGG) (SGU)
                 (PIU) (PIU) (DLTG) (DLTG) (SGG) (DLTU) (DLTU)
                 (SGU) (PIG) (PIG) (PIU) (PIU) (SGG) (PIG) (PIG)
                 (SGU) (SGG) (PIU) (PIU) (SGG) (SGU) (DLTG) (DLTG)
                 (PHIU) (PHIU) (PHIG) (PHIG) (DLTU) (DLTU) (DLTG)
                 (DLTG) (SGU) (PIG) (PIG) (PIU) (PIU) (DLTU) (DLTU)
                 (PIU) (PIU) (SGG) (PIG) (PIG) (PIG) (PIG) (SGG)
                 (SGU) (SGU) (SGG) (PIU) (PIU) (DLTG) (DLTG) (PHIU)
                 (PHIU) (?A) (?A) (?B) (?B) (PHIG) (PHIG) (DLTU)
                 (DLTU) (PIG) (PIG) (SGU) (DLTG) (DLTG) (PIU) (PIU)
                 (PHIU) (PHIU) (PHIG) (PHIG) (PIU) (PIU) (SGG)
                 (DLTU) (DLTU) (PIG) (PIG) (SGG) (SGU) (PIG) (PIG)
                 (SGU) (DLTG) (DLTG) (PIU) (PIU) (DLTU) (DLTU)
                 (PIG) (PIG) (SGG) (SGG) (SGU) (SGU) (SGG) (PIU)
                 (PIU) (DLTG) (DLTG) (DLTU) (DLTU) (PHIU) (PHIU)
                 (PHIG) (PHIG) (?A) (?B) (?A) (?B) (?C) (?C) (?D)
                 (?D) (PIG) (PIG) (SGU) (PIU) (PIU) (DLTG) (DLTG)
                 (PHIU) (PHIU) (PHIG) (PHIG) (DLTU) (DLTU) (SGG)
                 (PIG) (PIG) (SGU) (SGG) (PIU) (PIU) (DLTG) (DLTG)
                 (PHIU) (PHIU) (?A) (?A) (?B) (?B) (PHIG) (PHIG)
                 (DLTU) (DLTU) (PIG) (PIG) (SGU) (PIU) (PIU) (PIG)
                 (PIG) (SGG) (SGU) (DLTG) (DLTG) (PIU) (PIU) (DLTU)
                 (DLTU) (SGG) (PIG) (PIG) (SGU) (SGG) (SGU) (?E)
                 (?E) (DLTG) (?F) (DLTG) (DLTU) (DLTU) (?E) (?E)
                 (?G) (?G) (?F) (?B) (?F) (?B) (?D) (?D) (?C) (?C)
                 (?G) (?G) (SGU) (PIU) (PIU) (DLTG) (DLTG) (PHIU)
                 (PHIU) (PHIG) (PHIG) (DLTU) (DLTU) (SGG) (PIG)
                 (PIG) (SGU) (SGG) (PIU) (PIU) (DLTG) (DLTG) (PHIU)
                 (PHIU) (?A) (?A) (?B) (?B) (PHIG) (PHIG) (DLTU)
                 (DLTU) (PIG) (PIG) (SGU) (PIU) (PIU) (PIG) (PIG)
                 (SGG) (SGU) (DLTG) (DLTG) (PIU) (PIU) (DLTU) (DLTU)
                 (SGG) (PIG) (PIG) (SGU) (SGG) (SGU) (PIU) (PIU)
                 (PIG) (PIG) (DLTG) (DLTU) (DLTG) (DLTU) (PHIG)
                 (PHIG) (PHIU) (PHIU) (?A) (?B) (?B) (?A) (?C)
                 (?D) (?C) (?D) (?H) (?H) (?H) (?H) (PIU) (PIU)
                 (DLTG) (DLTG) (PHIU) (PHIU) (PHIG) (PHIG) (DLTU)
                 (DLTU) (SGG) (PIG) (PIG) (SGU) (DLTG) (DLTG) (?E)
                 (?E) (DLTU) (?E) (?E) (PHIG) (PHIG) (?H) (DLTU)
                 (?H) (?B) (?H) (?B) (?C) (?C) (?D) (?D) (PIG)
                 (PIG) (SGU) (SGG) (PIU) (PIU) (DLTG) (DLTG) (PHIU)
                 (PHIU) (?A) (?A) (?B) (?B) (PHIG) (PHIG) (DLTU)
                 (DLTU) (PIG) (PIG) (SGU) (SGG) (SGU)
 The electronic state of the initial guess is 1-SGG.
 Requested convergence on RMS density matrix=1.00D-10 within 128 cycles.
 Requested convergence on MAX density matrix=1.00D-08.
 Requested convergence on             energy=1.00D-08.
 No special actions if energy rises.
 Initial convergence to 1.0D-05 achieved.  Increase integral accuracy.
 DSYEVD returned Info=          89 IAlg= 4 N=    44 NDim=   360 NE2=     4471464 trying DSYEV.
 DSYEVD returned Info=          89 IAlg= 4 N=    44 NDim=   360 NE2=     4471464 trying DSYEV.
 SCF Done:  E(ROHF) =  -3555.69376205     A.U. after   15 cycles
            NFock= 15  Conv=0.63D-10     -V/T= 2.0000
 <Sx>= 0.0000 <Sy>= 0.0000 <Sz>= 0.0000 <S**2>= 0.0000 S= 0.0000
 <L.S>= 0.000000000000E+00
 Annihilation of the first spin contaminant:
 S**2 before annihilation     0.0000,   after     0.0000
 GenMOA:  NOpAll=  8 NOp2=8 NOpUse=  8 JSym2X=1
 <Sx>= 0.0000 <Sy>= 0.0000 <Sz>= 0.0000 <S**2>= 0.0000 S= 0.0000
 Range of M.O.s used for correlation:    19   360
 NBasis=   360 NAE=    30 NBE=    30 NFC=    18 NFV=     0
 NROrb=    342 NOA=    12 NOB=    12 NVA=   330 NVB=   330

 **** Warning!!: The largest alpha MO coefficient is  0.42217807D+02


 **** Warning!!: The largest beta MO coefficient is  0.42217807D+02

 Singles contribution to E2=   -0.6764609759D-14
 Disk-based method using OVN memory for 12 occupieds at a time.
 Permanent disk used for amplitudes and <ij||ab> integrals=    45694440 words.
 Estimated scratch disk usage=   618679880 words.
 IUseRI=2 ITolRI= 6 IR12RI=0
 Actual    scratch disk usage=   615472712 words.
 GetIJB would need an additional   316984715 words of memory to use all   8 processors.
 JobTyp=2 Pass  1:  I=   1 to  12 NPSUse=  6 ParTrn=T ParDer=T DoDerP=F.
 T,EIJ(AA): I=   1 J=   2      0.5965060E-03     -0.5507321E-02
 T,EIJ(AA): I=   1 J=   3      0.5965060E-03     -0.5507321E-02
 T,EIJ(AA): I=   1 J=   4      0.3881227E-03     -0.3305140E-02
 T,EIJ(AA): I=   1 J=   5      0.3881227E-03     -0.3305140E-02
 T,EIJ(AA): I=   1 J=   6      0.3881451E-03     -0.3305527E-02
 T,EIJ(AA): I=   1 J=   7      0.3881451E-03     -0.3305527E-02
 T,EIJ(AA): I=   1 J=   8      0.5968306E-03     -0.5512947E-02
 T,EIJ(AA): I=   1 J=   9      0.5968306E-03     -0.5512947E-02
 T,EIJ(AA): I=   1 J=  10      0.4652578E-06     -0.1694342E-05
 T,EIJ(AA): I=   1 J=  11      0.2566895E-03     -0.1074959E-02
 T,EIJ(AA): I=   1 J=  12      0.2794973E-03     -0.1172317E-02
 T,EIJ(AA): I=   2 J=   3      0.4582246E-03     -0.4043133E-02
 T,EIJ(AA): I=   2 J=   4      0.4581046E-03     -0.4044340E-02
 T,EIJ(AA): I=   2 J=   5      0.4581046E-03     -0.4044340E-02
 T,EIJ(AA): I=   2 J=   6      0.4581747E-03     -0.4044908E-02
 T,EIJ(AA): I=   2 J=   7      0.4581747E-03     -0.4044908E-02
 T,EIJ(AA): I=   2 J=   8      0.2044191E-06     -0.8181790E-06
 T,EIJ(AA): I=   2 J=   9      0.4586659E-03     -0.4047647E-02
 T,EIJ(AA): I=   2 J=  10      0.5978192E-03     -0.5522361E-02
 T,EIJ(AA): I=   2 J=  11      0.2558854E-03     -0.1072639E-02
 T,EIJ(AA): I=   2 J=  12      0.2799626E-03     -0.1176935E-02
 T,EIJ(AA): I=   3 J=   4      0.4581046E-03     -0.4044340E-02
 T,EIJ(AA): I=   3 J=   5      0.4581046E-03     -0.4044340E-02
 T,EIJ(AA): I=   3 J=   6      0.4581747E-03     -0.4044908E-02
 T,EIJ(AA): I=   3 J=   7      0.4581747E-03     -0.4044908E-02
 T,EIJ(AA): I=   3 J=   8      0.4586659E-03     -0.4047647E-02
 T,EIJ(AA): I=   3 J=   9      0.2044191E-06     -0.8181790E-06
 T,EIJ(AA): I=   3 J=  10      0.5978192E-03     -0.5522361E-02
 T,EIJ(AA): I=   3 J=  11      0.2558854E-03     -0.1072639E-02
 T,EIJ(AA): I=   3 J=  12      0.2799626E-03     -0.1176935E-02
 T,EIJ(AA): I=   4 J=   5      0.6664823E-03     -0.6252677E-02
 T,EIJ(AA): I=   4 J=   6      0.7330340E-07     -0.3189081E-06
 T,EIJ(AA): I=   4 J=   7      0.6665480E-03     -0.6253411E-02
 T,EIJ(AA): I=   4 J=   8      0.4587461E-03     -0.4049280E-02
 T,EIJ(AA): I=   4 J=   9      0.4587461E-03     -0.4049280E-02
 T,EIJ(AA): I=   4 J=  10      0.3896803E-03     -0.3316044E-02
 T,EIJ(AA): I=   4 J=  11      0.2507843E-03     -0.1055698E-02
 T,EIJ(AA): I=   4 J=  12      0.2843821E-03     -0.1190179E-02
 T,EIJ(AA): I=   5 J=   6      0.6665480E-03     -0.6253411E-02
 T,EIJ(AA): I=   5 J=   7      0.7330340E-07     -0.3189081E-06
 T,EIJ(AA): I=   5 J=   8      0.4587461E-03     -0.4049280E-02
 T,EIJ(AA): I=   5 J=   9      0.4587461E-03     -0.4049280E-02
 T,EIJ(AA): I=   5 J=  10      0.3896803E-03     -0.3316044E-02
 T,EIJ(AA): I=   5 J=  11      0.2507843E-03     -0.1055698E-02
 T,EIJ(AA): I=   5 J=  12      0.2843821E-03     -0.1190179E-02
 T,EIJ(AA): I=   6 J=   7      0.6666289E-03     -0.6254181E-02
 T,EIJ(AA): I=   6 J=   8      0.4588178E-03     -0.4049794E-02
 T,EIJ(AA): I=   6 J=   9      0.4588178E-03     -0.4049794E-02
 T,EIJ(AA): I=   6 J=  10      0.3897525E-03     -0.3316475E-02
 T,EIJ(AA): I=   6 J=  11      0.2521435E-03     -0.1057600E-02
 T,EIJ(AA): I=   6 J=  12      0.2839714E-03     -0.1189656E-02
 T,EIJ(AA): I=   7 J=   8      0.4588178E-03     -0.4049794E-02
 T,EIJ(AA): I=   7 J=   9      0.4588178E-03     -0.4049794E-02
 T,EIJ(AA): I=   7 J=  10      0.3897525E-03     -0.3316475E-02
 T,EIJ(AA): I=   7 J=  11      0.2521435E-03     -0.1057600E-02
 T,EIJ(AA): I=   7 J=  12      0.2839714E-03     -0.1189656E-02
 T,EIJ(AA): I=   8 J=   9      0.4593234E-03     -0.4052404E-02
 T,EIJ(AA): I=   8 J=  10      0.5987531E-03     -0.5528784E-02
 T,EIJ(AA): I=   8 J=  11      0.2618161E-03     -0.1082355E-02
 T,EIJ(AA): I=   8 J=  12      0.2821245E-03     -0.1180732E-02
 T,EIJ(AA): I=   9 J=  10      0.5987531E-03     -0.5528784E-02
 T,EIJ(AA): I=   9 J=  11      0.2618161E-03     -0.1082355E-02
 T,EIJ(AA): I=   9 J=  12      0.2821245E-03     -0.1180732E-02
 T,EIJ(AA): I=  10 J=  11      0.2666309E-03     -0.1093859E-02
 T,EIJ(AA): I=  10 J=  12      0.2814324E-03     -0.1177386E-02
 T,EIJ(AA): I=  11 J=  12      0.7162959E-03     -0.6571764E-03
 T,EIJ(AB): I=   1 J=   1      0.1030129E-02     -0.9712563E-02
 T,EIJ(AB): I=   1 J=   2      0.6582579E-03     -0.5956422E-02
 T,EIJ(AB): I=   1 J=   3      0.6582579E-03     -0.5956422E-02
 T,EIJ(AB): I=   1 J=   4      0.5694564E-03     -0.5123602E-02
 T,EIJ(AB): I=   1 J=   5      0.5694564E-03     -0.5123602E-02
 T,EIJ(AB): I=   1 J=   6      0.5694814E-03     -0.5124164E-02
 T,EIJ(AB): I=   1 J=   7      0.5694814E-03     -0.5124164E-02
 T,EIJ(AB): I=   1 J=   8      0.6584091E-03     -0.5962003E-02
 T,EIJ(AB): I=   1 J=   9      0.6584091E-03     -0.5962003E-02
 T,EIJ(AB): I=   1 J=  10      0.1028491E-02     -0.9730277E-02
 T,EIJ(AB): I=   1 J=  11      0.4677580E-03     -0.1612546E-02
 T,EIJ(AB): I=   1 J=  12      0.4889628E-03     -0.1730536E-02
 T,EIJ(AB): I=   2 J=   1      0.6582579E-03     -0.5956422E-02
 T,EIJ(AB): I=   2 J=   2      0.1029328E-02     -0.9725661E-02
 T,EIJ(AB): I=   2 J=   3      0.6000818E-03     -0.5406588E-02
 T,EIJ(AB): I=   2 J=   4      0.5999294E-03     -0.5408285E-02
 T,EIJ(AB): I=   2 J=   5      0.5999294E-03     -0.5408285E-02
 T,EIJ(AB): I=   2 J=   6      0.5999667E-03     -0.5408880E-02
 T,EIJ(AB): I=   2 J=   7      0.5999667E-03     -0.5408880E-02
 T,EIJ(AB): I=   2 J=   8      0.1029637E-02     -0.9734805E-02
 T,EIJ(AB): I=   2 J=   9      0.6005458E-03     -0.5412279E-02
 T,EIJ(AB): I=   2 J=  10      0.6588603E-03     -0.5970629E-02
 T,EIJ(AB): I=   2 J=  11      0.4546658E-03     -0.1587996E-02
 T,EIJ(AB): I=   2 J=  12      0.4943007E-03     -0.1740412E-02
 T,EIJ(AB): I=   3 J=   1      0.6582579E-03     -0.5956422E-02
 T,EIJ(AB): I=   3 J=   2      0.6000818E-03     -0.5406588E-02
 T,EIJ(AB): I=   3 J=   3      0.1029328E-02     -0.9725661E-02
 T,EIJ(AB): I=   3 J=   4      0.5999294E-03     -0.5408285E-02
 T,EIJ(AB): I=   3 J=   5      0.5999294E-03     -0.5408285E-02
 T,EIJ(AB): I=   3 J=   6      0.5999667E-03     -0.5408880E-02
 T,EIJ(AB): I=   3 J=   7      0.5999667E-03     -0.5408880E-02
 T,EIJ(AB): I=   3 J=   8      0.6005458E-03     -0.5412279E-02
 T,EIJ(AB): I=   3 J=   9      0.1029637E-02     -0.9734805E-02
 T,EIJ(AB): I=   3 J=  10      0.6588603E-03     -0.5970629E-02
 T,EIJ(AB): I=   3 J=  11      0.4546658E-03     -0.1587996E-02
 T,EIJ(AB): I=   3 J=  12      0.4943007E-03     -0.1740412E-02
 T,EIJ(AB): I=   4 J=   1      0.5694564E-03     -0.5123602E-02
 T,EIJ(AB): I=   4 J=   2      0.5999294E-03     -0.5408285E-02
 T,EIJ(AB): I=   4 J=   3      0.5999294E-03     -0.5408285E-02
 T,EIJ(AB): I=   4 J=   4      0.1029307E-02     -0.9733200E-02
 T,EIJ(AB): I=   4 J=   5      0.6875090E-03     -0.6243414E-02
 T,EIJ(AB): I=   4 J=   6      0.1029278E-02     -0.9734108E-02
 T,EIJ(AB): I=   4 J=   7      0.6875841E-03     -0.6244167E-02
 T,EIJ(AB): I=   4 J=   8      0.6006526E-03     -0.5414525E-02
 T,EIJ(AB): I=   4 J=   9      0.6006526E-03     -0.5414525E-02
 T,EIJ(AB): I=   4 J=  10      0.5725492E-03     -0.5142010E-02
 T,EIJ(AB): I=   4 J=  11      0.4419138E-03     -0.1557965E-02
 T,EIJ(AB): I=   4 J=  12      0.5027502E-03     -0.1760881E-02
 T,EIJ(AB): I=   5 J=   1      0.5694564E-03     -0.5123602E-02
 T,EIJ(AB): I=   5 J=   2      0.5999294E-03     -0.5408285E-02
 T,EIJ(AB): I=   5 J=   3      0.5999294E-03     -0.5408285E-02
 T,EIJ(AB): I=   5 J=   4      0.6875090E-03     -0.6243414E-02
 T,EIJ(AB): I=   5 J=   5      0.1029307E-02     -0.9733200E-02
 T,EIJ(AB): I=   5 J=   6      0.6875841E-03     -0.6244167E-02
 T,EIJ(AB): I=   5 J=   7      0.1029278E-02     -0.9734108E-02
 T,EIJ(AB): I=   5 J=   8      0.6006526E-03     -0.5414525E-02
 T,EIJ(AB): I=   5 J=   9      0.6006526E-03     -0.5414525E-02
 T,EIJ(AB): I=   5 J=  10      0.5725492E-03     -0.5142010E-02
 T,EIJ(AB): I=   5 J=  11      0.4419138E-03     -0.1557965E-02
 T,EIJ(AB): I=   5 J=  12      0.5027502E-03     -0.1760881E-02
 T,EIJ(AB): I=   6 J=   1      0.5694814E-03     -0.5124164E-02
 T,EIJ(AB): I=   6 J=   2      0.5999667E-03     -0.5408880E-02
 T,EIJ(AB): I=   6 J=   3      0.5999667E-03     -0.5408880E-02
 T,EIJ(AB): I=   6 J=   4      0.1029278E-02     -0.9734108E-02
 T,EIJ(AB): I=   6 J=   5      0.6875841E-03     -0.6244167E-02
 T,EIJ(AB): I=   6 J=   6      0.1029507E-02     -0.9735462E-02
 T,EIJ(AB): I=   6 J=   7      0.6876647E-03     -0.6244925E-02
 T,EIJ(AB): I=   6 J=   8      0.6007244E-03     -0.5415166E-02
 T,EIJ(AB): I=   6 J=   9      0.6007244E-03     -0.5415166E-02
 T,EIJ(AB): I=   6 J=  10      0.5726475E-03     -0.5142672E-02
 T,EIJ(AB): I=   6 J=  11      0.4409944E-03     -0.1557018E-02
 T,EIJ(AB): I=   6 J=  12      0.5025368E-03     -0.1760750E-02
 T,EIJ(AB): I=   7 J=   1      0.5694814E-03     -0.5124164E-02
 T,EIJ(AB): I=   7 J=   2      0.5999667E-03     -0.5408880E-02
 T,EIJ(AB): I=   7 J=   3      0.5999667E-03     -0.5408880E-02
 T,EIJ(AB): I=   7 J=   4      0.6875841E-03     -0.6244167E-02
 T,EIJ(AB): I=   7 J=   5      0.1029278E-02     -0.9734108E-02
 T,EIJ(AB): I=   7 J=   6      0.6876647E-03     -0.6244925E-02
 T,EIJ(AB): I=   7 J=   7      0.1029507E-02     -0.9735462E-02
 T,EIJ(AB): I=   7 J=   8      0.6007244E-03     -0.5415166E-02
 T,EIJ(AB): I=   7 J=   9      0.6007244E-03     -0.5415166E-02
 T,EIJ(AB): I=   7 J=  10      0.5726475E-03     -0.5142672E-02
 T,EIJ(AB): I=   7 J=  11      0.4409944E-03     -0.1557018E-02
 T,EIJ(AB): I=   7 J=  12      0.5025368E-03     -0.1760750E-02
 T,EIJ(AB): I=   8 J=   1      0.6584091E-03     -0.5962003E-02
 T,EIJ(AB): I=   8 J=   2      0.1029637E-02     -0.9734805E-02
 T,EIJ(AB): I=   8 J=   3      0.6005458E-03     -0.5412279E-02
 T,EIJ(AB): I=   8 J=   4      0.6006526E-03     -0.5414525E-02
 T,EIJ(AB): I=   8 J=   5      0.6006526E-03     -0.5414525E-02
 T,EIJ(AB): I=   8 J=   6      0.6007244E-03     -0.5415166E-02
 T,EIJ(AB): I=   8 J=   7      0.6007244E-03     -0.5415166E-02
 T,EIJ(AB): I=   8 J=   8      0.1030932E-02     -0.9745360E-02
 T,EIJ(AB): I=   8 J=   9      0.6013033E-03     -0.5418359E-02
 T,EIJ(AB): I=   8 J=  10      0.6597729E-03     -0.5977270E-02
 T,EIJ(AB): I=   8 J=  11      0.4475979E-03     -0.1580004E-02
 T,EIJ(AB): I=   8 J=  12      0.4950813E-03     -0.1741654E-02
 T,EIJ(AB): I=   9 J=   1      0.6584091E-03     -0.5962003E-02
 T,EIJ(AB): I=   9 J=   2      0.6005458E-03     -0.5412279E-02
 T,EIJ(AB): I=   9 J=   3      0.1029637E-02     -0.9734805E-02
 T,EIJ(AB): I=   9 J=   4      0.6006526E-03     -0.5414525E-02
 T,EIJ(AB): I=   9 J=   5      0.6006526E-03     -0.5414525E-02
 T,EIJ(AB): I=   9 J=   6      0.6007244E-03     -0.5415166E-02
 T,EIJ(AB): I=   9 J=   7      0.6007244E-03     -0.5415166E-02
 T,EIJ(AB): I=   9 J=   8      0.6013033E-03     -0.5418359E-02
 T,EIJ(AB): I=   9 J=   9      0.1030932E-02     -0.9745360E-02
 T,EIJ(AB): I=   9 J=  10      0.6597729E-03     -0.5977270E-02
 T,EIJ(AB): I=   9 J=  11      0.4475979E-03     -0.1580004E-02
 T,EIJ(AB): I=   9 J=  12      0.4950813E-03     -0.1741654E-02
 T,EIJ(AB): I=  10 J=   1      0.1028491E-02     -0.9730277E-02
 T,EIJ(AB): I=  10 J=   2      0.6588603E-03     -0.5970629E-02
 T,EIJ(AB): I=  10 J=   3      0.6588603E-03     -0.5970629E-02
 T,EIJ(AB): I=  10 J=   4      0.5725492E-03     -0.5142010E-02
 T,EIJ(AB): I=  10 J=   5      0.5725492E-03     -0.5142010E-02
 T,EIJ(AB): I=  10 J=   6      0.5726475E-03     -0.5142672E-02
 T,EIJ(AB): I=  10 J=   7      0.5726475E-03     -0.5142672E-02
 T,EIJ(AB): I=  10 J=   8      0.6597729E-03     -0.5977270E-02
 T,EIJ(AB): I=  10 J=   9      0.6597729E-03     -0.5977270E-02
 T,EIJ(AB): I=  10 J=  10      0.1030752E-02     -0.9754079E-02
 T,EIJ(AB): I=  10 J=  11      0.4463539E-03     -0.1585348E-02
 T,EIJ(AB): I=  10 J=  12      0.4936785E-03     -0.1735808E-02
 T,EIJ(AB): I=  11 J=   1      0.4677580E-03     -0.1612546E-02
 T,EIJ(AB): I=  11 J=   2      0.4546658E-03     -0.1587996E-02
 T,EIJ(AB): I=  11 J=   3      0.4546658E-03     -0.1587996E-02
 T,EIJ(AB): I=  11 J=   4      0.4419138E-03     -0.1557965E-02
 T,EIJ(AB): I=  11 J=   5      0.4419138E-03     -0.1557965E-02
 T,EIJ(AB): I=  11 J=   6      0.4409944E-03     -0.1557018E-02
 T,EIJ(AB): I=  11 J=   7      0.4409944E-03     -0.1557018E-02
 T,EIJ(AB): I=  11 J=   8      0.4475979E-03     -0.1580004E-02
 T,EIJ(AB): I=  11 J=   9      0.4475979E-03     -0.1580004E-02
 T,EIJ(AB): I=  11 J=  10      0.4463539E-03     -0.1585348E-02
 T,EIJ(AB): I=  11 J=  11      0.1198329E-01     -0.1262429E-01
 T,EIJ(AB): I=  11 J=  12      0.1115512E-01     -0.1189035E-01
 T,EIJ(AB): I=  12 J=   1      0.4889628E-03     -0.1730536E-02
 T,EIJ(AB): I=  12 J=   2      0.4943007E-03     -0.1740412E-02
 T,EIJ(AB): I=  12 J=   3      0.4943007E-03     -0.1740412E-02
 T,EIJ(AB): I=  12 J=   4      0.5027502E-03     -0.1760881E-02
 T,EIJ(AB): I=  12 J=   5      0.5027502E-03     -0.1760881E-02
 T,EIJ(AB): I=  12 J=   6      0.5025368E-03     -0.1760750E-02
 T,EIJ(AB): I=  12 J=   7      0.5025368E-03     -0.1760750E-02
 T,EIJ(AB): I=  12 J=   8      0.4950813E-03     -0.1741654E-02
 T,EIJ(AB): I=  12 J=   9      0.4950813E-03     -0.1741654E-02
 T,EIJ(AB): I=  12 J=  10      0.4936785E-03     -0.1735808E-02
 T,EIJ(AB): I=  12 J=  11      0.1115512E-01     -0.1189035E-01
 T,EIJ(AB): I=  12 J=  12      0.1432609E-01     -0.1426624E-01
 Actual    scratch disk usage=   615472712 words.
 GetIJB would need an additional   316984715 words of memory to use all   8 processors.
 JobTyp=3 Pass  1:  I=   1 to  12 NPSUse=  6 ParTrn=T ParDer=T DoDerP=F.
 T,EIJ(BB): I=   1 J=   2      0.5965060E-03     -0.5507321E-02
 T,EIJ(BB): I=   1 J=   3      0.5965060E-03     -0.5507321E-02
 T,EIJ(BB): I=   1 J=   4      0.3881227E-03     -0.3305140E-02
 T,EIJ(BB): I=   1 J=   5      0.3881227E-03     -0.3305140E-02
 T,EIJ(BB): I=   1 J=   6      0.3881451E-03     -0.3305527E-02
 T,EIJ(BB): I=   1 J=   7      0.3881451E-03     -0.3305527E-02
 T,EIJ(BB): I=   1 J=   8      0.5968306E-03     -0.5512947E-02
 T,EIJ(BB): I=   1 J=   9      0.5968306E-03     -0.5512947E-02
 T,EIJ(BB): I=   1 J=  10      0.4652578E-06     -0.1694342E-05
 T,EIJ(BB): I=   1 J=  11      0.2566895E-03     -0.1074959E-02
 T,EIJ(BB): I=   1 J=  12      0.2794973E-03     -0.1172317E-02
 T,EIJ(BB): I=   2 J=   3      0.4582246E-03     -0.4043133E-02
 T,EIJ(BB): I=   2 J=   4      0.4581046E-03     -0.4044340E-02
 T,EIJ(BB): I=   2 J=   5      0.4581046E-03     -0.4044340E-02
 T,EIJ(BB): I=   2 J=   6      0.4581747E-03     -0.4044908E-02
 T,EIJ(BB): I=   2 J=   7      0.4581747E-03     -0.4044908E-02
 T,EIJ(BB): I=   2 J=   8      0.2044191E-06     -0.8181790E-06
 T,EIJ(BB): I=   2 J=   9      0.4586659E-03     -0.4047647E-02
 T,EIJ(BB): I=   2 J=  10      0.5978192E-03     -0.5522361E-02
 T,EIJ(BB): I=   2 J=  11      0.2558854E-03     -0.1072639E-02
 T,EIJ(BB): I=   2 J=  12      0.2799626E-03     -0.1176935E-02
 T,EIJ(BB): I=   3 J=   4      0.4581046E-03     -0.4044340E-02
 T,EIJ(BB): I=   3 J=   5      0.4581046E-03     -0.4044340E-02
 T,EIJ(BB): I=   3 J=   6      0.4581747E-03     -0.4044908E-02
 T,EIJ(BB): I=   3 J=   7      0.4581747E-03     -0.4044908E-02
 T,EIJ(BB): I=   3 J=   8      0.4586659E-03     -0.4047647E-02
 T,EIJ(BB): I=   3 J=   9      0.2044191E-06     -0.8181790E-06
 T,EIJ(BB): I=   3 J=  10      0.5978192E-03     -0.5522361E-02
 T,EIJ(BB): I=   3 J=  11      0.2558854E-03     -0.1072639E-02
 T,EIJ(BB): I=   3 J=  12      0.2799626E-03     -0.1176935E-02
 T,EIJ(BB): I=   4 J=   5      0.6664823E-03     -0.6252677E-02
 T,EIJ(BB): I=   4 J=   6      0.7330340E-07     -0.3189081E-06
 T,EIJ(BB): I=   4 J=   7      0.6665480E-03     -0.6253411E-02
 T,EIJ(BB): I=   4 J=   8      0.4587461E-03     -0.4049280E-02
 T,EIJ(BB): I=   4 J=   9      0.4587461E-03     -0.4049280E-02
 T,EIJ(BB): I=   4 J=  10      0.3896803E-03     -0.3316044E-02
 T,EIJ(BB): I=   4 J=  11      0.2507843E-03     -0.1055698E-02
 T,EIJ(BB): I=   4 J=  12      0.2843821E-03     -0.1190179E-02
 T,EIJ(BB): I=   5 J=   6      0.6665480E-03     -0.6253411E-02
 T,EIJ(BB): I=   5 J=   7      0.7330340E-07     -0.3189081E-06
 T,EIJ(BB): I=   5 J=   8      0.4587461E-03     -0.4049280E-02
 T,EIJ(BB): I=   5 J=   9      0.4587461E-03     -0.4049280E-02
 T,EIJ(BB): I=   5 J=  10      0.3896803E-03     -0.3316044E-02
 T,EIJ(BB): I=   5 J=  11      0.2507843E-03     -0.1055698E-02
 T,EIJ(BB): I=   5 J=  12      0.2843821E-03     -0.1190179E-02
 T,EIJ(BB): I=   6 J=   7      0.6666289E-03     -0.6254181E-02
 T,EIJ(BB): I=   6 J=   8      0.4588178E-03     -0.4049794E-02
 T,EIJ(BB): I=   6 J=   9      0.4588178E-03     -0.4049794E-02
 T,EIJ(BB): I=   6 J=  10      0.3897525E-03     -0.3316475E-02
 T,EIJ(BB): I=   6 J=  11      0.2521435E-03     -0.1057600E-02
 T,EIJ(BB): I=   6 J=  12      0.2839714E-03     -0.1189656E-02
 T,EIJ(BB): I=   7 J=   8      0.4588178E-03     -0.4049794E-02
 T,EIJ(BB): I=   7 J=   9      0.4588178E-03     -0.4049794E-02
 T,EIJ(BB): I=   7 J=  10      0.3897525E-03     -0.3316475E-02
 T,EIJ(BB): I=   7 J=  11      0.2521435E-03     -0.1057600E-02
 T,EIJ(BB): I=   7 J=  12      0.2839714E-03     -0.1189656E-02
 T,EIJ(BB): I=   8 J=   9      0.4593234E-03     -0.4052404E-02
 T,EIJ(BB): I=   8 J=  10      0.5987531E-03     -0.5528784E-02
 T,EIJ(BB): I=   8 J=  11      0.2618161E-03     -0.1082355E-02
 T,EIJ(BB): I=   8 J=  12      0.2821245E-03     -0.1180732E-02
 T,EIJ(BB): I=   9 J=  10      0.5987531E-03     -0.5528784E-02
 T,EIJ(BB): I=   9 J=  11      0.2618161E-03     -0.1082355E-02
 T,EIJ(BB): I=   9 J=  12      0.2821245E-03     -0.1180732E-02
 T,EIJ(BB): I=  10 J=  11      0.2666309E-03     -0.1093859E-02
 T,EIJ(BB): I=  10 J=  12      0.2814324E-03     -0.1177386E-02
 T,EIJ(BB): I=  11 J=  12      0.7162959E-03     -0.6571764E-03
 Spin components of T(2) and E(2):
     alpha-alpha T2 =       0.2583138458D-01 E2=     -0.1997782510D+00
     alpha-beta  T2 =       0.1373177365D+00 E2=     -0.7558509320D+00
     beta-beta   T2 =       0.2583138458D-01 E2=     -0.1997782510D+00
 ANorm=    0.1090403827D+01
 E2 =    -0.1155407434D+01 EUMP2 =    -0.35568491694795D+04

 Complete Basis Set (CBS) Extrapolation:
 M. R. Nyden and G. A. Petersson, JCP 75, 1843 (1981)
 G. A. Petersson and M. A. Al-Laham, JCP 94, 6081 (1991)
 G. A. Petersson, T. Tensfeldt, and J. A. Montgomery, JCP 94, 6091 (1991)
 J. A. Montgomery, J. W. Ochterski, and G. A. Petersson, JCP 101, 5900 (1994)
 
 Minimum Number of PNO for Extrapolation =  15
 Absolute Overlaps: IRadAn =         5
 LocTrn: ILocal=3 LocCor=F DoCore=F.
 Entering OneElI...
 Overlap between basis sets.
 Requested accuracy = 0.1000D-12
 PrsmSu:  NPrtUS=   1 ThrOK=F IAlg=1 NPAlg=1 LenDen=           0.
 Prism:   IPart=     0 DynPar=F LinDyn=F Incr=           1.
 PRISM was handed  1610040509 working-precision words and    76 shell-pairs
 IPart=  0 NShTot=          76 NBatch=          13 AvBLen=         5.8
 PrSmSu:  NxtVal=              2.
 CnvPC2: ToCart=F DoDens=F IPureD=0 IPureF=0.
 Transformed matrix in CnvPC2: 
                 1             2             3             4             5 
      1   0.100000D+01  0.397781D+00  0.000000D+00  0.000000D+00  0.000000D+00
      2   0.397781D+00  0.100000D+01  0.000000D+00  0.000000D+00  0.000000D+00
      3   0.000000D+00  0.000000D+00  0.100000D+01  0.000000D+00  0.000000D+00
      4   0.000000D+00  0.000000D+00  0.000000D+00  0.100000D+01  0.000000D+00
      5   0.000000D+00  0.000000D+00  0.000000D+00  0.000000D+00  0.100000D+01
      6   0.273329D-01  0.326933D+00  0.000000D+00  0.000000D+00  0.000000D+00
      7   0.000000D+00  0.000000D+00  0.339871D+00  0.000000D+00  0.000000D+00
      8   0.000000D+00  0.000000D+00  0.000000D+00  0.339871D+00  0.000000D+00
      9   0.000000D+00  0.000000D+00  0.000000D+00  0.000000D+00  0.339871D+00
     10   0.000000D+00  0.000000D+00  0.000000D+00  0.000000D+00  0.000000D+00
     11   0.000000D+00  0.000000D+00  0.000000D+00  0.000000D+00  0.000000D+00
     12   0.000000D+00  0.000000D+00  0.000000D+00  0.000000D+00  0.000000D+00
     13   0.000000D+00  0.000000D+00  0.000000D+00  0.000000D+00  0.000000D+00
     14   0.000000D+00  0.000000D+00  0.000000D+00  0.000000D+00  0.000000D+00
     15  -0.379176D-03  0.483794D-02  0.000000D+00  0.000000D+00  0.000000D+00
     16   0.000000D+00  0.000000D+00  0.130039D-01  0.000000D+00  0.000000D+00
     17   0.000000D+00  0.000000D+00  0.000000D+00  0.130039D-01  0.000000D+00
     18   0.000000D+00  0.000000D+00  0.000000D+00  0.000000D+00  0.130039D-01
     19   0.000000D+00  0.000000D+00  0.000000D+00  0.000000D+00  0.000000D+00
     20   0.000000D+00  0.000000D+00  0.000000D+00  0.000000D+00  0.000000D+00
     21   0.000000D+00  0.000000D+00  0.000000D+00  0.000000D+00  0.000000D+00
     22   0.000000D+00  0.000000D+00  0.000000D+00  0.000000D+00  0.000000D+00
     23   0.000000D+00  0.000000D+00  0.000000D+00  0.000000D+00  0.000000D+00
     24   0.000000D+00  0.000000D+00  0.000000D+00  0.000000D+00  0.000000D+00
     25   0.000000D+00  0.000000D+00  0.000000D+00  0.000000D+00  0.000000D+00
     26   0.000000D+00  0.000000D+00  0.000000D+00  0.000000D+00  0.000000D+00
     27   0.000000D+00  0.000000D+00  0.000000D+00  0.000000D+00  0.000000D+00
     28   0.000000D+00  0.000000D+00  0.000000D+00  0.000000D+00  0.000000D+00
     29   0.000000D+00  0.000000D+00  0.000000D+00  0.000000D+00  0.000000D+00
     30   0.000000D+00  0.000000D+00  0.000000D+00  0.000000D+00  0.000000D+00
     31   0.000000D+00  0.000000D+00  0.000000D+00  0.000000D+00  0.000000D+00
     32   0.000000D+00  0.000000D+00  0.000000D+00  0.000000D+00  0.000000D+00
     33   0.772375D-05  0.508838D-04  0.000000D+00  0.000000D+00 -0.196435D-04
     34   0.000000D+00  0.000000D+00  0.345069D-05  0.000000D+00  0.000000D+00
     35   0.000000D+00  0.000000D+00  0.000000D+00  0.345069D-05  0.000000D+00
     36   0.207710D-04  0.135529D-03  0.000000D+00  0.000000D+00 -0.489316D-04
                 6             7             8             9            10 
      1   0.273329D-01  0.000000D+00  0.000000D+00  0.000000D+00  0.000000D+00
      2   0.326933D+00  0.000000D+00  0.000000D+00  0.000000D+00  0.000000D+00
      3   0.000000D+00  0.339871D+00  0.000000D+00  0.000000D+00  0.000000D+00
      4   0.000000D+00  0.000000D+00  0.339871D+00  0.000000D+00  0.000000D+00
      5   0.000000D+00  0.000000D+00  0.000000D+00  0.339871D+00  0.000000D+00
      6   0.100000D+01  0.000000D+00  0.000000D+00  0.000000D+00  0.000000D+00
      7   0.000000D+00  0.100000D+01  0.000000D+00  0.000000D+00  0.000000D+00
      8   0.000000D+00  0.000000D+00  0.100000D+01  0.000000D+00  0.000000D+00
      9   0.000000D+00  0.000000D+00  0.000000D+00  0.100000D+01  0.000000D+00
     10   0.000000D+00  0.000000D+00  0.000000D+00  0.000000D+00  0.100000D+01
     11   0.000000D+00  0.000000D+00  0.000000D+00  0.000000D+00  0.000000D+00
     12   0.000000D+00  0.000000D+00  0.000000D+00  0.000000D+00  0.000000D+00
     13   0.000000D+00  0.000000D+00  0.000000D+00  0.000000D+00  0.000000D+00
     14   0.000000D+00  0.000000D+00  0.000000D+00  0.000000D+00  0.000000D+00
     15   0.204897D+00  0.000000D+00  0.000000D+00  0.000000D+00  0.000000D+00
     16   0.000000D+00  0.221280D+00  0.000000D+00  0.000000D+00  0.000000D+00
     17   0.000000D+00  0.000000D+00  0.221280D+00  0.000000D+00  0.000000D+00
     18   0.000000D+00  0.000000D+00  0.000000D+00  0.221280D+00  0.000000D+00
     19   0.000000D+00  0.000000D+00  0.000000D+00  0.000000D+00  0.000000D+00
     20   0.000000D+00  0.000000D+00  0.000000D+00  0.000000D+00  0.000000D+00
     21   0.000000D+00  0.000000D+00  0.000000D+00  0.000000D+00  0.000000D+00
     22   0.000000D+00  0.000000D+00  0.000000D+00  0.000000D+00  0.000000D+00
     23   0.000000D+00  0.000000D+00  0.000000D+00  0.000000D+00  0.000000D+00
     24   0.000000D+00  0.000000D+00  0.000000D+00  0.000000D+00  0.000000D+00
     25   0.000000D+00  0.000000D+00  0.000000D+00  0.000000D+00  0.000000D+00
     26   0.000000D+00  0.000000D+00  0.000000D+00  0.000000D+00  0.000000D+00
     27   0.000000D+00  0.000000D+00  0.000000D+00  0.000000D+00  0.000000D+00
     28   0.000000D+00  0.000000D+00  0.000000D+00  0.000000D+00  0.000000D+00
     29   0.000000D+00  0.000000D+00  0.000000D+00  0.000000D+00  0.000000D+00
     30   0.000000D+00  0.000000D+00  0.000000D+00  0.000000D+00  0.000000D+00
     31   0.000000D+00  0.000000D+00  0.000000D+00  0.000000D+00  0.000000D+00
     32   0.000000D+00  0.000000D+00  0.000000D+00  0.000000D+00  0.000000D+00
     33   0.450449D-03  0.000000D+00  0.000000D+00 -0.460467D-03  0.337663D-03
     34   0.000000D+00  0.809818D-04  0.000000D+00  0.000000D+00  0.000000D+00
     35   0.000000D+00  0.000000D+00  0.809818D-04  0.000000D+00  0.000000D+00
     36   0.110614D-02  0.000000D+00  0.000000D+00 -0.106328D-02  0.717946D-03
                11            12            13            14            15 
      1   0.000000D+00  0.000000D+00  0.000000D+00  0.000000D+00 -0.379176D-03
      2   0.000000D+00  0.000000D+00  0.000000D+00  0.000000D+00  0.483794D-02
      3   0.000000D+00  0.000000D+00  0.000000D+00  0.000000D+00  0.000000D+00
      4   0.000000D+00  0.000000D+00  0.000000D+00  0.000000D+00  0.000000D+00
      5   0.000000D+00  0.000000D+00  0.000000D+00  0.000000D+00  0.000000D+00
      6   0.000000D+00  0.000000D+00  0.000000D+00  0.000000D+00  0.204897D+00
      7   0.000000D+00  0.000000D+00  0.000000D+00  0.000000D+00  0.000000D+00
      8   0.000000D+00  0.000000D+00  0.000000D+00  0.000000D+00  0.000000D+00
      9   0.000000D+00  0.000000D+00  0.000000D+00  0.000000D+00  0.000000D+00
     10   0.000000D+00  0.000000D+00  0.000000D+00  0.000000D+00  0.000000D+00
     11   0.100000D+01  0.000000D+00  0.000000D+00  0.000000D+00  0.000000D+00
     12   0.000000D+00  0.100000D+01  0.000000D+00  0.000000D+00  0.000000D+00
     13   0.000000D+00  0.000000D+00  0.100000D+01  0.000000D+00  0.000000D+00
     14   0.000000D+00  0.000000D+00  0.000000D+00  0.100000D+01  0.000000D+00
     15   0.000000D+00  0.000000D+00  0.000000D+00  0.000000D+00  0.100000D+01
     16   0.000000D+00  0.000000D+00  0.000000D+00  0.000000D+00  0.000000D+00
     17   0.000000D+00  0.000000D+00  0.000000D+00  0.000000D+00  0.000000D+00
     18   0.000000D+00  0.000000D+00  0.000000D+00  0.000000D+00  0.000000D+00
     19   0.000000D+00  0.000000D+00  0.000000D+00  0.000000D+00  0.772375D-05
     20   0.000000D+00  0.000000D+00  0.000000D+00  0.000000D+00  0.508838D-04
     21   0.000000D+00  0.000000D+00  0.000000D+00  0.000000D+00  0.000000D+00
     22   0.000000D+00  0.000000D+00  0.000000D+00  0.000000D+00  0.000000D+00
     23   0.000000D+00  0.000000D+00  0.000000D+00  0.000000D+00  0.196435D-04
     24   0.000000D+00  0.000000D+00  0.000000D+00  0.000000D+00  0.450449D-03
     25   0.000000D+00  0.000000D+00  0.000000D+00  0.000000D+00  0.000000D+00
     26   0.000000D+00  0.000000D+00  0.000000D+00  0.000000D+00  0.000000D+00
     27   0.000000D+00  0.000000D+00  0.000000D+00  0.000000D+00  0.460467D-03
     28   0.000000D+00  0.000000D+00  0.000000D+00  0.000000D+00  0.337663D-03
     29   0.000000D+00  0.000000D+00  0.000000D+00  0.000000D+00  0.000000D+00
     30   0.000000D+00  0.000000D+00  0.000000D+00  0.000000D+00  0.000000D+00
     31   0.000000D+00  0.000000D+00  0.000000D+00  0.000000D+00  0.000000D+00
     32   0.000000D+00  0.000000D+00  0.000000D+00  0.000000D+00  0.000000D+00
     33   0.000000D+00  0.000000D+00  0.000000D+00  0.000000D+00  0.273593D-01
     34  -0.103051D-03  0.000000D+00  0.000000D+00  0.000000D+00  0.000000D+00
     35   0.000000D+00 -0.103051D-03  0.000000D+00  0.000000D+00  0.000000D+00
     36   0.000000D+00  0.000000D+00  0.000000D+00  0.000000D+00  0.438180D-01
                16            17            18            19            20 
      1   0.000000D+00  0.000000D+00  0.000000D+00  0.000000D+00  0.000000D+00
      2   0.000000D+00  0.000000D+00  0.000000D+00  0.000000D+00  0.000000D+00
      3   0.130039D-01  0.000000D+00  0.000000D+00  0.000000D+00  0.000000D+00
      4   0.000000D+00  0.130039D-01  0.000000D+00  0.000000D+00  0.000000D+00
      5   0.000000D+00  0.000000D+00  0.130039D-01  0.000000D+00  0.000000D+00
      6   0.000000D+00  0.000000D+00  0.000000D+00  0.000000D+00  0.000000D+00
      7   0.221280D+00  0.000000D+00  0.000000D+00  0.000000D+00  0.000000D+00
      8   0.000000D+00  0.221280D+00  0.000000D+00  0.000000D+00  0.000000D+00
      9   0.000000D+00  0.000000D+00  0.221280D+00  0.000000D+00  0.000000D+00
     10   0.000000D+00  0.000000D+00  0.000000D+00  0.000000D+00  0.000000D+00
     11   0.000000D+00  0.000000D+00  0.000000D+00  0.000000D+00  0.000000D+00
     12   0.000000D+00  0.000000D+00  0.000000D+00  0.000000D+00  0.000000D+00
     13   0.000000D+00  0.000000D+00  0.000000D+00  0.000000D+00  0.000000D+00
     14   0.000000D+00  0.000000D+00  0.000000D+00  0.000000D+00  0.000000D+00
     15   0.000000D+00  0.000000D+00  0.000000D+00  0.772375D-05  0.508838D-04
     16   0.100000D+01  0.000000D+00  0.000000D+00  0.000000D+00  0.000000D+00
     17   0.000000D+00  0.100000D+01  0.000000D+00  0.000000D+00  0.000000D+00
     18   0.000000D+00  0.000000D+00  0.100000D+01 -0.207710D-04 -0.135529D-03
     19   0.000000D+00  0.000000D+00 -0.207710D-04  0.100000D+01  0.397781D+00
     20   0.000000D+00  0.000000D+00 -0.135529D-03  0.397781D+00  0.100000D+01
     21   0.345069D-05  0.000000D+00  0.000000D+00  0.000000D+00  0.000000D+00
     22   0.000000D+00  0.345069D-05  0.000000D+00  0.000000D+00  0.000000D+00
     23   0.000000D+00  0.000000D+00 -0.489316D-04  0.000000D+00  0.000000D+00
     24   0.000000D+00  0.000000D+00 -0.110614D-02  0.273329D-01  0.326933D+00
     25   0.809818D-04  0.000000D+00  0.000000D+00  0.000000D+00  0.000000D+00
     26   0.000000D+00  0.809818D-04  0.000000D+00  0.000000D+00  0.000000D+00
     27   0.000000D+00  0.000000D+00 -0.106328D-02  0.000000D+00  0.000000D+00
     28   0.000000D+00  0.000000D+00 -0.717946D-03  0.000000D+00  0.000000D+00
     29   0.103051D-03  0.000000D+00  0.000000D+00  0.000000D+00  0.000000D+00
     30   0.000000D+00  0.103051D-03  0.000000D+00  0.000000D+00  0.000000D+00
     31   0.000000D+00  0.000000D+00  0.000000D+00  0.000000D+00  0.000000D+00
     32   0.000000D+00  0.000000D+00  0.000000D+00  0.000000D+00  0.000000D+00
     33   0.000000D+00  0.000000D+00 -0.438180D-01 -0.379176D-03  0.483794D-02
     34   0.905439D-02  0.000000D+00  0.000000D+00  0.000000D+00  0.000000D+00
     35   0.000000D+00  0.905439D-02  0.000000D+00  0.000000D+00  0.000000D+00
     36   0.000000D+00  0.000000D+00 -0.679418D-01  0.000000D+00  0.000000D+00
                21            22            23            24            25 
      1   0.000000D+00  0.000000D+00  0.000000D+00  0.000000D+00  0.000000D+00
      2   0.000000D+00  0.000000D+00  0.000000D+00  0.000000D+00  0.000000D+00
      3   0.000000D+00  0.000000D+00  0.000000D+00  0.000000D+00  0.000000D+00
      4   0.000000D+00  0.000000D+00  0.000000D+00  0.000000D+00  0.000000D+00
      5   0.000000D+00  0.000000D+00  0.000000D+00  0.000000D+00  0.000000D+00
      6   0.000000D+00  0.000000D+00  0.000000D+00  0.000000D+00  0.000000D+00
      7   0.000000D+00  0.000000D+00  0.000000D+00  0.000000D+00  0.000000D+00
      8   0.000000D+00  0.000000D+00  0.000000D+00  0.000000D+00  0.000000D+00
      9   0.000000D+00  0.000000D+00  0.000000D+00  0.000000D+00  0.000000D+00
     10   0.000000D+00  0.000000D+00  0.000000D+00  0.000000D+00  0.000000D+00
     11   0.000000D+00  0.000000D+00  0.000000D+00  0.000000D+00  0.000000D+00
     12   0.000000D+00  0.000000D+00  0.000000D+00  0.000000D+00  0.000000D+00
     13   0.000000D+00  0.000000D+00  0.000000D+00  0.000000D+00  0.000000D+00
     14   0.000000D+00  0.000000D+00  0.000000D+00  0.000000D+00  0.000000D+00
     15   0.000000D+00  0.000000D+00  0.196435D-04  0.450449D-03  0.000000D+00
     16   0.345069D-05  0.000000D+00  0.000000D+00  0.000000D+00  0.809818D-04
     17   0.000000D+00  0.345069D-05  0.000000D+00  0.000000D+00  0.000000D+00
     18   0.000000D+00  0.000000D+00 -0.489316D-04 -0.110614D-02  0.000000D+00
     19   0.000000D+00  0.000000D+00  0.000000D+00  0.273329D-01  0.000000D+00
     20   0.000000D+00  0.000000D+00  0.000000D+00  0.326933D+00  0.000000D+00
     21   0.100000D+01  0.000000D+00  0.000000D+00  0.000000D+00  0.339871D+00
     22   0.000000D+00  0.100000D+01  0.000000D+00  0.000000D+00  0.000000D+00
     23   0.000000D+00  0.000000D+00  0.100000D+01  0.000000D+00  0.000000D+00
     24   0.000000D+00  0.000000D+00  0.000000D+00  0.100000D+01  0.000000D+00
     25   0.339871D+00  0.000000D+00  0.000000D+00  0.000000D+00  0.100000D+01
     26   0.000000D+00  0.339871D+00  0.000000D+00  0.000000D+00  0.000000D+00
     27   0.000000D+00  0.000000D+00  0.339871D+00  0.000000D+00  0.000000D+00
     28   0.000000D+00  0.000000D+00  0.000000D+00  0.000000D+00  0.000000D+00
     29   0.000000D+00  0.000000D+00  0.000000D+00  0.000000D+00  0.000000D+00
     30   0.000000D+00  0.000000D+00  0.000000D+00  0.000000D+00  0.000000D+00
     31   0.000000D+00  0.000000D+00  0.000000D+00  0.000000D+00  0.000000D+00
     32   0.000000D+00  0.000000D+00  0.000000D+00  0.000000D+00  0.000000D+00
     33   0.000000D+00  0.000000D+00  0.000000D+00  0.204897D+00  0.000000D+00
     34   0.130039D-01  0.000000D+00  0.000000D+00  0.000000D+00  0.221280D+00
     35   0.000000D+00  0.130039D-01  0.000000D+00  0.000000D+00  0.000000D+00
     36   0.000000D+00  0.000000D+00  0.130039D-01  0.000000D+00  0.000000D+00
                26            27            28            29            30 
      1   0.000000D+00  0.000000D+00  0.000000D+00  0.000000D+00  0.000000D+00
      2   0.000000D+00  0.000000D+00  0.000000D+00  0.000000D+00  0.000000D+00
      3   0.000000D+00  0.000000D+00  0.000000D+00  0.000000D+00  0.000000D+00
      4   0.000000D+00  0.000000D+00  0.000000D+00  0.000000D+00  0.000000D+00
      5   0.000000D+00  0.000000D+00  0.000000D+00  0.000000D+00  0.000000D+00
      6   0.000000D+00  0.000000D+00  0.000000D+00  0.000000D+00  0.000000D+00
      7   0.000000D+00  0.000000D+00  0.000000D+00  0.000000D+00  0.000000D+00
      8   0.000000D+00  0.000000D+00  0.000000D+00  0.000000D+00  0.000000D+00
      9   0.000000D+00  0.000000D+00  0.000000D+00  0.000000D+00  0.000000D+00
     10   0.000000D+00  0.000000D+00  0.000000D+00  0.000000D+00  0.000000D+00
     11   0.000000D+00  0.000000D+00  0.000000D+00  0.000000D+00  0.000000D+00
     12   0.000000D+00  0.000000D+00  0.000000D+00  0.000000D+00  0.000000D+00
     13   0.000000D+00  0.000000D+00  0.000000D+00  0.000000D+00  0.000000D+00
     14   0.000000D+00  0.000000D+00  0.000000D+00  0.000000D+00  0.000000D+00
     15   0.000000D+00  0.460467D-03  0.337663D-03  0.000000D+00  0.000000D+00
     16   0.000000D+00  0.000000D+00  0.000000D+00  0.103051D-03  0.000000D+00
     17   0.809818D-04  0.000000D+00  0.000000D+00  0.000000D+00  0.103051D-03
     18   0.000000D+00 -0.106328D-02 -0.717946D-03  0.000000D+00  0.000000D+00
     19   0.000000D+00  0.000000D+00  0.000000D+00  0.000000D+00  0.000000D+00
     20   0.000000D+00  0.000000D+00  0.000000D+00  0.000000D+00  0.000000D+00
     21   0.000000D+00  0.000000D+00  0.000000D+00  0.000000D+00  0.000000D+00
     22   0.339871D+00  0.000000D+00  0.000000D+00  0.000000D+00  0.000000D+00
     23   0.000000D+00  0.339871D+00  0.000000D+00  0.000000D+00  0.000000D+00
     24   0.000000D+00  0.000000D+00  0.000000D+00  0.000000D+00  0.000000D+00
     25   0.000000D+00  0.000000D+00  0.000000D+00  0.000000D+00  0.000000D+00
     26   0.100000D+01  0.000000D+00  0.000000D+00  0.000000D+00  0.000000D+00
     27   0.000000D+00  0.100000D+01  0.000000D+00  0.000000D+00  0.000000D+00
     28   0.000000D+00  0.000000D+00  0.100000D+01  0.000000D+00  0.000000D+00
     29   0.000000D+00  0.000000D+00  0.000000D+00  0.100000D+01  0.000000D+00
     30   0.000000D+00  0.000000D+00  0.000000D+00  0.000000D+00  0.100000D+01
     31   0.000000D+00  0.000000D+00  0.000000D+00  0.000000D+00  0.000000D+00
     32   0.000000D+00  0.000000D+00  0.000000D+00  0.000000D+00  0.000000D+00
     33   0.000000D+00  0.000000D+00  0.000000D+00  0.000000D+00  0.000000D+00
     34   0.000000D+00  0.000000D+00  0.000000D+00  0.000000D+00  0.000000D+00
     35   0.221280D+00  0.000000D+00  0.000000D+00  0.000000D+00  0.000000D+00
     36   0.000000D+00  0.221280D+00  0.000000D+00  0.000000D+00  0.000000D+00
                31            32            33            34            35 
      1   0.000000D+00  0.000000D+00  0.772375D-05  0.000000D+00  0.000000D+00
      2   0.000000D+00  0.000000D+00  0.508838D-04  0.000000D+00  0.000000D+00
      3   0.000000D+00  0.000000D+00  0.000000D+00  0.345069D-05  0.000000D+00
      4   0.000000D+00  0.000000D+00  0.000000D+00  0.000000D+00  0.345069D-05
      5   0.000000D+00  0.000000D+00 -0.196435D-04  0.000000D+00  0.000000D+00
      6   0.000000D+00  0.000000D+00  0.450449D-03  0.000000D+00  0.000000D+00
      7   0.000000D+00  0.000000D+00  0.000000D+00  0.809818D-04  0.000000D+00
      8   0.000000D+00  0.000000D+00  0.000000D+00  0.000000D+00  0.809818D-04
      9   0.000000D+00  0.000000D+00 -0.460467D-03  0.000000D+00  0.000000D+00
     10   0.000000D+00  0.000000D+00  0.337663D-03  0.000000D+00  0.000000D+00
     11   0.000000D+00  0.000000D+00  0.000000D+00 -0.103051D-03  0.000000D+00
     12   0.000000D+00  0.000000D+00  0.000000D+00  0.000000D+00 -0.103051D-03
     13   0.000000D+00  0.000000D+00  0.000000D+00  0.000000D+00  0.000000D+00
     14   0.000000D+00  0.000000D+00  0.000000D+00  0.000000D+00  0.000000D+00
     15   0.000000D+00  0.000000D+00  0.273593D-01  0.000000D+00  0.000000D+00
     16   0.000000D+00  0.000000D+00  0.000000D+00  0.905439D-02  0.000000D+00
     17   0.000000D+00  0.000000D+00  0.000000D+00  0.000000D+00  0.905439D-02
     18   0.000000D+00  0.000000D+00 -0.438180D-01  0.000000D+00  0.000000D+00
     19   0.000000D+00  0.000000D+00 -0.379176D-03  0.000000D+00  0.000000D+00
     20   0.000000D+00  0.000000D+00  0.483794D-02  0.000000D+00  0.000000D+00
     21   0.000000D+00  0.000000D+00  0.000000D+00  0.130039D-01  0.000000D+00
     22   0.000000D+00  0.000000D+00  0.000000D+00  0.000000D+00  0.130039D-01
     23   0.000000D+00  0.000000D+00  0.000000D+00  0.000000D+00  0.000000D+00
     24   0.000000D+00  0.000000D+00  0.204897D+00  0.000000D+00  0.000000D+00
     25   0.000000D+00  0.000000D+00  0.000000D+00  0.221280D+00  0.000000D+00
     26   0.000000D+00  0.000000D+00  0.000000D+00  0.000000D+00  0.221280D+00
     27   0.000000D+00  0.000000D+00  0.000000D+00  0.000000D+00  0.000000D+00
     28   0.000000D+00  0.000000D+00  0.000000D+00  0.000000D+00  0.000000D+00
     29   0.000000D+00  0.000000D+00  0.000000D+00  0.000000D+00  0.000000D+00
     30   0.000000D+00  0.000000D+00  0.000000D+00  0.000000D+00  0.000000D+00
     31   0.100000D+01  0.000000D+00  0.000000D+00  0.000000D+00  0.000000D+00
     32   0.000000D+00  0.100000D+01  0.000000D+00  0.000000D+00  0.000000D+00
     33   0.000000D+00  0.000000D+00  0.100000D+01  0.000000D+00  0.000000D+00
     34   0.000000D+00  0.000000D+00  0.000000D+00  0.100000D+01  0.000000D+00
     35   0.000000D+00  0.000000D+00  0.000000D+00  0.000000D+00  0.100000D+01
     36   0.000000D+00  0.000000D+00  0.000000D+00  0.000000D+00  0.000000D+00
                36 
      1   0.207710D-04
      2   0.135529D-03
      3   0.000000D+00
      4   0.000000D+00
      5  -0.489316D-04
      6   0.110614D-02
      7   0.000000D+00
      8   0.000000D+00
      9  -0.106328D-02
     10   0.717946D-03
     11   0.000000D+00
     12   0.000000D+00
     13   0.000000D+00
     14   0.000000D+00
     15   0.438180D-01
     16   0.000000D+00
     17   0.000000D+00
     18  -0.679418D-01
     19   0.000000D+00
     20   0.000000D+00
     21   0.000000D+00
     22   0.000000D+00
     23   0.130039D-01
     24   0.000000D+00
     25   0.000000D+00
     26   0.000000D+00
     27   0.221280D+00
     28   0.000000D+00
     29   0.000000D+00
     30   0.000000D+00
     31   0.000000D+00
     32   0.000000D+00
     33   0.000000D+00
     34   0.000000D+00
     35   0.000000D+00
     36   0.100000D+01
 Entering OneElI...
 Overlap between basis sets.
 Requested accuracy = 0.1000D-12
 PrsmSu:  NPrtUS=   1 ThrOK=F IAlg=1 NPAlg=1 LenDen=           0.
 Prism:   IPart=     0 DynPar=F LinDyn=F Incr=           6.
 PRISM was handed  1609604134 working-precision words and   610 shell-pairs
 IPart=  0 NShTot=         610 NBatch=          82 AvBLen=         7.4
 PrSmSu:  NxtVal=              7.
 CnvPC2: ToCart=F DoDens=F IPureD=0 IPureF=0.
 Transformed matrix in CnvPC2: 
                 1             2             3             4             5 
      1   0.999786D+00  0.407039D+00  0.000000D+00  0.000000D+00  0.000000D+00
      2   0.286168D+00  0.988733D+00  0.000000D+00  0.000000D+00  0.000000D+00
      3   0.000000D+00  0.000000D+00  0.999208D+00  0.000000D+00  0.000000D+00
      4   0.000000D+00  0.000000D+00  0.000000D+00  0.999208D+00  0.000000D+00
      5   0.000000D+00  0.000000D+00  0.000000D+00  0.000000D+00  0.999208D+00
      6   0.127943D-01  0.316622D+00  0.000000D+00  0.000000D+00  0.000000D+00
      7   0.000000D+00  0.000000D+00  0.332387D+00  0.000000D+00  0.000000D+00
      8   0.000000D+00  0.000000D+00  0.000000D+00  0.332387D+00  0.000000D+00
      9   0.000000D+00  0.000000D+00  0.000000D+00  0.000000D+00  0.332387D+00
     10   0.000000D+00  0.000000D+00  0.000000D+00  0.000000D+00  0.000000D+00
     11   0.000000D+00  0.000000D+00  0.000000D+00  0.000000D+00  0.000000D+00
     12   0.000000D+00  0.000000D+00  0.000000D+00  0.000000D+00  0.000000D+00
     13   0.000000D+00  0.000000D+00  0.000000D+00  0.000000D+00  0.000000D+00
     14   0.000000D+00  0.000000D+00  0.000000D+00  0.000000D+00  0.000000D+00
     15  -0.157759D-03  0.246013D-02  0.000000D+00  0.000000D+00  0.000000D+00
     16   0.290438D-02  0.180068D-01  0.000000D+00  0.000000D+00  0.000000D+00
     17   0.000000D+00  0.000000D+00 -0.219735D-01  0.000000D+00  0.000000D+00
     18   0.000000D+00  0.000000D+00  0.000000D+00 -0.219735D-01  0.000000D+00
     19   0.000000D+00  0.000000D+00  0.000000D+00  0.000000D+00 -0.219735D-01
     20   0.177680D+00  0.765640D+00  0.000000D+00  0.000000D+00  0.000000D+00
     21   0.900554D-01  0.477461D+00  0.000000D+00  0.000000D+00  0.000000D+00
     22   0.447974D-01  0.260878D+00  0.000000D+00  0.000000D+00  0.000000D+00
     23   0.221180D-01  0.133913D+00  0.000000D+00  0.000000D+00  0.000000D+00
     24   0.000000D+00  0.000000D+00  0.348254D+00  0.000000D+00  0.000000D+00
     25   0.000000D+00  0.000000D+00  0.000000D+00  0.348254D+00  0.000000D+00
     26   0.000000D+00  0.000000D+00  0.000000D+00  0.000000D+00  0.348254D+00
     27   0.000000D+00  0.000000D+00  0.146460D+00  0.000000D+00  0.000000D+00
     28   0.000000D+00  0.000000D+00  0.000000D+00  0.146460D+00  0.000000D+00
     29   0.000000D+00  0.000000D+00  0.000000D+00  0.000000D+00  0.146460D+00
     30   0.000000D+00  0.000000D+00  0.541173D-01  0.000000D+00  0.000000D+00
     31   0.000000D+00  0.000000D+00  0.000000D+00  0.541173D-01  0.000000D+00
     32   0.000000D+00  0.000000D+00  0.000000D+00  0.000000D+00  0.541173D-01
     33   0.000000D+00  0.000000D+00  0.187835D-01  0.000000D+00  0.000000D+00
     34   0.000000D+00  0.000000D+00  0.000000D+00  0.187835D-01  0.000000D+00
     35   0.000000D+00  0.000000D+00  0.000000D+00  0.000000D+00  0.187835D-01
     36   0.000000D+00  0.000000D+00  0.634146D-02  0.000000D+00  0.000000D+00
     37   0.000000D+00  0.000000D+00  0.000000D+00  0.634146D-02  0.000000D+00
     38   0.000000D+00  0.000000D+00  0.000000D+00  0.000000D+00  0.634146D-02
     39   0.000000D+00  0.000000D+00  0.000000D+00  0.000000D+00  0.000000D+00
     40   0.000000D+00  0.000000D+00  0.000000D+00  0.000000D+00  0.000000D+00
     41   0.000000D+00  0.000000D+00  0.000000D+00  0.000000D+00  0.000000D+00
     42   0.000000D+00  0.000000D+00  0.000000D+00  0.000000D+00  0.000000D+00
     43   0.000000D+00  0.000000D+00  0.000000D+00  0.000000D+00  0.000000D+00
     44   0.000000D+00  0.000000D+00  0.000000D+00  0.000000D+00  0.000000D+00
     45   0.000000D+00  0.000000D+00  0.000000D+00  0.000000D+00  0.000000D+00
     46   0.000000D+00  0.000000D+00  0.000000D+00  0.000000D+00  0.000000D+00
     47   0.000000D+00  0.000000D+00  0.000000D+00  0.000000D+00  0.000000D+00
     48   0.000000D+00  0.000000D+00  0.000000D+00  0.000000D+00  0.000000D+00
     49   0.000000D+00  0.000000D+00  0.000000D+00  0.000000D+00  0.000000D+00
     50   0.000000D+00  0.000000D+00  0.000000D+00  0.000000D+00  0.000000D+00
     51   0.000000D+00  0.000000D+00  0.000000D+00  0.000000D+00  0.000000D+00
     52   0.000000D+00  0.000000D+00  0.000000D+00  0.000000D+00  0.000000D+00
     53   0.000000D+00  0.000000D+00  0.000000D+00  0.000000D+00  0.000000D+00
     54   0.000000D+00  0.000000D+00  0.000000D+00  0.000000D+00  0.000000D+00
     55   0.000000D+00  0.000000D+00  0.000000D+00  0.000000D+00  0.000000D+00
     56   0.000000D+00  0.000000D+00  0.000000D+00  0.000000D+00  0.000000D+00
     57   0.000000D+00  0.000000D+00  0.000000D+00  0.000000D+00  0.000000D+00
     58   0.000000D+00  0.000000D+00  0.000000D+00  0.000000D+00  0.000000D+00
     59   0.000000D+00  0.000000D+00  0.000000D+00  0.000000D+00  0.000000D+00
     60   0.000000D+00  0.000000D+00  0.000000D+00  0.000000D+00  0.000000D+00
     61   0.000000D+00  0.000000D+00  0.000000D+00  0.000000D+00  0.000000D+00
     62   0.000000D+00  0.000000D+00  0.000000D+00  0.000000D+00  0.000000D+00
     63   0.000000D+00  0.000000D+00  0.000000D+00  0.000000D+00  0.000000D+00
     64   0.000000D+00  0.000000D+00  0.000000D+00  0.000000D+00  0.000000D+00
     65   0.000000D+00  0.000000D+00  0.000000D+00  0.000000D+00  0.000000D+00
     66   0.000000D+00  0.000000D+00  0.000000D+00  0.000000D+00  0.000000D+00
     67   0.000000D+00  0.000000D+00  0.000000D+00  0.000000D+00  0.000000D+00
     68   0.000000D+00  0.000000D+00  0.000000D+00  0.000000D+00  0.000000D+00
     69   0.000000D+00  0.000000D+00  0.000000D+00  0.000000D+00  0.000000D+00
     70   0.000000D+00  0.000000D+00  0.000000D+00  0.000000D+00  0.000000D+00
     71   0.000000D+00  0.000000D+00  0.000000D+00  0.000000D+00  0.000000D+00
     72   0.000000D+00  0.000000D+00  0.000000D+00  0.000000D+00  0.000000D+00
     73   0.000000D+00  0.000000D+00  0.000000D+00  0.000000D+00  0.000000D+00
     74   0.000000D+00  0.000000D+00  0.000000D+00  0.000000D+00  0.000000D+00
     75   0.000000D+00  0.000000D+00  0.000000D+00  0.000000D+00  0.000000D+00
     76   0.000000D+00  0.000000D+00  0.000000D+00  0.000000D+00  0.000000D+00
     77   0.000000D+00  0.000000D+00  0.000000D+00  0.000000D+00  0.000000D+00
     78   0.000000D+00  0.000000D+00  0.000000D+00  0.000000D+00  0.000000D+00
     79   0.000000D+00  0.000000D+00  0.000000D+00  0.000000D+00  0.000000D+00
     80   0.000000D+00  0.000000D+00  0.000000D+00  0.000000D+00  0.000000D+00
     81   0.000000D+00  0.000000D+00  0.000000D+00  0.000000D+00  0.000000D+00
     82   0.000000D+00  0.000000D+00  0.000000D+00  0.000000D+00  0.000000D+00
     83   0.000000D+00  0.000000D+00  0.000000D+00  0.000000D+00  0.000000D+00
     84   0.000000D+00  0.000000D+00  0.000000D+00  0.000000D+00  0.000000D+00
     85   0.000000D+00  0.000000D+00  0.000000D+00  0.000000D+00  0.000000D+00
     86   0.000000D+00  0.000000D+00  0.000000D+00  0.000000D+00  0.000000D+00
     87   0.000000D+00  0.000000D+00  0.000000D+00  0.000000D+00  0.000000D+00
     88   0.000000D+00  0.000000D+00  0.000000D+00  0.000000D+00  0.000000D+00
     89   0.000000D+00  0.000000D+00  0.000000D+00  0.000000D+00  0.000000D+00
     90   0.000000D+00  0.000000D+00  0.000000D+00  0.000000D+00  0.000000D+00
     91   0.000000D+00  0.000000D+00  0.000000D+00  0.000000D+00  0.000000D+00
     92   0.000000D+00  0.000000D+00  0.000000D+00  0.000000D+00  0.000000D+00
     93   0.000000D+00  0.000000D+00  0.000000D+00  0.000000D+00  0.000000D+00
     94   0.000000D+00  0.000000D+00  0.000000D+00  0.000000D+00  0.000000D+00
     95   0.000000D+00  0.000000D+00  0.000000D+00  0.000000D+00  0.000000D+00
     96   0.000000D+00  0.000000D+00  0.000000D+00  0.000000D+00  0.000000D+00
     97   0.000000D+00  0.000000D+00  0.000000D+00  0.000000D+00  0.000000D+00
     98   0.000000D+00  0.000000D+00  0.000000D+00  0.000000D+00  0.000000D+00
     99   0.000000D+00  0.000000D+00  0.000000D+00  0.000000D+00  0.000000D+00
    100   0.000000D+00  0.000000D+00  0.000000D+00  0.000000D+00  0.000000D+00
    101   0.000000D+00  0.000000D+00  0.000000D+00  0.000000D+00  0.000000D+00
    102   0.000000D+00  0.000000D+00  0.000000D+00  0.000000D+00  0.000000D+00
    103   0.000000D+00  0.000000D+00  0.000000D+00  0.000000D+00  0.000000D+00
    104   0.000000D+00  0.000000D+00  0.000000D+00  0.000000D+00  0.000000D+00
    105   0.000000D+00  0.000000D+00  0.000000D+00  0.000000D+00  0.000000D+00
    106   0.000000D+00  0.000000D+00  0.000000D+00  0.000000D+00  0.000000D+00
    107   0.000000D+00  0.000000D+00  0.000000D+00  0.000000D+00  0.000000D+00
    108   0.000000D+00  0.000000D+00  0.000000D+00  0.000000D+00  0.000000D+00
    109   0.000000D+00  0.000000D+00  0.000000D+00  0.000000D+00  0.000000D+00
    110   0.000000D+00  0.000000D+00  0.000000D+00  0.000000D+00  0.000000D+00
    111   0.000000D+00  0.000000D+00  0.000000D+00  0.000000D+00  0.000000D+00
    112   0.000000D+00  0.000000D+00  0.000000D+00  0.000000D+00  0.000000D+00
    113   0.000000D+00  0.000000D+00  0.000000D+00  0.000000D+00  0.000000D+00
    114   0.000000D+00  0.000000D+00  0.000000D+00  0.000000D+00  0.000000D+00
    115   0.000000D+00  0.000000D+00  0.000000D+00  0.000000D+00  0.000000D+00
    116   0.000000D+00  0.000000D+00  0.000000D+00  0.000000D+00  0.000000D+00
    117   0.000000D+00  0.000000D+00  0.000000D+00  0.000000D+00  0.000000D+00
    118   0.000000D+00  0.000000D+00  0.000000D+00  0.000000D+00  0.000000D+00
    119   0.000000D+00  0.000000D+00  0.000000D+00  0.000000D+00  0.000000D+00
    120   0.000000D+00  0.000000D+00  0.000000D+00  0.000000D+00  0.000000D+00
    121   0.000000D+00  0.000000D+00  0.000000D+00  0.000000D+00  0.000000D+00
    122   0.000000D+00  0.000000D+00  0.000000D+00  0.000000D+00  0.000000D+00
    123   0.000000D+00  0.000000D+00  0.000000D+00  0.000000D+00  0.000000D+00
    124   0.000000D+00  0.000000D+00  0.000000D+00  0.000000D+00  0.000000D+00
    125   0.000000D+00  0.000000D+00  0.000000D+00  0.000000D+00  0.000000D+00
    126   0.000000D+00  0.000000D+00  0.000000D+00  0.000000D+00  0.000000D+00
    127   0.000000D+00  0.000000D+00  0.000000D+00  0.000000D+00  0.000000D+00
    128   0.000000D+00  0.000000D+00  0.000000D+00  0.000000D+00  0.000000D+00
    129   0.000000D+00  0.000000D+00  0.000000D+00  0.000000D+00  0.000000D+00
    130   0.000000D+00  0.000000D+00  0.000000D+00  0.000000D+00  0.000000D+00
    131   0.000000D+00  0.000000D+00  0.000000D+00  0.000000D+00  0.000000D+00
    132   0.000000D+00  0.000000D+00  0.000000D+00  0.000000D+00  0.000000D+00
    133   0.000000D+00  0.000000D+00  0.000000D+00  0.000000D+00  0.000000D+00
    134   0.000000D+00  0.000000D+00  0.000000D+00  0.000000D+00  0.000000D+00
    135   0.000000D+00  0.000000D+00  0.000000D+00  0.000000D+00  0.000000D+00
    136   0.000000D+00  0.000000D+00  0.000000D+00  0.000000D+00  0.000000D+00
    137   0.000000D+00  0.000000D+00  0.000000D+00  0.000000D+00  0.000000D+00
    138   0.000000D+00  0.000000D+00  0.000000D+00  0.000000D+00  0.000000D+00
    139   0.000000D+00  0.000000D+00  0.000000D+00  0.000000D+00  0.000000D+00
    140   0.000000D+00  0.000000D+00  0.000000D+00  0.000000D+00  0.000000D+00
    141   0.000000D+00  0.000000D+00  0.000000D+00  0.000000D+00  0.000000D+00
    142   0.000000D+00  0.000000D+00  0.000000D+00  0.000000D+00  0.000000D+00
    143   0.000000D+00  0.000000D+00  0.000000D+00  0.000000D+00  0.000000D+00
    144   0.000000D+00  0.000000D+00  0.000000D+00  0.000000D+00  0.000000D+00
    145   0.000000D+00  0.000000D+00  0.000000D+00  0.000000D+00  0.000000D+00
    146   0.000000D+00  0.000000D+00  0.000000D+00  0.000000D+00  0.000000D+00
    147   0.000000D+00  0.000000D+00  0.000000D+00  0.000000D+00  0.000000D+00
    148   0.000000D+00  0.000000D+00  0.000000D+00  0.000000D+00  0.000000D+00
    149   0.000000D+00  0.000000D+00  0.000000D+00  0.000000D+00  0.000000D+00
    150   0.000000D+00  0.000000D+00  0.000000D+00  0.000000D+00  0.000000D+00
    151   0.000000D+00  0.000000D+00  0.000000D+00  0.000000D+00  0.000000D+00
    152   0.000000D+00  0.000000D+00  0.000000D+00  0.000000D+00  0.000000D+00
    153   0.000000D+00  0.000000D+00  0.000000D+00  0.000000D+00  0.000000D+00
    154   0.000000D+00  0.000000D+00  0.000000D+00  0.000000D+00  0.000000D+00
    155   0.000000D+00  0.000000D+00  0.000000D+00  0.000000D+00  0.000000D+00
    156   0.000000D+00  0.000000D+00  0.000000D+00  0.000000D+00  0.000000D+00
    157   0.000000D+00  0.000000D+00  0.000000D+00  0.000000D+00  0.000000D+00
    158   0.000000D+00  0.000000D+00  0.000000D+00  0.000000D+00  0.000000D+00
    159   0.000000D+00  0.000000D+00  0.000000D+00  0.000000D+00  0.000000D+00
    160   0.000000D+00  0.000000D+00  0.000000D+00  0.000000D+00  0.000000D+00
    161   0.000000D+00  0.000000D+00  0.000000D+00  0.000000D+00  0.000000D+00
    162   0.000000D+00  0.000000D+00  0.000000D+00  0.000000D+00  0.000000D+00
    163   0.000000D+00  0.000000D+00  0.000000D+00  0.000000D+00  0.000000D+00
    164   0.000000D+00  0.000000D+00  0.000000D+00  0.000000D+00  0.000000D+00
    165   0.000000D+00  0.000000D+00  0.000000D+00  0.000000D+00  0.000000D+00
    166   0.000000D+00  0.000000D+00  0.000000D+00  0.000000D+00  0.000000D+00
    167   0.000000D+00  0.000000D+00  0.000000D+00  0.000000D+00  0.000000D+00
    168   0.000000D+00  0.000000D+00  0.000000D+00  0.000000D+00  0.000000D+00
    169   0.000000D+00  0.000000D+00  0.000000D+00  0.000000D+00  0.000000D+00
    170   0.000000D+00  0.000000D+00  0.000000D+00  0.000000D+00  0.000000D+00
[...]

                     Sum of ab pair energies =    -0.516841 A.U.
                     Sum of ba pair energies =    -0.264957 A.U.
                     Sum of aa pair energies =    -0.200789 A.U.
                     Sum of bb pair energies =    -0.200789 A.U.

           Sum of intraorbital pair energies =    -0.251884 A.U.
           Sum of interorbital pair energies =    -0.931492 A.U.
                                                  ----------
                         Total pair energies =    -1.183376 A.U.

                         Single Excitations  =     0.000000 A.U.

                          Total second order =    -1.183376 A.U.



            MP2(CBS) (With Interference Correction) 
            ---------------------------------------

 AB - AA |     19        20        21        22        23        24
 BA - BB |     19        20        21        22        23        24
----------------------------------------------------------------------
   19    | -0.019952  0.000000 -0.000001 -0.000001 -0.000001 -0.007931
   19    |  0.000000  0.000000 -0.000001 -0.000001 -0.000001 -0.007931
         |
   20    |  0.000000 -0.019947 -0.007891 -0.008628 -0.011794  0.000000
   20    |  0.000000  0.000000 -0.007891 -0.008628 -0.011794  0.000000
         |
   21    | -0.000001 -0.010987 -0.019948 -0.009289 -0.008160  0.000000
   21    | -0.000001 -0.010987  0.000000 -0.009289 -0.008161  0.000000
         |
   22    | -0.000001 -0.011251 -0.011523 -0.019960 -0.007346  0.000000
   22    | -0.000001 -0.011251 -0.011523  0.000000 -0.007346  0.000000
         |
   23    | -0.000001 -0.012448 -0.011090 -0.010766 -0.019935  0.000000
   23    | -0.000001 -0.012448 -0.011091 -0.010766  0.000000  0.000000
         |
   24    | -0.011004  0.000000  0.000000  0.000000  0.000000 -0.019953
   24    | -0.011004  0.000000  0.000000  0.000000  0.000000  0.000000
         |
   25    | -0.000031 -0.003413 -0.003514 -0.003513 -0.003450 -0.000023
   25    | -0.000031 -0.003413 -0.003514 -0.003513 -0.003450 -0.000023
         |
   26    | -0.011007  0.000000  0.000000  0.000000  0.000000 -0.012688
   26    | -0.011007  0.000000  0.000000  0.000000  0.000000 -0.012688
         |
   27    | -0.011291  0.000000 -0.000001 -0.000001 -0.000001 -0.011051
   27    | -0.011292  0.000000 -0.000001 -0.000001 -0.000001 -0.011050
         |
   28    | -0.011952 -0.000001 -0.000001 -0.000001 -0.000001 -0.010647
   28    | -0.011952 -0.000001 -0.000001 -0.000001 -0.000001 -0.010647
         |

 AB - AA |     19        20        21        22        23        24
 BA - BB |     19        20        21        22        23        24
----------------------------------------------------------------------
   29    | -0.000001 -0.010665 -0.011691 -0.011710 -0.011026 -0.000001
   29    | -0.000001 -0.010665 -0.011691 -0.011710 -0.011026 -0.000001
         |
   30    | -0.003538 -0.000023 -0.000029 -0.000030 -0.000025 -0.003411
   30    | -0.003538 -0.000023 -0.000029 -0.000030 -0.000025 -0.003411
         |

 AB - AA |     25        26        27        28        29        30
 BA - BB |     25        26        27        28        29        30
----------------------------------------------------------------------
   19    | -0.000029 -0.007965 -0.008704 -0.010709 -0.000001 -0.002360
   19    | -0.000029 -0.007965 -0.008703 -0.010710 -0.000001 -0.002360
         |
   20    | -0.002319  0.000000  0.000000 -0.000001 -0.007034 -0.000021
   20    | -0.002319  0.000000  0.000000 -0.000001 -0.007034 -0.000021
         |
   21    | -0.002352  0.000000 -0.000001 -0.000001 -0.009974 -0.000028
   21    | -0.002352  0.000000 -0.000001 -0.000001 -0.009973 -0.000028
         |
   22    | -0.002352  0.000000 -0.000001 -0.000001 -0.010050 -0.000028
   22    | -0.002352  0.000000 -0.000001 -0.000001 -0.010051 -0.000028
         |
   23    | -0.002331  0.000000 -0.000001 -0.000001 -0.008037 -0.000023
   23    | -0.002331  0.000000 -0.000001 -0.000001 -0.008037 -0.000023
         |
   24    | -0.000021 -0.012423 -0.008029 -0.006970 -0.000001 -0.002318
   24    | -0.000021 -0.012422 -0.008030 -0.006969 -0.000001 -0.002318
         |
   25    | -0.024275 -0.000021 -0.000029 -0.000032 -0.002276 -0.000689
   25    |  0.000000 -0.000021 -0.000029 -0.000032 -0.002276 -0.000689
         |
   26    | -0.000023 -0.019959 -0.008061 -0.006901 -0.000001 -0.002317
   26    | -0.000023  0.000000 -0.008061 -0.006901 -0.000001 -0.002317
         |
   27    | -0.000031 -0.011052 -0.019944 -0.010516 -0.000001 -0.002358
   27    | -0.000031 -0.011052  0.000000 -0.010516 -0.000001 -0.002358
         |
   28    | -0.000036 -0.010612 -0.011886 -0.019584 -0.000001 -0.002276
   28    | -0.000036 -0.010612 -0.011886  0.000000 -0.000001 -0.002276
         |

 AB - AA |     25        26        27        28        29        30
 BA - BB |     25        26        27        28        29        30
----------------------------------------------------------------------
   29    | -0.003816 -0.000001 -0.000001 -0.000001 -0.019585 -0.000032
   29    | -0.003816 -0.000001 -0.000001 -0.000001  0.000000 -0.000032
         |
   30    | -0.000942 -0.003406 -0.003532 -0.003816 -0.000036 -0.024275
   30    | -0.000942 -0.003406 -0.003532 -0.003816 -0.000036  0.000000
         |

                     Sum of ab pair energies =    -0.510319 A.U.
                     Sum of ba pair energies =    -0.263001 A.U.
                     Sum of aa pair energies =    -0.200637 A.U.
                     Sum of bb pair energies =    -0.200637 A.U.

           Sum of intraorbital pair energies =    -0.247318 A.U.
           Sum of interorbital pair energies =    -0.927276 A.U.
                                                  ----------
                         Total pair energies =    -1.174594 A.U.

                         Single Excitations  =     0.000000 A.U.

                          Total second order =    -1.174594 A.U.

                         E2(CBS) - E2(Dir) =      -0.027968 A.U.

 E2(CBS)=      -1.183376 CBS-Int=       0.008781 OIii=       6.819581

 **********************************************************************

            Population analysis using the SCF density.

 **********************************************************************

 Orbital symmetries:
       Occupied  (SGU) (SGG) (SGU) (SGG) (PIG) (PIG) (PIU) (PIU)
                 (SGU) (SGG) (SGG) (SGU) (PIG) (PIG) (PIU) (PIU)
                 (SGU) (SGG) (SGG) (PIU) (PIU) (DLTG) (DLTG) (DLTU)
                 (DLTU) (PIG) (PIG) (SGU) (SGG) (SGU)
       Virtual   (SGG) (SGU) (PIU) (PIU) (SGG) (PIG) (PIG) (SGU)
                 (DLTG) (DLTG) (PIU) (PIU) (SGG) (DLTU) (DLTU)
                 (SGU) (PIG) (PIG) (PIU) (PIU) (PIG) (PIG) (SGG)
                 (SGU) (SGG) (PIU) (PIU) (SGU) (SGG) (DLTG) (DLTG)
                 (PHIU) (PHIU) (PHIG) (PHIG) (DLTU) (DLTU) (DLTG)
                 (DLTG) (SGU) (PIG) (PIG) (DLTU) (DLTU) (PIU) (PIU)
                 (PIU) (PIU) (SGG) (PIG) (PIG) (PIG) (PIG) (SGG)
                 (SGU) (SGU) (SGG) (PIU) (PIU) (DLTG) (DLTG) (PHIU)
                 (PHIU) (?A) (?A) (?B) (?B) (PHIG) (PHIG) (DLTU)
                 (DLTU) (PIG) (PIG) (SGU) (DLTG) (DLTG) (PIU) (PIU)
                 (PHIU) (PHIU) (PHIG) (PHIG) (PIU) (PIU) (SGG)
                 (DLTU) (DLTU) (PIG) (PIG) (SGG) (SGU) (PIG) (PIG)
                 (SGU) (DLTG) (DLTG) (PIU) (PIU) (DLTU) (DLTU)
                 (SGG) (PIG) (PIG) (SGG) (SGU) (SGU) (SGG) (PIU)
                 (PIU) (DLTG) (DLTG) (PHIU) (PHIU) (?C) (?C) (?D)
                 (?D) (?A) (?A) (?B) (?B) (PHIG) (PHIG) (DLTU)
                 (DLTU) (PIG) (PIG) (SGU) (PIU) (PIU) (DLTG) (DLTG)
                 (PHIU) (PHIU) (PHIG) (PHIG) (DLTU) (DLTU) (SGG)
                 (PIG) (PIG) (SGU) (SGG) (PIU) (PIU) (DLTG) (DLTG)
                 (PHIU) (PHIU) (?A) (?A) (?B) (?B) (PHIG) (PHIG)
                 (DLTU) (DLTU) (PIG) (PIG) (SGU) (PIU) (PIU) (PIG)
                 (PIG) (SGG) (SGU) (DLTG) (DLTG) (PIU) (PIU) (DLTU)
                 (DLTU) (SGG) (PIG) (PIG) (SGU) (SGG) (SGU) (?C)
                 (?C) (?D) (?D) (?A) (?A) (?B) (?B) (PHIU) (PHIU)
                 (DLTG) (DLTG) (PHIG) (PHIG) (PIU) (PIU) (DLTU)
                 (DLTU) (SGG) (PIG) (PIG) (SGU) (PIU) (PIU) (DLTG)
                 (DLTG) (PHIU) (PHIU) (PHIG) (PHIG) (DLTU) (DLTU)
                 (SGG) (PIG) (PIG) (SGU) (SGG) (PIU) (PIU) (DLTG)
                 (DLTG) (PHIU) (PHIU) (?A) (?A) (?B) (?B) (PHIG)
                 (PHIG) (DLTU) (DLTU) (PIG) (PIG) (SGU) (PIU) (PIU)
                 (PIG) (PIG) (SGG) (SGU) (DLTG) (DLTG) (PIU) (PIU)
                 (DLTU) (DLTU) (SGG) (PIG) (PIG) (SGU) (SGG) (SGU)
                 (?E) (?E) (?F) (?F) (?D) (?C) (?D) (?C) (?B) (?B)
                 (?A) (?A) (PIU) (PIU) (PIG) (PIG) (PHIG) (PHIG)
                 (PHIU) (PHIU) (DLTG) (DLTG) (DLTU) (DLTU) (PIU)
                 (PIU) (DLTG) (DLTG) (PHIU) (PHIU) (PHIG) (PHIG)
                 (DLTU) (DLTU) (SGG) (PIG) (PIG) (SGU) (?C) (?C)
                 (?D) (?D) (?A) (?A) (?B) (?B) (PHIU) (PHIU) (PHIG)
                 (PHIG) (DLTG) (DLTG) (DLTU) (DLTU) (PIU) (PIU)
                 (SGG) (PIG) (PIG) (SGU) (SGG) (PIU) (PIU) (DLTG)
                 (DLTG) (PHIU) (PHIU) (?A) (?A) (?B) (?B) (PHIG)
                 (PHIG) (DLTU) (DLTU) (PIG) (PIG) (SGU) (SGG) (SGU)
 The electronic state is 1-SGG.
 Alpha  occ. eigenvalues -- -353.30446-353.30446 -44.36183 -44.36183 -38.92494
 Alpha  occ. eigenvalues --  -38.92494 -38.92494 -38.92494 -38.92493 -38.92493
 Alpha  occ. eigenvalues --   -5.63792  -5.63792  -3.83947  -3.83947  -3.83947
 Alpha  occ. eigenvalues --   -3.83947  -3.83947  -3.83947  -0.78318  -0.78278
 Alpha  occ. eigenvalues --   -0.78278  -0.78267  -0.78267  -0.78263  -0.78263
 Alpha  occ. eigenvalues --   -0.78241  -0.78241  -0.78212  -0.31627  -0.27094
 Alpha virt. eigenvalues --    0.04239   0.05190   0.05501   0.05501   0.06280
 Alpha virt. eigenvalues --    0.09108   0.09108   0.15874   0.23374   0.23374
 Alpha virt. eigenvalues --    0.23731   0.23731   0.25993   0.27334   0.27334
 Alpha virt. eigenvalues --    0.31460   0.31603   0.31603   0.33430   0.33430
 Alpha virt. eigenvalues --    0.39640   0.39640   0.40497   0.43065   0.51681
 Alpha virt. eigenvalues --    0.69619   0.69619   0.70219   0.70941   0.72642
 Alpha virt. eigenvalues --    0.72642   0.75869   0.75869   0.77021   0.77021
 Alpha virt. eigenvalues --    0.80516   0.80516   0.83771   0.83771   0.84458
 Alpha virt. eigenvalues --    0.84622   0.84622   0.86276   0.86276   0.86438
 Alpha virt. eigenvalues --    0.86438   0.90863   0.90863   0.94518   0.96107
 Alpha virt. eigenvalues --    0.96107   0.99158   0.99158   1.00592   1.11906
 Alpha virt. eigenvalues --    1.22753   2.05824   2.06464   2.06464   2.08655
 Alpha virt. eigenvalues --    2.08655   2.09451   2.09451   2.09570   2.09570
 Alpha virt. eigenvalues --    2.09582   2.09582   2.09683   2.09683   2.10359
 Alpha virt. eigenvalues --    2.10359   2.11926   2.11926   2.13673   2.24750
 Alpha virt. eigenvalues --    2.24750   2.24939   2.24939   2.26269   2.26269
 Alpha virt. eigenvalues --    2.26949   2.26949   2.28323   2.28323   2.29486
 Alpha virt. eigenvalues --    2.29755   2.29755   2.34215   2.34215   2.38517
 Alpha virt. eigenvalues --    2.39899   2.41014   2.41014   2.45318   2.50366
 Alpha virt. eigenvalues --    2.50366   2.51553   2.51553   2.51845   2.51845
 Alpha virt. eigenvalues --    2.55394   2.55569   2.55569   2.76588   2.76777
 Alpha virt. eigenvalues --    3.09333   4.41091   4.41095   4.41095   4.41102
 Alpha virt. eigenvalues --    4.41102   4.41112   4.41112   4.41113   4.41113
 Alpha virt. eigenvalues --    4.41113   4.41113   4.41115   4.41115   4.41115
 Alpha virt. eigenvalues --    4.41115   4.41117   4.41117   4.41147   4.41147
 Alpha virt. eigenvalues --    4.41353   4.41353   4.41786   5.75475   5.75475
 Alpha virt. eigenvalues --    5.75567   5.75567   5.76573   5.76573   5.76954
 Alpha virt. eigenvalues --    5.76954   5.78473   5.78473   5.80888   5.83304
 Alpha virt. eigenvalues --    5.83304   5.87567   6.21247   6.21629   6.21629
 Alpha virt. eigenvalues --    6.22256   6.22256   6.22496   6.22496   6.22534
 Alpha virt. eigenvalues --    6.22534   6.22539   6.22539   6.22585   6.22585
 Alpha virt. eigenvalues --    6.22999   6.22999   6.25376   6.25376   6.30098
 Alpha virt. eigenvalues --    6.53026   6.53026   6.60961   6.60961   6.62361
 Alpha virt. eigenvalues --    6.79591   7.31218   7.31218   7.31891   7.31891
 Alpha virt. eigenvalues --    7.32261   7.32261   7.33269   7.34510   7.34510
 Alpha virt. eigenvalues --    7.42482  12.53537  12.77541  13.95126  13.95126
 Alpha virt. eigenvalues --   13.95126  13.95126  13.95129  13.95129  13.95129
 Alpha virt. eigenvalues --   13.95129  13.95131  13.95131  13.95131  13.95131
 Alpha virt. eigenvalues --   13.95132  13.95132  13.95134  13.95134  13.95139
 Alpha virt. eigenvalues --   13.95139  13.95140  13.95183  13.95183  13.95275
 Alpha virt. eigenvalues --   14.67936  14.67936  14.68102  14.68102  14.68753
 Alpha virt. eigenvalues --   14.68753  14.68989  14.68989  14.69974  14.69974
 Alpha virt. eigenvalues --   14.71349  14.73430  14.73430  14.77854  16.64013
 Alpha virt. eigenvalues --   16.64112  16.64112  16.64368  16.64368  16.64466
 Alpha virt. eigenvalues --   16.64466  16.64479  16.64479  16.64481  16.64481
 Alpha virt. eigenvalues --   16.64500  16.64500  16.64659  16.64659  16.65517
 Alpha virt. eigenvalues --   16.65517  16.67298  21.31893  21.31893  21.40180
 Alpha virt. eigenvalues --   21.40180  21.40984  21.60350  22.48864  22.48864
 Alpha virt. eigenvalues --   22.49426  22.49426  22.49680  22.49680  22.50608
 Alpha virt. eigenvalues --   22.51212  22.51212  22.55167  36.95871  36.95871
 Alpha virt. eigenvalues --   36.95954  36.95954  36.95954  36.95954  36.95955
 Alpha virt. eigenvalues --   36.95955  36.95955  36.95955  36.95956  36.95956
 Alpha virt. eigenvalues --   36.95956  36.95956  36.95957  36.95957  36.95957
 Alpha virt. eigenvalues --   36.95957  36.95958  36.95958  36.95958  36.95958
 Alpha virt. eigenvalues --   36.95958  36.95958  36.95958  36.95958  40.70223
 Alpha virt. eigenvalues --   40.70223  40.70378  40.70378  40.70782  40.70782
 Alpha virt. eigenvalues --   40.70924  40.70924  40.71528  40.71528  40.72238
 Alpha virt. eigenvalues --   40.73692  40.73692  40.76141  41.68240  41.68240
 Alpha virt. eigenvalues --   41.68240  41.68240  41.68242  41.68242  41.68242
 Alpha virt. eigenvalues --   41.68242  41.68243  41.68243  41.68244  41.68244
 Alpha virt. eigenvalues --   41.68245  41.68245  41.68247  41.68247  41.68247
 Alpha virt. eigenvalues --   41.68247  41.68251  41.68262  41.68262  41.68295
 Alpha virt. eigenvalues --   45.13912  45.13960  45.13960  45.14075  45.14075
 Alpha virt. eigenvalues --   45.14117  45.14117  45.14122  45.14122  45.14123
 Alpha virt. eigenvalues --   45.14123  45.14132  45.14132  45.14203  45.14203
 Alpha virt. eigenvalues --   45.14590  45.14590  45.15376 163.11671 164.10125
          Condensed to atoms (all electrons):
              1          2
     1  Zn  30.028451  -0.028451
     2  Zn  -0.028451  30.028451
          Atomic-Atomic Spin Densities.
              1          2
     1  Zn   0.000000   0.000000
     2  Zn   0.000000   0.000000
 Mulliken charges and spin densities:
              1          2
     1  Zn   0.000000   0.000000
     2  Zn   0.000000   0.000000
 Sum of Mulliken charges =   0.00000 spin densities =   0.000000
 Mulliken charges and spin densities with hydrogens summed into heavy atoms:
              1          2
     1  Zn   0.000000   0.000000
     2  Zn   0.000000   0.000000
 Sum of Mulliken charges with hydrogens summed into heavy atoms =   0.00000 spin densities =   0.000000
 Electronic spatial extent (au):  <R**2>=            863.2578
 Charge=              0.0000 electrons
 Dipole moment (field-independent basis, Debye):
    X=              0.0000    Y=              0.0000    Z=              0.0000  Tot=              0.0000
 Quadrupole moment (field-independent basis, Debye-Ang):
   XX=            -31.2083   YY=            -31.2083   ZZ=            -32.4259
   XY=              0.0000   XZ=              0.0000   YZ=              0.0000
 Traceless Quadrupole moment (field-independent basis, Debye-Ang):
   XX=              0.4059   YY=              0.4059   ZZ=             -0.8117
   XY=              0.0000   XZ=              0.0000   YZ=              0.0000
 Octapole moment (field-independent basis, Debye-Ang**2):
  XXX=              0.0000  YYY=              0.0000  ZZZ=              0.0000  XYY=              0.0000
  XXY=              0.0000  XXZ=              0.0000  XZZ=              0.0000  YZZ=              0.0000
  YYZ=              0.0000  XYZ=              0.0000
 Hexadecapole moment (field-independent basis, Debye-Ang**3):
 XXXX=            -56.4805 YYYY=            -56.4805 ZZZZ=           -769.7467 XXXY=              0.0000
 XXXZ=              0.0000 YYYX=              0.0000 YYYZ=              0.0000 ZZZX=              0.0000
 ZZZY=              0.0000 XXYY=            -18.8268 XXZZ=           -136.5783 YYZZ=           -136.5783
 XXYZ=              0.0000 YYXZ=              0.0000 ZZXY=              0.0000
 N-N= 1.238002307593D+02 E-N=-1.315724875180D+04  KE= 5.333591889608D+03
                          Isotropic Fermi Contact Couplings
        Atom                 a.u.       MegaHertz       Gauss      10(-4) cm-1
     1  Zn(67)             0.00000       0.00000       0.00000       0.00000
     2  Zn(67)             0.00000       0.00000       0.00000       0.00000
 --------------------------------------------------------
       Center         ----  Spin Dipole Couplings  ----
                      3XX-RR        3YY-RR        3ZZ-RR
 --------------------------------------------------------
     1   Atom        0.000000      0.000000      0.000000
     2   Atom        0.000000      0.000000      0.000000
 --------------------------------------------------------
                        XY            XZ            YZ
 --------------------------------------------------------
     1   Atom        0.000000      0.000000      0.000000
     2   Atom        0.000000      0.000000      0.000000
 --------------------------------------------------------


 ---------------------------------------------------------------------------------
              Anisotropic Spin Dipole Couplings in Principal Axis System
 ---------------------------------------------------------------------------------

       Atom             a.u.   MegaHertz   Gauss  10(-4) cm-1        Axes

              Baa     0.0000     0.000     0.000     0.000  1.0000  0.0000  0.0000
     1 Zn(67) Bbb     0.0000     0.000     0.000     0.000  0.0000  1.0000  0.0000
              Bcc     0.0000     0.000     0.000     0.000  0.0000  0.0000  1.0000
 
              Baa     0.0000     0.000     0.000     0.000  1.0000  0.0000  0.0000
     2 Zn(67) Bbb     0.0000     0.000     0.000     0.000  0.0000  1.0000  0.0000
              Bcc     0.0000     0.000     0.000     0.000  0.0000  0.0000  1.0000
 

 ---------------------------------------------------------------------------------


 Test job not archived.
 1\1\GINC-C31\SP\ROMP2-RW\Gen\Zn2\GPETERSSON\12-Jul-2013\0\\# ROMP2(RW)
  Gen GFinput Int=NoBasisTransform Int(Grid=Ultrafine) IOp(3/32=2,5/6=1
 0,8/11=1,9/33=1) Maxdisk=128GB CBSextrapolate(Nmin=15,MinPop)\\Zn...Zn
  1Sg+\\0,1\Zn\Zn,1,3.847\\Version=EM64L-GDVRevH.12\State=1-SGG\HF=-355
 5.693762\MP2=-3556.8491695\E2(CBS)=-1.1833757\CBS-Int=-1.1745944\OIii=
 6.8195808\RMSD=6.260e-11\PG=D*H [C*(Zn1.Zn1)]\\@


 ...THE PHYSICISTS HAVE MADE THEIR UNIVERSE, AND IF YOU DO NOT LIKE
 IT, YOU MUST MAKE YOUR OWN.
                               -- E. R. HARRISON IN "COSMOLOGY" (1980)
 Job cpu time:  0 days  7 hours 27 minutes 46.2 seconds.
 File lengths (MBytes):  RWF=   5090 Int=      0 D2E=      0 Chk=     11 Scr=      1
 Normal termination of Gaussian DV at Fri Jul 12 11:01:29 2013.
