 Entering Gaussian System, Link 0=gdv
 AtFile(1): 6ZaPa-NR.gbs
 Initial command:
 /share/apps/gaussian/gdvh12/gdv/l1.exe /localscratch/825952/Gau-7956.inp -scrdir=/localscratch/825952/
 Entering Link 1 = /share/apps/gaussian/gdvh12/gdv/l1.exe PID=      7957.
  
 Copyright (c) 1988,1990,1992,1993,1995,1998,2003,2009,2011,
            Gaussian, Inc.  All Rights Reserved.
  
 This is the private, development version of
 the Gaussian(R) DV system of programs. It is based on
 the Gaussian(R) 09 system (copyright 2009, Gaussian, Inc.),
 the Gaussian(R) 03 system (copyright 2003, Gaussian, Inc.),
 the Gaussian(R) 98 system (copyright 1998, Gaussian, Inc.),
 the Gaussian(R) 94 system (copyright 1995, Gaussian, Inc.),
 the Gaussian 92(TM) system (copyright 1992, Gaussian, Inc.),
 the Gaussian 90(TM) system (copyright 1990, Gaussian, Inc.),
 the Gaussian 88(TM) system (copyright 1988, Gaussian, Inc.),
 the Gaussian 86(TM) system (copyright 1986, Carnegie Mellon
 University), and the Gaussian 82(TM) system (copyright 1983,
 Carnegie Mellon University). Gaussian is a federally registered
 trademark of Gaussian, Inc.
  
 This software contains proprietary and confidential information,
 including trade secrets, belonging to Gaussian, Inc.
  
 This software is provided under written license and may be
 used, copied, transmitted, or stored only in accord with that
 written license.
  
 The following legend is applicable only to US Government
 contracts under FAR:
  
                    RESTRICTED RIGHTS LEGEND
  
 Use, reproduction and disclosure by the US Government is
 subject to restrictions as set forth in subparagraphs (a)
 and (c) of the Commercial Computer Software - Restricted
 Rights clause in FAR 52.227-19.
  
 Gaussian, Inc.
 340 Quinnipiac St., Bldg. 40, Wallingford CT 06492
  
  
 ---------------------------------------------------------------
 Warning -- This program may not be used in any manner that
 competes with the business of Gaussian, Inc. or will provide
 assistance to any competitor of Gaussian, Inc.  The licensee
 of this program is prohibited from giving any competitor of
 Gaussian, Inc. access to this program.  By using this program,
 the user acknowledges that Gaussian, Inc. is engaged in the
 business of creating and licensing software in the field of
 computational chemistry and represents and warrants to the
 licensee that it is not a competitor of Gaussian, Inc. and that
 it will not use this program in any manner prohibited above.
 ---------------------------------------------------------------
  

 Cite this work as:
 Gaussian Development Version, Revision H.12,
 M. J. Frisch, G. W. Trucks, H. B. Schlegel, G. E. Scuseria, 
 M. A. Robb, J. R. Cheeseman, G. Scalmani, V. Barone, B. Mennucci, 
 G. A. Petersson, H. Nakatsuji, M. Caricato, X. Li, H. P. Hratchian, 
 A. F. Izmaylov, J. Bloino, G. Zheng, J. L. Sonnenberg, M. Hada, 
 M. Ehara, K. Toyota, R. Fukuda, J. Hasegawa, M. Ishida, T. Nakajima, 
 Y. Honda, O. Kitao, H. Nakai, T. Vreven, J. A. Montgomery, Jr., 
 J. E. Peralta, F. Ogliaro, M. Bearpark, J. J. Heyd, E. Brothers, 
 K. N. Kudin, V. N. Staroverov, T. Keith, R. Kobayashi, J. Normand, 
 K. Raghavachari, A. Rendell, J. C. Burant, S. S. Iyengar, J. Tomasi, 
 M. Cossi, N. Rega, J. M. Millam, M. Klene, J. E. Knox, J. B. Cross, 
 V. Bakken, C. Adamo, J. Jaramillo, R. Gomperts, R. E. Stratmann, 
 O. Yazyev, A. J. Austin, R. Cammi, C. Pomelli, J. W. Ochterski, 
 R. L. Martin, K. Morokuma, V. G. Zakrzewski, G. A. Voth, 
 P. Salvador, J. J. Dannenberg, S. Dapprich, P. V. Parandekar, 
 N. J. Mayhall, A. D. Daniels, O. Farkas, J. B. Foresman, 
 J. V. Ortiz, J. Cioslowski, and D. J. Fox, 
 Gaussian, Inc., Wallingford CT, 2010.
 
 ******************************************
 Gaussian DV:  EM64L-GDVRevH.12  9-Jun-2011
                 5-Mar-2013 
 ******************************************
 % Mem=12GB
 % Nproc=8
 Will use up to    8 processors via shared memory.
 ----------------------------------------------------------------------
 # ROMP2(RW) Gen GFinput Int=NoBasisTransform Int(Grid=Ultrafine) IOp(3
 /32=2,5/6=10,8/11=1,9/33=1) Maxdisk=128GB CBSextrapolate(Nmin=20,MinPo
 p)
 ----------------------------------------------------------------------
 1/38=1/1;
 2/12=2,17=6,18=5,40=1/2;
 3/5=7,11=2,16=1,24=10,25=1,30=1,32=2,60=-1,75=-5,116=101/1,2,3;
 4//1;
 5/5=2,6=10,38=5/2;
 8/5=-1,10=91,11=1/1;
 9/16=-3,33=1,75=2,81=20,83=4/6,4;
 6/7=2,8=2,9=2,10=2/1;
 99/5=1,9=1/99;
 ------------
 Zn...Zn 1Sg+
 ------------
 Charge =  0 Multiplicity = 1
 Symbolic Z-Matrix:
 Zn
 Zn                   1     3.847 
 
                          Input orientation:                          
 ---------------------------------------------------------------------
 Center     Atomic      Atomic             Coordinates (Angstroms)
 Number     Number       Type             X           Y           Z
 ---------------------------------------------------------------------
      1         30           0        0.000000    0.000000    0.000000
      2         30           0        0.000000    0.000000    3.847000
 ---------------------------------------------------------------------
 Stoichiometry    Zn2
 Framework group  D*H[C*(Zn.Zn)]
 Deg. of freedom     1
 Full point group                 D*H     NOp   8
 Largest Abelian subgroup         D2H     NOp   8
 Largest concise Abelian subgroup C2      NOp   2
                         Standard orientation:                         
 ---------------------------------------------------------------------
 Center     Atomic      Atomic             Coordinates (Angstroms)
 Number     Number       Type             X           Y           Z
 ---------------------------------------------------------------------
      1         30           0        0.000000    0.000000    1.923500
      2         30           0        0.000000    0.000000   -1.923500
 ---------------------------------------------------------------------
 Rotational constants (GHZ):      0.0000000      1.0683263      1.0683263
 General basis read from cards:  (5D, 7F)
 AO basis set in the form of general basis input (Overlap normalization):
      1 0
 S  16 1.00       0.000000000000
      0.1979806680D+08  0.1623567179D-05
      0.3809235300D+07  0.9803830171D-05
      0.8786026110D+06  0.5586916502D-04
      0.2371425360D+06  0.2557485555D-03
      0.7326246060D+05  0.9974439684D-03
      0.2538755310D+05  0.3376152907D-02
      0.9687426810D+04  0.1012833271D-01
      0.4002609060D+04  0.2725498573D-01
      0.1763563910D+04  0.6575518569D-01
      0.8172127730D+03  0.1395054131D+00
      0.3932994910D+03  0.2467809431D+00
      0.1943655590D+03  0.3244204364D+00
      0.9762265100D+02  0.2499421228D+00
      0.4936946700D+02  0.7554450364D-01
      0.2492567100D+02  0.4820860570D-02
      0.1246613700D+02  0.1035438587D-02
 S  13 1.00       0.000000000000
      0.9687426810D+04 -0.2624827997D-04
      0.4002609060D+04 -0.1866003284D-03
      0.1763563910D+04 -0.1061443079D-02
      0.8172127730D+03 -0.5201520383D-02
      0.3932994910D+03 -0.1968777592D-01
      0.1943655590D+03 -0.5843419007D-01
      0.9762265100D+02 -0.9277140929D-01
      0.4936946700D+02  0.1945988313D-01
      0.2492567100D+02  0.3945510086D+00
      0.1246613700D+02  0.5288261691D+00
      0.6131842000D+01  0.1684182459D+00
      0.2946538000D+01  0.8886965204D-02
      0.1374494000D+01  0.1751886659D-02
 P  17 1.00       0.000000000000
      0.5861413600D+05  0.8159296903D-05
      0.1488700610D+05  0.6940798053D-04
      0.4712775080D+04  0.4398441442D-03
      0.1759675870D+04  0.2079975121D-02
      0.7416257650D+03  0.7911509733D-02
      0.3409365510D+03  0.2507126181D-01
      0.1665765850D+03  0.6748412233D-01
      0.8484752700D+02  0.1504993301D+00
      0.4442672400D+02  0.2628953141D+00
      0.2366626800D+02  0.3324676411D+00
      0.1272170300D+02  0.2468014741D+00
      0.6849093000D+01  0.8234684533D-01
      0.3662453000D+01  0.1043906180D-01
      0.1924513000D+01  0.1209813020D-02
      0.9794040000D+00  0.3928626602D-03
      0.4732000000D+00  0.6836411773D-04
      0.2113150000D+00  0.1045287340D-04
 S  11 1.00       0.000000000000
      0.1943655590D+03  0.6602263336D-03
      0.9762265100D+02  0.2444743736D-02
      0.4936946700D+02  0.1450239909D-02
      0.2492567100D+02 -0.5317821197D-01
      0.1246613700D+02 -0.2105117465D+00
      0.6131842000D+01 -0.2368115776D-01
      0.2946538000D+01  0.5277205767D+00
      0.1374494000D+01  0.5406337584D+00
      0.6186430000D+00  0.1124443596D+00
      0.2670670000D+00 -0.1008506437D-02
      0.1099270000D+00  0.1290437758D-02
 P  17 1.00       0.000000000000
      0.5861413600D+05 -0.3042170591D-05
      0.1488700610D+05 -0.2592041001D-04
      0.4712775080D+04 -0.1642635780D-03
      0.1759675870D+04 -0.7796737192D-03
      0.7416257650D+03 -0.2979859491D-02
      0.3409365510D+03 -0.9562962963D-02
      0.1665765850D+03 -0.2628469711D-01
      0.8484752700D+02 -0.6075347862D-01
      0.4442672400D+02 -0.1106546080D+00
      0.2366626800D+02 -0.1481405880D+00
      0.1272170300D+02 -0.8380616512D-01
      0.6849093000D+01  0.1372337550D+00
      0.3662453000D+01  0.3563121961D+00
      0.1924513000D+01  0.3973960271D+00
      0.9794040000D+00  0.2286599801D+00
      0.4732000000D+00  0.4491198901D-01
      0.2113150000D+00  0.3101587891D-02
 D  14 1.00       0.000000000000
      0.1773859680D+04  0.2107027498D-04
      0.5494433830D+03  0.2125864354D-03
      0.2110063240D+03  0.1359949443D-02
      0.9367496200D+02  0.6099087823D-02
      0.4562786600D+02  0.2020512628D-01
      0.2348911600D+02  0.5264617992D-01
      0.1245674400D+02  0.1146282455D+00
      0.6691558000D+01  0.1943359799D+00
      0.3600993000D+01  0.2511656654D+00
      0.1925186000D+01  0.2619300700D+00
      0.1013794000D+01  0.2269155133D+00
      0.5196410000D+00  0.1558659689D+00
      0.2545990000D+00  0.7107674057D-01
      0.1160100000D+00  0.1334123308D-01
 S  10 1.00       0.000000000000
      0.4936946700D+02 -0.4061624677D-03
      0.2492567100D+02  0.5451880683D-02
      0.1246613700D+02  0.2452302120D-01
      0.6131842000D+01  0.3222323688D-03
      0.2946538000D+01 -0.7581979997D-01
      0.1374494000D+01 -0.1522744269D+00
      0.6186430000D+00 -0.1172386697D+00
      0.2670670000D+00  0.1891719539D+00
      0.1099270000D+00  0.6080307727D+00
      0.4288200000D-01  0.3777704083D+00
 S   1 1.00       0.000000000000
      0.1672806400D-01  0.1000000000D+01
 P  10 1.00       0.000000000000
      0.4442672400D+02  0.1860143308D-02
      0.2366626800D+02 -0.4513106334D-03
      0.1272170300D+02  0.3867661567D-02
      0.6849093000D+01 -0.2985586715D-01
      0.3662453000D+01 -0.2276979829D-01
      0.1924513000D+01 -0.8175940652D-01
      0.9794040000D+00  0.1548248511D-01
      0.4732000000D+00 -0.5578123461D-01
      0.2113150000D+00  0.4107475544D+00
      0.5649636820D-01  0.7307375079D+00
 S   1 1.00       0.000000000000
      0.6026189000D+01  0.1000000000D+01
 S   1 1.00       0.000000000000
      0.2697799000D+01  0.1000000000D+01
 S   1 1.00       0.000000000000
      0.1207749000D+01  0.1000000000D+01
 S   1 1.00       0.000000000000
      0.5406840000D+00  0.1000000000D+01
 S   1 1.00       0.000000000000
      0.2420530000D+00  0.1000000000D+01
 P   1 1.00       0.000000000000
      0.3970377000D+01  0.1000000000D+01
 P   1 1.00       0.000000000000
      0.1771358000D+01  0.1000000000D+01
 P   1 1.00       0.000000000000
      0.7902800000D+00  0.1000000000D+01
 P   1 1.00       0.000000000000
      0.3525780000D+00  0.1000000000D+01
 P   1 1.00       0.000000000000
      0.1573010000D+00  0.1000000000D+01
 D   1 1.00       0.000000000000
      0.6462804000D+01  0.1000000000D+01
 D   1 1.00       0.000000000000
      0.2688405000D+01  0.1000000000D+01
 D   1 1.00       0.000000000000
      0.1118326000D+01  0.1000000000D+01
 D   1 1.00       0.000000000000
      0.4652030000D+00  0.1000000000D+01
 D   1 1.00       0.000000000000
      0.1935160000D+00  0.1000000000D+01
 F   1 1.00       0.000000000000
      0.1548282600D+02  0.1000000000D+01
 F   1 1.00       0.000000000000
      0.6187545000D+01  0.1000000000D+01
 F   1 1.00       0.000000000000
      0.2472786000D+01  0.1000000000D+01
 F   1 1.00       0.000000000000
      0.9882220000D+00  0.1000000000D+01
 F   1 1.00       0.000000000000
      0.3949320000D+00  0.1000000000D+01
 G   1 1.00       0.000000000000
      0.1222701500D+02  0.1000000000D+01
 G   1 1.00       0.000000000000
      0.4842979000D+01  0.1000000000D+01
 G   1 1.00       0.000000000000
      0.1918248000D+01  0.1000000000D+01
 G   1 1.00       0.000000000000
      0.7597960000D+00  0.1000000000D+01
 H   1 1.00       0.000000000000
      0.1034322500D+02  0.1000000000D+01
 H   1 1.00       0.000000000000
      0.3905368000D+01  0.1000000000D+01
 H   1 1.00       0.000000000000
      0.1474579000D+01  0.1000000000D+01
 I   1 1.00       0.000000000000
      0.8750052000D+01  0.1000000000D+01
 I   1 1.00       0.000000000000
      0.3115680000D+01  0.1000000000D+01
 J   1 1.00       0.000000000000
      0.6070721231D+01  0.1000000000D+01
 ****
      2 0
 S  16 1.00       0.000000000000
      0.1979806680D+08  0.1623567179D-05
      0.3809235300D+07  0.9803830171D-05
      0.8786026110D+06  0.5586916502D-04
      0.2371425360D+06  0.2557485555D-03
      0.7326246060D+05  0.9974439684D-03
      0.2538755310D+05  0.3376152907D-02
      0.9687426810D+04  0.1012833271D-01
      0.4002609060D+04  0.2725498573D-01
      0.1763563910D+04  0.6575518569D-01
      0.8172127730D+03  0.1395054131D+00
      0.3932994910D+03  0.2467809431D+00
      0.1943655590D+03  0.3244204364D+00
      0.9762265100D+02  0.2499421228D+00
      0.4936946700D+02  0.7554450364D-01
      0.2492567100D+02  0.4820860570D-02
      0.1246613700D+02  0.1035438587D-02
 S  13 1.00       0.000000000000
      0.9687426810D+04 -0.2624827997D-04
      0.4002609060D+04 -0.1866003284D-03
      0.1763563910D+04 -0.1061443079D-02
      0.8172127730D+03 -0.5201520383D-02
      0.3932994910D+03 -0.1968777592D-01
      0.1943655590D+03 -0.5843419007D-01
      0.9762265100D+02 -0.9277140929D-01
      0.4936946700D+02  0.1945988313D-01
      0.2492567100D+02  0.3945510086D+00
      0.1246613700D+02  0.5288261691D+00
      0.6131842000D+01  0.1684182459D+00
      0.2946538000D+01  0.8886965204D-02
      0.1374494000D+01  0.1751886659D-02
 P  17 1.00       0.000000000000
      0.5861413600D+05  0.8159296903D-05
      0.1488700610D+05  0.6940798053D-04
      0.4712775080D+04  0.4398441442D-03
      0.1759675870D+04  0.2079975121D-02
      0.7416257650D+03  0.7911509733D-02
      0.3409365510D+03  0.2507126181D-01
      0.1665765850D+03  0.6748412233D-01
      0.8484752700D+02  0.1504993301D+00
      0.4442672400D+02  0.2628953141D+00
      0.2366626800D+02  0.3324676411D+00
      0.1272170300D+02  0.2468014741D+00
      0.6849093000D+01  0.8234684533D-01
      0.3662453000D+01  0.1043906180D-01
      0.1924513000D+01  0.1209813020D-02
      0.9794040000D+00  0.3928626602D-03
      0.4732000000D+00  0.6836411773D-04
      0.2113150000D+00  0.1045287340D-04
 S  11 1.00       0.000000000000
      0.1943655590D+03  0.6602263336D-03
      0.9762265100D+02  0.2444743736D-02
      0.4936946700D+02  0.1450239909D-02
      0.2492567100D+02 -0.5317821197D-01
      0.1246613700D+02 -0.2105117465D+00
      0.6131842000D+01 -0.2368115776D-01
      0.2946538000D+01  0.5277205767D+00
      0.1374494000D+01  0.5406337584D+00
      0.6186430000D+00  0.1124443596D+00
      0.2670670000D+00 -0.1008506437D-02
      0.1099270000D+00  0.1290437758D-02
 P  17 1.00       0.000000000000
      0.5861413600D+05 -0.3042170591D-05
      0.1488700610D+05 -0.2592041001D-04
      0.4712775080D+04 -0.1642635780D-03
      0.1759675870D+04 -0.7796737192D-03
      0.7416257650D+03 -0.2979859491D-02
      0.3409365510D+03 -0.9562962963D-02
      0.1665765850D+03 -0.2628469711D-01
      0.8484752700D+02 -0.6075347862D-01
      0.4442672400D+02 -0.1106546080D+00
      0.2366626800D+02 -0.1481405880D+00
      0.1272170300D+02 -0.8380616512D-01
      0.6849093000D+01  0.1372337550D+00
      0.3662453000D+01  0.3563121961D+00
      0.1924513000D+01  0.3973960271D+00
      0.9794040000D+00  0.2286599801D+00
      0.4732000000D+00  0.4491198901D-01
      0.2113150000D+00  0.3101587891D-02
 D  14 1.00       0.000000000000
      0.1773859680D+04  0.2107027498D-04
      0.5494433830D+03  0.2125864354D-03
      0.2110063240D+03  0.1359949443D-02
      0.9367496200D+02  0.6099087823D-02
      0.4562786600D+02  0.2020512628D-01
      0.2348911600D+02  0.5264617992D-01
      0.1245674400D+02  0.1146282455D+00
      0.6691558000D+01  0.1943359799D+00
      0.3600993000D+01  0.2511656654D+00
      0.1925186000D+01  0.2619300700D+00
      0.1013794000D+01  0.2269155133D+00
      0.5196410000D+00  0.1558659689D+00
      0.2545990000D+00  0.7107674057D-01
      0.1160100000D+00  0.1334123308D-01
 S  10 1.00       0.000000000000
      0.4936946700D+02 -0.4061624677D-03
      0.2492567100D+02  0.5451880683D-02
      0.1246613700D+02  0.2452302120D-01
      0.6131842000D+01  0.3222323688D-03
      0.2946538000D+01 -0.7581979997D-01
      0.1374494000D+01 -0.1522744269D+00
      0.6186430000D+00 -0.1172386697D+00
      0.2670670000D+00  0.1891719539D+00
      0.1099270000D+00  0.6080307727D+00
      0.4288200000D-01  0.3777704083D+00
 S   1 1.00       0.000000000000
      0.1672806400D-01  0.1000000000D+01
 P  10 1.00       0.000000000000
      0.4442672400D+02  0.1860143308D-02
      0.2366626800D+02 -0.4513106334D-03
      0.1272170300D+02  0.3867661567D-02
      0.6849093000D+01 -0.2985586715D-01
      0.3662453000D+01 -0.2276979829D-01
      0.1924513000D+01 -0.8175940652D-01
      0.9794040000D+00  0.1548248511D-01
      0.4732000000D+00 -0.5578123461D-01
      0.2113150000D+00  0.4107475544D+00
      0.5649636820D-01  0.7307375079D+00
 S   1 1.00       0.000000000000
      0.6026189000D+01  0.1000000000D+01
 S   1 1.00       0.000000000000
      0.2697799000D+01  0.1000000000D+01
 S   1 1.00       0.000000000000
      0.1207749000D+01  0.1000000000D+01
 S   1 1.00       0.000000000000
      0.5406840000D+00  0.1000000000D+01
 S   1 1.00       0.000000000000
      0.2420530000D+00  0.1000000000D+01
 P   1 1.00       0.000000000000
      0.3970377000D+01  0.1000000000D+01
 P   1 1.00       0.000000000000
      0.1771358000D+01  0.1000000000D+01
 P   1 1.00       0.000000000000
      0.7902800000D+00  0.1000000000D+01
 P   1 1.00       0.000000000000
      0.3525780000D+00  0.1000000000D+01
 P   1 1.00       0.000000000000
      0.1573010000D+00  0.1000000000D+01
 D   1 1.00       0.000000000000
      0.6462804000D+01  0.1000000000D+01
 D   1 1.00       0.000000000000
      0.2688405000D+01  0.1000000000D+01
 D   1 1.00       0.000000000000
      0.1118326000D+01  0.1000000000D+01
 D   1 1.00       0.000000000000
      0.4652030000D+00  0.1000000000D+01
 D   1 1.00       0.000000000000
      0.1935160000D+00  0.1000000000D+01
 F   1 1.00       0.000000000000
      0.1548282600D+02  0.1000000000D+01
 F   1 1.00       0.000000000000
      0.6187545000D+01  0.1000000000D+01
 F   1 1.00       0.000000000000
      0.2472786000D+01  0.1000000000D+01
 F   1 1.00       0.000000000000
      0.9882220000D+00  0.1000000000D+01
 F   1 1.00       0.000000000000
      0.3949320000D+00  0.1000000000D+01
 G   1 1.00       0.000000000000
      0.1222701500D+02  0.1000000000D+01
 G   1 1.00       0.000000000000
      0.4842979000D+01  0.1000000000D+01
 G   1 1.00       0.000000000000
      0.1918248000D+01  0.1000000000D+01
 G   1 1.00       0.000000000000
      0.7597960000D+00  0.1000000000D+01
 H   1 1.00       0.000000000000
      0.1034322500D+02  0.1000000000D+01
 H   1 1.00       0.000000000000
      0.3905368000D+01  0.1000000000D+01
 H   1 1.00       0.000000000000
      0.1474579000D+01  0.1000000000D+01
 I   1 1.00       0.000000000000
      0.8750052000D+01  0.1000000000D+01
 I   1 1.00       0.000000000000
      0.3115680000D+01  0.1000000000D+01
 J   1 1.00       0.000000000000
      0.6070721231D+01  0.1000000000D+01
 ****

 There are   123 symmetry adapted cartesian basis functions of AG  symmetry.
 There are    50 symmetry adapted cartesian basis functions of B1G symmetry.
 There are    81 symmetry adapted cartesian basis functions of B2G symmetry.
 There are    81 symmetry adapted cartesian basis functions of B3G symmetry.
 There are    50 symmetry adapted cartesian basis functions of AU  symmetry.
 There are   123 symmetry adapted cartesian basis functions of B1U symmetry.
 There are    81 symmetry adapted cartesian basis functions of B2U symmetry.
 There are    81 symmetry adapted cartesian basis functions of B3U symmetry.
 There are    73 symmetry adapted basis functions of AG  symmetry.
 There are    34 symmetry adapted basis functions of B1G symmetry.
 There are    51 symmetry adapted basis functions of B2G symmetry.
 There are    51 symmetry adapted basis functions of B3G symmetry.
 There are    34 symmetry adapted basis functions of AU  symmetry.
 There are    73 symmetry adapted basis functions of B1U symmetry.
 There are    51 symmetry adapted basis functions of B2U symmetry.
 There are    51 symmetry adapted basis functions of B3U symmetry.
   418 basis functions,  1164 primitive gaussians,   670 cartesian basis functions
    30 alpha electrons       30 beta electrons
       nuclear repulsion energy       123.8002307593 Hartrees.
 NAtoms=    2 NActive=    2 NUniq=    1 SFac= 4.00D+00 NAtFMM=   60 NAOKFM=F Big=F
 Integral buffers will be    131072 words long.
 Raffenetti 2 integral format.
 Two-electron integral symmetry is turned on.
 One-electron integrals computed using PRISM.
 PrsmSu:  requested number of processors reduced to:   4 ShMem   1 Linda.
 NBasis=   418 RedAO= F EigKep=  0.00D+00  NBF=    73    34    51    51    34    73    51    51
 NBsUse=   418 1.00D-04 EigRej=  0.00D+00 NBFU=    73    34    51    51    34    73    51    51
 ExpMin= 1.67D-02 ExpMax= 1.98D+07 ExpMxC= 9.69D+03 IAcc=3 IRadAn=         5 AccDes= 0.00D+00
 Harris functional with IExCor=  205 and IRadAn=       5 diagonalized for initial guess.
 HarFok:  IExCor=  205 AccDes= 0.00D+00 IRadAn=         5 IDoV= 1 UseB2=F ITyADJ=14
 ICtDFT=  3500011 ScaDFX=  1.000000  1.000000  1.000000  1.000000
 FoFCou: FMM=F IPFlag=           0 FMFlag=      100000 FMFlg1=           0
         NFxFlg=           0 DoJE=T BraDBF=F KetDBF=T FulRan=T
         wScrn=  0.000000 ICntrl=     500 IOpCl=  0 I1Cent=   200000004 NGrid=           0
         NMat0=    1 NMatS0=      1 NMatT0=    0 NMatD0=    1 NMtDS0=    0 NMtDT0=    0
 Petite list used in FoFCou.
 Initial guess orbital symmetries:
       Occupied  (SGU) (SGG) (SGU) (SGG) (SGU) (SGG) (PIG) (PIG)
                 (PIU) (PIU) (SGG) (SGU) (SGG) (SGU) (PIU) (PIU)
                 (PIG) (PIG) (SGG) (PIU) (PIU) (DLTG) (DLTG) (DLTU)
                 (DLTU) (PIG) (PIG) (SGU) (SGG) (SGU)
       Virtual   (SGG) (PIU) (PIU) (PIG) (PIG) (SGU) (SGG) (SGU)
                 (SGG) (PIU) (PIU) (PIG) (PIG) (SGU) (SGG) (PIU)
                 (PIU) (SGU) (SGG) (DLTG) (DLTG) (DLTU) (DLTU)
                 (PIG) (PIG) (SGU) (SGG) (PIU) (PIU) (PIG) (PIG)
                 (SGU) (PIU) (PIU) (SGG) (DLTG) (DLTG) (PHIU) (PHIU)
                 (PHIG) (PHIG) (DLTU) (DLTU) (PIG) (PIG) (SGU)
                 (PIU) (PIU) (DLTG) (DLTG) (DLTU) (DLTU) (SGG)
                 (PIG) (PIG) (SGU) (SGG) (SGU) (PIU) (PIU) (SGG)
                 (PIG) (PIG) (SGU) (DLTG) (DLTG) (DLTU) (DLTU)
                 (PHIU) (PHIU) (PHIG) (PHIG) (PIU) (PIU) (?A) (?B)
                 (?A) (?B) (PIG) (PIG) (SGG) (SGU) (PIU) (PIU)
                 (SGG) (DLTG) (DLTG) (PHIU) (PHIU) (PHIG) (PHIG)
                 (DLTU) (DLTU) (PIG) (PIG) (SGU) (PIU) (PIU) (DLTG)
                 (DLTG) (DLTU) (DLTU) (SGG) (PIG) (PIG) (SGU) (SGG)
                 (SGU) (?C) (PIU) (PIU) (PIG) (PIG) (?D) (DLTG)
                 (DLTU) (DLTG) (DLTU) (?E) (?E) (?F) (?F) (?C)
                 (?D) (?C) (?D) (?F) (?F) (?E) (?E) (SGG) (PIU)
                 (PIU) (DLTG) (DLTG) (PHIU) (PHIU) (PHIG) (PHIG)
                 (DLTU) (DLTU) (PIG) (PIG) (SGU) (?G) (?G) (DLTG)
                 (DLTG) (DLTU) (DLTU) (?H) (?H) (?G) (?G) (?H)
                 (?H) (?H) (?H) (?B) (?B) (?H) (SGU) (PIU) (PIU)
                 (SGG) (PIG) (PIG) (SGU) (PIU) (PIU) (DLTG) (DLTG)
                 (DLTU) (DLTU) (SGG) (PIG) (PIG) (SGU) (DLTU) (DLTG)
                 (?H) (?H) (?H) (?H) (SGG) (SGU) (DLTG) (DLTU)
                 (?H) (?H) (?H) (?H) (?A) (?B) (?B) (?A) (?H) (?H)
                 (?H) (?H) (?H) (?H) (?H) (?H) (SGG) (PIU) (PIU)
                 (DLTG) (DLTG) (PHIU) (PHIU) (PHIG) (PHIG) (DLTU)
                 (DLTU) (PIG) (PIG) (SGU) (SGG) (?H) (?H) (?H)
                 (?H) (SGU) (DLTG) (DLTU) (DLTG) (DLTU) (?H) (?H)
                 (?H) (?H) (?A) (?B) (?B) (?A) (?H) (?H) (?H) (?H)
                 (DLTG) (DLTG) (DLTU) (?G) (?G) (DLTU) (?G) (?G)
                 (?H) (?H) (?H) (?H) (?A) (?B) (?A) (?B) (SGG)
                 (SGU) (SGG) (SGU) (PIU) (PIU) (SGG) (PIG) (PIG)
                 (SGU) (PIU) (PIU) (SGG) (DLTU) (DLTU) (DLTG) (DLTG)
                 (PIG) (PIG) (SGU) (SGG) (SGU) (?H) (?H) (?H) (?H)
                 (DLTU) (DLTG) (DLTU) (DLTG) (?H) (?H) (?H) (?H)
                 (?A) (?B) (?B) (?A) (?H) (?H) (?H) (?H) (?H) (?H)
                 (?H) (?H) (?H) (?H) (?H) (?H) (SGG) (PIU) (PIU)
                 (DLTG) (DLTG) (PHIU) (PHIU) (PHIG) (PHIG) (DLTU)
                 (DLTU) (PIG) (PIG) (SGU) (DLTG) (DLTG) (DLTU)
                 (DLTU) (?G) (?G) (?G) (?G) (PHIG) (PHIG) (?A)
                 (?B) (?A) (?B) (PIG) (PIG) (SGG) (SGU) (SGG) (SGU)
                 (?G) (?G) (?H) (?H) (DLTG) (DLTU) (DLTG) (DLTU)
                 (?G) (?G) (?H) (?H) (?A) (?B) (?B) (?A) (?H) (?H)
                 (?H) (?H) (?H) (?H) (?H) (?H) (SGG) (?H) (?H)
                 (?H) (?H) (DLTG) (DLTU) (SGU) (DLTG) (DLTU) (?H)
                 (?H) (?H) (?H) (?A) (?B) (?B) (?A) (?H) (?H) (?H)
                 (?H) (SGG) (SGU)
 The electronic state of the initial guess is 1-SGG.
 Requested convergence on RMS density matrix=1.00D-10 within 128 cycles.
 Requested convergence on MAX density matrix=1.00D-08.
 Requested convergence on             energy=1.00D-08.
 No special actions if energy rises.
 DSYEVD returned Info=         147 IAlg= 4 N=    73 NDim=   418 NE2=     3849888 trying DSYEV.
 Initial convergence to 1.0D-05 achieved.  Increase integral accuracy.
 SCF Done:  E(ROHF) =  -3555.69403870     A.U. after   15 cycles
            NFock= 15  Conv=0.49D-10     -V/T= 2.0000
 <Sx>= 0.0000 <Sy>= 0.0000 <Sz>= 0.0000 <S**2>= 0.0000 S= 0.0000
 <L.S>= 0.000000000000E+00
 Annihilation of the first spin contaminant:
 S**2 before annihilation     0.0000,   after     0.0000
 GenMOA:  NOpAll=  8 NOp2=8 NOpUse=  8 JSym2X=1
 <Sx>= 0.0000 <Sy>= 0.0000 <Sz>= 0.0000 <S**2>= 0.0000 S= 0.0000
 Range of M.O.s used for correlation:    19   418
 NBasis=   418 NAE=    30 NBE=    30 NFC=    18 NFV=     0
 NROrb=    400 NOA=    12 NOB=    12 NVA=   388 NVB=   388

 **** Warning!!: The largest alpha MO coefficient is  0.90173276D+02


 **** Warning!!: The largest beta MO coefficient is  0.90173276D+02

 Singles contribution to E2=   -0.2491715129D-12
 Disk-based method using OVN memory for 12 occupieds at a time.
 Permanent disk used for amplitudes and <ij||ab> integrals=    63177264 words.
 Estimated scratch disk usage=   973511376 words.
 IUseRI=2 ITolRI= 6 IR12RI=0
 Actual    scratch disk usage=   972768976 words.
 GetIJB would need an additional  1777580251 words of memory to use all   8 processors.
 JobTyp=2 Pass  1:  I=   1 to  12 NPSUse=  1 ParTrn=F ParDer=F DoDerP=F.
 (rs|ai) integrals will be sorted in core.
 T,EIJ(AA): I=   1 J=   2      0.5971332E-03     -0.5544643E-02
 T,EIJ(AA): I=   1 J=   3      0.5971332E-03     -0.5544643E-02
 T,EIJ(AA): I=   1 J=   4      0.3884295E-03     -0.3327066E-02
 T,EIJ(AA): I=   1 J=   5      0.3884295E-03     -0.3327066E-02
 T,EIJ(AA): I=   1 J=   6      0.3884589E-03     -0.3327463E-02
 T,EIJ(AA): I=   1 J=   7      0.3884589E-03     -0.3327463E-02
 T,EIJ(AA): I=   1 J=   8      0.5974771E-03     -0.5550320E-02
 T,EIJ(AA): I=   1 J=   9      0.5974771E-03     -0.5550320E-02
 T,EIJ(AA): I=   1 J=  10      0.4330616E-06     -0.1600013E-05
 T,EIJ(AA): I=   1 J=  11      0.2539833E-03     -0.1075499E-02
 T,EIJ(AA): I=   1 J=  12      0.2770107E-03     -0.1174056E-02
 T,EIJ(AA): I=   2 J=   3      0.4586000E-03     -0.4070131E-02
 T,EIJ(AA): I=   2 J=   4      0.4584914E-03     -0.4071365E-02
 T,EIJ(AA): I=   2 J=   5      0.4584914E-03     -0.4071365E-02
 T,EIJ(AA): I=   2 J=   6      0.4585625E-03     -0.4071933E-02
 T,EIJ(AA): I=   2 J=   7      0.4585625E-03     -0.4071933E-02
 T,EIJ(AA): I=   2 J=   8      0.1878922E-06     -0.7737423E-06
 T,EIJ(AA): I=   2 J=   9      0.4590609E-03     -0.4074690E-02
 T,EIJ(AA): I=   2 J=  10      0.5984783E-03     -0.5559852E-02
 T,EIJ(AA): I=   2 J=  11      0.2534009E-03     -0.1073425E-02
 T,EIJ(AA): I=   2 J=  12      0.2773776E-03     -0.1178695E-02
 T,EIJ(AA): I=   3 J=   4      0.4584914E-03     -0.4071365E-02
 T,EIJ(AA): I=   3 J=   5      0.4584914E-03     -0.4071365E-02
 T,EIJ(AA): I=   3 J=   6      0.4585625E-03     -0.4071933E-02
 T,EIJ(AA): I=   3 J=   7      0.4585625E-03     -0.4071933E-02
 T,EIJ(AA): I=   3 J=   8      0.4590609E-03     -0.4074690E-02
 T,EIJ(AA): I=   3 J=   9      0.1878922E-06     -0.7737423E-06
 T,EIJ(AA): I=   3 J=  10      0.5984783E-03     -0.5559852E-02
 T,EIJ(AA): I=   3 J=  11      0.2534009E-03     -0.1073425E-02
 T,EIJ(AA): I=   3 J=  12      0.2773776E-03     -0.1178695E-02
 T,EIJ(AA): I=   4 J=   5      0.6671771E-03     -0.6295123E-02
 T,EIJ(AA): I=   4 J=   6      0.6949027E-07     -0.3092661E-06
 T,EIJ(AA): I=   4 J=   7      0.6672426E-03     -0.6295857E-02
 T,EIJ(AA): I=   4 J=   8      0.4591352E-03     -0.4076319E-02
 T,EIJ(AA): I=   4 J=   9      0.4591352E-03     -0.4076319E-02
 T,EIJ(AA): I=   4 J=  10      0.3900045E-03     -0.3338053E-02
 T,EIJ(AA): I=   4 J=  11      0.2484490E-03     -0.1057053E-02
 T,EIJ(AA): I=   4 J=  12      0.2820345E-03     -0.1192215E-02
 T,EIJ(AA): I=   5 J=   6      0.6672426E-03     -0.6295857E-02
 T,EIJ(AA): I=   5 J=   7      0.6949027E-07     -0.3092661E-06
 T,EIJ(AA): I=   5 J=   8      0.4591352E-03     -0.4076319E-02
 T,EIJ(AA): I=   5 J=   9      0.4591352E-03     -0.4076319E-02
 T,EIJ(AA): I=   5 J=  10      0.3900045E-03     -0.3338053E-02
 T,EIJ(AA): I=   5 J=  11      0.2484490E-03     -0.1057053E-02
 T,EIJ(AA): I=   5 J=  12      0.2820345E-03     -0.1192215E-02
 T,EIJ(AA): I=   6 J=   7      0.6673238E-03     -0.6296625E-02
 T,EIJ(AA): I=   6 J=   8      0.4592067E-03     -0.4076833E-02
 T,EIJ(AA): I=   6 J=   9      0.4592067E-03     -0.4076833E-02
 T,EIJ(AA): I=   6 J=  10      0.3900762E-03     -0.3338487E-02
 T,EIJ(AA): I=   6 J=  11      0.2499080E-03     -0.1059022E-02
 T,EIJ(AA): I=   6 J=  12      0.2816456E-03     -0.1191746E-02
 T,EIJ(AA): I=   7 J=   8      0.4592067E-03     -0.4076833E-02
 T,EIJ(AA): I=   7 J=   9      0.4592067E-03     -0.4076833E-02
 T,EIJ(AA): I=   7 J=  10      0.3900762E-03     -0.3338487E-02
 T,EIJ(AA): I=   7 J=  11      0.2499080E-03     -0.1059022E-02
 T,EIJ(AA): I=   7 J=  12      0.2816456E-03     -0.1191746E-02
 T,EIJ(AA): I=   8 J=   9      0.4597225E-03     -0.4079478E-02
 T,EIJ(AA): I=   8 J=  10      0.5994160E-03     -0.5566312E-02
 T,EIJ(AA): I=   8 J=  11      0.2594822E-03     -0.1083078E-02
 T,EIJ(AA): I=   8 J=  12      0.2797706E-03     -0.1182922E-02
 T,EIJ(AA): I=   9 J=  10      0.5994160E-03     -0.5566312E-02
 T,EIJ(AA): I=   9 J=  11      0.2594822E-03     -0.1083078E-02
 T,EIJ(AA): I=   9 J=  12      0.2797706E-03     -0.1182922E-02
 T,EIJ(AA): I=  10 J=  11      0.2647095E-03     -0.1094773E-02
 T,EIJ(AA): I=  10 J=  12      0.2797489E-03     -0.1180076E-02
 T,EIJ(AA): I=  11 J=  12      0.6483119E-03     -0.5964955E-03
 T,EIJ(AB): I=   1 J=   1      0.1033569E-02     -0.9942456E-02
 T,EIJ(AB): I=   1 J=   2      0.6598508E-03     -0.6067266E-02
 T,EIJ(AB): I=   1 J=   3      0.6598508E-03     -0.6067266E-02
 T,EIJ(AB): I=   1 J=   4      0.5709428E-03     -0.5222232E-02
 T,EIJ(AB): I=   1 J=   5      0.5709428E-03     -0.5222232E-02
 T,EIJ(AB): I=   1 J=   6      0.5709753E-03     -0.5222810E-02
 T,EIJ(AB): I=   1 J=   7      0.5709753E-03     -0.5222810E-02
 T,EIJ(AB): I=   1 J=   8      0.6600514E-03     -0.6073026E-02
 T,EIJ(AB): I=   1 J=   9      0.6600514E-03     -0.6073026E-02
 T,EIJ(AB): I=   1 J=  10      0.1032060E-02     -0.9961160E-02
 T,EIJ(AB): I=   1 J=  11      0.4575490E-03     -0.1603571E-02
 T,EIJ(AB): I=   1 J=  12      0.4812488E-03     -0.1727882E-02
 T,EIJ(AB): I=   2 J=   1      0.6598508E-03     -0.6067266E-02
 T,EIJ(AB): I=   2 J=   2      0.1032718E-02     -0.9956055E-02
 T,EIJ(AB): I=   2 J=   3      0.6015630E-03     -0.5509233E-02
 T,EIJ(AB): I=   2 J=   4      0.6014245E-03     -0.5511003E-02
 T,EIJ(AB): I=   2 J=   5      0.6014245E-03     -0.5511003E-02
 T,EIJ(AB): I=   2 J=   6      0.6014681E-03     -0.5511615E-02
 T,EIJ(AB): I=   2 J=   7      0.6014681E-03     -0.5511615E-02
 T,EIJ(AB): I=   2 J=   8      0.1033073E-02     -0.9965485E-02
 T,EIJ(AB): I=   2 J=   9      0.6020571E-03     -0.5515058E-02
 T,EIJ(AB): I=   2 J=  10      0.6605232E-03     -0.6081935E-02
 T,EIJ(AB): I=   2 J=  11      0.4453252E-03     -0.1581359E-02
 T,EIJ(AB): I=   2 J=  12      0.4865102E-03     -0.1737679E-02
 T,EIJ(AB): I=   3 J=   1      0.6598508E-03     -0.6067266E-02
 T,EIJ(AB): I=   3 J=   2      0.6015630E-03     -0.5509233E-02
 T,EIJ(AB): I=   3 J=   3      0.1032718E-02     -0.9956055E-02
 T,EIJ(AB): I=   3 J=   4      0.6014245E-03     -0.5511003E-02
 T,EIJ(AB): I=   3 J=   5      0.6014245E-03     -0.5511003E-02
 T,EIJ(AB): I=   3 J=   6      0.6014681E-03     -0.5511615E-02
 T,EIJ(AB): I=   3 J=   7      0.6014681E-03     -0.5511615E-02
 T,EIJ(AB): I=   3 J=   8      0.6020571E-03     -0.5515058E-02
 T,EIJ(AB): I=   3 J=   9      0.1033073E-02     -0.9965485E-02
 T,EIJ(AB): I=   3 J=  10      0.6605232E-03     -0.6081935E-02
 T,EIJ(AB): I=   3 J=  11      0.4453252E-03     -0.1581359E-02
 T,EIJ(AB): I=   3 J=  12      0.4865102E-03     -0.1737679E-02
 T,EIJ(AB): I=   4 J=   1      0.5709428E-03     -0.5222232E-02
 T,EIJ(AB): I=   4 J=   2      0.6014245E-03     -0.5511003E-02
 T,EIJ(AB): I=   4 J=   3      0.6014245E-03     -0.5511003E-02
 T,EIJ(AB): I=   4 J=   4      0.1032706E-02     -0.9963973E-02
 T,EIJ(AB): I=   4 J=   5      0.6891237E-03     -0.6358613E-02
 T,EIJ(AB): I=   4 J=   6      0.1032679E-02     -0.9964906E-02
 T,EIJ(AB): I=   4 J=   7      0.6892001E-03     -0.6359375E-02
 T,EIJ(AB): I=   4 J=   8      0.6021550E-03     -0.5517337E-02
 T,EIJ(AB): I=   4 J=   9      0.6021550E-03     -0.5517337E-02
 T,EIJ(AB): I=   4 J=  10      0.5740498E-03     -0.5240857E-02
 T,EIJ(AB): I=   4 J=  11      0.4345126E-03     -0.1554352E-02
 T,EIJ(AB): I=   4 J=  12      0.4943307E-03     -0.1757357E-02
 T,EIJ(AB): I=   5 J=   1      0.5709428E-03     -0.5222232E-02
 T,EIJ(AB): I=   5 J=   2      0.6014245E-03     -0.5511003E-02
 T,EIJ(AB): I=   5 J=   3      0.6014245E-03     -0.5511003E-02
 T,EIJ(AB): I=   5 J=   4      0.6891237E-03     -0.6358613E-02
 T,EIJ(AB): I=   5 J=   5      0.1032706E-02     -0.9963973E-02
 T,EIJ(AB): I=   5 J=   6      0.6892001E-03     -0.6359375E-02
 T,EIJ(AB): I=   5 J=   7      0.1032679E-02     -0.9964906E-02
 T,EIJ(AB): I=   5 J=   8      0.6021550E-03     -0.5517337E-02
 T,EIJ(AB): I=   5 J=   9      0.6021550E-03     -0.5517337E-02
 T,EIJ(AB): I=   5 J=  10      0.5740498E-03     -0.5240857E-02
 T,EIJ(AB): I=   5 J=  11      0.4345126E-03     -0.1554352E-02
 T,EIJ(AB): I=   5 J=  12      0.4943307E-03     -0.1757357E-02
 T,EIJ(AB): I=   6 J=   1      0.5709753E-03     -0.5222810E-02
 T,EIJ(AB): I=   6 J=   2      0.6014681E-03     -0.5511615E-02
 T,EIJ(AB): I=   6 J=   3      0.6014681E-03     -0.5511615E-02
 T,EIJ(AB): I=   6 J=   4      0.1032679E-02     -0.9964906E-02
 T,EIJ(AB): I=   6 J=   5      0.6892001E-03     -0.6359375E-02
 T,EIJ(AB): I=   6 J=   6      0.1032907E-02     -0.9966273E-02
 T,EIJ(AB): I=   6 J=   7      0.6892809E-03     -0.6360142E-02
 T,EIJ(AB): I=   6 J=   8      0.6022279E-03     -0.5517989E-02
 T,EIJ(AB): I=   6 J=   9      0.6022279E-03     -0.5517989E-02
 T,EIJ(AB): I=   6 J=  10      0.5741475E-03     -0.5241528E-02
 T,EIJ(AB): I=   6 J=  11      0.4339008E-03     -0.1553732E-02
 T,EIJ(AB): I=   6 J=  12      0.4941353E-03     -0.1757292E-02
 T,EIJ(AB): I=   7 J=   1      0.5709753E-03     -0.5222810E-02
 T,EIJ(AB): I=   7 J=   2      0.6014681E-03     -0.5511615E-02
 T,EIJ(AB): I=   7 J=   3      0.6014681E-03     -0.5511615E-02
 T,EIJ(AB): I=   7 J=   4      0.6892001E-03     -0.6359375E-02
 T,EIJ(AB): I=   7 J=   5      0.1032679E-02     -0.9964906E-02
 T,EIJ(AB): I=   7 J=   6      0.6892809E-03     -0.6360142E-02
 T,EIJ(AB): I=   7 J=   7      0.1032907E-02     -0.9966273E-02
 T,EIJ(AB): I=   7 J=   8      0.6022279E-03     -0.5517989E-02
 T,EIJ(AB): I=   7 J=   9      0.6022279E-03     -0.5517989E-02
 T,EIJ(AB): I=   7 J=  10      0.5741475E-03     -0.5241528E-02
 T,EIJ(AB): I=   7 J=  11      0.4339008E-03     -0.1553732E-02
 T,EIJ(AB): I=   7 J=  12      0.4941353E-03     -0.1757292E-02
 T,EIJ(AB): I=   8 J=   1      0.6600514E-03     -0.6073026E-02
 T,EIJ(AB): I=   8 J=   2      0.1033073E-02     -0.9965485E-02
 T,EIJ(AB): I=   8 J=   3      0.6020571E-03     -0.5515058E-02
 T,EIJ(AB): I=   8 J=   4      0.6021550E-03     -0.5517337E-02
 T,EIJ(AB): I=   8 J=   5      0.6021550E-03     -0.5517337E-02
 T,EIJ(AB): I=   8 J=   6      0.6022279E-03     -0.5517989E-02
 T,EIJ(AB): I=   8 J=   7      0.6022279E-03     -0.5517989E-02
 T,EIJ(AB): I=   8 J=   8      0.1034380E-02     -0.9976283E-02
 T,EIJ(AB): I=   8 J=   9      0.6028225E-03     -0.5521254E-02
 T,EIJ(AB): I=   8 J=  10      0.6614497E-03     -0.6088718E-02
 T,EIJ(AB): I=   8 J=  11      0.4402905E-03     -0.1575735E-02
 T,EIJ(AB): I=   8 J=  12      0.4877218E-03     -0.1739584E-02
 T,EIJ(AB): I=   9 J=   1      0.6600514E-03     -0.6073026E-02
 T,EIJ(AB): I=   9 J=   2      0.6020571E-03     -0.5515058E-02
 T,EIJ(AB): I=   9 J=   3      0.1033073E-02     -0.9965485E-02
 T,EIJ(AB): I=   9 J=   4      0.6021550E-03     -0.5517337E-02
 T,EIJ(AB): I=   9 J=   5      0.6021550E-03     -0.5517337E-02
 T,EIJ(AB): I=   9 J=   6      0.6022279E-03     -0.5517989E-02
 T,EIJ(AB): I=   9 J=   7      0.6022279E-03     -0.5517989E-02
 T,EIJ(AB): I=   9 J=   8      0.6028225E-03     -0.5521254E-02
 T,EIJ(AB): I=   9 J=   9      0.1034380E-02     -0.9976283E-02
 T,EIJ(AB): I=   9 J=  10      0.6614497E-03     -0.6088718E-02
 T,EIJ(AB): I=   9 J=  11      0.4402905E-03     -0.1575735E-02
 T,EIJ(AB): I=   9 J=  12      0.4877218E-03     -0.1739584E-02
 T,EIJ(AB): I=  10 J=   1      0.1032060E-02     -0.9961160E-02
 T,EIJ(AB): I=  10 J=   2      0.6605232E-03     -0.6081935E-02
 T,EIJ(AB): I=  10 J=   3      0.6605232E-03     -0.6081935E-02
 T,EIJ(AB): I=  10 J=   4      0.5740498E-03     -0.5240857E-02
 T,EIJ(AB): I=  10 J=   5      0.5740498E-03     -0.5240857E-02
 T,EIJ(AB): I=  10 J=   6      0.5741475E-03     -0.5241528E-02
 T,EIJ(AB): I=  10 J=   7      0.5741475E-03     -0.5241528E-02
 T,EIJ(AB): I=  10 J=   8      0.6614497E-03     -0.6088718E-02
 T,EIJ(AB): I=  10 J=   9      0.6614497E-03     -0.6088718E-02
 T,EIJ(AB): I=  10 J=  10      0.1034388E-02     -0.9985811E-02
 T,EIJ(AB): I=  10 J=  11      0.4397201E-03     -0.1581489E-02
 T,EIJ(AB): I=  10 J=  12      0.4870389E-03     -0.1734540E-02
 T,EIJ(AB): I=  11 J=   1      0.4575490E-03     -0.1603571E-02
 T,EIJ(AB): I=  11 J=   2      0.4453252E-03     -0.1581359E-02
 T,EIJ(AB): I=  11 J=   3      0.4453252E-03     -0.1581359E-02
 T,EIJ(AB): I=  11 J=   4      0.4345126E-03     -0.1554352E-02
 T,EIJ(AB): I=  11 J=   5      0.4345126E-03     -0.1554352E-02
 T,EIJ(AB): I=  11 J=   6      0.4339008E-03     -0.1553732E-02
 T,EIJ(AB): I=  11 J=   7      0.4339008E-03     -0.1553732E-02
 T,EIJ(AB): I=  11 J=   8      0.4402905E-03     -0.1575735E-02
 T,EIJ(AB): I=  11 J=   9      0.4402905E-03     -0.1575735E-02
 T,EIJ(AB): I=  11 J=  10      0.4397201E-03     -0.1581489E-02
 T,EIJ(AB): I=  11 J=  11      0.1158694E-01     -0.1216110E-01
 T,EIJ(AB): I=  11 J=  12      0.1093545E-01     -0.1160295E-01
 T,EIJ(AB): I=  12 J=   1      0.4812488E-03     -0.1727882E-02
 T,EIJ(AB): I=  12 J=   2      0.4865102E-03     -0.1737679E-02
 T,EIJ(AB): I=  12 J=   3      0.4865102E-03     -0.1737679E-02
 T,EIJ(AB): I=  12 J=   4      0.4943307E-03     -0.1757357E-02
 T,EIJ(AB): I=  12 J=   5      0.4943307E-03     -0.1757357E-02
 T,EIJ(AB): I=  12 J=   6      0.4941353E-03     -0.1757292E-02
 T,EIJ(AB): I=  12 J=   7      0.4941353E-03     -0.1757292E-02
 T,EIJ(AB): I=  12 J=   8      0.4877218E-03     -0.1739584E-02
 T,EIJ(AB): I=  12 J=   9      0.4877218E-03     -0.1739584E-02
 T,EIJ(AB): I=  12 J=  10      0.4870389E-03     -0.1734540E-02
 T,EIJ(AB): I=  12 J=  11      0.1093545E-01     -0.1160295E-01
 T,EIJ(AB): I=  12 J=  12      0.1404560E-01     -0.1391820E-01
 Actual    scratch disk usage=   972768976 words.
 GetIJB would need an additional  1777580251 words of memory to use all   8 processors.
 JobTyp=3 Pass  1:  I=   1 to  12 NPSUse=  1 ParTrn=F ParDer=F DoDerP=F.
 (rs|ai) integrals will be sorted in core.
 T,EIJ(BB): I=   1 J=   2      0.5971332E-03     -0.5544643E-02
 T,EIJ(BB): I=   1 J=   3      0.5971332E-03     -0.5544643E-02
 T,EIJ(BB): I=   1 J=   4      0.3884295E-03     -0.3327066E-02
 T,EIJ(BB): I=   1 J=   5      0.3884295E-03     -0.3327066E-02
 T,EIJ(BB): I=   1 J=   6      0.3884589E-03     -0.3327463E-02
 T,EIJ(BB): I=   1 J=   7      0.3884589E-03     -0.3327463E-02
 T,EIJ(BB): I=   1 J=   8      0.5974771E-03     -0.5550320E-02
 T,EIJ(BB): I=   1 J=   9      0.5974771E-03     -0.5550320E-02
 T,EIJ(BB): I=   1 J=  10      0.4330616E-06     -0.1600013E-05
 T,EIJ(BB): I=   1 J=  11      0.2539833E-03     -0.1075499E-02
 T,EIJ(BB): I=   1 J=  12      0.2770107E-03     -0.1174056E-02
 T,EIJ(BB): I=   2 J=   3      0.4586000E-03     -0.4070131E-02
 T,EIJ(BB): I=   2 J=   4      0.4584914E-03     -0.4071365E-02
 T,EIJ(BB): I=   2 J=   5      0.4584914E-03     -0.4071365E-02
 T,EIJ(BB): I=   2 J=   6      0.4585625E-03     -0.4071933E-02
 T,EIJ(BB): I=   2 J=   7      0.4585625E-03     -0.4071933E-02
 T,EIJ(BB): I=   2 J=   8      0.1878922E-06     -0.7737423E-06
 T,EIJ(BB): I=   2 J=   9      0.4590609E-03     -0.4074690E-02
 T,EIJ(BB): I=   2 J=  10      0.5984783E-03     -0.5559852E-02
 T,EIJ(BB): I=   2 J=  11      0.2534009E-03     -0.1073425E-02
 T,EIJ(BB): I=   2 J=  12      0.2773776E-03     -0.1178695E-02
 T,EIJ(BB): I=   3 J=   4      0.4584914E-03     -0.4071365E-02
 T,EIJ(BB): I=   3 J=   5      0.4584914E-03     -0.4071365E-02
 T,EIJ(BB): I=   3 J=   6      0.4585625E-03     -0.4071933E-02
 T,EIJ(BB): I=   3 J=   7      0.4585625E-03     -0.4071933E-02
 T,EIJ(BB): I=   3 J=   8      0.4590609E-03     -0.4074690E-02
 T,EIJ(BB): I=   3 J=   9      0.1878922E-06     -0.7737423E-06
 T,EIJ(BB): I=   3 J=  10      0.5984783E-03     -0.5559852E-02
 T,EIJ(BB): I=   3 J=  11      0.2534009E-03     -0.1073425E-02
 T,EIJ(BB): I=   3 J=  12      0.2773776E-03     -0.1178695E-02
 T,EIJ(BB): I=   4 J=   5      0.6671771E-03     -0.6295123E-02
 T,EIJ(BB): I=   4 J=   6      0.6949027E-07     -0.3092661E-06
 T,EIJ(BB): I=   4 J=   7      0.6672426E-03     -0.6295857E-02
 T,EIJ(BB): I=   4 J=   8      0.4591352E-03     -0.4076319E-02
 T,EIJ(BB): I=   4 J=   9      0.4591352E-03     -0.4076319E-02
 T,EIJ(BB): I=   4 J=  10      0.3900045E-03     -0.3338053E-02
 T,EIJ(BB): I=   4 J=  11      0.2484490E-03     -0.1057053E-02
 T,EIJ(BB): I=   4 J=  12      0.2820345E-03     -0.1192215E-02
 T,EIJ(BB): I=   5 J=   6      0.6672426E-03     -0.6295857E-02
 T,EIJ(BB): I=   5 J=   7      0.6949027E-07     -0.3092661E-06
 T,EIJ(BB): I=   5 J=   8      0.4591352E-03     -0.4076319E-02
 T,EIJ(BB): I=   5 J=   9      0.4591352E-03     -0.4076319E-02
 T,EIJ(BB): I=   5 J=  10      0.3900045E-03     -0.3338053E-02
 T,EIJ(BB): I=   5 J=  11      0.2484490E-03     -0.1057053E-02
 T,EIJ(BB): I=   5 J=  12      0.2820345E-03     -0.1192215E-02
 T,EIJ(BB): I=   6 J=   7      0.6673238E-03     -0.6296625E-02
 T,EIJ(BB): I=   6 J=   8      0.4592067E-03     -0.4076833E-02
 T,EIJ(BB): I=   6 J=   9      0.4592067E-03     -0.4076833E-02
 T,EIJ(BB): I=   6 J=  10      0.3900762E-03     -0.3338487E-02
 T,EIJ(BB): I=   6 J=  11      0.2499080E-03     -0.1059022E-02
 T,EIJ(BB): I=   6 J=  12      0.2816456E-03     -0.1191746E-02
 T,EIJ(BB): I=   7 J=   8      0.4592067E-03     -0.4076833E-02
 T,EIJ(BB): I=   7 J=   9      0.4592067E-03     -0.4076833E-02
 T,EIJ(BB): I=   7 J=  10      0.3900762E-03     -0.3338487E-02
 T,EIJ(BB): I=   7 J=  11      0.2499080E-03     -0.1059022E-02
 T,EIJ(BB): I=   7 J=  12      0.2816456E-03     -0.1191746E-02
 T,EIJ(BB): I=   8 J=   9      0.4597225E-03     -0.4079478E-02
 T,EIJ(BB): I=   8 J=  10      0.5994160E-03     -0.5566312E-02
 T,EIJ(BB): I=   8 J=  11      0.2594822E-03     -0.1083078E-02
 T,EIJ(BB): I=   8 J=  12      0.2797706E-03     -0.1182922E-02
 T,EIJ(BB): I=   9 J=  10      0.5994160E-03     -0.5566312E-02
 T,EIJ(BB): I=   9 J=  11      0.2594822E-03     -0.1083078E-02
 T,EIJ(BB): I=   9 J=  12      0.2797706E-03     -0.1182922E-02
 T,EIJ(BB): I=  10 J=  11      0.2647095E-03     -0.1094773E-02
 T,EIJ(BB): I=  10 J=  12      0.2797489E-03     -0.1180076E-02
 T,EIJ(BB): I=  11 J=  12      0.6483119E-03     -0.5964955E-03
 Spin components of T(2) and E(2):
     alpha-alpha T2 =       0.2573480970D-01 E2=     -0.2009336203D+00
     alpha-beta  T2 =       0.1360787458D+00 E2=     -0.7673190981D+00
     beta-beta   T2 =       0.2573480970D-01 E2=     -0.2009336203D+00
 ANorm=    0.1089746927D+01
 E2 =    -0.1169186339D+01 EUMP2 =    -0.35568632250396D+04

 Complete Basis Set (CBS) Extrapolation:
 M. R. Nyden and G. A. Petersson, JCP 75, 1843 (1981)
 G. A. Petersson and M. A. Al-Laham, JCP 94, 6081 (1991)
 G. A. Petersson, T. Tensfeldt, and J. A. Montgomery, JCP 94, 6091 (1991)
 J. A. Montgomery, J. W. Ochterski, and G. A. Petersson, JCP 101, 5900 (1994)
 
 Minimum Number of PNO for Extrapolation =  20
 Absolute Overlaps: IRadAn =         5
 LocTrn: ILocal=3 LocCor=F DoCore=F.
 Entering OneElI...
 Overlap between basis sets.
 Requested accuracy = 0.1000D-12
 PrsmSu:  NPrtUS=   1 ThrOK=F IAlg=1 NPAlg=1 LenDen=           0.
 Prism:   IPart=     0 DynPar=F LinDyn=F Incr=           1.
 PRISM was handed  1609792903 working-precision words and    76 shell-pairs
 IPart=  0 NShTot=          76 NBatch=          13 AvBLen=         5.8
 PrSmSu:  NxtVal=              2.
 CnvPC2: ToCart=F DoDens=F IPureD=0 IPureF=0.
 Transformed matrix in CnvPC2: 
                 1             2             3             4             5 
      1   0.100000D+01  0.397781D+00  0.000000D+00  0.000000D+00  0.000000D+00
      2   0.397781D+00  0.100000D+01  0.000000D+00  0.000000D+00  0.000000D+00
      3   0.000000D+00  0.000000D+00  0.100000D+01  0.000000D+00  0.000000D+00
      4   0.000000D+00  0.000000D+00  0.000000D+00  0.100000D+01  0.000000D+00
      5   0.000000D+00  0.000000D+00  0.000000D+00  0.000000D+00  0.100000D+01
      6   0.273329D-01  0.326933D+00  0.000000D+00  0.000000D+00  0.000000D+00
      7   0.000000D+00  0.000000D+00  0.339871D+00  0.000000D+00  0.000000D+00
      8   0.000000D+00  0.000000D+00  0.000000D+00  0.339871D+00  0.000000D+00
      9   0.000000D+00  0.000000D+00  0.000000D+00  0.000000D+00  0.339871D+00
     10   0.000000D+00  0.000000D+00  0.000000D+00  0.000000D+00  0.000000D+00
     11   0.000000D+00  0.000000D+00  0.000000D+00  0.000000D+00  0.000000D+00
     12   0.000000D+00  0.000000D+00  0.000000D+00  0.000000D+00  0.000000D+00
     13   0.000000D+00  0.000000D+00  0.000000D+00  0.000000D+00  0.000000D+00
     14   0.000000D+00  0.000000D+00  0.000000D+00  0.000000D+00  0.000000D+00
     15  -0.379176D-03  0.483794D-02  0.000000D+00  0.000000D+00  0.000000D+00
     16   0.000000D+00  0.000000D+00  0.130039D-01  0.000000D+00  0.000000D+00
     17   0.000000D+00  0.000000D+00  0.000000D+00  0.130039D-01  0.000000D+00
     18   0.000000D+00  0.000000D+00  0.000000D+00  0.000000D+00  0.130039D-01
     19   0.000000D+00  0.000000D+00  0.000000D+00  0.000000D+00  0.000000D+00
     20   0.000000D+00  0.000000D+00  0.000000D+00  0.000000D+00  0.000000D+00
     21   0.000000D+00  0.000000D+00  0.000000D+00  0.000000D+00  0.000000D+00
     22   0.000000D+00  0.000000D+00  0.000000D+00  0.000000D+00  0.000000D+00
     23   0.000000D+00  0.000000D+00  0.000000D+00  0.000000D+00  0.000000D+00
     24   0.000000D+00  0.000000D+00  0.000000D+00  0.000000D+00  0.000000D+00
     25   0.000000D+00  0.000000D+00  0.000000D+00  0.000000D+00  0.000000D+00
     26   0.000000D+00  0.000000D+00  0.000000D+00  0.000000D+00  0.000000D+00
     27   0.000000D+00  0.000000D+00  0.000000D+00  0.000000D+00  0.000000D+00
     28   0.000000D+00  0.000000D+00  0.000000D+00  0.000000D+00  0.000000D+00
     29   0.000000D+00  0.000000D+00  0.000000D+00  0.000000D+00  0.000000D+00
     30   0.000000D+00  0.000000D+00  0.000000D+00  0.000000D+00  0.000000D+00
     31   0.000000D+00  0.000000D+00  0.000000D+00  0.000000D+00  0.000000D+00
     32   0.000000D+00  0.000000D+00  0.000000D+00  0.000000D+00  0.000000D+00
     33   0.772375D-05  0.508838D-04  0.000000D+00  0.000000D+00 -0.196435D-04
     34   0.000000D+00  0.000000D+00  0.345069D-05  0.000000D+00  0.000000D+00
     35   0.000000D+00  0.000000D+00  0.000000D+00  0.345069D-05  0.000000D+00
     36   0.207710D-04  0.135529D-03  0.000000D+00  0.000000D+00 -0.489316D-04
                 6             7             8             9            10 
      1   0.273329D-01  0.000000D+00  0.000000D+00  0.000000D+00  0.000000D+00
      2   0.326933D+00  0.000000D+00  0.000000D+00  0.000000D+00  0.000000D+00
      3   0.000000D+00  0.339871D+00  0.000000D+00  0.000000D+00  0.000000D+00
      4   0.000000D+00  0.000000D+00  0.339871D+00  0.000000D+00  0.000000D+00
      5   0.000000D+00  0.000000D+00  0.000000D+00  0.339871D+00  0.000000D+00
      6   0.100000D+01  0.000000D+00  0.000000D+00  0.000000D+00  0.000000D+00
      7   0.000000D+00  0.100000D+01  0.000000D+00  0.000000D+00  0.000000D+00
      8   0.000000D+00  0.000000D+00  0.100000D+01  0.000000D+00  0.000000D+00
      9   0.000000D+00  0.000000D+00  0.000000D+00  0.100000D+01  0.000000D+00
     10   0.000000D+00  0.000000D+00  0.000000D+00  0.000000D+00  0.100000D+01
     11   0.000000D+00  0.000000D+00  0.000000D+00  0.000000D+00  0.000000D+00
     12   0.000000D+00  0.000000D+00  0.000000D+00  0.000000D+00  0.000000D+00
     13   0.000000D+00  0.000000D+00  0.000000D+00  0.000000D+00  0.000000D+00
     14   0.000000D+00  0.000000D+00  0.000000D+00  0.000000D+00  0.000000D+00
     15   0.204897D+00  0.000000D+00  0.000000D+00  0.000000D+00  0.000000D+00
     16   0.000000D+00  0.221280D+00  0.000000D+00  0.000000D+00  0.000000D+00
     17   0.000000D+00  0.000000D+00  0.221280D+00  0.000000D+00  0.000000D+00
     18   0.000000D+00  0.000000D+00  0.000000D+00  0.221280D+00  0.000000D+00
     19   0.000000D+00  0.000000D+00  0.000000D+00  0.000000D+00  0.000000D+00
     20   0.000000D+00  0.000000D+00  0.000000D+00  0.000000D+00  0.000000D+00
     21   0.000000D+00  0.000000D+00  0.000000D+00  0.000000D+00  0.000000D+00
     22   0.000000D+00  0.000000D+00  0.000000D+00  0.000000D+00  0.000000D+00
     23   0.000000D+00  0.000000D+00  0.000000D+00  0.000000D+00  0.000000D+00
     24   0.000000D+00  0.000000D+00  0.000000D+00  0.000000D+00  0.000000D+00
     25   0.000000D+00  0.000000D+00  0.000000D+00  0.000000D+00  0.000000D+00
     26   0.000000D+00  0.000000D+00  0.000000D+00  0.000000D+00  0.000000D+00
     27   0.000000D+00  0.000000D+00  0.000000D+00  0.000000D+00  0.000000D+00
     28   0.000000D+00  0.000000D+00  0.000000D+00  0.000000D+00  0.000000D+00
     29   0.000000D+00  0.000000D+00  0.000000D+00  0.000000D+00  0.000000D+00
     30   0.000000D+00  0.000000D+00  0.000000D+00  0.000000D+00  0.000000D+00
     31   0.000000D+00  0.000000D+00  0.000000D+00  0.000000D+00  0.000000D+00
     32   0.000000D+00  0.000000D+00  0.000000D+00  0.000000D+00  0.000000D+00
     33   0.450449D-03  0.000000D+00  0.000000D+00 -0.460467D-03  0.337663D-03
     34   0.000000D+00  0.809818D-04  0.000000D+00  0.000000D+00  0.000000D+00
     35   0.000000D+00  0.000000D+00  0.809818D-04  0.000000D+00  0.000000D+00
     36   0.110614D-02  0.000000D+00  0.000000D+00 -0.106328D-02  0.717946D-03
                11            12            13            14            15 
      1   0.000000D+00  0.000000D+00  0.000000D+00  0.000000D+00 -0.379176D-03
      2   0.000000D+00  0.000000D+00  0.000000D+00  0.000000D+00  0.483794D-02
      3   0.000000D+00  0.000000D+00  0.000000D+00  0.000000D+00  0.000000D+00
      4   0.000000D+00  0.000000D+00  0.000000D+00  0.000000D+00  0.000000D+00
      5   0.000000D+00  0.000000D+00  0.000000D+00  0.000000D+00  0.000000D+00
      6   0.000000D+00  0.000000D+00  0.000000D+00  0.000000D+00  0.204897D+00
      7   0.000000D+00  0.000000D+00  0.000000D+00  0.000000D+00  0.000000D+00
      8   0.000000D+00  0.000000D+00  0.000000D+00  0.000000D+00  0.000000D+00
      9   0.000000D+00  0.000000D+00  0.000000D+00  0.000000D+00  0.000000D+00
     10   0.000000D+00  0.000000D+00  0.000000D+00  0.000000D+00  0.000000D+00
     11   0.100000D+01  0.000000D+00  0.000000D+00  0.000000D+00  0.000000D+00
     12   0.000000D+00  0.100000D+01  0.000000D+00  0.000000D+00  0.000000D+00
     13   0.000000D+00  0.000000D+00  0.100000D+01  0.000000D+00  0.000000D+00
     14   0.000000D+00  0.000000D+00  0.000000D+00  0.100000D+01  0.000000D+00
     15   0.000000D+00  0.000000D+00  0.000000D+00  0.000000D+00  0.100000D+01
     16   0.000000D+00  0.000000D+00  0.000000D+00  0.000000D+00  0.000000D+00
     17   0.000000D+00  0.000000D+00  0.000000D+00  0.000000D+00  0.000000D+00
     18   0.000000D+00  0.000000D+00  0.000000D+00  0.000000D+00  0.000000D+00
     19   0.000000D+00  0.000000D+00  0.000000D+00  0.000000D+00  0.772375D-05
     20   0.000000D+00  0.000000D+00  0.000000D+00  0.000000D+00  0.508838D-04
     21   0.000000D+00  0.000000D+00  0.000000D+00  0.000000D+00  0.000000D+00
     22   0.000000D+00  0.000000D+00  0.000000D+00  0.000000D+00  0.000000D+00
     23   0.000000D+00  0.000000D+00  0.000000D+00  0.000000D+00  0.196435D-04
     24   0.000000D+00  0.000000D+00  0.000000D+00  0.000000D+00  0.450449D-03
     25   0.000000D+00  0.000000D+00  0.000000D+00  0.000000D+00  0.000000D+00
     26   0.000000D+00  0.000000D+00  0.000000D+00  0.000000D+00  0.000000D+00
     27   0.000000D+00  0.000000D+00  0.000000D+00  0.000000D+00  0.460467D-03
     28   0.000000D+00  0.000000D+00  0.000000D+00  0.000000D+00  0.337663D-03
     29   0.000000D+00  0.000000D+00  0.000000D+00  0.000000D+00  0.000000D+00
     30   0.000000D+00  0.000000D+00  0.000000D+00  0.000000D+00  0.000000D+00
     31   0.000000D+00  0.000000D+00  0.000000D+00  0.000000D+00  0.000000D+00
     32   0.000000D+00  0.000000D+00  0.000000D+00  0.000000D+00  0.000000D+00
     33   0.000000D+00  0.000000D+00  0.000000D+00  0.000000D+00  0.273593D-01
     34  -0.103051D-03  0.000000D+00  0.000000D+00  0.000000D+00  0.000000D+00
     35   0.000000D+00 -0.103051D-03  0.000000D+00  0.000000D+00  0.000000D+00
     36   0.000000D+00  0.000000D+00  0.000000D+00  0.000000D+00  0.438180D-01
                16            17            18            19            20 
      1   0.000000D+00  0.000000D+00  0.000000D+00  0.000000D+00  0.000000D+00
      2   0.000000D+00  0.000000D+00  0.000000D+00  0.000000D+00  0.000000D+00
      3   0.130039D-01  0.000000D+00  0.000000D+00  0.000000D+00  0.000000D+00
      4   0.000000D+00  0.130039D-01  0.000000D+00  0.000000D+00  0.000000D+00
      5   0.000000D+00  0.000000D+00  0.130039D-01  0.000000D+00  0.000000D+00
      6   0.000000D+00  0.000000D+00  0.000000D+00  0.000000D+00  0.000000D+00
      7   0.221280D+00  0.000000D+00  0.000000D+00  0.000000D+00  0.000000D+00
      8   0.000000D+00  0.221280D+00  0.000000D+00  0.000000D+00  0.000000D+00
      9   0.000000D+00  0.000000D+00  0.221280D+00  0.000000D+00  0.000000D+00
     10   0.000000D+00  0.000000D+00  0.000000D+00  0.000000D+00  0.000000D+00
     11   0.000000D+00  0.000000D+00  0.000000D+00  0.000000D+00  0.000000D+00
     12   0.000000D+00  0.000000D+00  0.000000D+00  0.000000D+00  0.000000D+00
     13   0.000000D+00  0.000000D+00  0.000000D+00  0.000000D+00  0.000000D+00
     14   0.000000D+00  0.000000D+00  0.000000D+00  0.000000D+00  0.000000D+00
     15   0.000000D+00  0.000000D+00  0.000000D+00  0.772375D-05  0.508838D-04
     16   0.100000D+01  0.000000D+00  0.000000D+00  0.000000D+00  0.000000D+00
     17   0.000000D+00  0.100000D+01  0.000000D+00  0.000000D+00  0.000000D+00
     18   0.000000D+00  0.000000D+00  0.100000D+01 -0.207710D-04 -0.135529D-03
     19   0.000000D+00  0.000000D+00 -0.207710D-04  0.100000D+01  0.397781D+00
     20   0.000000D+00  0.000000D+00 -0.135529D-03  0.397781D+00  0.100000D+01
     21   0.345069D-05  0.000000D+00  0.000000D+00  0.000000D+00  0.000000D+00
     22   0.000000D+00  0.345069D-05  0.000000D+00  0.000000D+00  0.000000D+00
     23   0.000000D+00  0.000000D+00 -0.489316D-04  0.000000D+00  0.000000D+00
     24   0.000000D+00  0.000000D+00 -0.110614D-02  0.273329D-01  0.326933D+00
     25   0.809818D-04  0.000000D+00  0.000000D+00  0.000000D+00  0.000000D+00
     26   0.000000D+00  0.809818D-04  0.000000D+00  0.000000D+00  0.000000D+00
     27   0.000000D+00  0.000000D+00 -0.106328D-02  0.000000D+00  0.000000D+00
     28   0.000000D+00  0.000000D+00 -0.717946D-03  0.000000D+00  0.000000D+00
     29   0.103051D-03  0.000000D+00  0.000000D+00  0.000000D+00  0.000000D+00
     30   0.000000D+00  0.103051D-03  0.000000D+00  0.000000D+00  0.000000D+00
     31   0.000000D+00  0.000000D+00  0.000000D+00  0.000000D+00  0.000000D+00
     32   0.000000D+00  0.000000D+00  0.000000D+00  0.000000D+00  0.000000D+00
     33   0.000000D+00  0.000000D+00 -0.438180D-01 -0.379176D-03  0.483794D-02
     34   0.905439D-02  0.000000D+00  0.000000D+00  0.000000D+00  0.000000D+00
     35   0.000000D+00  0.905439D-02  0.000000D+00  0.000000D+00  0.000000D+00
     36   0.000000D+00  0.000000D+00 -0.679418D-01  0.000000D+00  0.000000D+00
                21            22            23            24            25 
      1   0.000000D+00  0.000000D+00  0.000000D+00  0.000000D+00  0.000000D+00
      2   0.000000D+00  0.000000D+00  0.000000D+00  0.000000D+00  0.000000D+00
      3   0.000000D+00  0.000000D+00  0.000000D+00  0.000000D+00  0.000000D+00
      4   0.000000D+00  0.000000D+00  0.000000D+00  0.000000D+00  0.000000D+00
      5   0.000000D+00  0.000000D+00  0.000000D+00  0.000000D+00  0.000000D+00
      6   0.000000D+00  0.000000D+00  0.000000D+00  0.000000D+00  0.000000D+00
      7   0.000000D+00  0.000000D+00  0.000000D+00  0.000000D+00  0.000000D+00
      8   0.000000D+00  0.000000D+00  0.000000D+00  0.000000D+00  0.000000D+00
      9   0.000000D+00  0.000000D+00  0.000000D+00  0.000000D+00  0.000000D+00
     10   0.000000D+00  0.000000D+00  0.000000D+00  0.000000D+00  0.000000D+00
     11   0.000000D+00  0.000000D+00  0.000000D+00  0.000000D+00  0.000000D+00
     12   0.000000D+00  0.000000D+00  0.000000D+00  0.000000D+00  0.000000D+00
     13   0.000000D+00  0.000000D+00  0.000000D+00  0.000000D+00  0.000000D+00
     14   0.000000D+00  0.000000D+00  0.000000D+00  0.000000D+00  0.000000D+00
     15   0.000000D+00  0.000000D+00  0.196435D-04  0.450449D-03  0.000000D+00
     16   0.345069D-05  0.000000D+00  0.000000D+00  0.000000D+00  0.809818D-04
     17   0.000000D+00  0.345069D-05  0.000000D+00  0.000000D+00  0.000000D+00
     18   0.000000D+00  0.000000D+00 -0.489316D-04 -0.110614D-02  0.000000D+00
     19   0.000000D+00  0.000000D+00  0.000000D+00  0.273329D-01  0.000000D+00
     20   0.000000D+00  0.000000D+00  0.000000D+00  0.326933D+00  0.000000D+00
     21   0.100000D+01  0.000000D+00  0.000000D+00  0.000000D+00  0.339871D+00
     22   0.000000D+00  0.100000D+01  0.000000D+00  0.000000D+00  0.000000D+00
     23   0.000000D+00  0.000000D+00  0.100000D+01  0.000000D+00  0.000000D+00
     24   0.000000D+00  0.000000D+00  0.000000D+00  0.100000D+01  0.000000D+00
     25   0.339871D+00  0.000000D+00  0.000000D+00  0.000000D+00  0.100000D+01
     26   0.000000D+00  0.339871D+00  0.000000D+00  0.000000D+00  0.000000D+00
     27   0.000000D+00  0.000000D+00  0.339871D+00  0.000000D+00  0.000000D+00
     28   0.000000D+00  0.000000D+00  0.000000D+00  0.000000D+00  0.000000D+00
     29   0.000000D+00  0.000000D+00  0.000000D+00  0.000000D+00  0.000000D+00
     30   0.000000D+00  0.000000D+00  0.000000D+00  0.000000D+00  0.000000D+00
     31   0.000000D+00  0.000000D+00  0.000000D+00  0.000000D+00  0.000000D+00
     32   0.000000D+00  0.000000D+00  0.000000D+00  0.000000D+00  0.000000D+00
     33   0.000000D+00  0.000000D+00  0.000000D+00  0.204897D+00  0.000000D+00
     34   0.130039D-01  0.000000D+00  0.000000D+00  0.000000D+00  0.221280D+00
     35   0.000000D+00  0.130039D-01  0.000000D+00  0.000000D+00  0.000000D+00
     36   0.000000D+00  0.000000D+00  0.130039D-01  0.000000D+00  0.000000D+00
                26            27            28            29            30 
      1   0.000000D+00  0.000000D+00  0.000000D+00  0.000000D+00  0.000000D+00
      2   0.000000D+00  0.000000D+00  0.000000D+00  0.000000D+00  0.000000D+00
      3   0.000000D+00  0.000000D+00  0.000000D+00  0.000000D+00  0.000000D+00
      4   0.000000D+00  0.000000D+00  0.000000D+00  0.000000D+00  0.000000D+00
      5   0.000000D+00  0.000000D+00  0.000000D+00  0.000000D+00  0.000000D+00
      6   0.000000D+00  0.000000D+00  0.000000D+00  0.000000D+00  0.000000D+00
      7   0.000000D+00  0.000000D+00  0.000000D+00  0.000000D+00  0.000000D+00
      8   0.000000D+00  0.000000D+00  0.000000D+00  0.000000D+00  0.000000D+00
      9   0.000000D+00  0.000000D+00  0.000000D+00  0.000000D+00  0.000000D+00
     10   0.000000D+00  0.000000D+00  0.000000D+00  0.000000D+00  0.000000D+00
     11   0.000000D+00  0.000000D+00  0.000000D+00  0.000000D+00  0.000000D+00
     12   0.000000D+00  0.000000D+00  0.000000D+00  0.000000D+00  0.000000D+00
     13   0.000000D+00  0.000000D+00  0.000000D+00  0.000000D+00  0.000000D+00
     14   0.000000D+00  0.000000D+00  0.000000D+00  0.000000D+00  0.000000D+00
     15   0.000000D+00  0.460467D-03  0.337663D-03  0.000000D+00  0.000000D+00
     16   0.000000D+00  0.000000D+00  0.000000D+00  0.103051D-03  0.000000D+00
     17   0.809818D-04  0.000000D+00  0.000000D+00  0.000000D+00  0.103051D-03
     18   0.000000D+00 -0.106328D-02 -0.717946D-03  0.000000D+00  0.000000D+00
     19   0.000000D+00  0.000000D+00  0.000000D+00  0.000000D+00  0.000000D+00
     20   0.000000D+00  0.000000D+00  0.000000D+00  0.000000D+00  0.000000D+00
     21   0.000000D+00  0.000000D+00  0.000000D+00  0.000000D+00  0.000000D+00
     22   0.339871D+00  0.000000D+00  0.000000D+00  0.000000D+00  0.000000D+00
     23   0.000000D+00  0.339871D+00  0.000000D+00  0.000000D+00  0.000000D+00
     24   0.000000D+00  0.000000D+00  0.000000D+00  0.000000D+00  0.000000D+00
     25   0.000000D+00  0.000000D+00  0.000000D+00  0.000000D+00  0.000000D+00
     26   0.100000D+01  0.000000D+00  0.000000D+00  0.000000D+00  0.000000D+00
     27   0.000000D+00  0.100000D+01  0.000000D+00  0.000000D+00  0.000000D+00
     28   0.000000D+00  0.000000D+00  0.100000D+01  0.000000D+00  0.000000D+00
     29   0.000000D+00  0.000000D+00  0.000000D+00  0.100000D+01  0.000000D+00
     30   0.000000D+00  0.000000D+00  0.000000D+00  0.000000D+00  0.100000D+01
     31   0.000000D+00  0.000000D+00  0.000000D+00  0.000000D+00  0.000000D+00
     32   0.000000D+00  0.000000D+00  0.000000D+00  0.000000D+00  0.000000D+00
     33   0.000000D+00  0.000000D+00  0.000000D+00  0.000000D+00  0.000000D+00
     34   0.000000D+00  0.000000D+00  0.000000D+00  0.000000D+00  0.000000D+00
     35   0.221280D+00  0.000000D+00  0.000000D+00  0.000000D+00  0.000000D+00
     36   0.000000D+00  0.221280D+00  0.000000D+00  0.000000D+00  0.000000D+00
                31            32            33            34            35 
      1   0.000000D+00  0.000000D+00  0.772375D-05  0.000000D+00  0.000000D+00
      2   0.000000D+00  0.000000D+00  0.508838D-04  0.000000D+00  0.000000D+00
      3   0.000000D+00  0.000000D+00  0.000000D+00  0.345069D-05  0.000000D+00
      4   0.000000D+00  0.000000D+00  0.000000D+00  0.000000D+00  0.345069D-05
      5   0.000000D+00  0.000000D+00 -0.196435D-04  0.000000D+00  0.000000D+00
      6   0.000000D+00  0.000000D+00  0.450449D-03  0.000000D+00  0.000000D+00
      7   0.000000D+00  0.000000D+00  0.000000D+00  0.809818D-04  0.000000D+00
      8   0.000000D+00  0.000000D+00  0.000000D+00  0.000000D+00  0.809818D-04
      9   0.000000D+00  0.000000D+00 -0.460467D-03  0.000000D+00  0.000000D+00
     10   0.000000D+00  0.000000D+00  0.337663D-03  0.000000D+00  0.000000D+00
     11   0.000000D+00  0.000000D+00  0.000000D+00 -0.103051D-03  0.000000D+00
     12   0.000000D+00  0.000000D+00  0.000000D+00  0.000000D+00 -0.103051D-03
     13   0.000000D+00  0.000000D+00  0.000000D+00  0.000000D+00  0.000000D+00
     14   0.000000D+00  0.000000D+00  0.000000D+00  0.000000D+00  0.000000D+00
     15   0.000000D+00  0.000000D+00  0.273593D-01  0.000000D+00  0.000000D+00
     16   0.000000D+00  0.000000D+00  0.000000D+00  0.905439D-02  0.000000D+00
     17   0.000000D+00  0.000000D+00  0.000000D+00  0.000000D+00  0.905439D-02
     18   0.000000D+00  0.000000D+00 -0.438180D-01  0.000000D+00  0.000000D+00
     19   0.000000D+00  0.000000D+00 -0.379176D-03  0.000000D+00  0.000000D+00
     20   0.000000D+00  0.000000D+00  0.483794D-02  0.000000D+00  0.000000D+00
     21   0.000000D+00  0.000000D+00  0.000000D+00  0.130039D-01  0.000000D+00
     22   0.000000D+00  0.000000D+00  0.000000D+00  0.000000D+00  0.130039D-01
     23   0.000000D+00  0.000000D+00  0.000000D+00  0.000000D+00  0.000000D+00
     24   0.000000D+00  0.000000D+00  0.204897D+00  0.000000D+00  0.000000D+00
     25   0.000000D+00  0.000000D+00  0.000000D+00  0.221280D+00  0.000000D+00
     26   0.000000D+00  0.000000D+00  0.000000D+00  0.000000D+00  0.221280D+00
     27   0.000000D+00  0.000000D+00  0.000000D+00  0.000000D+00  0.000000D+00
     28   0.000000D+00  0.000000D+00  0.000000D+00  0.000000D+00  0.000000D+00
     29   0.000000D+00  0.000000D+00  0.000000D+00  0.000000D+00  0.000000D+00
     30   0.000000D+00  0.000000D+00  0.000000D+00  0.000000D+00  0.000000D+00
     31   0.100000D+01  0.000000D+00  0.000000D+00  0.000000D+00  0.000000D+00
     32   0.000000D+00  0.100000D+01  0.000000D+00  0.000000D+00  0.000000D+00
     33   0.000000D+00  0.000000D+00  0.100000D+01  0.000000D+00  0.000000D+00
     34   0.000000D+00  0.000000D+00  0.000000D+00  0.100000D+01  0.000000D+00
     35   0.000000D+00  0.000000D+00  0.000000D+00  0.000000D+00  0.100000D+01
     36   0.000000D+00  0.000000D+00  0.000000D+00  0.000000D+00  0.000000D+00
                36 
      1   0.207710D-04
      2   0.135529D-03
      3   0.000000D+00
      4   0.000000D+00
      5  -0.489316D-04
      6   0.110614D-02
      7   0.000000D+00
      8   0.000000D+00
      9  -0.106328D-02
     10   0.717946D-03
     11   0.000000D+00
     12   0.000000D+00
     13   0.000000D+00
     14   0.000000D+00
     15   0.438180D-01
     16   0.000000D+00
     17   0.000000D+00
     18  -0.679418D-01
     19   0.000000D+00
     20   0.000000D+00
     21   0.000000D+00
     22   0.000000D+00
     23   0.130039D-01
     24   0.000000D+00
     25   0.000000D+00
     26   0.000000D+00
     27   0.221280D+00
     28   0.000000D+00
     29   0.000000D+00
     30   0.000000D+00
     31   0.000000D+00
     32   0.000000D+00
     33   0.000000D+00
     34   0.000000D+00
     35   0.000000D+00
     36   0.100000D+01
 Entering OneElI...
 Overlap between basis sets.
 Requested accuracy = 0.1000D-12
 PrsmSu:  NPrtUS=   1 ThrOK=F IAlg=1 NPAlg=1 LenDen=           0.
 Prism:   IPart=     0 DynPar=F LinDyn=F Incr=           6.
 PRISM was handed  1609125120 working-precision words and   644 shell-pairs
 IPart=  0 NShTot=         644 NBatch=          91 AvBLen=         7.1
 PrSmSu:  NxtVal=              7.
 CnvPC2: ToCart=F DoDens=F IPureD=0 IPureF=0.
 Transformed matrix in CnvPC2: 
                 1             2             3             4             5 
      1   0.999785D+00  0.407135D+00  0.000000D+00  0.000000D+00  0.000000D+00
      2   0.286410D+00  0.988874D+00  0.000000D+00  0.000000D+00  0.000000D+00
      3   0.000000D+00  0.000000D+00  0.999176D+00  0.000000D+00  0.000000D+00
      4   0.000000D+00  0.000000D+00  0.000000D+00  0.999176D+00  0.000000D+00
      5   0.000000D+00  0.000000D+00  0.000000D+00  0.000000D+00  0.999176D+00
      6   0.124253D-01  0.315570D+00  0.000000D+00  0.000000D+00  0.000000D+00
      7   0.000000D+00  0.000000D+00 -0.187658D-01  0.000000D+00  0.000000D+00
      8   0.000000D+00  0.000000D+00  0.000000D+00 -0.187658D-01  0.000000D+00
      9   0.000000D+00  0.000000D+00  0.000000D+00  0.000000D+00 -0.187658D-01
     10   0.000000D+00  0.000000D+00  0.000000D+00  0.000000D+00  0.000000D+00
     11   0.000000D+00  0.000000D+00  0.000000D+00  0.000000D+00  0.000000D+00
     12   0.000000D+00  0.000000D+00  0.000000D+00  0.000000D+00  0.000000D+00
     13   0.000000D+00  0.000000D+00  0.000000D+00  0.000000D+00  0.000000D+00
     14   0.000000D+00  0.000000D+00  0.000000D+00  0.000000D+00  0.000000D+00
     15  -0.181333D-02 -0.287631D-01  0.000000D+00  0.000000D+00  0.000000D+00
     16   0.285747D-02  0.177166D-01  0.000000D+00  0.000000D+00  0.000000D+00
     17   0.000000D+00  0.000000D+00 -0.341264D-01  0.000000D+00  0.000000D+00
     18   0.000000D+00  0.000000D+00  0.000000D+00 -0.341264D-01  0.000000D+00
     19   0.000000D+00  0.000000D+00  0.000000D+00  0.000000D+00 -0.341264D-01
     20   0.220515D+00  0.854982D+00  0.000000D+00  0.000000D+00  0.000000D+00
     21   0.125317D+00  0.612699D+00  0.000000D+00  0.000000D+00  0.000000D+00
     22   0.697853D-01  0.386607D+00  0.000000D+00  0.000000D+00  0.000000D+00
     23   0.384949D-01  0.226785D+00  0.000000D+00  0.000000D+00  0.000000D+00
     24   0.211430D-01  0.128199D+00  0.000000D+00  0.000000D+00  0.000000D+00
     25   0.000000D+00  0.000000D+00  0.451121D+00  0.000000D+00  0.000000D+00
     26   0.000000D+00  0.000000D+00  0.000000D+00  0.451121D+00  0.000000D+00
     27   0.000000D+00  0.000000D+00  0.000000D+00  0.000000D+00  0.451121D+00
     28   0.000000D+00  0.000000D+00  0.219656D+00  0.000000D+00  0.000000D+00
     29   0.000000D+00  0.000000D+00  0.000000D+00  0.219656D+00  0.000000D+00
     30   0.000000D+00  0.000000D+00  0.000000D+00  0.000000D+00  0.219656D+00
     31   0.000000D+00  0.000000D+00  0.928670D-01  0.000000D+00  0.000000D+00
     32   0.000000D+00  0.000000D+00  0.000000D+00  0.928670D-01  0.000000D+00
     33   0.000000D+00  0.000000D+00  0.000000D+00  0.000000D+00  0.928670D-01
     34   0.000000D+00  0.000000D+00  0.363400D-01  0.000000D+00  0.000000D+00
     35   0.000000D+00  0.000000D+00  0.000000D+00  0.363400D-01  0.000000D+00
     36   0.000000D+00  0.000000D+00  0.000000D+00  0.000000D+00  0.363400D-01
     37   0.000000D+00  0.000000D+00  0.136885D-01  0.000000D+00  0.000000D+00
     38   0.000000D+00  0.000000D+00  0.000000D+00  0.136885D-01  0.000000D+00
     39   0.000000D+00  0.000000D+00  0.000000D+00  0.000000D+00  0.136885D-01
     40   0.000000D+00  0.000000D+00  0.000000D+00  0.000000D+00  0.000000D+00
     41   0.000000D+00  0.000000D+00  0.000000D+00  0.000000D+00  0.000000D+00
     42   0.000000D+00  0.000000D+00  0.000000D+00  0.000000D+00  0.000000D+00
     43   0.000000D+00  0.000000D+00  0.000000D+00  0.000000D+00  0.000000D+00
     44   0.000000D+00  0.000000D+00  0.000000D+00  0.000000D+00  0.000000D+00
     45   0.000000D+00  0.000000D+00  0.000000D+00  0.000000D+00  0.000000D+00
     46   0.000000D+00  0.000000D+00  0.000000D+00  0.000000D+00  0.000000D+00
     47   0.000000D+00  0.000000D+00  0.000000D+00  0.000000D+00  0.000000D+00
     48   0.000000D+00  0.000000D+00  0.000000D+00  0.000000D+00  0.000000D+00
     49   0.000000D+00  0.000000D+00  0.000000D+00  0.000000D+00  0.000000D+00
     50   0.000000D+00  0.000000D+00  0.000000D+00  0.000000D+00  0.000000D+00
     51   0.000000D+00  0.000000D+00  0.000000D+00  0.000000D+00  0.000000D+00
     52   0.000000D+00  0.000000D+00  0.000000D+00  0.000000D+00  0.000000D+00
     53   0.000000D+00  0.000000D+00  0.000000D+00  0.000000D+00  0.000000D+00
     54   0.000000D+00  0.000000D+00  0.000000D+00  0.000000D+00  0.000000D+00
     55   0.000000D+00  0.000000D+00  0.000000D+00  0.000000D+00  0.000000D+00
     56   0.000000D+00  0.000000D+00  0.000000D+00  0.000000D+00  0.000000D+00
     57   0.000000D+00  0.000000D+00  0.000000D+00  0.000000D+00  0.000000D+00
     58   0.000000D+00  0.000000D+00  0.000000D+00  0.000000D+00  0.000000D+00
     59   0.000000D+00  0.000000D+00  0.000000D+00  0.000000D+00  0.000000D+00
     60   0.000000D+00  0.000000D+00  0.000000D+00  0.000000D+00  0.000000D+00
     61   0.000000D+00  0.000000D+00  0.000000D+00  0.000000D+00  0.000000D+00
     62   0.000000D+00  0.000000D+00  0.000000D+00  0.000000D+00  0.000000D+00
     63   0.000000D+00  0.000000D+00  0.000000D+00  0.000000D+00  0.000000D+00
     64   0.000000D+00  0.000000D+00  0.000000D+00  0.000000D+00  0.000000D+00
     65   0.000000D+00  0.000000D+00  0.000000D+00  0.000000D+00  0.000000D+00
     66   0.000000D+00  0.000000D+00  0.000000D+00  0.000000D+00  0.000000D+00
     67   0.000000D+00  0.000000D+00  0.000000D+00  0.000000D+00  0.000000D+00
     68   0.000000D+00  0.000000D+00  0.000000D+00  0.000000D+00  0.000000D+00
     69   0.000000D+00  0.000000D+00  0.000000D+00  0.000000D+00  0.000000D+00
     70   0.000000D+00  0.000000D+00  0.000000D+00  0.000000D+00  0.000000D+00
     71   0.000000D+00  0.000000D+00  0.000000D+00  0.000000D+00  0.000000D+00
     72   0.000000D+00  0.000000D+00  0.000000D+00  0.000000D+00  0.000000D+00
     73   0.000000D+00  0.000000D+00  0.000000D+00  0.000000D+00  0.000000D+00
     74   0.000000D+00  0.000000D+00  0.000000D+00  0.000000D+00  0.000000D+00
     75   0.000000D+00  0.000000D+00  0.000000D+00  0.000000D+00  0.000000D+00
     76   0.000000D+00  0.000000D+00  0.000000D+00  0.000000D+00  0.000000D+00
     77   0.000000D+00  0.000000D+00  0.000000D+00  0.000000D+00  0.000000D+00
     78   0.000000D+00  0.000000D+00  0.000000D+00  0.000000D+00  0.000000D+00
     79   0.000000D+00  0.000000D+00  0.000000D+00  0.000000D+00  0.000000D+00
     80   0.000000D+00  0.000000D+00  0.000000D+00  0.000000D+00  0.000000D+00
     81   0.000000D+00  0.000000D+00  0.000000D+00  0.000000D+00  0.000000D+00
     82   0.000000D+00  0.000000D+00  0.000000D+00  0.000000D+00  0.000000D+00
     83   0.000000D+00  0.000000D+00  0.000000D+00  0.000000D+00  0.000000D+00
     84   0.000000D+00  0.000000D+00  0.000000D+00  0.000000D+00  0.000000D+00
     85   0.000000D+00  0.000000D+00  0.000000D+00  0.000000D+00  0.000000D+00
     86   0.000000D+00  0.000000D+00  0.000000D+00  0.000000D+00  0.000000D+00
     87   0.000000D+00  0.000000D+00  0.000000D+00  0.000000D+00  0.000000D+00
     88   0.000000D+00  0.000000D+00  0.000000D+00  0.000000D+00  0.000000D+00
     89   0.000000D+00  0.000000D+00  0.000000D+00  0.000000D+00  0.000000D+00
     90   0.000000D+00  0.000000D+00  0.000000D+00  0.000000D+00  0.000000D+00
     91   0.000000D+00  0.000000D+00  0.000000D+00  0.000000D+00  0.000000D+00
     92   0.000000D+00  0.000000D+00  0.000000D+00  0.000000D+00  0.000000D+00
     93   0.000000D+00  0.000000D+00  0.000000D+00  0.000000D+00  0.000000D+00
     94   0.000000D+00  0.000000D+00  0.000000D+00  0.000000D+00  0.000000D+00
     95   0.000000D+00  0.000000D+00  0.000000D+00  0.000000D+00  0.000000D+00
     96   0.000000D+00  0.000000D+00  0.000000D+00  0.000000D+00  0.000000D+00
     97   0.000000D+00  0.000000D+00  0.000000D+00  0.000000D+00  0.000000D+00
     98   0.000000D+00  0.000000D+00  0.000000D+00  0.000000D+00  0.000000D+00
     99   0.000000D+00  0.000000D+00  0.000000D+00  0.000000D+00  0.000000D+00
    100   0.000000D+00  0.000000D+00  0.000000D+00  0.000000D+00  0.000000D+00
    101   0.000000D+00  0.000000D+00  0.000000D+00  0.000000D+00  0.000000D+00
    102   0.000000D+00  0.000000D+00  0.000000D+00  0.000000D+00  0.000000D+00
    103   0.000000D+00  0.000000D+00  0.000000D+00  0.000000D+00  0.000000D+00
    104   0.000000D+00  0.000000D+00  0.000000D+00  0.000000D+00  0.000000D+00
    105   0.000000D+00  0.000000D+00  0.000000D+00  0.000000D+00  0.000000D+00
    106   0.000000D+00  0.000000D+00  0.000000D+00  0.000000D+00  0.000000D+00
    107   0.000000D+00  0.000000D+00  0.000000D+00  0.000000D+00  0.000000D+00
    108   0.000000D+00  0.000000D+00  0.000000D+00  0.000000D+00  0.000000D+00
    109   0.000000D+00  0.000000D+00  0.000000D+00  0.000000D+00  0.000000D+00
    110   0.000000D+00  0.000000D+00  0.000000D+00  0.000000D+00  0.000000D+00
    111   0.000000D+00  0.000000D+00  0.000000D+00  0.000000D+00  0.000000D+00
    112   0.000000D+00  0.000000D+00  0.000000D+00  0.000000D+00  0.000000D+00
    113   0.000000D+00  0.000000D+00  0.000000D+00  0.000000D+00  0.000000D+00
    114   0.000000D+00  0.000000D+00  0.000000D+00  0.000000D+00  0.000000D+00
    115   0.000000D+00  0.000000D+00  0.000000D+00  0.000000D+00  0.000000D+00
    116   0.000000D+00  0.000000D+00  0.000000D+00  0.000000D+00  0.000000D+00
    117   0.000000D+00  0.000000D+00  0.000000D+00  0.000000D+00  0.000000D+00
    118   0.000000D+00  0.000000D+00  0.000000D+00  0.000000D+00  0.000000D+00
    119   0.000000D+00  0.000000D+00  0.000000D+00  0.000000D+00  0.000000D+00
    120   0.000000D+00  0.000000D+00  0.000000D+00  0.000000D+00  0.000000D+00
    121   0.000000D+00  0.000000D+00  0.000000D+00  0.000000D+00  0.000000D+00
    122   0.000000D+00  0.000000D+00  0.000000D+00  0.000000D+00  0.000000D+00
    123   0.000000D+00  0.000000D+00  0.000000D+00  0.000000D+00  0.000000D+00
    124   0.000000D+00  0.000000D+00  0.000000D+00  0.000000D+00  0.000000D+00
    125   0.000000D+00  0.000000D+00  0.000000D+00  0.000000D+00  0.000000D+00
    126   0.000000D+00  0.000000D+00  0.000000D+00  0.000000D+00  0.000000D+00
    127   0.000000D+00  0.000000D+00  0.000000D+00  0.000000D+00  0.000000D+00
    128   0.000000D+00  0.000000D+00  0.000000D+00  0.000000D+00  0.000000D+00
    129   0.000000D+00  0.000000D+00  0.000000D+00  0.000000D+00  0.000000D+00
    130   0.000000D+00  0.000000D+00  0.000000D+00  0.000000D+00  0.000000D+00
    131   0.000000D+00  0.000000D+00  0.000000D+00  0.000000D+00  0.000000D+00
    132   0.000000D+00  0.000000D+00  0.000000D+00  0.000000D+00  0.000000D+00
    133   0.000000D+00  0.000000D+00  0.000000D+00  0.000000D+00  0.000000D+00
    134   0.000000D+00  0.000000D+00  0.000000D+00  0.000000D+00  0.000000D+00
    135   0.000000D+00  0.000000D+00  0.000000D+00  0.000000D+00  0.000000D+00
    136   0.000000D+00  0.000000D+00  0.000000D+00  0.000000D+00  0.000000D+00
    137   0.000000D+00  0.000000D+00  0.000000D+00  0.000000D+00  0.000000D+00
    138   0.000000D+00  0.000000D+00  0.000000D+00  0.000000D+00  0.000000D+00
    139   0.000000D+00  0.000000D+00  0.000000D+00  0.000000D+00  0.000000D+00
    140   0.000000D+00  0.000000D+00  0.000000D+00  0.000000D+00  0.000000D+00
    141   0.000000D+00  0.000000D+00  0.000000D+00  0.000000D+00  0.000000D+00
    142   0.000000D+00  0.000000D+00  0.000000D+00  0.000000D+00  0.000000D+00
[...]
   23    | -0.000029 -0.003396 -0.000024 -0.003514  0.000000 -0.000030
         |
   24    | -0.012029 -0.000001 -0.011098 -0.000001 -0.000033 -0.019778
   24    | -0.012029 -0.000001 -0.011098 -0.000001 -0.000033  0.000000
         |
   25    | -0.000001 -0.010645 -0.000001 -0.011850 -0.003807 -0.000001
   25    | -0.000001 -0.010645 -0.000001 -0.011849 -0.003807 -0.000001
         |
   26    | -0.000001 -0.011147  0.000000 -0.011176 -0.003534 -0.000001
   26    | -0.000001 -0.011147  0.000000 -0.011177 -0.003534 -0.000001
         |
   27    | -0.011134  0.000000 -0.011156 -0.000001 -0.000028 -0.011815
   27    | -0.011134  0.000000 -0.011156 -0.000001 -0.000028 -0.011815
         |
   28    | -0.003529 -0.000021 -0.003440 -0.000028 -0.000826 -0.003807
   28    | -0.003529 -0.000021 -0.003440 -0.000028 -0.000826 -0.003807
         |

 AB - AA |     19        20        21        22        23        24
 BA - BB |     19        20        21        22        23        24
----------------------------------------------------------------------
   29    |  0.000000 -0.012468  0.000000 -0.011127 -0.003427 -0.000001
   29    |  0.000000 -0.012468  0.000000 -0.011127 -0.003427 -0.000001
         |
   30    | -0.011293  0.000000 -0.012304  0.000000 -0.000021 -0.010618
   30    | -0.011294  0.000000 -0.012303  0.000000 -0.000021 -0.010618
         |

 AB - AA |     25        26        27        28        29        30
 BA - BB |     25        26        27        28        29        30
----------------------------------------------------------------------
   19    | -0.000001 -0.000001 -0.008034 -0.002355  0.000000 -0.008456
   19    | -0.000001 -0.000001 -0.008033 -0.002355  0.000000 -0.008455
         |
   20    | -0.006718 -0.008083  0.000000 -0.000019 -0.011526  0.000000
   20    | -0.006719 -0.008083  0.000000 -0.000019 -0.011526  0.000000
         |
   21    | -0.000001  0.000000 -0.008090 -0.002325  0.000000 -0.011088
   21    | -0.000001  0.000000 -0.008091 -0.002325  0.000000 -0.011089
         |
   22    | -0.010130 -0.008144 -0.000001 -0.000026 -0.008012  0.000000
   22    | -0.010127 -0.008144 -0.000001 -0.000026 -0.008016  0.000000
         |
   23    | -0.002266 -0.002358 -0.000026 -0.000620 -0.002321 -0.000019
   23    | -0.002266 -0.002358 -0.000026 -0.000620 -0.002321 -0.000019
         |
   24    | -0.000001 -0.000001 -0.010025 -0.002266 -0.000001 -0.006644
   24    | -0.000001 -0.000001 -0.010024 -0.002266 -0.000001 -0.006644
         |
   25    | -0.019778 -0.010860 -0.000001 -0.000030 -0.007585 -0.000001
   25    |  0.000000 -0.010863 -0.000001 -0.000030 -0.007585 -0.000001
         |
   26    | -0.012105 -0.020234 -0.000001 -0.000027 -0.008417  0.000000
   26    | -0.012104  0.000000 -0.000001 -0.000027 -0.008415  0.000000
         |
   27    | -0.000001 -0.000001 -0.020232 -0.002348  0.000000 -0.009364
   27    | -0.000001 -0.000001  0.000000 -0.002348  0.000000 -0.009364
         |
   28    | -0.000033 -0.000029 -0.003508 -0.023867 -0.000021 -0.002311
   28    | -0.000033 -0.000029 -0.003508  0.000000 -0.000021 -0.002311
         |

 AB - AA |     25        26        27        28        29        30
 BA - BB |     25        26        27        28        29        30
----------------------------------------------------------------------
   29    | -0.010958 -0.011279  0.000000 -0.000023 -0.020235  0.000000
   29    | -0.010958 -0.011278  0.000000 -0.000023  0.000000  0.000000
         |
   30    | -0.000001  0.000000 -0.011639 -0.003395  0.000000 -0.020236
   30    | -0.000001  0.000000 -0.011639 -0.003395  0.000000  0.000000
         |

                     Sum of ab pair energies =    -0.514305 A.U.
                     Sum of ba pair energies =    -0.265156 A.U.
                     Sum of aa pair energies =    -0.201492 A.U.
                     Sum of bb pair energies =    -0.201492 A.U.

           Sum of intraorbital pair energies =    -0.249147 A.U.
           Sum of interorbital pair energies =    -0.933297 A.U.
                                                  ----------
                         Total pair energies =    -1.182444 A.U.

                         Single Excitations  =     0.000000 A.U.

                          Total second order =    -1.182444 A.U.

                         E2(CBS) - E2(Dir) =      -0.020276 A.U.

 E2(CBS)=      -1.189462 CBS-Int=       0.007018 OIii=       6.814442

 **********************************************************************

            Population analysis using the SCF density.

 **********************************************************************

 Orbital symmetries:
       Occupied  (SGU) (SGG) (SGU) (SGG) (PIG) (PIG) (PIU) (PIU)
                 (SGU) (SGG) (SGG) (SGU) (PIG) (PIG) (PIU) (PIU)
                 (SGU) (SGG) (SGG) (PIU) (PIU) (DLTG) (DLTG) (DLTU)
                 (DLTU) (PIG) (PIG) (SGU) (SGG) (SGU)
       Virtual   (SGG) (PIU) (PIU) (SGU) (SGG) (PIG) (PIG) (SGU)
                 (SGG) (PIU) (PIU) (PIG) (PIG) (SGU) (SGG) (SGU)
                 (PIU) (PIU) (SGG) (DLTG) (DLTG) (DLTU) (DLTU)
                 (PIG) (PIG) (SGU) (SGG) (PIU) (PIU) (PIG) (PIG)
                 (SGU) (PIU) (PIU) (SGG) (DLTG) (DLTG) (PHIU) (PHIU)
                 (PHIG) (PHIG) (DLTU) (DLTU) (PIG) (PIG) (SGU)
                 (PIU) (PIU) (DLTG) (DLTG) (DLTU) (DLTU) (SGG)
                 (PIG) (PIG) (SGU) (SGG) (SGU) (SGG) (SGU) (PIU)
                 (PIU) (PIG) (PIG) (DLTG) (DLTG) (?A) (?A) (?B)
                 (?B) (PHIU) (PHIU) (PHIG) (PHIG) (DLTU) (DLTU)
                 (PIU) (PIU) (PIG) (PIG) (SGG) (SGU) (PIU) (PIU)
                 (SGG) (DLTG) (DLTG) (PHIU) (PHIU) (PHIG) (PHIG)
                 (DLTU) (DLTU) (PIG) (PIG) (SGU) (PIU) (PIU) (DLTG)
                 (DLTG) (DLTU) (DLTU) (SGG) (PIG) (PIG) (SGU) (SGG)
                 (SGU) (?C) (?C) (?D) (?D) (?A) (?A) (?B) (?B)
                 (PHIU) (PHIU) (PHIG) (PHIG) (DLTG) (DLTG) (DLTU)
                 (DLTU) (PIU) (PIU) (PIG) (PIG) (SGG) (SGU) (SGG)
                 (PIU) (PIU) (DLTG) (DLTG) (PHIU) (PHIU) (PHIG)
                 (PHIG) (DLTU) (DLTU) (PIG) (PIG) (SGU) (?A) (?A)
                 (?B) (?B) (PHIU) (PHIU) (PHIG) (PHIG) (DLTG) (DLTG)
                 (DLTU) (DLTU) (PIU) (PIU) (PIG) (PIG) (SGG) (SGU)
                 (PIU) (PIU) (SGG) (PIG) (PIG) (SGU) (PIU) (PIU)
                 (DLTG) (DLTG) (DLTU) (DLTU) (SGG) (PIG) (PIG)
                 (SGU) (?E) (?E) (?F) (?F) (?C) (?C) (?D) (?D)
                 (?A) (?A) (?B) (?B) (PHIU) (PHIU) (PHIG) (PHIG)
                 (DLTG) (DLTG) (DLTU) (DLTU) (SGG) (SGU) (PIU)
                 (PIU) (PIG) (PIG) (SGG) (PIU) (PIU) (DLTG) (DLTG)
                 (PHIU) (PHIU) (PHIG) (PHIG) (DLTU) (DLTU) (PIG)
                 (PIG) (SGU) (?D) (?D) (?C) (?C) (?A) (?A) (?B)
                 (?B) (PHIU) (PHIU) (PHIG) (PHIG) (DLTG) (DLTG)
                 (DLTU) (DLTU) (PIU) (PIU) (PIG) (PIG) (SGG) (SGU)
                 (?A) (?A) (?B) (?B) (PHIU) (PHIU) (PHIG) (PHIG)
                 (DLTG) (DLTG) (DLTU) (DLTU) (PIU) (PIU) (PIG)
                 (PIG) (SGG) (SGU) (SGG) (SGU) (PIU) (PIU) (SGG)
                 (PIG) (PIG) (SGU) (PIU) (PIU) (SGG) (DLTU) (DLTU)
                 (DLTG) (DLTG) (PIG) (PIG) (SGU) (SGG) (SGU) (?G)
                 (?H) (?G) (?H) (?F) (?E) (?F) (?E) (DLTU) (DLTG)
                 (DLTU) (DLTG) (?D) (?C) (?C) (?D) (?B) (?A) (?A)
                 (?B) (PHIG) (PHIG) (PHIU) (PHIU) (PIU) (PIU) (PIG)
                 (PIG) (SGG) (PIU) (PIU) (DLTG) (DLTG) (PHIU) (PHIU)
                 (PHIG) (PHIG) (DLTU) (DLTU) (PIG) (PIG) (SGU)
                 (?A) (?A) (?B) (?B) (PHIU) (PHIU) (PHIG) (PHIG)
                 (DLTG) (DLTG) (DLTU) (DLTU) (PIU) (PIU) (PIG)
                 (PIG) (SGG) (SGU) (SGG) (SGU) (?E) (?F) (?E) (?F)
                 (?C) (?C) (?D) (?D) (PIU) (PIU) (PIG) (PIG) (?A)
                 (?A) (?B) (?B) (PHIU) (PHIU) (PHIG) (PHIG) (DLTG)
                 (DLTG) (DLTU) (DLTU) (?D) (?C) (?C) (?D) (?A)
                 (?A) (?B) (?B) (PHIU) (PHIU) (PHIG) (PHIG) (SGG)
                 (DLTG) (DLTG) (DLTU) (DLTU) (SGU) (PIU) (PIU)
                 (PIG) (PIG) (SGG) (SGU)
 The electronic state is 1-SGG.
 Alpha  occ. eigenvalues -- -353.30448-353.30448 -44.36173 -44.36173 -38.92485
 Alpha  occ. eigenvalues --  -38.92485 -38.92485 -38.92485 -38.92484 -38.92484
 Alpha  occ. eigenvalues --   -5.63780  -5.63780  -3.83935  -3.83935  -3.83935
 Alpha  occ. eigenvalues --   -3.83935  -3.83935  -3.83935  -0.78306  -0.78265
 Alpha  occ. eigenvalues --   -0.78265  -0.78254  -0.78254  -0.78251  -0.78251
 Alpha  occ. eigenvalues --   -0.78229  -0.78229  -0.78200  -0.31622  -0.27095
 Alpha virt. eigenvalues --    0.03776   0.04454   0.04454   0.05212   0.05909
 Alpha virt. eigenvalues --    0.07942   0.07942   0.13904   0.29719   0.31750
 Alpha virt. eigenvalues --    0.31750   0.32761   0.32761   0.35556   0.46596
 Alpha virt. eigenvalues --    0.47863   0.47928   0.47928   0.50937   0.51705
 Alpha virt. eigenvalues --    0.51705   0.53218   0.53218   0.58915   0.58915
 Alpha virt. eigenvalues --    0.74281   1.11682   1.13797   1.13797   1.16382
 Alpha virt. eigenvalues --    1.16382   1.22444   1.38184   1.38184   1.38947
 Alpha virt. eigenvalues --    1.39298   1.39298   1.39550   1.39550   1.39578
 Alpha virt. eigenvalues --    1.39578   1.39797   1.39797   1.41197   1.41197
 Alpha virt. eigenvalues --    1.48146   1.78436   1.78436   1.80818   1.80818
 Alpha virt. eigenvalues --    1.82299   1.82299   1.83149   1.88000   1.88000
 Alpha virt. eigenvalues --    2.00770   2.07668   2.13744   3.49336   3.49791
 Alpha virt. eigenvalues --    3.50069   3.50069   3.50617   3.50617   3.50813
 Alpha virt. eigenvalues --    3.50813   3.50815   3.50815   3.50815   3.50815
 Alpha virt. eigenvalues --    3.50816   3.50816   3.50817   3.50817   3.50818
 Alpha virt. eigenvalues --    3.50818   3.51619   3.51619   3.53236   3.53236
 Alpha virt. eigenvalues --    3.53920   3.59945   3.84748   3.84748   3.84859
 Alpha virt. eigenvalues --    3.85442   3.85442   3.85600   3.85600   3.85619
 Alpha virt. eigenvalues --    3.85619   3.85785   3.85785   3.87038   3.87038
 Alpha virt. eigenvalues --    3.94575   5.16086   5.16086   5.17864   5.17864
 Alpha virt. eigenvalues --    5.18856   5.18856   5.19864   5.22767   5.22767
 Alpha virt. eigenvalues --    5.34112   7.23230   7.25634   8.36054   8.36054
 Alpha virt. eigenvalues --    8.36054   8.36054   8.36058   8.36058   8.36058
 Alpha virt. eigenvalues --    8.36058   8.36060   8.36060   8.36060   8.36060
 Alpha virt. eigenvalues --    8.36062   8.36062   8.36062   8.36062   8.36063
 Alpha virt. eigenvalues --    8.36063   8.36063   8.36063   8.36065   8.36070
 Alpha virt. eigenvalues --    9.16321   9.16679   9.16679   9.17138   9.17138
 Alpha virt. eigenvalues --    9.17231   9.17231   9.17242   9.17242   9.17345
 Alpha virt. eigenvalues --    9.17345   9.18132   9.18132   9.21266   9.66045
 Alpha virt. eigenvalues --    9.66045   9.66045   9.66045   9.66048   9.66048
 Alpha virt. eigenvalues --    9.66049   9.66049   9.66049   9.66049   9.66051
 Alpha virt. eigenvalues --    9.66051   9.66056   9.66056   9.66074   9.66074
 Alpha virt. eigenvalues --    9.66097   9.66256  10.45536  10.45536  10.47163
 Alpha virt. eigenvalues --   10.47244  10.47244  10.54347  14.05339  14.05339
 Alpha virt. eigenvalues --   14.06813  14.06813  14.07692  14.07692  14.08215
 Alpha virt. eigenvalues --   14.10880  14.10880  14.19546  20.82163  20.82163
 Alpha virt. eigenvalues --   20.82163  20.82163  20.82165  20.82165  20.82165
 Alpha virt. eigenvalues --   20.82165  20.82165  20.82165  20.82167  20.82167
 Alpha virt. eigenvalues --   20.82167  20.82167  20.82168  20.82168  20.82168
 Alpha virt. eigenvalues --   20.82168  20.82169  20.82169  20.82169  20.82169
 Alpha virt. eigenvalues --   20.82170  20.82170  20.82170  20.82170  22.20757
 Alpha virt. eigenvalues --   22.20939  22.20939  22.21224  22.21224  22.21280
 Alpha virt. eigenvalues --   22.21280  22.21287  22.21287  22.21351  22.21351
 Alpha virt. eigenvalues --   22.21857  22.21857  22.24116  23.31515  23.31515
 Alpha virt. eigenvalues --   23.31515  23.31515  23.31517  23.31517  23.31517
 Alpha virt. eigenvalues --   23.31517  23.31519  23.31519  23.31519  23.31519
 Alpha virt. eigenvalues --   23.31520  23.31520  23.31520  23.31520  23.31521
 Alpha virt. eigenvalues --   23.31521  23.31521  23.31521  23.31522  23.31524
 Alpha virt. eigenvalues --   23.73092  23.73092  23.73092  23.73092  23.73094
 Alpha virt. eigenvalues --   23.73094  23.73094  23.73094  23.73095  23.73095
 Alpha virt. eigenvalues --   23.73096  23.73096  23.73101  23.73101  23.73108
 Alpha virt. eigenvalues --   23.73108  23.73135  23.73226  25.24061  25.26490
 Alpha virt. eigenvalues --   32.58544  32.58544  32.59757  32.60295  32.60295
 Alpha virt. eigenvalues --   32.67324  41.40987  41.40987  41.40989  41.41642
 Alpha virt. eigenvalues --   41.41642  41.41677  41.41677  41.42492  41.42492
 Alpha virt. eigenvalues --   41.46809  46.63168  46.63168  47.01613  47.01613
 Alpha virt. eigenvalues --   47.01613  47.01613  47.01614  47.01614  47.01614
 Alpha virt. eigenvalues --   47.01614  47.01615  47.01615  47.01615  47.01615
 Alpha virt. eigenvalues --   47.01615  47.01615  47.01615  47.01615  47.01616
 Alpha virt. eigenvalues --   47.01616  47.01616  47.01616  47.01617  47.01617
 Alpha virt. eigenvalues --   47.01617  47.01617  47.01762  47.01762  47.01762
 Alpha virt. eigenvalues --   47.01762  56.92709  56.92813  56.92813  56.92990
 Alpha virt. eigenvalues --   56.92990  56.93024  56.93024  56.93028  56.93028
 Alpha virt. eigenvalues --   56.93067  56.93067  56.93382  56.93382  56.94822
 Alpha virt. eigenvalues --   59.35971  59.35971  59.35971  59.35971  59.35972
 Alpha virt. eigenvalues --   59.35972  59.35972  59.35972  59.35974  59.35974
 Alpha virt. eigenvalues --   59.35974  59.35974  59.35977  59.35977  59.35981
 Alpha virt. eigenvalues --   59.35981  59.35997  59.36043  60.46054  60.46054
 Alpha virt. eigenvalues --   60.46349  60.46349  60.46349  60.46349  60.46350
 Alpha virt. eigenvalues --   60.46350  60.46350  60.46350  60.46351  60.46351
 Alpha virt. eigenvalues --   60.46351  60.46351  60.46352  60.46352  60.46352
 Alpha virt. eigenvalues --   60.46352  60.46353  60.46353  60.46353  60.46353
 Alpha virt. eigenvalues --   60.46357  60.46357  60.46357  60.46357  61.11916
 Alpha virt. eigenvalues --   61.11916  61.11916  61.11916  61.11917  61.11917
 Alpha virt. eigenvalues --   61.11917  61.11917  61.11918  61.11918  61.11918
 Alpha virt. eigenvalues --   61.11918  61.11920  61.11920  61.11920  61.11920
 Alpha virt. eigenvalues --   61.11920  61.11920  61.11920  61.11920  61.11932
 Alpha virt. eigenvalues --   61.11933 500.83103 501.06217
          Condensed to atoms (all electrons):
              1          2
     1  Zn  30.040999  -0.040999
     2  Zn  -0.040999  30.040999
          Atomic-Atomic Spin Densities.
              1          2
     1  Zn   0.000000   0.000000
     2  Zn   0.000000   0.000000
 Mulliken charges and spin densities:
              1          2
     1  Zn   0.000000   0.000000
     2  Zn   0.000000   0.000000
 Sum of Mulliken charges =   0.00000 spin densities =   0.000000
 Mulliken charges and spin densities with hydrogens summed into heavy atoms:
              1          2
     1  Zn   0.000000   0.000000
     2  Zn   0.000000   0.000000
 Sum of Mulliken charges with hydrogens summed into heavy atoms =   0.00000 spin densities =   0.000000
 Electronic spatial extent (au):  <R**2>=            863.2402
 Charge=              0.0000 electrons
 Dipole moment (field-independent basis, Debye):
    X=              0.0000    Y=              0.0000    Z=              0.0000  Tot=              0.0000
 Quadrupole moment (field-independent basis, Debye-Ang):
   XX=            -31.1962   YY=            -31.1962   ZZ=            -32.4264
   XY=              0.0000   XZ=              0.0000   YZ=              0.0000
 Traceless Quadrupole moment (field-independent basis, Debye-Ang):
   XX=              0.4101   YY=              0.4101   ZZ=             -0.8201
   XY=              0.0000   XZ=              0.0000   YZ=              0.0000
 Octapole moment (field-independent basis, Debye-Ang**2):
  XXX=              0.0000  YYY=              0.0000  ZZZ=              0.0000  XYY=              0.0000
  XXY=              0.0000  XXZ=              0.0000  XZZ=              0.0000  YZZ=              0.0000
  YYZ=              0.0000  XYZ=              0.0000
 Hexadecapole moment (field-independent basis, Debye-Ang**3):
 XXXX=            -56.4579 YYYY=            -56.4579 ZZZZ=           -769.9974 XXXY=              0.0000
 XXXZ=              0.0000 YYYX=              0.0000 YYYZ=              0.0000 ZZZX=              0.0000
 ZZZY=              0.0000 XXYY=            -18.8193 XXZZ=           -136.4511 YYZZ=           -136.4511
 XXYZ=              0.0000 YYXZ=              0.0000 ZZXY=              0.0000
 N-N= 1.238002307593D+02 E-N=-1.315722539993D+04  KE= 5.333558754420D+03
                          Isotropic Fermi Contact Couplings
        Atom                 a.u.       MegaHertz       Gauss      10(-4) cm-1
     1  Zn(67)             0.00000       0.00000       0.00000       0.00000
     2  Zn(67)             0.00000       0.00000       0.00000       0.00000
 --------------------------------------------------------
       Center         ----  Spin Dipole Couplings  ----
                      3XX-RR        3YY-RR        3ZZ-RR
 --------------------------------------------------------
     1   Atom        0.000000      0.000000      0.000000
     2   Atom        0.000000      0.000000      0.000000
 --------------------------------------------------------
                        XY            XZ            YZ
 --------------------------------------------------------
     1   Atom        0.000000      0.000000      0.000000
     2   Atom        0.000000      0.000000      0.000000
 --------------------------------------------------------


 ---------------------------------------------------------------------------------
              Anisotropic Spin Dipole Couplings in Principal Axis System
 ---------------------------------------------------------------------------------

       Atom             a.u.   MegaHertz   Gauss  10(-4) cm-1        Axes

              Baa     0.0000     0.000     0.000     0.000  1.0000  0.0000  0.0000
     1 Zn(67) Bbb     0.0000     0.000     0.000     0.000  0.0000  1.0000  0.0000
              Bcc     0.0000     0.000     0.000     0.000  0.0000  0.0000  1.0000
 
              Baa     0.0000     0.000     0.000     0.000  1.0000  0.0000  0.0000
     2 Zn(67) Bbb     0.0000     0.000     0.000     0.000  0.0000  1.0000  0.0000
              Bcc     0.0000     0.000     0.000     0.000  0.0000  0.0000  1.0000
 

 ---------------------------------------------------------------------------------


 Test job not archived.
 1\1\GINC-C28\SP\ROMP2-RW\Gen\Zn2\GPETERSSON\05-Mar-2013\0\\# ROMP2(RW)
  Gen GFinput Int=NoBasisTransform Int(Grid=Ultrafine) IOp(3/32=2,5/6=1
 0,8/11=1,9/33=1) Maxdisk=128GB CBSextrapolate(Nmin=20,MinPop)\\Zn...Zn
  1Sg+\\0,1\Zn\Zn,1,3.847\\Version=EM64L-GDVRevH.12\State=1-SGG\HF=-355
 5.6940387\MP2=-3556.863225\E2(CBS)=-1.1894623\CBS-Int=-1.1824443\OIii=
 6.8144417\RMSD=4.889e-11\PG=D*H [C*(Zn1.Zn1)]\\@


 OLD HORSE! OLD HORSE! WHAT BROUGHT YOU HERE?
 FROM SACARAP' TO PORTLAND PIER
 I'VE CARTED STONE THIS MANY A YEAR;
 TILL, KILLED BY BLOWS AND SORE ABUSE,
 THEY SALTED ME DOWN FOR SAILORS' USE.
 THE SAILORS THEY DO ME DESPISE;
 THEY TURN ME OVER AND DAMN MY EYES;
 CUT OFF MY MEAT, AND SCRAPE MY BONES,
 AND PITCH ME OVER TO DAVY JONES.

    SAILORS' COMPLAINT ABOUT THE BEEF
    SERVED ON SHIPBOARD, CIRCA 1835.
 Job cpu time:  1 days  4 hours 36 minutes 60.0 seconds.
 File lengths (MBytes):  RWF=   7962 Int=      0 D2E=      0 Chk=     14 Scr=      1
 Normal termination of Gaussian DV at Tue Mar  5 03:54:45 2013.
