 Entering Gaussian System, Link 0=g09
 AtFile(1): 6ZaPa-NR.gbs
 Initial command:
 /share/apps/gaussian/g09root/g09/l1.exe /localscratch/Gau-22309.inp -scrdir=/localscratch/
 Entering Link 1 = /share/apps/gaussian/g09root/g09/l1.exe PID=     22310.
  
 Copyright (c) 1988,1990,1992,1993,1995,1998,2003,2009, Gaussian, Inc.
                  All Rights Reserved.
  
 This is part of the Gaussian(R) 09 program.  It is based on
 the Gaussian(R) 03 system (copyright 2003, Gaussian, Inc.),
 the Gaussian(R) 98 system (copyright 1998, Gaussian, Inc.),
 the Gaussian(R) 94 system (copyright 1995, Gaussian, Inc.),
 the Gaussian 92(TM) system (copyright 1992, Gaussian, Inc.),
 the Gaussian 90(TM) system (copyright 1990, Gaussian, Inc.),
 the Gaussian 88(TM) system (copyright 1988, Gaussian, Inc.),
 the Gaussian 86(TM) system (copyright 1986, Carnegie Mellon
 University), and the Gaussian 82(TM) system (copyright 1983,
 Carnegie Mellon University). Gaussian is a federally registered
 trademark of Gaussian, Inc.
  
 This software contains proprietary and confidential information,
 including trade secrets, belonging to Gaussian, Inc.
  
 This software is provided under written license and may be
 used, copied, transmitted, or stored only in accord with that
 written license.
  
 The following legend is applicable only to US Government
 contracts under FAR:
  
                    RESTRICTED RIGHTS LEGEND
  
 Use, reproduction and disclosure by the US Government is
 subject to restrictions as set forth in subparagraphs (a)
 and (c) of the Commercial Computer Software - Restricted
 Rights clause in FAR 52.227-19.
  
 Gaussian, Inc.
 340 Quinnipiac St., Bldg. 40, Wallingford CT 06492
  
  
 ---------------------------------------------------------------
 Warning -- This program may not be used in any manner that
 competes with the business of Gaussian, Inc. or will provide
 assistance to any competitor of Gaussian, Inc.  The licensee
 of this program is prohibited from giving any competitor of
 Gaussian, Inc. access to this program.  By using this program,
 the user acknowledges that Gaussian, Inc. is engaged in the
 business of creating and licensing software in the field of
 computational chemistry and represents and warrants to the
 licensee that it is not a competitor of Gaussian, Inc. and that
 it will not use this program in any manner prohibited above.
 ---------------------------------------------------------------
  

 Cite this work as:
 Gaussian 09, Revision A.02,
 M. J. Frisch, G. W. Trucks, H. B. Schlegel, G. E. Scuseria, 
 M. A. Robb, J. R. Cheeseman, G. Scalmani, V. Barone, B. Mennucci, 
 G. A. Petersson, H. Nakatsuji, M. Caricato, X. Li, H. P. Hratchian, 
 A. F. Izmaylov, J. Bloino, G. Zheng, J. L. Sonnenberg, M. Hada, 
 M. Ehara, K. Toyota, R. Fukuda, J. Hasegawa, M. Ishida, T. Nakajima, 
 Y. Honda, O. Kitao, H. Nakai, T. Vreven, J. A. Montgomery, Jr., 
 J. E. Peralta, F. Ogliaro, M. Bearpark, J. J. Heyd, E. Brothers, 
 K. N. Kudin, V. N. Staroverov, R. Kobayashi, J. Normand, 
 K. Raghavachari, A. Rendell, J. C. Burant, S. S. Iyengar, J. Tomasi, 
 M. Cossi, N. Rega, J. M. Millam, M. Klene, J. E. Knox, J. B. Cross, 
 V. Bakken, C. Adamo, J. Jaramillo, R. Gomperts, R. E. Stratmann, 
 O. Yazyev, A. J. Austin, R. Cammi, C. Pomelli, J. W. Ochterski, 
 R. L. Martin, K. Morokuma, V. G. Zakrzewski, G. A. Voth, 
 P. Salvador, J. J. Dannenberg, S. Dapprich, A. D. Daniels, 
 O. Farkas, J. B. Foresman, J. V. Ortiz, J. Cioslowski, 
 and D. J. Fox, Gaussian, Inc., Wallingford CT, 2009.
 
 ******************************************
 Gaussian 09:  EM64L-G09RevA.02 11-Jun-2009
                26-Jul-2013 
 ******************************************
 % Mem=128GB
 % Nproc=16
 Will use up to   16 processors via shared memory.
 % Chk=Zn...Zn.chk
 ----------------------------------------------------------------------
 #P ROMP2(RW) Gen GFinput Int=NoBasisTransform Int(Grid=Ultrafine) IOp(
 3/32=2,5/6=10,8/11=1,9/33=1) Maxdisk=128GB CBSextrapolate(Nmin=20,MinP
 op) Guess=Read
 ----------------------------------------------------------------------
 1/38=1/1;
 2/12=2,17=6,18=5,40=1/2;
 3/5=7,11=2,16=1,24=10,25=1,30=1,32=2,60=-1,75=-5,116=101/1,2,3;
 4/5=1/1;
 5/5=2,6=10,38=6/2;
 8/5=-1,10=91,11=1/1;
 9/16=-3,33=1,75=2,81=20,83=4/6,4;
 6/7=2,8=2,9=2,10=2/1;
 99/5=1,9=1/99;
 Leave Link    1 at Fri Jul 26 11:03:18 2013, MaxMem=17179869184 cpu:       1.2
 (Enter /share/apps/gaussian/g09root/g09/l101.exe)
 ------------
 Zn...Zn 1Sg+
 ------------
 Symbolic Z-matrix:
 Charge =  0 Multiplicity = 1
 Zn
 Zn                   1     3.847 
 
 NAtoms=      2 NQM=      2 NQMF=      0 NMic=      0 NMicF=      0 NTot=      2.
                    Isotopes and Nuclear Properties:
 (Nuclear quadrupole moments (NQMom) in fm**2, nuclear magnetic moments (NMagM)
  in nuclear magnetons)

  Atom         1           2
 IAtWgt=          64          64
 AtmWgt=  63.9291454  63.9291454
 NucSpn=           0           0
 AtZEff=   0.0000000   0.0000000
 NQMom=    0.0000000   0.0000000
 NMagM=    0.0000000   0.0000000
 Leave Link  101 at Fri Jul 26 11:03:18 2013, MaxMem=17179869184 cpu:       0.8
 (Enter /share/apps/gaussian/g09root/g09/l202.exe)
                          Input orientation:                          
 ---------------------------------------------------------------------
 Center     Atomic      Atomic             Coordinates (Angstroms)
 Number     Number       Type             X           Y           Z
 ---------------------------------------------------------------------
      1         30           0        0.000000    0.000000    0.000000
      2         30           0        0.000000    0.000000    3.847000
 ---------------------------------------------------------------------
 Stoichiometry    Zn2
 Framework group  D*H[C*(Zn.Zn)]
 Deg. of freedom     1
 Full point group                 D*H     NOp   8
 Largest Abelian subgroup         D2H     NOp   8
 Largest concise Abelian subgroup C2      NOp   2
                         Standard orientation:                         
 ---------------------------------------------------------------------
 Center     Atomic      Atomic             Coordinates (Angstroms)
 Number     Number       Type             X           Y           Z
 ---------------------------------------------------------------------
      1         30           0        0.000000    0.000000    1.923500
      2         30           0        0.000000    0.000000   -1.923500
 ---------------------------------------------------------------------
 Rotational constants (GHZ):      0.0000000      1.0683263      1.0683263
 Leave Link  202 at Fri Jul 26 11:03:18 2013, MaxMem=17179869184 cpu:       0.2
 (Enter /share/apps/gaussian/g09root/g09/l301.exe)
 General basis read from cards:  (5D, 7F)
 Centers:   1  2
 S 16 1.00 0.000000000000
     Exponent=  1.9798066800D+07 Coefficients=  1.6235671790D-06
     Exponent=  3.8092353000D+06 Coefficients=  9.8038301700D-06
     Exponent=  8.7860261100D+05 Coefficients=  5.5869165020D-05
     Exponent=  2.3714253600D+05 Coefficients=  2.5574855550D-04
     Exponent=  7.3262460600D+04 Coefficients=  9.9744396830D-04
     Exponent=  2.5387553100D+04 Coefficients=  3.3761529070D-03
     Exponent=  9.6874268100D+03 Coefficients=  1.0128332710D-02
     Exponent=  4.0026090600D+03 Coefficients=  2.7254985730D-02
     Exponent=  1.7635639100D+03 Coefficients=  6.5755185690D-02
     Exponent=  8.1721277300D+02 Coefficients=  1.3950541310D-01
     Exponent=  3.9329949100D+02 Coefficients=  2.4678094310D-01
     Exponent=  1.9436555900D+02 Coefficients=  3.2442043640D-01
     Exponent=  9.7622651000D+01 Coefficients=  2.4994212280D-01
     Exponent=  4.9369467000D+01 Coefficients=  7.5544503640D-02
     Exponent=  2.4925671000D+01 Coefficients=  4.8208605700D-03
     Exponent=  1.2466137000D+01 Coefficients=  1.0354385870D-03
 S 13 1.00 0.000000000000
     Exponent=  9.6874268100D+03 Coefficients= -2.6248279970D-05
     Exponent=  4.0026090600D+03 Coefficients= -1.8660032840D-04
     Exponent=  1.7635639100D+03 Coefficients= -1.0614430790D-03
     Exponent=  8.1721277300D+02 Coefficients= -5.2015203830D-03
     Exponent=  3.9329949100D+02 Coefficients= -1.9687775920D-02
     Exponent=  1.9436555900D+02 Coefficients= -5.8434190070D-02
     Exponent=  9.7622651000D+01 Coefficients= -9.2771409300D-02
     Exponent=  4.9369467000D+01 Coefficients=  1.9459883130D-02
     Exponent=  2.4925671000D+01 Coefficients=  3.9455100860D-01
     Exponent=  1.2466137000D+01 Coefficients=  5.2882616910D-01
     Exponent=  6.1318420000D+00 Coefficients=  1.6841824590D-01
     Exponent=  2.9465380000D+00 Coefficients=  8.8869652050D-03
     Exponent=  1.3744940000D+00 Coefficients=  1.7518866590D-03
 P 17 1.00 0.000000000000
     Exponent=  5.8614136000D+04 Coefficients=  8.1592969030D-06
     Exponent=  1.4887006100D+04 Coefficients=  6.9407980530D-05
     Exponent=  4.7127750800D+03 Coefficients=  4.3984414420D-04
     Exponent=  1.7596758700D+03 Coefficients=  2.0799751210D-03
     Exponent=  7.4162576500D+02 Coefficients=  7.9115097330D-03
     Exponent=  3.4093655100D+02 Coefficients=  2.5071261810D-02
     Exponent=  1.6657658500D+02 Coefficients=  6.7484122330D-02
     Exponent=  8.4847527000D+01 Coefficients=  1.5049933010D-01
     Exponent=  4.4426724000D+01 Coefficients=  2.6289531410D-01
     Exponent=  2.3666268000D+01 Coefficients=  3.3246764110D-01
     Exponent=  1.2721703000D+01 Coefficients=  2.4680147410D-01
     Exponent=  6.8490930000D+00 Coefficients=  8.2346845330D-02
     Exponent=  3.6624530000D+00 Coefficients=  1.0439061800D-02
     Exponent=  1.9245130000D+00 Coefficients=  1.2098130200D-03
     Exponent=  9.7940400000D-01 Coefficients=  3.9286266020D-04
     Exponent=  4.7320000000D-01 Coefficients=  6.8364117730D-05
     Exponent=  2.1131500000D-01 Coefficients=  1.0452873400D-05
 S 11 1.00 0.000000000000
     Exponent=  1.9436555900D+02 Coefficients=  6.6022633360D-04
     Exponent=  9.7622651000D+01 Coefficients=  2.4447437360D-03
     Exponent=  4.9369467000D+01 Coefficients=  1.4502399090D-03
     Exponent=  2.4925671000D+01 Coefficients= -5.3178211970D-02
     Exponent=  1.2466137000D+01 Coefficients= -2.1051174650D-01
     Exponent=  6.1318420000D+00 Coefficients= -2.3681157760D-02
     Exponent=  2.9465380000D+00 Coefficients=  5.2772057670D-01
     Exponent=  1.3744940000D+00 Coefficients=  5.4063375840D-01
     Exponent=  6.1864300000D-01 Coefficients=  1.1244435960D-01
     Exponent=  2.6706700000D-01 Coefficients= -1.0085064370D-03
     Exponent=  1.0992700000D-01 Coefficients=  1.2904377580D-03
 P 17 1.00 0.000000000000
     Exponent=  5.8614136000D+04 Coefficients= -3.0421705910D-06
     Exponent=  1.4887006100D+04 Coefficients= -2.5920410010D-05
     Exponent=  4.7127750800D+03 Coefficients= -1.6426357800D-04
     Exponent=  1.7596758700D+03 Coefficients= -7.7967371920D-04
     Exponent=  7.4162576500D+02 Coefficients= -2.9798594910D-03
     Exponent=  3.4093655100D+02 Coefficients= -9.5629629630D-03
     Exponent=  1.6657658500D+02 Coefficients= -2.6284697110D-02
     Exponent=  8.4847527000D+01 Coefficients= -6.0753478620D-02
     Exponent=  4.4426724000D+01 Coefficients= -1.1065460800D-01
     Exponent=  2.3666268000D+01 Coefficients= -1.4814058800D-01
     Exponent=  1.2721703000D+01 Coefficients= -8.3806165120D-02
     Exponent=  6.8490930000D+00 Coefficients=  1.3723375500D-01
     Exponent=  3.6624530000D+00 Coefficients=  3.5631219610D-01
     Exponent=  1.9245130000D+00 Coefficients=  3.9739602710D-01
     Exponent=  9.7940400000D-01 Coefficients=  2.2865998010D-01
     Exponent=  4.7320000000D-01 Coefficients=  4.4911989010D-02
     Exponent=  2.1131500000D-01 Coefficients=  3.1015878910D-03
 D 14 1.00 0.000000000000
     Exponent=  1.7738596800D+03 Coefficients=  2.1070274980D-05
     Exponent=  5.4944338300D+02 Coefficients=  2.1258643540D-04
     Exponent=  2.1100632400D+02 Coefficients=  1.3599494430D-03
     Exponent=  9.3674962000D+01 Coefficients=  6.0990878230D-03
     Exponent=  4.5627866000D+01 Coefficients=  2.0205126280D-02
     Exponent=  2.3489116000D+01 Coefficients=  5.2646179920D-02
     Exponent=  1.2456744000D+01 Coefficients=  1.1462824550D-01
     Exponent=  6.6915580000D+00 Coefficients=  1.9433597990D-01
     Exponent=  3.6009930000D+00 Coefficients=  2.5116566540D-01
     Exponent=  1.9251860000D+00 Coefficients=  2.6193007000D-01
     Exponent=  1.0137940000D+00 Coefficients=  2.2691551330D-01
     Exponent=  5.1964100000D-01 Coefficients=  1.5586596890D-01
     Exponent=  2.5459900000D-01 Coefficients=  7.1076740570D-02
     Exponent=  1.1601000000D-01 Coefficients=  1.3341233080D-02
 S 10 1.00 0.000000000000
     Exponent=  4.9369467000D+01 Coefficients= -4.0616246770D-04
     Exponent=  2.4925671000D+01 Coefficients=  5.4518806830D-03
     Exponent=  1.2466137000D+01 Coefficients=  2.4523021200D-02
     Exponent=  6.1318420000D+00 Coefficients=  3.2223236880D-04
     Exponent=  2.9465380000D+00 Coefficients= -7.5819799970D-02
     Exponent=  1.3744940000D+00 Coefficients= -1.5227442690D-01
     Exponent=  6.1864300000D-01 Coefficients= -1.1723866970D-01
     Exponent=  2.6706700000D-01 Coefficients=  1.8917195390D-01
     Exponent=  1.0992700000D-01 Coefficients=  6.0803077270D-01
     Exponent=  4.2882000000D-02 Coefficients=  3.7777040830D-01
 S 1 1.00 0.000000000000
     Exponent=  1.6728064000D-02 Coefficients=  1.0000000000D+00
 P 10 1.00 0.000000000000
     Exponent=  4.4426724000D+01 Coefficients=  1.8601433080D-03
     Exponent=  2.3666268000D+01 Coefficients= -4.5131063340D-04
     Exponent=  1.2721703000D+01 Coefficients=  3.8676615670D-03
     Exponent=  6.8490930000D+00 Coefficients= -2.9855867150D-02
     Exponent=  3.6624530000D+00 Coefficients= -2.2769798290D-02
     Exponent=  1.9245130000D+00 Coefficients= -8.1759406520D-02
     Exponent=  9.7940400000D-01 Coefficients=  1.5482485110D-02
     Exponent=  4.7320000000D-01 Coefficients= -5.5781234610D-02
     Exponent=  2.1131500000D-01 Coefficients=  4.1074755440D-01
     Exponent=  5.6496368200D-02 Coefficients=  7.3073750790D-01
 S 1 1.00 0.000000000000
     Exponent=  6.0261890000D+00 Coefficients=  1.0000000000D+00
 S 1 1.00 0.000000000000
     Exponent=  2.6977990000D+00 Coefficients=  1.0000000000D+00
 S 1 1.00 0.000000000000
     Exponent=  1.2077490000D+00 Coefficients=  1.0000000000D+00
 S 1 1.00 0.000000000000
     Exponent=  5.4068400000D-01 Coefficients=  1.0000000000D+00
 S 1 1.00 0.000000000000
     Exponent=  2.4205300000D-01 Coefficients=  1.0000000000D+00
 P 1 1.00 0.000000000000
     Exponent=  3.9703770000D+00 Coefficients=  1.0000000000D+00
 P 1 1.00 0.000000000000
     Exponent=  1.7713580000D+00 Coefficients=  1.0000000000D+00
 P 1 1.00 0.000000000000
     Exponent=  7.9028000000D-01 Coefficients=  1.0000000000D+00
 P 1 1.00 0.000000000000
     Exponent=  3.5257800000D-01 Coefficients=  1.0000000000D+00
 P 1 1.00 0.000000000000
     Exponent=  1.5730100000D-01 Coefficients=  1.0000000000D+00
 P 1 1.00 0.000000000000
     Exponent=  7.0179000000D-02 Coefficients=  1.0000000000D+00
 D 1 1.00 0.000000000000
     Exponent=  6.4628040000D+00 Coefficients=  1.0000000000D+00
 D 1 1.00 0.000000000000
     Exponent=  2.6884050000D+00 Coefficients=  1.0000000000D+00
 D 1 1.00 0.000000000000
     Exponent=  1.1183260000D+00 Coefficients=  1.0000000000D+00
 D 1 1.00 0.000000000000
     Exponent=  4.6520300000D-01 Coefficients=  1.0000000000D+00
 D 1 1.00 0.000000000000
     Exponent=  1.9351600000D-01 Coefficients=  1.0000000000D+00
 D 1 1.00 0.000000000000
     Exponent=  8.0499000000D-02 Coefficients=  1.0000000000D+00
 F 1 1.00 0.000000000000
     Exponent=  1.5482826000D+01 Coefficients=  1.0000000000D+00
 F 1 1.00 0.000000000000
     Exponent=  6.1875450000D+00 Coefficients=  1.0000000000D+00
 F 1 1.00 0.000000000000
     Exponent=  2.4727860000D+00 Coefficients=  1.0000000000D+00
 F 1 1.00 0.000000000000
     Exponent=  9.8822200000D-01 Coefficients=  1.0000000000D+00
 F 1 1.00 0.000000000000
     Exponent=  3.9493200000D-01 Coefficients=  1.0000000000D+00
 F 1 1.00 0.000000000000
     Exponent=  1.5783000000D-01 Coefficients=  1.0000000000D+00
 G 1 1.00 0.000000000000
     Exponent=  1.2227015000D+01 Coefficients=  1.0000000000D+00
 G 1 1.00 0.000000000000
     Exponent=  4.8429790000D+00 Coefficients=  1.0000000000D+00
 G 1 1.00 0.000000000000
     Exponent=  1.9182480000D+00 Coefficients=  1.0000000000D+00
 G 1 1.00 0.000000000000
     Exponent=  7.5979600000D-01 Coefficients=  1.0000000000D+00
 G 1 1.00 0.000000000000
     Exponent=  3.0094600000D-01 Coefficients=  1.0000000000D+00
 H 1 1.00 0.000000000000
     Exponent=  1.0343225000D+01 Coefficients=  1.0000000000D+00
 H 1 1.00 0.000000000000
     Exponent=  3.9053680000D+00 Coefficients=  1.0000000000D+00
 H 1 1.00 0.000000000000
     Exponent=  1.4745790000D+00 Coefficients=  1.0000000000D+00
 H 1 1.00 0.000000000000
     Exponent=  5.5676700000D-01 Coefficients=  1.0000000000D+00
 I 1 1.00 0.000000000000
     Exponent=  8.7500520000D+00 Coefficients=  1.0000000000D+00
 I 1 1.00 0.000000000000
     Exponent=  3.1156800000D+00 Coefficients=  1.0000000000D+00
 I 1 1.00 0.000000000000
     Exponent=  1.1094170000D+00 Coefficients=  1.0000000000D+00
 J 1 1.00 0.000000000000
     Exponent=  6.0707212310D+00 Coefficients=  1.0000000000D+00
 ****
 AO basis set in the form of general basis input (Overlap normalization):
      1 0
 S  16 1.00       0.000000000000
      0.1979806680D+08  0.1623567179D-05
      0.3809235300D+07  0.9803830171D-05
      0.8786026110D+06  0.5586916502D-04
      0.2371425360D+06  0.2557485555D-03
      0.7326246060D+05  0.9974439684D-03
      0.2538755310D+05  0.3376152907D-02
      0.9687426810D+04  0.1012833271D-01
      0.4002609060D+04  0.2725498573D-01
      0.1763563910D+04  0.6575518569D-01
      0.8172127730D+03  0.1395054131D+00
      0.3932994910D+03  0.2467809431D+00
      0.1943655590D+03  0.3244204364D+00
      0.9762265100D+02  0.2499421228D+00
      0.4936946700D+02  0.7554450364D-01
      0.2492567100D+02  0.4820860570D-02
      0.1246613700D+02  0.1035438587D-02
 S  13 1.00       0.000000000000
      0.9687426810D+04 -0.2624827997D-04
      0.4002609060D+04 -0.1866003284D-03
      0.1763563910D+04 -0.1061443079D-02
      0.8172127730D+03 -0.5201520383D-02
      0.3932994910D+03 -0.1968777592D-01
      0.1943655590D+03 -0.5843419007D-01
      0.9762265100D+02 -0.9277140929D-01
      0.4936946700D+02  0.1945988313D-01
      0.2492567100D+02  0.3945510086D+00
      0.1246613700D+02  0.5288261691D+00
      0.6131842000D+01  0.1684182459D+00
      0.2946538000D+01  0.8886965204D-02
      0.1374494000D+01  0.1751886659D-02
 P  17 1.00       0.000000000000
      0.5861413600D+05  0.8159296903D-05
      0.1488700610D+05  0.6940798053D-04
      0.4712775080D+04  0.4398441442D-03
      0.1759675870D+04  0.2079975121D-02
      0.7416257650D+03  0.7911509733D-02
      0.3409365510D+03  0.2507126181D-01
      0.1665765850D+03  0.6748412233D-01
      0.8484752700D+02  0.1504993301D+00
      0.4442672400D+02  0.2628953141D+00
      0.2366626800D+02  0.3324676411D+00
      0.1272170300D+02  0.2468014741D+00
      0.6849093000D+01  0.8234684533D-01
      0.3662453000D+01  0.1043906180D-01
      0.1924513000D+01  0.1209813020D-02
      0.9794040000D+00  0.3928626602D-03
      0.4732000000D+00  0.6836411773D-04
      0.2113150000D+00  0.1045287340D-04
 S  11 1.00       0.000000000000
      0.1943655590D+03  0.6602263336D-03
      0.9762265100D+02  0.2444743736D-02
      0.4936946700D+02  0.1450239909D-02
      0.2492567100D+02 -0.5317821197D-01
      0.1246613700D+02 -0.2105117465D+00
      0.6131842000D+01 -0.2368115776D-01
      0.2946538000D+01  0.5277205767D+00
      0.1374494000D+01  0.5406337584D+00
      0.6186430000D+00  0.1124443596D+00
      0.2670670000D+00 -0.1008506437D-02
      0.1099270000D+00  0.1290437758D-02
 P  17 1.00       0.000000000000
      0.5861413600D+05 -0.3042170591D-05
      0.1488700610D+05 -0.2592041001D-04
      0.4712775080D+04 -0.1642635780D-03
      0.1759675870D+04 -0.7796737192D-03
      0.7416257650D+03 -0.2979859491D-02
      0.3409365510D+03 -0.9562962963D-02
      0.1665765850D+03 -0.2628469711D-01
      0.8484752700D+02 -0.6075347862D-01
      0.4442672400D+02 -0.1106546080D+00
      0.2366626800D+02 -0.1481405880D+00
      0.1272170300D+02 -0.8380616512D-01
      0.6849093000D+01  0.1372337550D+00
      0.3662453000D+01  0.3563121961D+00
      0.1924513000D+01  0.3973960271D+00
      0.9794040000D+00  0.2286599801D+00
      0.4732000000D+00  0.4491198901D-01
      0.2113150000D+00  0.3101587891D-02
 D  14 1.00       0.000000000000
      0.1773859680D+04  0.2107027498D-04
      0.5494433830D+03  0.2125864354D-03
      0.2110063240D+03  0.1359949443D-02
      0.9367496200D+02  0.6099087823D-02
      0.4562786600D+02  0.2020512628D-01
      0.2348911600D+02  0.5264617992D-01
      0.1245674400D+02  0.1146282455D+00
      0.6691558000D+01  0.1943359799D+00
      0.3600993000D+01  0.2511656654D+00
      0.1925186000D+01  0.2619300700D+00
      0.1013794000D+01  0.2269155133D+00
      0.5196410000D+00  0.1558659689D+00
      0.2545990000D+00  0.7107674057D-01
      0.1160100000D+00  0.1334123308D-01
 S  10 1.00       0.000000000000
      0.4936946700D+02 -0.4061624677D-03
      0.2492567100D+02  0.5451880683D-02
      0.1246613700D+02  0.2452302120D-01
      0.6131842000D+01  0.3222323688D-03
      0.2946538000D+01 -0.7581979997D-01
      0.1374494000D+01 -0.1522744269D+00
      0.6186430000D+00 -0.1172386697D+00
      0.2670670000D+00  0.1891719539D+00
      0.1099270000D+00  0.6080307727D+00
      0.4288200000D-01  0.3777704083D+00
 S   1 1.00       0.000000000000
      0.1672806400D-01  0.1000000000D+01
 P  10 1.00       0.000000000000
      0.4442672400D+02  0.1860143308D-02
      0.2366626800D+02 -0.4513106334D-03
      0.1272170300D+02  0.3867661567D-02
      0.6849093000D+01 -0.2985586715D-01
      0.3662453000D+01 -0.2276979829D-01
      0.1924513000D+01 -0.8175940652D-01
      0.9794040000D+00  0.1548248511D-01
      0.4732000000D+00 -0.5578123461D-01
      0.2113150000D+00  0.4107475544D+00
      0.5649636820D-01  0.7307375079D+00
 S   1 1.00       0.000000000000
      0.6026189000D+01  0.1000000000D+01
 S   1 1.00       0.000000000000
      0.2697799000D+01  0.1000000000D+01
 S   1 1.00       0.000000000000
      0.1207749000D+01  0.1000000000D+01
 S   1 1.00       0.000000000000
      0.5406840000D+00  0.1000000000D+01
 S   1 1.00       0.000000000000
      0.2420530000D+00  0.1000000000D+01
 P   1 1.00       0.000000000000
      0.3970377000D+01  0.1000000000D+01
 P   1 1.00       0.000000000000
      0.1771358000D+01  0.1000000000D+01
 P   1 1.00       0.000000000000
      0.7902800000D+00  0.1000000000D+01
 P   1 1.00       0.000000000000
      0.3525780000D+00  0.1000000000D+01
 P   1 1.00       0.000000000000
      0.1573010000D+00  0.1000000000D+01
 P   1 1.00       0.000000000000
      0.7017900000D-01  0.1000000000D+01
 D   1 1.00       0.000000000000
      0.6462804000D+01  0.1000000000D+01
 D   1 1.00       0.000000000000
      0.2688405000D+01  0.1000000000D+01
 D   1 1.00       0.000000000000
      0.1118326000D+01  0.1000000000D+01
 D   1 1.00       0.000000000000
      0.4652030000D+00  0.1000000000D+01
 D   1 1.00       0.000000000000
      0.1935160000D+00  0.1000000000D+01
 D   1 1.00       0.000000000000
      0.8049900000D-01  0.1000000000D+01
 F   1 1.00       0.000000000000
      0.1548282600D+02  0.1000000000D+01
 F   1 1.00       0.000000000000
      0.6187545000D+01  0.1000000000D+01
 F   1 1.00       0.000000000000
      0.2472786000D+01  0.1000000000D+01
 F   1 1.00       0.000000000000
      0.9882220000D+00  0.1000000000D+01
 F   1 1.00       0.000000000000
      0.3949320000D+00  0.1000000000D+01
 F   1 1.00       0.000000000000
      0.1578300000D+00  0.1000000000D+01
 G   1 1.00       0.000000000000
      0.1222701500D+02  0.1000000000D+01
 G   1 1.00       0.000000000000
      0.4842979000D+01  0.1000000000D+01
 G   1 1.00       0.000000000000
      0.1918248000D+01  0.1000000000D+01
 G   1 1.00       0.000000000000
      0.7597960000D+00  0.1000000000D+01
 G   1 1.00       0.000000000000
      0.3009460000D+00  0.1000000000D+01
 H   1 1.00       0.000000000000
      0.1034322500D+02  0.1000000000D+01
 H   1 1.00       0.000000000000
      0.3905368000D+01  0.1000000000D+01
 H   1 1.00       0.000000000000
      0.1474579000D+01  0.1000000000D+01
 H   1 1.00       0.000000000000
      0.5567670000D+00  0.1000000000D+01
 I   1 1.00       0.000000000000
      0.8750052000D+01  0.1000000000D+01
 I   1 1.00       0.000000000000
      0.3115680000D+01  0.1000000000D+01
 I   1 1.00       0.000000000000
      0.1109417000D+01  0.1000000000D+01
 J   1 1.00       0.000000000000
      0.6070721231D+01  0.1000000000D+01
 ****
      2 0
 S  16 1.00       0.000000000000
      0.1979806680D+08  0.1623567179D-05
      0.3809235300D+07  0.9803830171D-05
      0.8786026110D+06  0.5586916502D-04
      0.2371425360D+06  0.2557485555D-03
      0.7326246060D+05  0.9974439684D-03
      0.2538755310D+05  0.3376152907D-02
      0.9687426810D+04  0.1012833271D-01
      0.4002609060D+04  0.2725498573D-01
      0.1763563910D+04  0.6575518569D-01
      0.8172127730D+03  0.1395054131D+00
      0.3932994910D+03  0.2467809431D+00
      0.1943655590D+03  0.3244204364D+00
      0.9762265100D+02  0.2499421228D+00
      0.4936946700D+02  0.7554450364D-01
      0.2492567100D+02  0.4820860570D-02
      0.1246613700D+02  0.1035438587D-02
 S  13 1.00       0.000000000000
      0.9687426810D+04 -0.2624827997D-04
      0.4002609060D+04 -0.1866003284D-03
      0.1763563910D+04 -0.1061443079D-02
      0.8172127730D+03 -0.5201520383D-02
      0.3932994910D+03 -0.1968777592D-01
      0.1943655590D+03 -0.5843419007D-01
      0.9762265100D+02 -0.9277140929D-01
      0.4936946700D+02  0.1945988313D-01
      0.2492567100D+02  0.3945510086D+00
      0.1246613700D+02  0.5288261691D+00
      0.6131842000D+01  0.1684182459D+00
      0.2946538000D+01  0.8886965204D-02
      0.1374494000D+01  0.1751886659D-02
 P  17 1.00       0.000000000000
      0.5861413600D+05  0.8159296903D-05
      0.1488700610D+05  0.6940798053D-04
      0.4712775080D+04  0.4398441442D-03
      0.1759675870D+04  0.2079975121D-02
      0.7416257650D+03  0.7911509733D-02
      0.3409365510D+03  0.2507126181D-01
      0.1665765850D+03  0.6748412233D-01
      0.8484752700D+02  0.1504993301D+00
      0.4442672400D+02  0.2628953141D+00
      0.2366626800D+02  0.3324676411D+00
      0.1272170300D+02  0.2468014741D+00
      0.6849093000D+01  0.8234684533D-01
      0.3662453000D+01  0.1043906180D-01
      0.1924513000D+01  0.1209813020D-02
      0.9794040000D+00  0.3928626602D-03
      0.4732000000D+00  0.6836411773D-04
      0.2113150000D+00  0.1045287340D-04
 S  11 1.00       0.000000000000
      0.1943655590D+03  0.6602263336D-03
      0.9762265100D+02  0.2444743736D-02
      0.4936946700D+02  0.1450239909D-02
      0.2492567100D+02 -0.5317821197D-01
      0.1246613700D+02 -0.2105117465D+00
      0.6131842000D+01 -0.2368115776D-01
      0.2946538000D+01  0.5277205767D+00
      0.1374494000D+01  0.5406337584D+00
      0.6186430000D+00  0.1124443596D+00
      0.2670670000D+00 -0.1008506437D-02
      0.1099270000D+00  0.1290437758D-02
 P  17 1.00       0.000000000000
      0.5861413600D+05 -0.3042170591D-05
      0.1488700610D+05 -0.2592041001D-04
      0.4712775080D+04 -0.1642635780D-03
      0.1759675870D+04 -0.7796737192D-03
      0.7416257650D+03 -0.2979859491D-02
      0.3409365510D+03 -0.9562962963D-02
      0.1665765850D+03 -0.2628469711D-01
      0.8484752700D+02 -0.6075347862D-01
      0.4442672400D+02 -0.1106546080D+00
      0.2366626800D+02 -0.1481405880D+00
      0.1272170300D+02 -0.8380616512D-01
      0.6849093000D+01  0.1372337550D+00
      0.3662453000D+01  0.3563121961D+00
      0.1924513000D+01  0.3973960271D+00
      0.9794040000D+00  0.2286599801D+00
      0.4732000000D+00  0.4491198901D-01
      0.2113150000D+00  0.3101587891D-02
 D  14 1.00       0.000000000000
      0.1773859680D+04  0.2107027498D-04
      0.5494433830D+03  0.2125864354D-03
      0.2110063240D+03  0.1359949443D-02
      0.9367496200D+02  0.6099087823D-02
      0.4562786600D+02  0.2020512628D-01
      0.2348911600D+02  0.5264617992D-01
      0.1245674400D+02  0.1146282455D+00
      0.6691558000D+01  0.1943359799D+00
      0.3600993000D+01  0.2511656654D+00
      0.1925186000D+01  0.2619300700D+00
      0.1013794000D+01  0.2269155133D+00
      0.5196410000D+00  0.1558659689D+00
      0.2545990000D+00  0.7107674057D-01
      0.1160100000D+00  0.1334123308D-01
 S  10 1.00       0.000000000000
      0.4936946700D+02 -0.4061624677D-03
      0.2492567100D+02  0.5451880683D-02
      0.1246613700D+02  0.2452302120D-01
      0.6131842000D+01  0.3222323688D-03
      0.2946538000D+01 -0.7581979997D-01
      0.1374494000D+01 -0.1522744269D+00
      0.6186430000D+00 -0.1172386697D+00
      0.2670670000D+00  0.1891719539D+00
      0.1099270000D+00  0.6080307727D+00
      0.4288200000D-01  0.3777704083D+00
 S   1 1.00       0.000000000000
      0.1672806400D-01  0.1000000000D+01
 P  10 1.00       0.000000000000
      0.4442672400D+02  0.1860143308D-02
      0.2366626800D+02 -0.4513106334D-03
      0.1272170300D+02  0.3867661567D-02
      0.6849093000D+01 -0.2985586715D-01
      0.3662453000D+01 -0.2276979829D-01
      0.1924513000D+01 -0.8175940652D-01
      0.9794040000D+00  0.1548248511D-01
      0.4732000000D+00 -0.5578123461D-01
      0.2113150000D+00  0.4107475544D+00
      0.5649636820D-01  0.7307375079D+00
 S   1 1.00       0.000000000000
      0.6026189000D+01  0.1000000000D+01
 S   1 1.00       0.000000000000
      0.2697799000D+01  0.1000000000D+01
 S   1 1.00       0.000000000000
      0.1207749000D+01  0.1000000000D+01
 S   1 1.00       0.000000000000
      0.5406840000D+00  0.1000000000D+01
 S   1 1.00       0.000000000000
      0.2420530000D+00  0.1000000000D+01
 P   1 1.00       0.000000000000
      0.3970377000D+01  0.1000000000D+01
 P   1 1.00       0.000000000000
      0.1771358000D+01  0.1000000000D+01
 P   1 1.00       0.000000000000
      0.7902800000D+00  0.1000000000D+01
 P   1 1.00       0.000000000000
      0.3525780000D+00  0.1000000000D+01
 P   1 1.00       0.000000000000
      0.1573010000D+00  0.1000000000D+01
 P   1 1.00       0.000000000000
      0.7017900000D-01  0.1000000000D+01
 D   1 1.00       0.000000000000
      0.6462804000D+01  0.1000000000D+01
 D   1 1.00       0.000000000000
      0.2688405000D+01  0.1000000000D+01
 D   1 1.00       0.000000000000
      0.1118326000D+01  0.1000000000D+01
 D   1 1.00       0.000000000000
      0.4652030000D+00  0.1000000000D+01
 D   1 1.00       0.000000000000
      0.1935160000D+00  0.1000000000D+01
 D   1 1.00       0.000000000000
      0.8049900000D-01  0.1000000000D+01
 F   1 1.00       0.000000000000
      0.1548282600D+02  0.1000000000D+01
 F   1 1.00       0.000000000000
      0.6187545000D+01  0.1000000000D+01
 F   1 1.00       0.000000000000
      0.2472786000D+01  0.1000000000D+01
 F   1 1.00       0.000000000000
      0.9882220000D+00  0.1000000000D+01
 F   1 1.00       0.000000000000
      0.3949320000D+00  0.1000000000D+01
 F   1 1.00       0.000000000000
      0.1578300000D+00  0.1000000000D+01
 G   1 1.00       0.000000000000
      0.1222701500D+02  0.1000000000D+01
 G   1 1.00       0.000000000000
      0.4842979000D+01  0.1000000000D+01
 G   1 1.00       0.000000000000
      0.1918248000D+01  0.1000000000D+01
 G   1 1.00       0.000000000000
      0.7597960000D+00  0.1000000000D+01
 G   1 1.00       0.000000000000
      0.3009460000D+00  0.1000000000D+01
 H   1 1.00       0.000000000000
      0.1034322500D+02  0.1000000000D+01
 H   1 1.00       0.000000000000
      0.3905368000D+01  0.1000000000D+01
 H   1 1.00       0.000000000000
      0.1474579000D+01  0.1000000000D+01
 H   1 1.00       0.000000000000
      0.5567670000D+00  0.1000000000D+01
 I   1 1.00       0.000000000000
      0.8750052000D+01  0.1000000000D+01
 I   1 1.00       0.000000000000
      0.3115680000D+01  0.1000000000D+01
 I   1 1.00       0.000000000000
      0.1109417000D+01  0.1000000000D+01
 J   1 1.00       0.000000000000
      0.6070721231D+01  0.1000000000D+01
 ****

 There are    88 symmetry adapted basis functions of AG  symmetry.
 There are    43 symmetry adapted basis functions of B1G symmetry.
 There are    63 symmetry adapted basis functions of B2G symmetry.
 There are    63 symmetry adapted basis functions of B3G symmetry.
 There are    43 symmetry adapted basis functions of AU  symmetry.
 There are    88 symmetry adapted basis functions of B1U symmetry.
 There are    63 symmetry adapted basis functions of B2U symmetry.
 There are    63 symmetry adapted basis functions of B3U symmetry.
 Integral buffers will be    131072 words long.
 Raffenetti 2 integral format.
 Two-electron integral symmetry is turned on.
   514 basis functions,  1330 primitive gaussians,   836 cartesian basis functions
    30 alpha electrons       30 beta electrons
       nuclear repulsion energy       123.8002307593 Hartrees.
 IExCor=    0 DFT=F Ex=HF Corr=None ExCW=0 ScaHFX=  1.000000
 ScaDFX=  1.000000  1.000000  1.000000  1.000000 ScalE2=  1.000000  1.000000
 IRadAn=      5 IRanWt=     -1 IRanGd=            0 ICorTp=0
 NAtoms=    2 NActive=    2 NUniq=    1 SFac= 3.00D+00 NAtFMM=   80 NAOKFM=F Big=F
 Leave Link  301 at Fri Jul 26 11:03:19 2013, MaxMem=17179869184 cpu:       9.4
 (Enter /share/apps/gaussian/g09root/g09/l302.exe)
 NPDir=0 NMtPBC=     1 NCelOv=     1 NCel=       1 NClECP=     1 NCelD=      1
         NCelK=      1 NCelE2=     1 NClLst=     1 CellRange=     0.0.
 One-electron integrals computed using PRISM.
 One-electron integral symmetry used in STVInt
 NBasis=   514 RedAO= F  NBF=    88    43    63    63    43    88    63    63
 NBsUse=   514 1.00D-04 NBFU=    88    43    63    63    43    88    63    63
 Leave Link  302 at Fri Jul 26 11:03:27 2013, MaxMem=17179869184 cpu:     123.0
 (Enter /share/apps/gaussian/g09root/g09/l303.exe)
 DipDrv:  MaxL=1.
 Leave Link  303 at Fri Jul 26 11:03:27 2013, MaxMem=17179869184 cpu:       2.9
 (Enter /share/apps/gaussian/g09root/g09/l401.exe)
 Initial guess read from the checkpoint file:  Zn...Zn.chk
 B after Tr=     0.000000    0.000000    0.000000
         Rot=    1.000000    0.000000    0.000000    0.000000 Ang=   0.00 deg.
 Guess basis will be translated and rotated to current coordinates.
 Initial guess orbital symmetries:
       Occupied  (?A) (?A) (SGU) (SGG) (PIG) (PIG) (PIU) (PIU)
                 (SGU) (SGG) (SGG) (SGU) (PIG) (PIG) (PIU) (PIU)
                 (SGU) (SGG) (SGG) (PIU) (PIU) (DLTG) (DLTG) (DLTU)
                 (DLTU) (PIG) (PIG) (SGU) (SGG) (SGU)
       Virtual   (SGG) (SGU) (PIU) (PIU) (SGG) (PIG) (PIG) (SGU)
                 (DLTG) (DLTG) (PIU) (PIU) (SGG) (DLTU) (DLTU)
                 (SGU) (PIG) (PIG) (PIU) (PIU) (PIG) (PIG) (SGG)
                 (SGU) (SGG) (PIU) (PIU) (SGU) (SGG) (DLTG) (DLTG)
                 (PHIU) (PHIU) (PHIG) (PHIG) (DLTU) (DLTU) (DLTG)
                 (DLTG) (SGU) (PIG) (PIG) (DLTU) (DLTU) (PIU) (PIU)
                 (PIU) (PIU) (SGG) (PIG) (PIG) (PIG) (PIG) (SGG)
                 (SGU) (SGU) (SGG) (PIU) (PIU) (DLTG) (DLTG) (PHIU)
                 (PHIU) (?B) (?B) (?C) (?C) (PHIG) (PHIG) (DLTU)
                 (DLTU) (PIG) (PIG) (SGU) (DLTG) (DLTG) (PIU) (PIU)
                 (PHIU) (PHIU) (PHIG) (PHIG) (PIU) (PIU) (SGG)
                 (DLTU) (DLTU) (PIG) (PIG) (SGG) (SGU) (PIG) (PIG)
                 (SGU) (DLTG) (DLTG) (PIU) (PIU) (DLTU) (DLTU)
                 (SGG) (PIG) (PIG) (SGG) (SGU) (SGU) (SGG) (PIU)
                 (PIU) (DLTG) (DLTG) (PHIU) (PHIU) (?D) (?D) (?E)
                 (?E) (?B) (?B) (?C) (?C) (PHIG) (PHIG) (DLTU)
                 (DLTU) (PIG) (PIG) (SGU) (PIU) (PIU) (DLTG) (DLTG)
                 (PHIU) (PHIU) (PHIG) (PHIG) (DLTU) (DLTU) (SGG)
                 (PIG) (PIG) (SGU) (SGG) (PIU) (PIU) (DLTG) (DLTG)
                 (PHIU) (PHIU) (?B) (?B) (?C) (?C) (PHIG) (PHIG)
                 (DLTU) (DLTU) (PIG) (PIG) (SGU) (PIU) (PIU) (PIG)
                 (PIG) (SGG) (SGU) (DLTG) (DLTG) (PIU) (PIU) (DLTU)
                 (DLTU) (SGG) (PIG) (PIG) (SGU) (SGG) (SGU) (?D)
                 (?D) (?E) (?E) (?B) (?B) (?C) (?C) (PHIU) (PHIU)
                 (DLTG) (DLTG) (PHIG) (PHIG) (PIU) (PIU) (DLTU)
                 (DLTU) (SGG) (PIG) (PIG) (SGU) (PIU) (PIU) (DLTG)
                 (DLTG) (PHIU) (PHIU) (PHIG) (PHIG) (DLTU) (DLTU)
                 (SGG) (PIG) (PIG) (SGU) (SGG) (PIU) (PIU) (DLTG)
                 (DLTG) (PHIU) (PHIU) (?B) (?B) (?C) (?C) (PHIG)
                 (PHIG) (DLTU) (DLTU) (PIG) (PIG) (SGU) (PIU) (PIU)
                 (PIG) (PIG) (SGG) (SGU) (DLTG) (DLTG) (PIU) (PIU)
                 (DLTU) (DLTU) (SGG) (PIG) (PIG) (SGU) (SGG) (SGU)
                 (?A) (?A) (?A) (?A) (?F) (?F) (?F) (?F) (?G) (?G)
                 (?G) (?G) (PIU) (PIU) (PIG) (PIG) (?H) (?H) (?H)
                 (?H) (DLTG) (DLTG) (DLTU) (DLTU) (PIU) (PIU) (DLTG)
                 (DLTG) (PHIU) (PHIU) (PHIG) (PHIG) (DLTU) (DLTU)
                 (SGG) (PIG) (PIG) (SGU) (?D) (?D) (?E) (?E) (?B)
                 (?B) (?C) (?C) (PHIU) (PHIU) (PHIG) (PHIG) (DLTG)
                 (DLTG) (DLTU) (DLTU) (PIU) (PIU) (SGG) (PIG) (PIG)
                 (SGU) (SGG) (PIU) (PIU) (DLTG) (DLTG) (PHIU) (PHIU)
                 (?B) (?B) (?C) (?C) (PHIG) (PHIG) (DLTU) (DLTU)
                 (PIG) (PIG) (SGU) (SGG) (SGU) (?H) (?H) (?H) (?H)
                 (?H) (?H) (?H) (?H) (?H) (?H) (?H) (?H) (?H) (?H)
                 (?H) (?H) (?H) (?H) (?H) (?H) (?H) (?H) (?H) (?H)
                 (?G) (?G) (?H) (?H) (?H) (?H) (?H) (?H) (?H) (?G)
                 (?G) (?F) (?F) (?A) (?H) (?H) (?H) (?H) (?H) (?H)
                 (?G) (?G) (?F) (?F) (?A) (?A) (?H) (?H) (?H) (?H)
                 (?H) (?H) (?H) (?G) (?G) (?F) (?F) (?A) (?A) (?A)
                 (?H) (?H) (?H) (?H) (?H) (?H) (?G) (?G) (?F) (?F)
                 (?A) (?A) (?H) (?H) (?H) (?H) (?H) (?H) (?H) (?H)
                 (?H) (?H) (?H) (?H) (?H) (?H) (?H) (?H) (?H) (?H)
                 (?H) (?H) (?H) (?H) (?H) (?H) (?G) (?G) (?H) (?H)
                 (?H) (?H) (?H) (?H) (?H) (?G) (?G) (?F) (?F) (?A)
                 (?H) (?H) (?H) (?H) (?H) (?H) (?G) (?G) (?F) (?F)
                 (?A) (?A) (?H) (?H) (?H) (?H) (?H) (?H) (?H) (?G)
                 (?G) (?F) (?F) (?A) (?A) (?A) (?H) (?H) (?H) (?H)
                 (?H) (?H) (?G) (?G) (?F) (?F) (?A) (?A) (?H) (?H)
 Leave Link  401 at Fri Jul 26 11:03:30 2013, MaxMem=17179869184 cpu:      56.9
 (Enter /share/apps/gaussian/g09root/g09/l502.exe)
 Restricted open shell SCF:
 Requested convergence on RMS density matrix=1.00D-10 within 128 cycles.
 Requested convergence on MAX density matrix=1.00D-08.
 Requested convergence on             energy=1.00D-08.
 No special actions if energy rises.
 Using DIIS extrapolation, IDIIS=  1040.
 Integral symmetry usage will be decided dynamically.
 IEnd=     2134978 IEndB=     2134978 NGot= 17179869184 MDV= 17178450579
 LenX= 17178450579 LenY= 17177750847
 Fock matrices will be formed incrementally for  20 cycles.
 An orbital has undefined symmetry, so N**3 symmetry is turned off.

 Cycle   1  Pass 1  IDiag  1:
 FoFCou: FMM=F IPFlag=           0 FMFlag=      100000 FMFlg1=           0
         NFxFlg=           0 DoJE=F BraDBF=F KetDBF=F FulRan=T
         Omega=  0.000000  0.000000  1.000000  0.000000  0.000000 ICntrl=       0 IOpCl=  1
         NMat0=    1 NMatS0=    1 NMatT0=    0 NMatD0=    1 NMtDS0=    0 NMtDT0=    0
         I1Cent=           0 NGrid=           0.
 Petite list used in FoFCou.
 E= -3555.69402598963    
 DIIS: error= 1.72D-02 at cycle   1 NSaved=   1.
 NSaved= 1 IEnMin= 1 EnMin= -3555.69402598963     IErMin= 1 ErrMin= 1.72D-02
 ErrMax= 1.72D-02 EMaxC= 1.00D-01 BMatC= 7.27D-03 BMatP= 7.27D-03
 IDIUse=3 WtCom= 8.28D-01 WtEn= 1.72D-01
 Coeff-Com:  0.100D+01
 Coeff-En:   0.100D+01
 Coeff:      0.100D+01
 Gap=     0.314 Goal=   None    Shift=    0.000
 GapD=    0.314 DampG=1.000 DampE=0.250 DampFc=0.2500 IDamp=-1.
 Damping current iteration by 2.50D-01
 RMSDP=1.40D-04 MaxDP=2.19D-02              OVMax= 1.26D-03

 Cycle   2  Pass 1  IDiag  1:
 RMSU=  2.43D-05    CP:  1.00D+00
 E= -3555.69403735801     Delta-E=       -0.000011368385 Rises=F Damp=T
 DIIS: error= 1.29D-02 at cycle   2 NSaved=   2.
 NSaved= 2 IEnMin= 2 EnMin= -3555.69403735801     IErMin= 2 ErrMin= 1.29D-02
 ErrMax= 1.29D-02 EMaxC= 1.00D-01 BMatC= 4.10D-03 BMatP= 7.27D-03
 IDIUse=3 WtCom= 8.71D-01 WtEn= 1.29D-01
 Coeff-Com: -0.301D+01 0.401D+01
 Coeff-En:   0.000D+00 0.100D+01
 Coeff:     -0.262D+01 0.362D+01
 Gap=     0.307 Goal=   None    Shift=    0.000
 RMSDP=1.08D-04 MaxDP=1.65D-02 DE=-1.14D-05 OVMax= 1.50D-04

 Cycle   3  Pass 1  IDiag  1:
 RMSU=  2.65D-05    CP:  1.00D+00  3.00D+00
 E= -3555.69407220736     Delta-E=       -0.000034849345 Rises=F Damp=F
 DIIS: error= 7.27D-06 at cycle   3 NSaved=   3.
 NSaved= 3 IEnMin= 3 EnMin= -3555.69407220736     IErMin= 3 ErrMin= 7.27D-06
 ErrMax= 7.27D-06 EMaxC= 1.00D-01 BMatC= 4.95D-09 BMatP= 4.10D-03
 IDIUse=1 WtCom= 1.00D+00 WtEn= 0.00D+00
 Coeff-Com:  0.344D+00-0.458D+00 0.111D+01
 Coeff:      0.344D+00-0.458D+00 0.111D+01
 Gap=     0.307 Goal=   None    Shift=    0.000
 RMSDP=1.28D-06 MaxDP=2.28D-04 DE=-3.48D-05 OVMax= 4.78D-05

 Cycle   4  Pass 1  IDiag  1:
 RMSU=  7.51D-07    CP:  1.00D+00  3.00D+00  1.02D+00
 E= -3555.69407221203     Delta-E=       -0.000000004676 Rises=F Damp=F
 DIIS: error= 2.67D-06 at cycle   4 NSaved=   4.
 NSaved= 4 IEnMin= 4 EnMin= -3555.69407221203     IErMin= 4 ErrMin= 2.67D-06
 ErrMax= 2.67D-06 EMaxC= 1.00D-01 BMatC= 2.21D-09 BMatP= 4.95D-09
 IDIUse=1 WtCom= 1.00D+00 WtEn= 0.00D+00
 Coeff-Com:  0.241D+00-0.322D+00 0.527D+00 0.553D+00
 Coeff:      0.241D+00-0.322D+00 0.527D+00 0.553D+00
 Gap=     0.307 Goal=   None    Shift=    0.000
 RMSDP=9.48D-08 MaxDP=1.30D-05 DE=-4.68D-09 OVMax= 4.57D-06

 Cycle   5  Pass 1  IDiag  1:
 RMSU=  3.03D-08    CP:  1.00D+00  3.00D+00  1.02D+00  1.07D+00
 E= -3555.69407221252     Delta-E=       -0.000000000488 Rises=F Damp=F
 DIIS: error= 3.77D-07 at cycle   5 NSaved=   5.
 NSaved= 5 IEnMin= 5 EnMin= -3555.69407221252     IErMin= 5 ErrMin= 3.77D-07
 ErrMax= 3.77D-07 EMaxC= 1.00D-01 BMatC= 4.35D-11 BMatP= 2.21D-09
 IDIUse=1 WtCom= 1.00D+00 WtEn= 0.00D+00
 Coeff-Com: -0.299D-01 0.399D-01-0.901D-01 0.534D-01 0.103D+01
 Coeff:     -0.299D-01 0.399D-01-0.901D-01 0.534D-01 0.103D+01
 Gap=     0.307 Goal=   None    Shift=    0.000
 RMSDP=6.54D-08 MaxDP=8.04D-06 DE=-4.88D-10 OVMax= 4.32D-06

 Cycle   6  Pass 1  IDiag  1:
 RMSU=  2.34D-08    CP:  1.00D+00  3.00D+00  1.02D+00  1.12D+00  1.42D+00
 E= -3555.69407221255     Delta-E=       -0.000000000026 Rises=F Damp=F
 DIIS: error= 4.06D-08 at cycle   6 NSaved=   6.
 NSaved= 6 IEnMin= 6 EnMin= -3555.69407221255     IErMin= 6 ErrMin= 4.06D-08
 ErrMax= 4.06D-08 EMaxC= 1.00D-01 BMatC= 3.27D-13 BMatP= 4.35D-11
 IDIUse=1 WtCom= 1.00D+00 WtEn= 0.00D+00
 Coeff-Com: -0.332D-02 0.443D-02-0.693D-02-0.110D-01-0.137D-01 0.103D+01
 Coeff:     -0.332D-02 0.443D-02-0.693D-02-0.110D-01-0.137D-01 0.103D+01
 Gap=     0.307 Goal=   None    Shift=    0.000
 RMSDP=1.08D-08 MaxDP=1.73D-06 DE=-2.59D-11 OVMax= 7.40D-07

 Cycle   7  Pass 1  IDiag  1:
 RMSU=  2.43D-09    CP:  1.00D+00  3.00D+00  1.02D+00  1.12D+00  1.54D+00
                    CP:  1.26D+00
 E= -3555.69407221256     Delta-E=       -0.000000000016 Rises=F Damp=F
 DIIS: error= 1.32D-08 at cycle   7 NSaved=   7.
 NSaved= 7 IEnMin= 7 EnMin= -3555.69407221256     IErMin= 7 ErrMin= 1.32D-08
 ErrMax= 1.32D-08 EMaxC= 1.00D-01 BMatC= 3.27D-14 BMatP= 3.27D-13
 IDIUse=1 WtCom= 1.00D+00 WtEn= 0.00D+00
 Coeff-Com:  0.154D-02-0.205D-02 0.481D-02-0.227D-02-0.628D-01 0.687D-01
 Coeff-Com:  0.992D+00
 Coeff:      0.154D-02-0.205D-02 0.481D-02-0.227D-02-0.628D-01 0.687D-01
 Coeff:      0.992D+00
 Gap=     0.307 Goal=   None    Shift=    0.000
 RMSDP=3.28D-09 MaxDP=5.31D-07 DE=-1.59D-11 OVMax= 2.46D-07

 Cycle   8  Pass 1  IDiag  1:
 RMSU=  2.26D-10    CP:  1.00D+00  3.00D+00  1.02D+00  1.12D+00  1.58D+00
                    CP:  1.33D+00  1.42D+00
 E= -3555.69407221256     Delta-E=        0.000000000002 Rises=F Damp=F
 DIIS: error= 2.47D-09 at cycle   8 NSaved=   8.
 NSaved= 8 IEnMin= 7 EnMin= -3555.69407221256     IErMin= 8 ErrMin= 2.47D-09
 ErrMax= 2.47D-09 EMaxC= 1.00D-01 BMatC= 2.97D-15 BMatP= 3.27D-14
 IDIUse=1 WtCom= 1.00D+00 WtEn= 0.00D+00
 Coeff-Com:  0.137D-03-0.183D-03 0.176D-03 0.155D-02 0.358D-02-0.838D-01
 Coeff-Com:  0.374D-02 0.107D+01
 Coeff:      0.137D-03-0.183D-03 0.176D-03 0.155D-02 0.358D-02-0.838D-01
 Coeff:      0.374D-02 0.107D+01
 Gap=     0.307 Goal=   None    Shift=    0.000
 RMSDP=7.70D-10 MaxDP=1.38D-07 DE= 1.82D-12 OVMax= 6.43D-08

 Cycle   9  Pass 1  IDiag  1:
 RMSU=  8.01D-11    CP:  1.00D+00  3.00D+00  1.02D+00  1.12D+00  1.58D+00
                    CP:  1.35D+00  1.54D+00  1.57D+00
 E= -3555.69407221256     Delta-E=       -0.000000000002 Rises=F Damp=F
 DIIS: error= 8.03D-10 at cycle   9 NSaved=   9.
 NSaved= 9 IEnMin= 7 EnMin= -3555.69407221256     IErMin= 9 ErrMin= 8.03D-10
 ErrMax= 8.03D-10 EMaxC= 1.00D-01 BMatC= 1.88D-16 BMatP= 2.97D-15
 IDIUse=1 WtCom= 1.00D+00 WtEn= 0.00D+00
 Coeff-Com: -0.121D-03 0.162D-03-0.300D-03-0.434D-03 0.271D-02 0.130D-01
 Coeff-Com: -0.292D-02-0.404D+00 0.139D+01
 Coeff:     -0.121D-03 0.162D-03-0.300D-03-0.434D-03 0.271D-02 0.130D-01
 Coeff:     -0.292D-02-0.404D+00 0.139D+01
 Gap=     0.307 Goal=   None    Shift=    0.000
 RMSDP=1.12D-10 MaxDP=2.28D-08 DE=-1.82D-12 OVMax= 1.33D-08

 Cycle  10  Pass 1  IDiag  1:
 RMSU=  1.31D-11    CP:  1.00D+00  3.00D+00  1.02D+00  1.12D+00  1.58D+00
                    CP:  1.35D+00  1.55D+00  1.77D+00  1.48D+00
 E= -3555.69407221256     Delta-E=        0.000000000003 Rises=F Damp=F
 DIIS: error= 1.54D-10 at cycle  10 NSaved=  10.
 NSaved=10 IEnMin= 7 EnMin= -3555.69407221256     IErMin=10 ErrMin= 1.54D-10
 ErrMax= 1.54D-10 EMaxC= 1.00D-01 BMatC= 6.47D-18 BMatP= 1.88D-16
 IDIUse=1 WtCom= 1.00D+00 WtEn= 0.00D+00
 Coeff-Com:  0.231D-04-0.308D-04 0.652D-04 0.447D-04-0.840D-03-0.435D-03
 Coeff-Com:  0.978D-02 0.182D-01-0.301D+00 0.127D+01
 Coeff:      0.231D-04-0.308D-04 0.652D-04 0.447D-04-0.840D-03-0.435D-03
 Coeff:      0.978D-02 0.182D-01-0.301D+00 0.127D+01
 Gap=     0.307 Goal=   None    Shift=    0.000
 RMSDP=2.65D-11 MaxDP=3.40D-09 DE= 2.73D-12 OVMax= 1.75D-09

 SCF Done:  E(ROHF) =  -3555.69407221     A.U. after   10 cycles
             Convg  =    0.2654D-10             -V/T =  2.0000
 <Sx>= 0.0000 <Sy>= 0.0000 <Sz>= 0.0000 <S**2>= 0.0000 S= 0.0000
 <L.S>= 0.000000000000E+00
 KE= 3.555704917113D+03 PE=-8.771479866068D+03 EE= 1.536280645983D+03
 Annihilation of the first spin contaminant:
 S**2 before annihilation     0.0000,   after     0.0000
 DiagDN has N=   514 LTot=  1574 but NE2=     3 cannot use DSYEVD.
 Leave Link  502 at Fri Jul 26 11:37:15 2013, MaxMem=17179869184 cpu:   32356.9
 (Enter /share/apps/gaussian/g09root/g09/l801.exe)
 An orbital has undefined symmetry, so N**3 symmetry is turned off.
 GenMOA:  NOpAll=  8 NOp2=8 NOpUse=  8 JSym2X=1
 FoFCou: FMM=F IPFlag=           0 FMFlag=           0 FMFlg1=           0
         NFxFlg=           0 DoJE=F BraDBF=F KetDBF=F FulRan=T
         Omega=  0.000000  0.000000  1.000000  0.000000  0.000000 ICntrl=       0 IOpCl=  1
         NMat0=    1 NMatS0=    1 NMatT0=    0 NMatD0=    1 NMtDS0=    0 NMtDT0=    0
         I1Cent=           0 NGrid=           0.
 Petite list used in FoFCou.
 <Sx>= 0.0000 <Sy>= 0.0000 <Sz>= 0.0000 <S**2>= 0.0000 S= 0.0000
 Range of M.O.s used for correlation:    19   514
 NBasis=   514 NAE=    30 NBE=    30 NFC=    18 NFV=     0
 NROrb=    496 NOA=    12 NOB=    12 NVA=   484 NVB=   484

 **** Warning!!: The largest alpha MO coefficient is  0.90373598D+02


 **** Warning!!: The largest beta MO coefficient is  0.90373598D+02

 Singles contribution to E2=   -0.4782517195D-12
 Leave Link  801 at Fri Jul 26 11:41:23 2013, MaxMem=17179869184 cpu:    3954.6
 (Enter /share/apps/gaussian/g09root/g09/l906.exe)
 FulOut=F Deriv=F AODrv=F NAtomX=     2
   MMem=           0  MDisk=          12 MDiskD=          12
  W3Min=     9710976 MinDsk=     8802106 NBas6D=         836
 NBas2D=      356928    NTT=      349866    LW2=   115793526
    MDV= 17177292134 MDiskM=        7926 NBas2p=      143381
 Disk-based method using OVN memory for 12 occupieds at a time.
 Permanent disk used for amplitudes and <ij||ab> integrals=    98323632 words.
 Estimated scratch disk usage=  2088105072 words.
 IUseRI=2 ITolRI= 6 IR12RI=0
 IMap=   1   2   3   4   5   6   7   8   9  10  11  12
 Actual    scratch disk usage=  2086791280 words.
 JobTyp=2 Pass  1:  I=   1 to  12 NPSUse= 16 ParTrn=T ParDer=T DoDerP=F.
 (rs|ai) integrals will be sorted in core.
 T,EIJ(AA): I=   1 J=   2      0.5974516E-03     -0.5546630E-02
 T,EIJ(AA): I=   1 J=   3      0.5974516E-03     -0.5546630E-02
 T,EIJ(AA): I=   1 J=   4      0.3887050E-03     -0.3328486E-02
 T,EIJ(AA): I=   1 J=   5      0.3887050E-03     -0.3328486E-02
 T,EIJ(AA): I=   1 J=   6      0.3887272E-03     -0.3328875E-02
 T,EIJ(AA): I=   1 J=   7      0.3887272E-03     -0.3328875E-02
 T,EIJ(AA): I=   1 J=   8      0.5977776E-03     -0.5552296E-02
 T,EIJ(AA): I=   1 J=   9      0.5977776E-03     -0.5552296E-02
 T,EIJ(AA): I=   1 J=  10      0.4736243E-06     -0.1722534E-05
 T,EIJ(AA): I=   1 J=  11      0.2574594E-03     -0.1083516E-02
 T,EIJ(AA): I=   1 J=  12      0.2801676E-03     -0.1180999E-02
 T,EIJ(AA): I=   2 J=   3      0.4589292E-03     -0.4071822E-02
 T,EIJ(AA): I=   2 J=   4      0.4588088E-03     -0.4073042E-02
 T,EIJ(AA): I=   2 J=   5      0.4588088E-03     -0.4073042E-02
 T,EIJ(AA): I=   2 J=   6      0.4588793E-03     -0.4073614E-02
 T,EIJ(AA): I=   2 J=   7      0.4588793E-03     -0.4073614E-02
 T,EIJ(AA): I=   2 J=   8      0.2075008E-06     -0.8279591E-06
 T,EIJ(AA): I=   2 J=   9      0.4593703E-03     -0.4076363E-02
 T,EIJ(AA): I=   2 J=  10      0.5987649E-03     -0.5561768E-02
 T,EIJ(AA): I=   2 J=  11      0.2566624E-03     -0.1081135E-02
 T,EIJ(AA): I=   2 J=  12      0.2805951E-03     -0.1185546E-02
 T,EIJ(AA): I=   3 J=   4      0.4588088E-03     -0.4073042E-02
 T,EIJ(AA): I=   3 J=   5      0.4588088E-03     -0.4073042E-02
 T,EIJ(AA): I=   3 J=   6      0.4588793E-03     -0.4073614E-02
 T,EIJ(AA): I=   3 J=   7      0.4588793E-03     -0.4073614E-02
 T,EIJ(AA): I=   3 J=   8      0.4593703E-03     -0.4076363E-02
 T,EIJ(AA): I=   3 J=   9      0.2075008E-06     -0.8279591E-06
 T,EIJ(AA): I=   3 J=  10      0.5987649E-03     -0.5561768E-02
 T,EIJ(AA): I=   3 J=  11      0.2566624E-03     -0.1081135E-02
 T,EIJ(AA): I=   3 J=  12      0.2805951E-03     -0.1185546E-02
 T,EIJ(AA): I=   4 J=   5      0.6675513E-03     -0.6297404E-02
 T,EIJ(AA): I=   4 J=   6      0.7384234E-07     -0.3205304E-06
 T,EIJ(AA): I=   4 J=   7      0.6676172E-03     -0.6298142E-02
 T,EIJ(AA): I=   4 J=   8      0.4594505E-03     -0.4078011E-02
 T,EIJ(AA): I=   4 J=   9      0.4594505E-03     -0.4078011E-02
 T,EIJ(AA): I=   4 J=  10      0.3902626E-03     -0.3339451E-02
 T,EIJ(AA): I=   4 J=  11      0.2515060E-03     -0.1063948E-02
 T,EIJ(AA): I=   4 J=  12      0.2850172E-03     -0.1198855E-02
 T,EIJ(AA): I=   5 J=   6      0.6676172E-03     -0.6298142E-02
 T,EIJ(AA): I=   5 J=   7      0.7384234E-07     -0.3205304E-06
 T,EIJ(AA): I=   5 J=   8      0.4594505E-03     -0.4078011E-02
 T,EIJ(AA): I=   5 J=   9      0.4594505E-03     -0.4078011E-02
 T,EIJ(AA): I=   5 J=  10      0.3902626E-03     -0.3339451E-02
 T,EIJ(AA): I=   5 J=  11      0.2515060E-03     -0.1063948E-02
 T,EIJ(AA): I=   5 J=  12      0.2850172E-03     -0.1198855E-02
 T,EIJ(AA): I=   6 J=   7      0.6676980E-03     -0.6298917E-02
 T,EIJ(AA): I=   6 J=   8      0.4595220E-03     -0.4078527E-02
 T,EIJ(AA): I=   6 J=   9      0.4595220E-03     -0.4078527E-02
 T,EIJ(AA): I=   6 J=  10      0.3903346E-03     -0.3339884E-02
 T,EIJ(AA): I=   6 J=  11      0.2528738E-03     -0.1065865E-02
 T,EIJ(AA): I=   6 J=  12      0.2846032E-03     -0.1198324E-02
 T,EIJ(AA): I=   7 J=   8      0.4595220E-03     -0.4078527E-02
 T,EIJ(AA): I=   7 J=   9      0.4595220E-03     -0.4078527E-02
 T,EIJ(AA): I=   7 J=  10      0.3903346E-03     -0.3339884E-02
 T,EIJ(AA): I=   7 J=  11      0.2528738E-03     -0.1065865E-02
 T,EIJ(AA): I=   7 J=  12      0.2846032E-03     -0.1198324E-02
 T,EIJ(AA): I=   8 J=   9      0.4600270E-03     -0.4081144E-02
 T,EIJ(AA): I=   8 J=  10      0.5996980E-03     -0.5568228E-02
 T,EIJ(AA): I=   8 J=  11      0.2626864E-03     -0.1090978E-02
 T,EIJ(AA): I=   8 J=  12      0.2827396E-03     -0.1189271E-02
 T,EIJ(AA): I=   9 J=  10      0.5996980E-03     -0.5568228E-02
 T,EIJ(AA): I=   9 J=  11      0.2626864E-03     -0.1090978E-02
 T,EIJ(AA): I=   9 J=  12      0.2827396E-03     -0.1189271E-02
 T,EIJ(AA): I=  10 J=  11      0.2675611E-03     -0.1102659E-02
 T,EIJ(AA): I=  10 J=  12      0.2820713E-03     -0.1185886E-02
 T,EIJ(AA): I=  11 J=  12      0.7257347E-03     -0.6682816E-03
 T,EIJ(AB): I=   1 J=   1      0.1035090E-02     -0.9956017E-02
 T,EIJ(AB): I=   1 J=   2      0.6608541E-03     -0.6074592E-02
 T,EIJ(AB): I=   1 J=   3      0.6608541E-03     -0.6074592E-02
 T,EIJ(AB): I=   1 J=   4      0.5717325E-03     -0.5228272E-02
 T,EIJ(AB): I=   1 J=   5      0.5717325E-03     -0.5228272E-02
 T,EIJ(AB): I=   1 J=   6      0.5717576E-03     -0.5228845E-02
 T,EIJ(AB): I=   1 J=   7      0.5717576E-03     -0.5228845E-02
 T,EIJ(AB): I=   1 J=   8      0.6610030E-03     -0.6080276E-02
 T,EIJ(AB): I=   1 J=   9      0.6610030E-03     -0.6080276E-02
 T,EIJ(AB): I=   1 J=  10      0.1033437E-02     -0.9974267E-02
 T,EIJ(AB): I=   1 J=  11      0.4708999E-03     -0.1642307E-02
 T,EIJ(AB): I=   1 J=  12      0.4914049E-03     -0.1760604E-02
 T,EIJ(AB): I=   2 J=   1      0.6608541E-03     -0.6074592E-02
 T,EIJ(AB): I=   2 J=   2      0.1034273E-02     -0.9969446E-02
 T,EIJ(AB): I=   2 J=   3      0.6024680E-03     -0.5515813E-02
 T,EIJ(AB): I=   2 J=   4      0.6023157E-03     -0.5517563E-02
 T,EIJ(AB): I=   2 J=   5      0.6023157E-03     -0.5517563E-02
 T,EIJ(AB): I=   2 J=   6      0.6023529E-03     -0.5518168E-02
 T,EIJ(AB): I=   2 J=   7      0.6023529E-03     -0.5518168E-02
 T,EIJ(AB): I=   2 J=   8      0.1034586E-02     -0.9978838E-02
 T,EIJ(AB): I=   2 J=   9      0.6029324E-03     -0.5521609E-02
 T,EIJ(AB): I=   2 J=  10      0.6614513E-03     -0.6089071E-02
 T,EIJ(AB): I=   2 J=  11      0.4574501E-03     -0.1616653E-02
 T,EIJ(AB): I=   2 J=  12      0.4967714E-03     -0.1770621E-02
 T,EIJ(AB): I=   3 J=   1      0.6608541E-03     -0.6074592E-02
 T,EIJ(AB): I=   3 J=   2      0.6024680E-03     -0.5515813E-02
 T,EIJ(AB): I=   3 J=   3      0.1034273E-02     -0.9969446E-02
 T,EIJ(AB): I=   3 J=   4      0.6023157E-03     -0.5517563E-02
 T,EIJ(AB): I=   3 J=   5      0.6023157E-03     -0.5517563E-02
 T,EIJ(AB): I=   3 J=   6      0.6023529E-03     -0.5518168E-02
 T,EIJ(AB): I=   3 J=   7      0.6023529E-03     -0.5518168E-02
 T,EIJ(AB): I=   3 J=   8      0.6029324E-03     -0.5521609E-02
 T,EIJ(AB): I=   3 J=   9      0.1034586E-02     -0.9978838E-02
 T,EIJ(AB): I=   3 J=  10      0.6614513E-03     -0.6089071E-02
 T,EIJ(AB): I=   3 J=  11      0.4574501E-03     -0.1616653E-02
 T,EIJ(AB): I=   3 J=  12      0.4967714E-03     -0.1770621E-02
 T,EIJ(AB): I=   4 J=   1      0.5717325E-03     -0.5228272E-02
 T,EIJ(AB): I=   4 J=   2      0.6023157E-03     -0.5517563E-02
 T,EIJ(AB): I=   4 J=   3      0.6023157E-03     -0.5517563E-02
 T,EIJ(AB): I=   4 J=   4      0.1034256E-02     -0.9977341E-02
 T,EIJ(AB): I=   4 J=   5      0.6902057E-03     -0.6366334E-02
 T,EIJ(AB): I=   4 J=   6      0.1034229E-02     -0.9978282E-02
 T,EIJ(AB): I=   4 J=   7      0.6902810E-03     -0.6367100E-02
 T,EIJ(AB): I=   4 J=   8      0.6030400E-03     -0.5523913E-02
 T,EIJ(AB): I=   4 J=   9      0.6030400E-03     -0.5523913E-02
 T,EIJ(AB): I=   4 J=  10      0.5748393E-03     -0.5246986E-02
 T,EIJ(AB): I=   4 J=  11      0.4444622E-03     -0.1585675E-02
 T,EIJ(AB): I=   4 J=  12      0.5052998E-03     -0.1791578E-02
 T,EIJ(AB): I=   5 J=   1      0.5717325E-03     -0.5228272E-02
 T,EIJ(AB): I=   5 J=   2      0.6023157E-03     -0.5517563E-02
 T,EIJ(AB): I=   5 J=   3      0.6023157E-03     -0.5517563E-02
 T,EIJ(AB): I=   5 J=   4      0.6902057E-03     -0.6366334E-02
 T,EIJ(AB): I=   5 J=   5      0.1034256E-02     -0.9977341E-02
 T,EIJ(AB): I=   5 J=   6      0.6902810E-03     -0.6367100E-02
 T,EIJ(AB): I=   5 J=   7      0.1034229E-02     -0.9978282E-02
 T,EIJ(AB): I=   5 J=   8      0.6030400E-03     -0.5523913E-02
 T,EIJ(AB): I=   5 J=   9      0.6030400E-03     -0.5523913E-02
 T,EIJ(AB): I=   5 J=  10      0.5748393E-03     -0.5246986E-02
 T,EIJ(AB): I=   5 J=  11      0.4444622E-03     -0.1585675E-02
 T,EIJ(AB): I=   5 J=  12      0.5052998E-03     -0.1791578E-02
 T,EIJ(AB): I=   6 J=   1      0.5717576E-03     -0.5228845E-02
 T,EIJ(AB): I=   6 J=   2      0.6023529E-03     -0.5518168E-02
 T,EIJ(AB): I=   6 J=   3      0.6023529E-03     -0.5518168E-02
 T,EIJ(AB): I=   6 J=   4      0.1034229E-02     -0.9978282E-02
 T,EIJ(AB): I=   6 J=   5      0.6902810E-03     -0.6367100E-02
 T,EIJ(AB): I=   6 J=   6      0.1034457E-02     -0.9979658E-02
 T,EIJ(AB): I=   6 J=   7      0.6903617E-03     -0.6367872E-02
 T,EIJ(AB): I=   6 J=   8      0.6031116E-03     -0.5524564E-02
 T,EIJ(AB): I=   6 J=   9      0.6031116E-03     -0.5524564E-02
 T,EIJ(AB): I=   6 J=  10      0.5749376E-03     -0.5247658E-02
 T,EIJ(AB): I=   6 J=  11      0.4435199E-03     -0.1584695E-02
 T,EIJ(AB): I=   6 J=  12      0.5050842E-03     -0.1791438E-02
 T,EIJ(AB): I=   7 J=   1      0.5717576E-03     -0.5228845E-02
 T,EIJ(AB): I=   7 J=   2      0.6023529E-03     -0.5518168E-02
 T,EIJ(AB): I=   7 J=   3      0.6023529E-03     -0.5518168E-02
 T,EIJ(AB): I=   7 J=   4      0.6902810E-03     -0.6367100E-02
 T,EIJ(AB): I=   7 J=   5      0.1034229E-02     -0.9978282E-02
 T,EIJ(AB): I=   7 J=   6      0.6903617E-03     -0.6367872E-02
 T,EIJ(AB): I=   7 J=   7      0.1034457E-02     -0.9979658E-02
 T,EIJ(AB): I=   7 J=   8      0.6031116E-03     -0.5524564E-02
 T,EIJ(AB): I=   7 J=   9      0.6031116E-03     -0.5524564E-02
 T,EIJ(AB): I=   7 J=  10      0.5749376E-03     -0.5247658E-02
 T,EIJ(AB): I=   7 J=  11      0.4435199E-03     -0.1584695E-02
 T,EIJ(AB): I=   7 J=  12      0.5050842E-03     -0.1791438E-02
 T,EIJ(AB): I=   8 J=   1      0.6610030E-03     -0.6080276E-02
 T,EIJ(AB): I=   8 J=   2      0.1034586E-02     -0.9978838E-02
 T,EIJ(AB): I=   8 J=   3      0.6029324E-03     -0.5521609E-02
 T,EIJ(AB): I=   8 J=   4      0.6030400E-03     -0.5523913E-02
 T,EIJ(AB): I=   8 J=   5      0.6030400E-03     -0.5523913E-02
 T,EIJ(AB): I=   8 J=   6      0.6031116E-03     -0.5524564E-02
 T,EIJ(AB): I=   8 J=   7      0.6031116E-03     -0.5524564E-02
 T,EIJ(AB): I=   8 J=   8      0.1035881E-02     -0.9989630E-02
 T,EIJ(AB): I=   8 J=   9      0.6036900E-03     -0.5527793E-02
 T,EIJ(AB): I=   8 J=  10      0.6623626E-03     -0.6095820E-02
 T,EIJ(AB): I=   8 J=  11      0.4502132E-03     -0.1608291E-02
 T,EIJ(AB): I=   8 J=  12      0.4975378E-03     -0.1771786E-02
 T,EIJ(AB): I=   9 J=   1      0.6610030E-03     -0.6080276E-02
 T,EIJ(AB): I=   9 J=   2      0.6029324E-03     -0.5521609E-02
 T,EIJ(AB): I=   9 J=   3      0.1034586E-02     -0.9978838E-02
 T,EIJ(AB): I=   9 J=   4      0.6030400E-03     -0.5523913E-02
 T,EIJ(AB): I=   9 J=   5      0.6030400E-03     -0.5523913E-02
 T,EIJ(AB): I=   9 J=   6      0.6031116E-03     -0.5524564E-02
 T,EIJ(AB): I=   9 J=   7      0.6031116E-03     -0.5524564E-02
 T,EIJ(AB): I=   9 J=   8      0.6036900E-03     -0.5527793E-02
 T,EIJ(AB): I=   9 J=   9      0.1035881E-02     -0.9989630E-02
 T,EIJ(AB): I=   9 J=  10      0.6623626E-03     -0.6095820E-02
 T,EIJ(AB): I=   9 J=  11      0.4502132E-03     -0.1608291E-02
 T,EIJ(AB): I=   9 J=  12      0.4975378E-03     -0.1771786E-02
 T,EIJ(AB): I=  10 J=   1      0.1033437E-02     -0.9974267E-02
 T,EIJ(AB): I=  10 J=   2      0.6614513E-03     -0.6089071E-02
 T,EIJ(AB): I=  10 J=   3      0.6614513E-03     -0.6089071E-02
 T,EIJ(AB): I=  10 J=   4      0.5748393E-03     -0.5246986E-02
 T,EIJ(AB): I=  10 J=   5      0.5748393E-03     -0.5246986E-02
 T,EIJ(AB): I=  10 J=   6      0.5749376E-03     -0.5247658E-02
 T,EIJ(AB): I=  10 J=   7      0.5749376E-03     -0.5247658E-02
 T,EIJ(AB): I=  10 J=   8      0.6623626E-03     -0.6095820E-02
 T,EIJ(AB): I=  10 J=   9      0.6623626E-03     -0.6095820E-02
 T,EIJ(AB): I=  10 J=  10      0.1035687E-02     -0.9998623E-02
 T,EIJ(AB): I=  10 J=  11      0.4490215E-03     -0.1613963E-02
 T,EIJ(AB): I=  10 J=  12      0.4961126E-03     -0.1765741E-02
 T,EIJ(AB): I=  11 J=   1      0.4708999E-03     -0.1642307E-02
 T,EIJ(AB): I=  11 J=   2      0.4574501E-03     -0.1616653E-02
 T,EIJ(AB): I=  11 J=   3      0.4574501E-03     -0.1616653E-02
 T,EIJ(AB): I=  11 J=   4      0.4444622E-03     -0.1585675E-02
 T,EIJ(AB): I=  11 J=   5      0.4444622E-03     -0.1585675E-02
 T,EIJ(AB): I=  11 J=   6      0.4435199E-03     -0.1584695E-02
 T,EIJ(AB): I=  11 J=   7      0.4435199E-03     -0.1584695E-02
 T,EIJ(AB): I=  11 J=   8      0.4502132E-03     -0.1608291E-02
 T,EIJ(AB): I=  11 J=   9      0.4502132E-03     -0.1608291E-02
 T,EIJ(AB): I=  11 J=  10      0.4490215E-03     -0.1613963E-02
 T,EIJ(AB): I=  11 J=  11      0.1206643E-01     -0.1279441E-01
 T,EIJ(AB): I=  11 J=  12      0.1121350E-01     -0.1201315E-01
 T,EIJ(AB): I=  12 J=   1      0.4914049E-03     -0.1760604E-02
 T,EIJ(AB): I=  12 J=   2      0.4967714E-03     -0.1770621E-02
 T,EIJ(AB): I=  12 J=   3      0.4967714E-03     -0.1770621E-02
 T,EIJ(AB): I=  12 J=   4      0.5052998E-03     -0.1791578E-02
 T,EIJ(AB): I=  12 J=   5      0.5052998E-03     -0.1791578E-02
 T,EIJ(AB): I=  12 J=   6      0.5050842E-03     -0.1791438E-02
 T,EIJ(AB): I=  12 J=   7      0.5050842E-03     -0.1791438E-02
 T,EIJ(AB): I=  12 J=   8      0.4975378E-03     -0.1771786E-02
 T,EIJ(AB): I=  12 J=   9      0.4975378E-03     -0.1771786E-02
 T,EIJ(AB): I=  12 J=  10      0.4961126E-03     -0.1765741E-02
 T,EIJ(AB): I=  12 J=  11      0.1121350E-01     -0.1201315E-01
 T,EIJ(AB): I=  12 J=  12      0.1439923E-01     -0.1440321E-01
 IMap=   1   2   3   4   5   6   7   8   9  10  11  12
 Actual    scratch disk usage=  2086791280 words.
 JobTyp=3 Pass  1:  I=   1 to  12 NPSUse= 16 ParTrn=T ParDer=T DoDerP=F.
 (rs|ai) integrals will be sorted in core.
 T,EIJ(BB): I=   1 J=   2      0.5974516E-03     -0.5546630E-02
 T,EIJ(BB): I=   1 J=   3      0.5974516E-03     -0.5546630E-02
 T,EIJ(BB): I=   1 J=   4      0.3887050E-03     -0.3328486E-02
 T,EIJ(BB): I=   1 J=   5      0.3887050E-03     -0.3328486E-02
 T,EIJ(BB): I=   1 J=   6      0.3887272E-03     -0.3328875E-02
 T,EIJ(BB): I=   1 J=   7      0.3887272E-03     -0.3328875E-02
 T,EIJ(BB): I=   1 J=   8      0.5977776E-03     -0.5552296E-02
 T,EIJ(BB): I=   1 J=   9      0.5977776E-03     -0.5552296E-02
 T,EIJ(BB): I=   1 J=  10      0.4736243E-06     -0.1722534E-05
 T,EIJ(BB): I=   1 J=  11      0.2574594E-03     -0.1083516E-02
 T,EIJ(BB): I=   1 J=  12      0.2801676E-03     -0.1180999E-02
 T,EIJ(BB): I=   2 J=   3      0.4589292E-03     -0.4071822E-02
 T,EIJ(BB): I=   2 J=   4      0.4588088E-03     -0.4073042E-02
 T,EIJ(BB): I=   2 J=   5      0.4588088E-03     -0.4073042E-02
 T,EIJ(BB): I=   2 J=   6      0.4588793E-03     -0.4073614E-02
 T,EIJ(BB): I=   2 J=   7      0.4588793E-03     -0.4073614E-02
 T,EIJ(BB): I=   2 J=   8      0.2075008E-06     -0.8279591E-06
 T,EIJ(BB): I=   2 J=   9      0.4593703E-03     -0.4076363E-02
 T,EIJ(BB): I=   2 J=  10      0.5987649E-03     -0.5561768E-02
 T,EIJ(BB): I=   2 J=  11      0.2566624E-03     -0.1081135E-02
 T,EIJ(BB): I=   2 J=  12      0.2805951E-03     -0.1185546E-02
 T,EIJ(BB): I=   3 J=   4      0.4588088E-03     -0.4073042E-02
 T,EIJ(BB): I=   3 J=   5      0.4588088E-03     -0.4073042E-02
 T,EIJ(BB): I=   3 J=   6      0.4588793E-03     -0.4073614E-02
 T,EIJ(BB): I=   3 J=   7      0.4588793E-03     -0.4073614E-02
 T,EIJ(BB): I=   3 J=   8      0.4593703E-03     -0.4076363E-02
 T,EIJ(BB): I=   3 J=   9      0.2075008E-06     -0.8279591E-06
 T,EIJ(BB): I=   3 J=  10      0.5987649E-03     -0.5561768E-02
 T,EIJ(BB): I=   3 J=  11      0.2566624E-03     -0.1081135E-02
 T,EIJ(BB): I=   3 J=  12      0.2805951E-03     -0.1185546E-02
 T,EIJ(BB): I=   4 J=   5      0.6675513E-03     -0.6297404E-02
 T,EIJ(BB): I=   4 J=   6      0.7384234E-07     -0.3205304E-06
 T,EIJ(BB): I=   4 J=   7      0.6676172E-03     -0.6298142E-02
 T,EIJ(BB): I=   4 J=   8      0.4594505E-03     -0.4078011E-02
 T,EIJ(BB): I=   4 J=   9      0.4594505E-03     -0.4078011E-02
 T,EIJ(BB): I=   4 J=  10      0.3902626E-03     -0.3339451E-02
 T,EIJ(BB): I=   4 J=  11      0.2515060E-03     -0.1063948E-02
 T,EIJ(BB): I=   4 J=  12      0.2850172E-03     -0.1198855E-02
 T,EIJ(BB): I=   5 J=   6      0.6676172E-03     -0.6298142E-02
 T,EIJ(BB): I=   5 J=   7      0.7384234E-07     -0.3205304E-06
 T,EIJ(BB): I=   5 J=   8      0.4594505E-03     -0.4078011E-02
 T,EIJ(BB): I=   5 J=   9      0.4594505E-03     -0.4078011E-02
 T,EIJ(BB): I=   5 J=  10      0.3902626E-03     -0.3339451E-02
 T,EIJ(BB): I=   5 J=  11      0.2515060E-03     -0.1063948E-02
 T,EIJ(BB): I=   5 J=  12      0.2850172E-03     -0.1198855E-02
 T,EIJ(BB): I=   6 J=   7      0.6676980E-03     -0.6298917E-02
 T,EIJ(BB): I=   6 J=   8      0.4595220E-03     -0.4078527E-02
 T,EIJ(BB): I=   6 J=   9      0.4595220E-03     -0.4078527E-02
 T,EIJ(BB): I=   6 J=  10      0.3903346E-03     -0.3339884E-02
 T,EIJ(BB): I=   6 J=  11      0.2528738E-03     -0.1065865E-02
 T,EIJ(BB): I=   6 J=  12      0.2846032E-03     -0.1198324E-02
 T,EIJ(BB): I=   7 J=   8      0.4595220E-03     -0.4078527E-02
 T,EIJ(BB): I=   7 J=   9      0.4595220E-03     -0.4078527E-02
 T,EIJ(BB): I=   7 J=  10      0.3903346E-03     -0.3339884E-02
 T,EIJ(BB): I=   7 J=  11      0.2528738E-03     -0.1065865E-02
 T,EIJ(BB): I=   7 J=  12      0.2846032E-03     -0.1198324E-02
 T,EIJ(BB): I=   8 J=   9      0.4600270E-03     -0.4081144E-02
 T,EIJ(BB): I=   8 J=  10      0.5996980E-03     -0.5568228E-02
 T,EIJ(BB): I=   8 J=  11      0.2626864E-03     -0.1090978E-02
 T,EIJ(BB): I=   8 J=  12      0.2827396E-03     -0.1189271E-02
 T,EIJ(BB): I=   9 J=  10      0.5996980E-03     -0.5568228E-02
 T,EIJ(BB): I=   9 J=  11      0.2626864E-03     -0.1090978E-02
 T,EIJ(BB): I=   9 J=  12      0.2827396E-03     -0.1189271E-02
 T,EIJ(BB): I=  10 J=  11      0.2675611E-03     -0.1102659E-02
 T,EIJ(BB): I=  10 J=  12      0.2820713E-03     -0.1185886E-02
 T,EIJ(BB): I=  11 J=  12      0.7257347E-03     -0.6682816E-03
 Spin components of T(2) and E(2):
     alpha-alpha T2 =       0.2588566380D-01 E2=     -0.2012155147D+00
     alpha-beta  T2 =       0.1379881509D+00 E2=     -0.7713861147D+00
     beta-beta   T2 =       0.2588566380D-01 E2=     -0.2012155147D+00
 The integrals were generated   2 times.
 ANorm=    0.1090760963D+01
 E2 =    -0.1173817144D+01 EUMP2 =    -0.35568678893568D+04
 Leave Link  906 at Fri Jul 26 11:49:40 2013, MaxMem=17179869184 cpu:    7590.5
 (Enter /share/apps/gaussian/g09root/g09/l904.exe)

 Complete Basis Set (CBS) Extrapolation:
 M. R. Nyden and G. A. Petersson, JCP 75, 1843 (1981)
 G. A. Petersson and M. A. Al-Laham, JCP 94, 6081 (1991)
 G. A. Petersson, T. Tensfeldt, and J. A. Montgomery, JCP 94, 6091 (1991)
 J. A. Montgomery, J. W. Ochterski, and G. A. Petersson, JCP 101, 5900 (1994)
 
 Available Memory in CBS = **********
 Minimum Number of PNO for Extrapolation =  20
 Absolute Overlaps: IRadAn =         5
 LocTrn: ILocal=3 LocCor=F DoCore=F.
 Entering OneElI...
 Overlap between basis sets.
 Requested accuracy = 0.1000D-12
 PrsmSu:  NPrtUS=   1 ThrOK=F IAlg=1
 PRISM was handed 17178620315 working-precision words and    76 shell-pairs
 IPart=  0 NShTot=          76 NBatch=          13 AvBLen=         5.8
 CnvPC2: ToCart=F DoDens=F IPureD=0 IPureF=0.
 Transformed matrix in CnvPC2: 
                 1             2             3             4             5 
      1   0.100000D+01  0.397781D+00  0.000000D+00  0.000000D+00  0.000000D+00
      2   0.397781D+00  0.100000D+01  0.000000D+00  0.000000D+00  0.000000D+00
      3   0.000000D+00  0.000000D+00  0.100000D+01  0.000000D+00  0.000000D+00
      4   0.000000D+00  0.000000D+00  0.000000D+00  0.100000D+01  0.000000D+00
      5   0.000000D+00  0.000000D+00  0.000000D+00  0.000000D+00  0.100000D+01
      6   0.273329D-01  0.326933D+00  0.000000D+00  0.000000D+00  0.000000D+00
      7   0.000000D+00  0.000000D+00  0.339871D+00  0.000000D+00  0.000000D+00
      8   0.000000D+00  0.000000D+00  0.000000D+00  0.339871D+00  0.000000D+00
      9   0.000000D+00  0.000000D+00  0.000000D+00  0.000000D+00  0.339871D+00
     10   0.000000D+00  0.000000D+00  0.000000D+00  0.000000D+00  0.000000D+00
     11   0.000000D+00  0.000000D+00  0.000000D+00  0.000000D+00  0.000000D+00
     12   0.000000D+00  0.000000D+00  0.000000D+00  0.000000D+00  0.000000D+00
     13   0.000000D+00  0.000000D+00  0.000000D+00  0.000000D+00  0.000000D+00
     14   0.000000D+00  0.000000D+00  0.000000D+00  0.000000D+00  0.000000D+00
     15  -0.379176D-03  0.483794D-02  0.000000D+00  0.000000D+00  0.000000D+00
     16   0.000000D+00  0.000000D+00  0.130039D-01  0.000000D+00  0.000000D+00
     17   0.000000D+00  0.000000D+00  0.000000D+00  0.130039D-01  0.000000D+00
     18   0.000000D+00  0.000000D+00  0.000000D+00  0.000000D+00  0.130039D-01
     19   0.000000D+00  0.000000D+00  0.000000D+00  0.000000D+00  0.000000D+00
     20   0.000000D+00  0.000000D+00  0.000000D+00  0.000000D+00  0.000000D+00
     21   0.000000D+00  0.000000D+00  0.000000D+00  0.000000D+00  0.000000D+00
     22   0.000000D+00  0.000000D+00  0.000000D+00  0.000000D+00  0.000000D+00
     23   0.000000D+00  0.000000D+00  0.000000D+00  0.000000D+00  0.000000D+00
     24   0.000000D+00  0.000000D+00  0.000000D+00  0.000000D+00  0.000000D+00
     25   0.000000D+00  0.000000D+00  0.000000D+00  0.000000D+00  0.000000D+00
     26   0.000000D+00  0.000000D+00  0.000000D+00  0.000000D+00  0.000000D+00
     27   0.000000D+00  0.000000D+00  0.000000D+00  0.000000D+00  0.000000D+00
     28   0.000000D+00  0.000000D+00  0.000000D+00  0.000000D+00  0.000000D+00
     29   0.000000D+00  0.000000D+00  0.000000D+00  0.000000D+00  0.000000D+00
     30   0.000000D+00  0.000000D+00  0.000000D+00  0.000000D+00  0.000000D+00
     31   0.000000D+00  0.000000D+00  0.000000D+00  0.000000D+00  0.000000D+00
     32   0.000000D+00  0.000000D+00  0.000000D+00  0.000000D+00  0.000000D+00
     33   0.772375D-05  0.508838D-04  0.000000D+00  0.000000D+00 -0.196435D-04
     34   0.000000D+00  0.000000D+00  0.345069D-05  0.000000D+00  0.000000D+00
     35   0.000000D+00  0.000000D+00  0.000000D+00  0.345069D-05  0.000000D+00
     36   0.207710D-04  0.135529D-03  0.000000D+00  0.000000D+00 -0.489316D-04
                 6             7             8             9            10 
      1   0.273329D-01  0.000000D+00  0.000000D+00  0.000000D+00  0.000000D+00
      2   0.326933D+00  0.000000D+00  0.000000D+00  0.000000D+00  0.000000D+00
      3   0.000000D+00  0.339871D+00  0.000000D+00  0.000000D+00  0.000000D+00
      4   0.000000D+00  0.000000D+00  0.339871D+00  0.000000D+00  0.000000D+00
      5   0.000000D+00  0.000000D+00  0.000000D+00  0.339871D+00  0.000000D+00
      6   0.100000D+01  0.000000D+00  0.000000D+00  0.000000D+00  0.000000D+00
      7   0.000000D+00  0.100000D+01  0.000000D+00  0.000000D+00  0.000000D+00
      8   0.000000D+00  0.000000D+00  0.100000D+01  0.000000D+00  0.000000D+00
      9   0.000000D+00  0.000000D+00  0.000000D+00  0.100000D+01  0.000000D+00
     10   0.000000D+00  0.000000D+00  0.000000D+00  0.000000D+00  0.100000D+01
     11   0.000000D+00  0.000000D+00  0.000000D+00  0.000000D+00  0.000000D+00
     12   0.000000D+00  0.000000D+00  0.000000D+00  0.000000D+00  0.000000D+00
     13   0.000000D+00  0.000000D+00  0.000000D+00  0.000000D+00  0.000000D+00
     14   0.000000D+00  0.000000D+00  0.000000D+00  0.000000D+00  0.000000D+00
     15   0.204897D+00  0.000000D+00  0.000000D+00  0.000000D+00  0.000000D+00
     16   0.000000D+00  0.221280D+00  0.000000D+00  0.000000D+00  0.000000D+00
     17   0.000000D+00  0.000000D+00  0.221280D+00  0.000000D+00  0.000000D+00
     18   0.000000D+00  0.000000D+00  0.000000D+00  0.221280D+00  0.000000D+00
     19   0.000000D+00  0.000000D+00  0.000000D+00  0.000000D+00  0.000000D+00
     20   0.000000D+00  0.000000D+00  0.000000D+00  0.000000D+00  0.000000D+00
     21   0.000000D+00  0.000000D+00  0.000000D+00  0.000000D+00  0.000000D+00
     22   0.000000D+00  0.000000D+00  0.000000D+00  0.000000D+00  0.000000D+00
     23   0.000000D+00  0.000000D+00  0.000000D+00  0.000000D+00  0.000000D+00
     24   0.000000D+00  0.000000D+00  0.000000D+00  0.000000D+00  0.000000D+00
     25   0.000000D+00  0.000000D+00  0.000000D+00  0.000000D+00  0.000000D+00
     26   0.000000D+00  0.000000D+00  0.000000D+00  0.000000D+00  0.000000D+00
     27   0.000000D+00  0.000000D+00  0.000000D+00  0.000000D+00  0.000000D+00
     28   0.000000D+00  0.000000D+00  0.000000D+00  0.000000D+00  0.000000D+00
     29   0.000000D+00  0.000000D+00  0.000000D+00  0.000000D+00  0.000000D+00
     30   0.000000D+00  0.000000D+00  0.000000D+00  0.000000D+00  0.000000D+00
     31   0.000000D+00  0.000000D+00  0.000000D+00  0.000000D+00  0.000000D+00
     32   0.000000D+00  0.000000D+00  0.000000D+00  0.000000D+00  0.000000D+00
     33   0.450449D-03  0.000000D+00  0.000000D+00 -0.460467D-03  0.337663D-03
     34   0.000000D+00  0.809818D-04  0.000000D+00  0.000000D+00  0.000000D+00
     35   0.000000D+00  0.000000D+00  0.809818D-04  0.000000D+00  0.000000D+00
     36   0.110614D-02  0.000000D+00  0.000000D+00 -0.106328D-02  0.717946D-03
                11            12            13            14            15 
      1   0.000000D+00  0.000000D+00  0.000000D+00  0.000000D+00 -0.379176D-03
      2   0.000000D+00  0.000000D+00  0.000000D+00  0.000000D+00  0.483794D-02
      3   0.000000D+00  0.000000D+00  0.000000D+00  0.000000D+00  0.000000D+00
      4   0.000000D+00  0.000000D+00  0.000000D+00  0.000000D+00  0.000000D+00
      5   0.000000D+00  0.000000D+00  0.000000D+00  0.000000D+00  0.000000D+00
      6   0.000000D+00  0.000000D+00  0.000000D+00  0.000000D+00  0.204897D+00
      7   0.000000D+00  0.000000D+00  0.000000D+00  0.000000D+00  0.000000D+00
      8   0.000000D+00  0.000000D+00  0.000000D+00  0.000000D+00  0.000000D+00
      9   0.000000D+00  0.000000D+00  0.000000D+00  0.000000D+00  0.000000D+00
     10   0.000000D+00  0.000000D+00  0.000000D+00  0.000000D+00  0.000000D+00
     11   0.100000D+01  0.000000D+00  0.000000D+00  0.000000D+00  0.000000D+00
     12   0.000000D+00  0.100000D+01  0.000000D+00  0.000000D+00  0.000000D+00
     13   0.000000D+00  0.000000D+00  0.100000D+01  0.000000D+00  0.000000D+00
     14   0.000000D+00  0.000000D+00  0.000000D+00  0.100000D+01  0.000000D+00
     15   0.000000D+00  0.000000D+00  0.000000D+00  0.000000D+00  0.100000D+01
     16   0.000000D+00  0.000000D+00  0.000000D+00  0.000000D+00  0.000000D+00
     17   0.000000D+00  0.000000D+00  0.000000D+00  0.000000D+00  0.000000D+00
     18   0.000000D+00  0.000000D+00  0.000000D+00  0.000000D+00  0.000000D+00
     19   0.000000D+00  0.000000D+00  0.000000D+00  0.000000D+00  0.772375D-05
     20   0.000000D+00  0.000000D+00  0.000000D+00  0.000000D+00  0.508838D-04
     21   0.000000D+00  0.000000D+00  0.000000D+00  0.000000D+00  0.000000D+00
     22   0.000000D+00  0.000000D+00  0.000000D+00  0.000000D+00  0.000000D+00
     23   0.000000D+00  0.000000D+00  0.000000D+00  0.000000D+00  0.196435D-04
     24   0.000000D+00  0.000000D+00  0.000000D+00  0.000000D+00  0.450449D-03
     25   0.000000D+00  0.000000D+00  0.000000D+00  0.000000D+00  0.000000D+00
     26   0.000000D+00  0.000000D+00  0.000000D+00  0.000000D+00  0.000000D+00
     27   0.000000D+00  0.000000D+00  0.000000D+00  0.000000D+00  0.460467D-03
     28   0.000000D+00  0.000000D+00  0.000000D+00  0.000000D+00  0.337663D-03
     29   0.000000D+00  0.000000D+00  0.000000D+00  0.000000D+00  0.000000D+00
     30   0.000000D+00  0.000000D+00  0.000000D+00  0.000000D+00  0.000000D+00
     31   0.000000D+00  0.000000D+00  0.000000D+00  0.000000D+00  0.000000D+00
     32   0.000000D+00  0.000000D+00  0.000000D+00  0.000000D+00  0.000000D+00
     33   0.000000D+00  0.000000D+00  0.000000D+00  0.000000D+00  0.273593D-01
     34  -0.103051D-03  0.000000D+00  0.000000D+00  0.000000D+00  0.000000D+00
     35   0.000000D+00 -0.103051D-03  0.000000D+00  0.000000D+00  0.000000D+00
     36   0.000000D+00  0.000000D+00  0.000000D+00  0.000000D+00  0.438180D-01
                16            17            18            19            20 
      1   0.000000D+00  0.000000D+00  0.000000D+00  0.000000D+00  0.000000D+00
      2   0.000000D+00  0.000000D+00  0.000000D+00  0.000000D+00  0.000000D+00
      3   0.130039D-01  0.000000D+00  0.000000D+00  0.000000D+00  0.000000D+00
      4   0.000000D+00  0.130039D-01  0.000000D+00  0.000000D+00  0.000000D+00
      5   0.000000D+00  0.000000D+00  0.130039D-01  0.000000D+00  0.000000D+00
      6   0.000000D+00  0.000000D+00  0.000000D+00  0.000000D+00  0.000000D+00
      7   0.221280D+00  0.000000D+00  0.000000D+00  0.000000D+00  0.000000D+00
      8   0.000000D+00  0.221280D+00  0.000000D+00  0.000000D+00  0.000000D+00
      9   0.000000D+00  0.000000D+00  0.221280D+00  0.000000D+00  0.000000D+00
     10   0.000000D+00  0.000000D+00  0.000000D+00  0.000000D+00  0.000000D+00
     11   0.000000D+00  0.000000D+00  0.000000D+00  0.000000D+00  0.000000D+00
     12   0.000000D+00  0.000000D+00  0.000000D+00  0.000000D+00  0.000000D+00
     13   0.000000D+00  0.000000D+00  0.000000D+00  0.000000D+00  0.000000D+00
     14   0.000000D+00  0.000000D+00  0.000000D+00  0.000000D+00  0.000000D+00
     15   0.000000D+00  0.000000D+00  0.000000D+00  0.772375D-05  0.508838D-04
     16   0.100000D+01  0.000000D+00  0.000000D+00  0.000000D+00  0.000000D+00
     17   0.000000D+00  0.100000D+01  0.000000D+00  0.000000D+00  0.000000D+00
     18   0.000000D+00  0.000000D+00  0.100000D+01 -0.207710D-04 -0.135529D-03
     19   0.000000D+00  0.000000D+00 -0.207710D-04  0.100000D+01  0.397781D+00
     20   0.000000D+00  0.000000D+00 -0.135529D-03  0.397781D+00  0.100000D+01
     21   0.345069D-05  0.000000D+00  0.000000D+00  0.000000D+00  0.000000D+00
     22   0.000000D+00  0.345069D-05  0.000000D+00  0.000000D+00  0.000000D+00
     23   0.000000D+00  0.000000D+00 -0.489316D-04  0.000000D+00  0.000000D+00
     24   0.000000D+00  0.000000D+00 -0.110614D-02  0.273329D-01  0.326933D+00
     25   0.809818D-04  0.000000D+00  0.000000D+00  0.000000D+00  0.000000D+00
     26   0.000000D+00  0.809818D-04  0.000000D+00  0.000000D+00  0.000000D+00
     27   0.000000D+00  0.000000D+00 -0.106328D-02  0.000000D+00  0.000000D+00
     28   0.000000D+00  0.000000D+00 -0.717946D-03  0.000000D+00  0.000000D+00
     29   0.103051D-03  0.000000D+00  0.000000D+00  0.000000D+00  0.000000D+00
     30   0.000000D+00  0.103051D-03  0.000000D+00  0.000000D+00  0.000000D+00
     31   0.000000D+00  0.000000D+00  0.000000D+00  0.000000D+00  0.000000D+00
     32   0.000000D+00  0.000000D+00  0.000000D+00  0.000000D+00  0.000000D+00
     33   0.000000D+00  0.000000D+00 -0.438180D-01 -0.379176D-03  0.483794D-02
     34   0.905439D-02  0.000000D+00  0.000000D+00  0.000000D+00  0.000000D+00
     35   0.000000D+00  0.905439D-02  0.000000D+00  0.000000D+00  0.000000D+00
     36   0.000000D+00  0.000000D+00 -0.679418D-01  0.000000D+00  0.000000D+00
                21            22            23            24            25 
      1   0.000000D+00  0.000000D+00  0.000000D+00  0.000000D+00  0.000000D+00
      2   0.000000D+00  0.000000D+00  0.000000D+00  0.000000D+00  0.000000D+00
[...]
   24    | -0.000030 -0.008789 -0.000001 -0.000001 -0.010919 -0.000001
         |
   25    | -0.024447 -0.000027 -0.002358 -0.002362 -0.000032 -0.002270
   25    |  0.000000 -0.000027 -0.002358 -0.002362 -0.000032 -0.002270
         |
   26    | -0.000029 -0.020247 -0.000001 -0.000001 -0.009744 -0.000001
   26    | -0.000029  0.000000 -0.000001 -0.000001 -0.009745 -0.000001
         |
   27    | -0.003552 -0.000001 -0.020242 -0.008429 -0.000001 -0.010682
   27    | -0.003552 -0.000001  0.000000 -0.008429 -0.000001 -0.010682
         |
   28    | -0.003560 -0.000001 -0.011292 -0.020248 -0.000001 -0.010967
   28    | -0.003560 -0.000001 -0.011292  0.000000 -0.000001 -0.010967
         |

 AB - AA |     25        26        27        28        29        30
 BA - BB |     25        26        27        28        29        30
----------------------------------------------------------------------
   29    | -0.000036 -0.011720 -0.000001 -0.000001 -0.019790 -0.000001
   29    | -0.000036 -0.011720 -0.000001 -0.000001  0.000000 -0.000001
         |
   30    | -0.003828 -0.000001 -0.012045 -0.012145 -0.000001 -0.019790
   30    | -0.003828 -0.000001 -0.012045 -0.012145 -0.000001  0.000000
         |

                     Sum of ab pair energies =    -0.516011 A.U.
                     Sum of ba pair energies =    -0.265565 A.U.
                     Sum of aa pair energies =    -0.201649 A.U.
                     Sum of bb pair energies =    -0.201649 A.U.

           Sum of intraorbital pair energies =    -0.250446 A.U.
           Sum of interorbital pair energies =    -0.934428 A.U.
                                                  ----------
                         Total pair energies =    -1.184874 A.U.

                         Single Excitations  =     0.000000 A.U.

                          Total second order =    -1.184874 A.U.

                         E2(CBS) - E2(Dir) =      -0.016816 A.U.

 E2(CBS)=      -1.190633 CBS-Int=       0.005759 OIii=       6.588507
 Leave Link  904 at Fri Jul 26 11:53:07 2013, MaxMem=17179869184 cpu:    3308.5
 (Enter /share/apps/gaussian/g09root/g09/l601.exe)
 Copying SCF densities to generalized density rwf, IOpCl= 0 IROHF=1.

 **********************************************************************

            Population analysis using the SCF density.

 **********************************************************************

 Orbital symmetries:
       Occupied  (?A) (?A) (SGU) (SGG) (PIG) (PIG) (PIU) (PIU)
                 (SGU) (SGG) (SGG) (SGU) (PIG) (PIG) (PIU) (PIU)
                 (SGU) (SGG) (SGG) (PIU) (PIU) (DLTG) (DLTG) (DLTU)
                 (DLTU) (PIG) (PIG) (SGU) (SGG) (SGU)
       Virtual   (SGG) (PIU) (PIU) (SGU) (SGG) (PIG) (PIG) (SGU)
                 (SGG) (PIU) (PIU) (DLTG) (DLTG) (PIU) (PIU) (PIG)
                 (PIG) (DLTU) (DLTU) (SGU) (SGU) (SGG) (PIG) (PIG)
                 (SGG) (DLTG) (DLTG) (PIU) (PIU) (SGG) (SGU) (PHIU)
                 (PHIU) (PIU) (PIU) (PHIG) (PHIG) (PIG) (PIG) (SGU)
                 (DLTU) (DLTU) (SGG) (DLTG) (DLTG) (DLTU) (DLTU)
                 (PIU) (PIU) (PIG) (PIG) (SGU) (PIG) (PIG) (SGG)
                 (SGU) (SGG) (PIU) (PIU) (DLTG) (DLTG) (PHIU) (PHIU)
                 (?B) (?B) (?C) (?C) (PHIG) (PHIG) (PIU) (PIU)
                 (DLTU) (DLTU) (PIG) (PIG) (SGU) (SGG) (PIG) (PIG)
                 (DLTG) (DLTG) (SGU) (PHIU) (PHIU) (PHIG) (PHIG)
                 (PIU) (PIU) (DLTU) (DLTU) (SGU) (SGG) (PIG) (PIG)
                 (DLTG) (DLTG) (PIU) (PIU) (DLTU) (DLTU) (SGG)
                 (PIG) (PIG) (SGG) (SGU) (SGU) (SGG) (PIU) (PIU)
                 (DLTG) (DLTG) (PHIU) (PHIU) (?B) (?B) (?D) (?D)
                 (?E) (?E) (?C) (?C) (PHIG) (PHIG) (DLTU) (DLTU)
                 (PIG) (PIG) (SGU) (PIU) (PIU) (SGG) (PIG) (PIG)
                 (SGU) (PIU) (PIU) (DLTG) (DLTG) (SGG) (PHIU) (PHIU)
                 (?B) (?B) (?C) (?C) (PHIG) (PHIG) (DLTU) (DLTU)
                 (DLTG) (DLTG) (PHIU) (PHIU) (PHIG) (PHIG) (PIG)
                 (PIG) (PIU) (PIU) (SGU) (DLTU) (DLTU) (SGG) (PIG)
                 (PIG) (SGU) (DLTG) (DLTG) (PIU) (PIU) (DLTU) (DLTU)
                 (SGG) (PIG) (PIG) (SGU) (SGG) (SGU) (?F) (?F)
                 (?G) (?G) (?D) (?D) (?E) (?E) (?B) (?B) (?C) (?C)
                 (PHIU) (PHIU) (PHIG) (PHIG) (DLTG) (DLTG) (DLTU)
                 (DLTU) (PIU) (PIU) (SGG) (PIG) (PIG) (SGU) (SGG)
                 (PIU) (PIU) (DLTG) (DLTG) (PHIU) (PHIU) (?D) (?D)
                 (?E) (?E) (?B) (?B) (?C) (?C) (PHIG) (PHIG) (DLTU)
                 (DLTU) (PIG) (PIG) (SGU) (DLTG) (DLTG) (PHIU)
                 (PHIU) (PHIG) (PHIG) (PIU) (PIU) (DLTU) (DLTU)
                 (PIG) (PIG) (SGU) (SGG) (PIU) (PIU) (DLTG) (DLTG)
                 (PHIU) (PHIU) (?B) (?B) (?C) (?C) (PHIG) (PHIG)
                 (SGG) (DLTU) (DLTU) (PIG) (PIG) (SGU) (PIU) (PIU)
                 (SGG) (PIG) (PIG) (SGU) (DLTG) (DLTG) (PIU) (PIU)
                 (DLTU) (DLTU) (SGG) (PIG) (PIG) (SGU) (?A) (?A)
                 (?A) (?A) (?D) (?D) (?E) (?E) (?B) (?B) (?C) (?C)
                 (PHIU) (PHIU) (PHIG) (PHIG) (DLTG) (DLTG) (DLTU)
                 (DLTU) (PIU) (PIU) (PIG) (PIG) (SGG) (SGU) (DLTG)
                 (DLTG) (PHIU) (PHIU) (PHIG) (PHIG) (PIU) (PIU)
                 (DLTU) (DLTU) (SGU) (PIG) (PIG) (SGG) (PIU) (PIU)
                 (SGG) (DLTG) (DLTG) (PHIU) (PHIU) (?D) (?D) (?E)
                 (?E) (?B) (?B) (?C) (?C) (PHIG) (PHIG) (DLTU)
                 (DLTU) (PIG) (PIG) (SGU) (PIU) (PIU) (DLTG) (DLTG)
                 (PHIU) (PHIU) (?B) (?B) (?C) (?C) (SGG) (PHIG)
                 (PHIG) (DLTU) (DLTU) (PIG) (PIG) (SGU) (SGG) (SGU)
                 (PIU) (PIU) (SGG) (PIG) (PIG) (SGU) (DLTG) (DLTG)
                 (PIU) (PIU) (DLTU) (DLTU) (SGG) (PIG) (PIG) (SGU)
                 (SGG) (SGU) (?H) (?H) (?H) (?H) (?A) (?A) (?A)
                 (?A) (?H) (?H) (?H) (?H) (?H) (?H) (?H) (?H) (?H)
                 (?H) (?H) (?H) (?H) (?H) (?H) (?H) (PIU) (PIU)
                 (PIG) (PIG) (DLTG) (DLTG) (PHIU) (PHIU) (PHIG)
                 (PHIG) (PIU) (PIU) (DLTU) (DLTU) (PIG) (PIG) (SGU)
                 (SGG) (PIU) (PIU) (DLTG) (DLTG) (PHIU) (PHIU)
                 (?B) (?B) (?C) (?C) (SGG) (PHIG) (PHIG) (DLTU)
                 (DLTU) (PIG) (PIG) (SGU) (SGG) (SGU) (?A) (?A)
                 (?A) (?A) (?H) (?H) (?H) (?H) (?B) (?B) (?C) (?C)
                 (PIU) (PIU) (PHIU) (PHIU) (PHIG) (PHIG) (PIG)
                 (PIG) (DLTG) (DLTG) (DLTU) (DLTU) (SGG) (PIU)
                 (PIU) (DLTG) (DLTG) (PHIU) (PHIU) (?D) (?D) (?E)
                 (?E) (?B) (?B) (?C) (?C) (PHIG) (PHIG) (DLTU)
                 (DLTU) (PIG) (PIG) (SGU) (SGG) (SGU)
 Unable to determine electronic state:  an orbital has unidentified symmetry.
 Alpha  occ. eigenvalues -- -353.30453-353.30453 -44.36178 -44.36178 -38.92490
 Alpha  occ. eigenvalues --  -38.92490 -38.92490 -38.92490 -38.92489 -38.92489
 Alpha  occ. eigenvalues --   -5.63785  -5.63785  -3.83940  -3.83940  -3.83940
 Alpha  occ. eigenvalues --   -3.83940  -3.83940  -3.83939  -0.78311  -0.78271
 Alpha  occ. eigenvalues --   -0.78271  -0.78259  -0.78259  -0.78256  -0.78256
 Alpha  occ. eigenvalues --   -0.78234  -0.78234  -0.78205  -0.31625  -0.27092
 Alpha virt. eigenvalues --    0.03630   0.04056   0.04056   0.04732   0.05848
 Alpha virt. eigenvalues --    0.07529   0.07529   0.13430   0.20019   0.21046
 Alpha virt. eigenvalues --    0.21046   0.21104   0.21104   0.22950   0.22950
 Alpha virt. eigenvalues --    0.24099   0.24099   0.25089   0.25089   0.27646
 Alpha virt. eigenvalues --    0.29664   0.32067   0.32222   0.32222   0.45169
 Alpha virt. eigenvalues --    0.56576   0.56576   0.56845   0.56845   0.58258
 Alpha virt. eigenvalues --    0.59675   0.59916   0.59916   0.61364   0.61364
 Alpha virt. eigenvalues --    0.62087   0.62087   0.63287   0.63287   0.65998
 Alpha virt. eigenvalues --    0.67520   0.67520   0.67880   0.72109   0.72109
 Alpha virt. eigenvalues --    0.74419   0.74419   0.74784   0.74784   0.76868
 Alpha virt. eigenvalues --    0.76868   0.82189   0.83030   0.83030   0.85005
 Alpha virt. eigenvalues --    1.04590   1.36777   1.39328   1.39328   1.42200
 Alpha virt. eigenvalues --    1.42200   1.45789   1.45789   1.46912   1.46912
 Alpha virt. eigenvalues --    1.47103   1.47103   1.48201   1.48201   1.50401
 Alpha virt. eigenvalues --    1.50401   1.52751   1.52751   1.53225   1.53225
 Alpha virt. eigenvalues --    1.54727   1.57166   1.59935   1.59935   1.70171
 Alpha virt. eigenvalues --    1.70171   1.70361   1.70939   1.70939   1.72257
 Alpha virt. eigenvalues --    1.72257   1.74683   1.74683   1.76852   1.76852
 Alpha virt. eigenvalues --    1.81237   1.84927   1.91301   1.91301   1.99611
 Alpha virt. eigenvalues --    1.99611   2.00381   2.00381   2.01337   2.01337
 Alpha virt. eigenvalues --    2.02252   2.06733   2.06733   2.16263   2.24993
 Alpha virt. eigenvalues --    2.56763   3.27743   3.27932   3.27932   3.28725
 Alpha virt. eigenvalues --    3.28725   3.29108   3.29108   3.29204   3.29204
 Alpha virt. eigenvalues --    3.29214   3.29214   3.29215   3.29215   3.29223
 Alpha virt. eigenvalues --    3.29223   3.29316   3.29316   3.29926   3.29926
 Alpha virt. eigenvalues --    3.32018   3.32018   3.34279   3.87602   3.87602
 Alpha virt. eigenvalues --    3.88639   3.91634   3.91634   4.01135   4.03960
 Alpha virt. eigenvalues --    4.03960   4.04266   4.04266   4.06044   4.06520
 Alpha virt. eigenvalues --    4.06520   4.07200   4.07200   4.07300   4.07300
 Alpha virt. eigenvalues --    4.07751   4.07751   4.08409   4.08409   4.08730
 Alpha virt. eigenvalues --    4.08730   4.08881   4.08881   4.09789   4.09789
 Alpha virt. eigenvalues --    4.10116   4.10116   4.11631   4.11631   4.14104
 Alpha virt. eigenvalues --    4.14817   4.14817   4.25217   4.28625   4.28625
 Alpha virt. eigenvalues --    4.36852   5.32364   5.32364   5.32651   5.32651
 Alpha virt. eigenvalues --    5.33701   5.33701   5.34880   5.37563   5.37563
 Alpha virt. eigenvalues --    5.57761   7.25896   7.57551   7.67761   7.67761
 Alpha virt. eigenvalues --    7.67761   7.67761   7.67765   7.67765   7.67765
 Alpha virt. eigenvalues --    7.67765   7.67767   7.67767   7.67767   7.67767
 Alpha virt. eigenvalues --    7.67769   7.67769   7.67769   7.67769   7.67771
 Alpha virt. eigenvalues --    7.67771   7.67773   7.67773   7.67778   7.67778
 Alpha virt. eigenvalues --    7.67788   7.67796   7.67796   7.67902   9.22931
 Alpha virt. eigenvalues --    9.23003   9.23003   9.23244   9.23244   9.23389
 Alpha virt. eigenvalues --    9.23389   9.23416   9.23416   9.23416   9.23416
 Alpha virt. eigenvalues --    9.23417   9.23417   9.23423   9.23423   9.23454
 Alpha virt. eigenvalues --    9.23454   9.23620   9.23620   9.24238   9.24238
 Alpha virt. eigenvalues --    9.25355   9.33939   9.33939   9.34428   9.34428
 Alpha virt. eigenvalues --    9.35002   9.35002   9.36226   9.36226   9.36681
 Alpha virt. eigenvalues --    9.36681   9.40603   9.40603   9.41117   9.42543
 Alpha virt. eigenvalues --    9.99395   9.99395  10.00106  10.00106  10.01078
 Alpha virt. eigenvalues --   10.01078  10.01368  10.01368  10.01417  10.01417
 Alpha virt. eigenvalues --   10.01740  10.01740  10.02255  10.03534  10.03534
 Alpha virt. eigenvalues --   10.09308  10.09308  10.13688  10.79836  10.79836
 Alpha virt. eigenvalues --   10.82616  10.83510  10.83510  10.97921  14.19205
 Alpha virt. eigenvalues --   14.19205  14.19410  14.19410  14.20217  14.20217
 Alpha virt. eigenvalues --   14.20972  14.22932  14.22932  14.35641  22.17028
 Alpha virt. eigenvalues --   22.17028  22.17028  22.17028  22.17030  22.17030
 Alpha virt. eigenvalues --   22.17030  22.17030  22.17032  22.17032  22.17032
 Alpha virt. eigenvalues --   22.17032  22.17034  22.17034  22.17034  22.17034
 Alpha virt. eigenvalues --   22.17035  22.17035  22.17035  22.17035  22.17035
 Alpha virt. eigenvalues --   22.17037  22.17037  22.17039  22.17039  22.17046
 Alpha virt. eigenvalues --   22.33528  22.33528  22.33932  22.33932  22.34341
 Alpha virt. eigenvalues --   22.34341  22.35104  22.35104  22.35546  22.35546
 Alpha virt. eigenvalues --   22.38202  22.38507  22.38507  22.39707  23.74541
 Alpha virt. eigenvalues --   23.74541  23.74549  23.74638  23.74638  23.74678
 Alpha virt. eigenvalues --   23.74678  23.74684  23.74684  23.74684  23.74684
 Alpha virt. eigenvalues --   23.74685  23.74685  23.74687  23.74687  23.74700
 Alpha virt. eigenvalues --   23.74700  23.74778  23.74778  23.75058  23.75058
 Alpha virt. eigenvalues --   23.75415  23.93559  23.93559  23.94015  23.94015
 Alpha virt. eigenvalues --   23.94569  23.94569  23.94726  23.94726  23.94752
 Alpha virt. eigenvalues --   23.94752  23.94884  23.94926  23.94926  23.95901
 Alpha virt. eigenvalues --   23.95901  23.99046  23.99046  24.01729  25.26428
 Alpha virt. eigenvalues --   25.57340  32.94576  32.94576  32.97129  32.98342
 Alpha virt. eigenvalues --   32.98342  33.11492  41.44449  41.44449  41.44592
 Alpha virt. eigenvalues --   41.44592  41.45148  41.45148  41.45918  41.47121
 Alpha virt. eigenvalues --   41.47121  41.55973  46.63443  46.63443  47.01608
 Alpha virt. eigenvalues --   47.01608  47.01608  47.01608  47.01609  47.01609
 Alpha virt. eigenvalues --   47.01609  47.01609  47.01610  47.01610  47.01610
 Alpha virt. eigenvalues --   47.01610  47.01610  47.01610  47.01610  47.01610
 Alpha virt. eigenvalues --   47.01611  47.01611  47.01611  47.01611  47.01612
 Alpha virt. eigenvalues --   47.01612  47.01612  47.01612  47.01780  47.01780
 Alpha virt. eigenvalues --   47.01780  47.01780  57.01346  57.01346  57.01631
 Alpha virt. eigenvalues --   57.01631  57.01905  57.01905  57.02378  57.02378
 Alpha virt. eigenvalues --   57.02727  57.02727  57.04797  57.04797  57.04852
 Alpha virt. eigenvalues --   57.05583  59.48079  59.48079  59.48368  59.48368
 Alpha virt. eigenvalues --   59.48685  59.48685  59.48772  59.48772  59.48786
 Alpha virt. eigenvalues --   59.48786  59.48833  59.48883  59.48883  59.49424
 Alpha virt. eigenvalues --   59.49424  59.51132  59.51132  59.52760  60.94783
 Alpha virt. eigenvalues --   60.94787  60.94961  60.94961  60.94961  60.94961
 Alpha virt. eigenvalues --   60.94962  60.94962  60.94962  60.94962  60.94964
 Alpha virt. eigenvalues --   60.94964  60.94964  60.94964  60.94965  60.94965
 Alpha virt. eigenvalues --   60.94965  60.94965  60.94966  60.94966  60.94966
 Alpha virt. eigenvalues --   60.94966  60.94971  60.94971  60.94972  60.94972
 Alpha virt. eigenvalues --   61.32195  61.32195  61.32208  61.32226  61.32226
 Alpha virt. eigenvalues --   61.32240  61.32240  61.32240  61.32240  61.32241
 Alpha virt. eigenvalues --   61.32241  61.32242  61.32242  61.32243  61.32243
 Alpha virt. eigenvalues --   61.32248  61.32248  61.32284  61.32284  61.32440
 Alpha virt. eigenvalues --   61.32440  61.32706 500.97714 503.05879
          Condensed to atoms (all electrons):
              1          2
     1  Zn  30.014148  -0.014148
     2  Zn  -0.014148  30.014148
 Mulliken atomic charges:
              1
     1  Zn   0.000000
     2  Zn   0.000000
 Sum of Mulliken atomic charges =   0.00000
 Mulliken charges with hydrogens summed into heavy atoms:
              1
     1  Zn   0.000000
     2  Zn   0.000000
 Sum of Mulliken charges with hydrogens summed into heavy atoms =   0.00000
          Atomic-Atomic Spin Densities.
              1          2
     1  Zn   0.000000   0.000000
     2  Zn   0.000000   0.000000
 Mulliken atomic spin densities:
              1
     1  Zn   0.000000
     2  Zn   0.000000
 Sum of Mulliken atomic spin densities =   0.00000
 Electronic spatial extent (au):  <R**2>=            863.2472
 Charge=              0.0000 electrons
 Dipole moment (field-independent basis, Debye):
    X=              0.0000    Y=              0.0000    Z=              0.0000  Tot=              0.0000
 Quadrupole moment (field-independent basis, Debye-Ang):
   XX=            -31.1993   YY=            -31.1993   ZZ=            -32.4296
   XY=              0.0000   XZ=              0.0000   YZ=              0.0000
 Traceless Quadrupole moment (field-independent basis, Debye-Ang):
   XX=              0.4101   YY=              0.4101   ZZ=             -0.8202
   XY=              0.0000   XZ=              0.0000   YZ=              0.0000
 Octapole moment (field-independent basis, Debye-Ang**2):
  XXX=              0.0000  YYY=              0.0000  ZZZ=              0.0000  XYY=              0.0000
  XXY=              0.0000  XXZ=              0.0000  XZZ=              0.0000  YZZ=              0.0000
  YYZ=              0.0000  XYZ=              0.0000
 Hexadecapole moment (field-independent basis, Debye-Ang**3):
 XXXX=            -56.4570 YYYY=            -56.4570 ZZZZ=           -769.7582 XXXY=              0.0000
 XXXZ=              0.0000 YYYX=              0.0000 YYYZ=              0.0000 ZZZX=              0.0000
 ZZZY=              0.0000 XXYY=            -18.8190 XXZZ=           -136.5768 YYZZ=           -136.5768
 XXYZ=              0.0000 YYXZ=              0.0000 ZZXY=              0.0000
 N-N= 1.238002307593D+02 E-N=-1.315721979913D+04  KE= 5.333557375670D+03
                          Isotropic Fermi Contact Couplings
        Atom                 a.u.       MegaHertz       Gauss      10(-4) cm-1
     1  Zn(67)             0.00000       0.00000       0.00000       0.00000
     2  Zn(67)             0.00000       0.00000       0.00000       0.00000
 --------------------------------------------------------
       Center         ----  Spin Dipole Couplings  ----
                      3XX-RR        3YY-RR        3ZZ-RR
 --------------------------------------------------------
     1   Atom        0.000000      0.000000      0.000000
     2   Atom        0.000000      0.000000      0.000000
 --------------------------------------------------------
                        XY            XZ            YZ
 --------------------------------------------------------
     1   Atom        0.000000      0.000000      0.000000
     2   Atom        0.000000      0.000000      0.000000
 --------------------------------------------------------


 ---------------------------------------------------------------------------------
              Anisotropic Spin Dipole Couplings in Principal Axis System
 ---------------------------------------------------------------------------------

       Atom             a.u.   MegaHertz   Gauss  10(-4) cm-1        Axes

              Baa     0.0000     0.000     0.000     0.000  1.0000  0.0000  0.0000
     1 Zn(67) Bbb     0.0000     0.000     0.000     0.000  0.0000  1.0000  0.0000
              Bcc     0.0000     0.000     0.000     0.000  0.0000  0.0000  1.0000
 
              Baa     0.0000     0.000     0.000     0.000  1.0000  0.0000  0.0000
     2 Zn(67) Bbb     0.0000     0.000     0.000     0.000  0.0000  1.0000  0.0000
              Bcc     0.0000     0.000     0.000     0.000  0.0000  0.0000  1.0000
 

 ---------------------------------------------------------------------------------

 No NMR shielding tensors so no spin-rotation constants.
 Leave Link  601 at Fri Jul 26 11:53:09 2013, MaxMem=17179869184 cpu:      32.1
 (Enter /share/apps/gaussian/g09root/g09/l9999.exe)

 Test job not archived.
 1\1\GINC-N35\SP\ROMP2-RW\Gen\Zn2\GPETERSSON\26-Jul-2013\0\\#P ROMP2(RW
 ) Gen GFinput Int=NoBasisTransform Int(Grid=Ultrafine) IOp(3/32=2,5/6=
 10,8/11=1,9/33=1) Maxdisk=128GB CBSextrapolate(Nmin=20,MinPop) Guess=R
 ead\\Zn...Zn 1Sg+\\0,1\Zn\Zn,1,3.847\\Version=EM64L-G09RevA.02\HF=-355
 5.6940722\MP2=-3556.8678894\E2(CBS)=-1.1906328\CBS-Int=-1.1848742\OIii
 =6.5885065\RMSD=2.654e-11\PG=D*H [C*(Zn1.Zn1)]\\@


 The arm of the moral universe is long, but it bends toward justice.
 -- Martin Luther King, Jr.
 Job cpu time:  0 days 13 hours 10 minutes 38.2 seconds.
 File lengths (MBytes):  RWF=  16743 Int=      0 D2E=      0 Chk=     22 Scr=      1
 Normal termination of Gaussian 09 at Fri Jul 26 11:53:11 2013.
