 Entering Gaussian System, Link 0=g09
 AtFile(1): 5ZaPa-NR.gbs
 Initial command:
 /share/apps/gaussian/g09root/g09/l1.exe /localscratch/Gau-18544.inp -scrdir=/localscratch/
 Entering Link 1 = /share/apps/gaussian/g09root/g09/l1.exe PID=     18545.
  
 Copyright (c) 1988,1990,1992,1993,1995,1998,2003,2009, Gaussian, Inc.
                  All Rights Reserved.
  
 This is part of the Gaussian(R) 09 program.  It is based on
 the Gaussian(R) 03 system (copyright 2003, Gaussian, Inc.),
 the Gaussian(R) 98 system (copyright 1998, Gaussian, Inc.),
 the Gaussian(R) 94 system (copyright 1995, Gaussian, Inc.),
 the Gaussian 92(TM) system (copyright 1992, Gaussian, Inc.),
 the Gaussian 90(TM) system (copyright 1990, Gaussian, Inc.),
 the Gaussian 88(TM) system (copyright 1988, Gaussian, Inc.),
 the Gaussian 86(TM) system (copyright 1986, Carnegie Mellon
 University), and the Gaussian 82(TM) system (copyright 1983,
 Carnegie Mellon University). Gaussian is a federally registered
 trademark of Gaussian, Inc.
  
 This software contains proprietary and confidential information,
 including trade secrets, belonging to Gaussian, Inc.
  
 This software is provided under written license and may be
 used, copied, transmitted, or stored only in accord with that
 written license.
  
 The following legend is applicable only to US Government
 contracts under FAR:
  
                    RESTRICTED RIGHTS LEGEND
  
 Use, reproduction and disclosure by the US Government is
 subject to restrictions as set forth in subparagraphs (a)
 and (c) of the Commercial Computer Software - Restricted
 Rights clause in FAR 52.227-19.
  
 Gaussian, Inc.
 340 Quinnipiac St., Bldg. 40, Wallingford CT 06492
  
  
 ---------------------------------------------------------------
 Warning -- This program may not be used in any manner that
 competes with the business of Gaussian, Inc. or will provide
 assistance to any competitor of Gaussian, Inc.  The licensee
 of this program is prohibited from giving any competitor of
 Gaussian, Inc. access to this program.  By using this program,
 the user acknowledges that Gaussian, Inc. is engaged in the
 business of creating and licensing software in the field of
 computational chemistry and represents and warrants to the
 licensee that it is not a competitor of Gaussian, Inc. and that
 it will not use this program in any manner prohibited above.
 ---------------------------------------------------------------
  

 Cite this work as:
 Gaussian 09, Revision A.02,
 M. J. Frisch, G. W. Trucks, H. B. Schlegel, G. E. Scuseria, 
 M. A. Robb, J. R. Cheeseman, G. Scalmani, V. Barone, B. Mennucci, 
 G. A. Petersson, H. Nakatsuji, M. Caricato, X. Li, H. P. Hratchian, 
 A. F. Izmaylov, J. Bloino, G. Zheng, J. L. Sonnenberg, M. Hada, 
 M. Ehara, K. Toyota, R. Fukuda, J. Hasegawa, M. Ishida, T. Nakajima, 
 Y. Honda, O. Kitao, H. Nakai, T. Vreven, J. A. Montgomery, Jr., 
 J. E. Peralta, F. Ogliaro, M. Bearpark, J. J. Heyd, E. Brothers, 
 K. N. Kudin, V. N. Staroverov, R. Kobayashi, J. Normand, 
 K. Raghavachari, A. Rendell, J. C. Burant, S. S. Iyengar, J. Tomasi, 
 M. Cossi, N. Rega, J. M. Millam, M. Klene, J. E. Knox, J. B. Cross, 
 V. Bakken, C. Adamo, J. Jaramillo, R. Gomperts, R. E. Stratmann, 
 O. Yazyev, A. J. Austin, R. Cammi, C. Pomelli, J. W. Ochterski, 
 R. L. Martin, K. Morokuma, V. G. Zakrzewski, G. A. Voth, 
 P. Salvador, J. J. Dannenberg, S. Dapprich, A. D. Daniels, 
 O. Farkas, J. B. Foresman, J. V. Ortiz, J. Cioslowski, 
 and D. J. Fox, Gaussian, Inc., Wallingford CT, 2009.
 
 ******************************************
 Gaussian 09:  EM64L-G09RevA.02 11-Jun-2009
                25-Jul-2013 
 ******************************************
 % Mem=64GB
 % Nproc=16
 Will use up to   16 processors via shared memory.
 % Chk=Zn...Zn.chk
 ----------------------------------------------------------------------
 #P ROMP2(RW) Gen GFinput Int=NoBasisTransform Int(Grid=Ultrafine) IOp(
 3/32=2,5/6=10,8/11=1,9/33=1) Maxdisk=128GB CBSextrapolate(Nmin=15,MinP
 op) Guess=Read
 ----------------------------------------------------------------------
 1/38=1/1;
 2/12=2,17=6,18=5,40=1/2;
 3/5=7,11=2,16=1,24=10,25=1,30=1,32=2,60=-1,75=-5,116=101/1,2,3;
 4/5=1/1;
 5/5=2,6=10,38=6/2;
 8/5=-1,10=91,11=1/1;
 9/16=-3,33=1,75=2,81=15,83=4/6,4;
 6/7=2,8=2,9=2,10=2/1;
 99/5=1,9=1/99;
 Leave Link    1 at Thu Jul 25 16:56:31 2013, MaxMem= 8589934592 cpu:       3.8
 (Enter /share/apps/gaussian/g09root/g09/l101.exe)
 ------------
 Zn...Zn 1Sg+
 ------------
 Symbolic Z-matrix:
 Charge =  0 Multiplicity = 1
 Zn
 Zn                   1     3.847 
 
 NAtoms=      2 NQM=      2 NQMF=      0 NMic=      0 NMicF=      0 NTot=      2.
                    Isotopes and Nuclear Properties:
 (Nuclear quadrupole moments (NQMom) in fm**2, nuclear magnetic moments (NMagM)
  in nuclear magnetons)

  Atom         1           2
 IAtWgt=          64          64
 AtmWgt=  63.9291454  63.9291454
 NucSpn=           0           0
 AtZEff=   0.0000000   0.0000000
 NQMom=    0.0000000   0.0000000
 NMagM=    0.0000000   0.0000000
 Leave Link  101 at Thu Jul 25 16:56:31 2013, MaxMem= 8589934592 cpu:       2.1
 (Enter /share/apps/gaussian/g09root/g09/l202.exe)
                          Input orientation:                          
 ---------------------------------------------------------------------
 Center     Atomic      Atomic             Coordinates (Angstroms)
 Number     Number       Type             X           Y           Z
 ---------------------------------------------------------------------
      1         30           0        0.000000    0.000000    0.000000
      2         30           0        0.000000    0.000000    3.847000
 ---------------------------------------------------------------------
 Stoichiometry    Zn2
 Framework group  D*H[C*(Zn.Zn)]
 Deg. of freedom     1
 Full point group                 D*H     NOp   8
 Largest Abelian subgroup         D2H     NOp   8
 Largest concise Abelian subgroup C2      NOp   2
                         Standard orientation:                         
 ---------------------------------------------------------------------
 Center     Atomic      Atomic             Coordinates (Angstroms)
 Number     Number       Type             X           Y           Z
 ---------------------------------------------------------------------
      1         30           0        0.000000    0.000000    1.923500
      2         30           0        0.000000    0.000000   -1.923500
 ---------------------------------------------------------------------
 Rotational constants (GHZ):      0.0000000      1.0683263      1.0683263
 Leave Link  202 at Thu Jul 25 16:56:31 2013, MaxMem= 8589934592 cpu:       0.2
 (Enter /share/apps/gaussian/g09root/g09/l301.exe)
 General basis read from cards:  (5D, 7F)
 Centers:   1  2
 S 14 1.00 0.000000000000
     Exponent=  7.7122425700D+06 Coefficients=  5.4410912990D-06
     Exponent=  1.3795658900D+06 Coefficients=  3.6125542060D-05
     Exponent=  3.0946783000D+05 Coefficients=  2.0728302270D-04
     Exponent=  8.3551543600D+04 Coefficients=  9.3341159980D-04
     Exponent=  2.6204106700D+04 Coefficients=  3.5250266160D-03
     Exponent=  9.2618826800D+03 Coefficients=  1.1494294280D-02
     Exponent=  3.5957224600D+03 Coefficients=  3.3049704140D-02
     Exponent=  1.5005431300D+03 Coefficients=  8.3785348620D-02
     Exponent=  6.6108138000D+02 Coefficients=  1.8139044500D-01
     Exponent=  3.0289919900D+02 Coefficients=  3.0849235710D-01
     Exponent=  1.4255037300D+02 Coefficients=  3.3948426230D-01
     Exponent=  6.8191030000D+01 Coefficients=  1.6681189760D-01
     Exponent=  3.2861054000D+01 Coefficients=  1.8971703030D-02
     Exponent=  1.5825467000D+01 Coefficients=  1.6245328790D-03
 S 12 1.00 0.000000000000
     Exponent=  9.2618826800D+03 Coefficients= -3.3617964860D-05
     Exponent=  3.5957224600D+03 Coefficients= -2.4332978200D-04
     Exponent=  1.5005431300D+03 Coefficients= -1.6580409110D-03
     Exponent=  6.6108138000D+02 Coefficients= -8.2781356550D-03
     Exponent=  3.0289919900D+02 Coefficients= -3.3402600380D-02
     Exponent=  1.4255037300D+02 Coefficients= -8.5777600600D-02
     Exponent=  6.8191030000D+01 Coefficients= -7.1324093990D-02
     Exponent=  3.2861054000D+01 Coefficients=  2.4165256690D-01
     Exponent=  1.5825467000D+01 Coefficients=  5.8590511460D-01
     Exponent=  7.5591040000D+00 Coefficients=  2.9276854810D-01
     Exponent=  3.5539140000D+00 Coefficients=  2.0748298200D-02
     Exponent=  1.6311370000D+00 Coefficients=  5.2698421820D-03
 P 13 1.00 0.000000000000
     Exponent=  3.4138170800D+04 Coefficients=  2.2009048830D-05
     Exponent=  8.1964721600D+03 Coefficients=  1.9986745830D-04
     Exponent=  2.6045325400D+03 Coefficients=  1.2056170290D-03
     Exponent=  9.9508359600D+02 Coefficients=  5.3248671030D-03
     Exponent=  4.2722070600D+02 Coefficients=  1.9051418720D-02
     Exponent=  1.9716066200D+02 Coefficients=  5.7374235960D-02
     Exponent=  9.5258404000D+01 Coefficients=  1.4220774030D-01
     Exponent=  4.7535702000D+01 Coefficients=  2.6807869310D-01
     Exponent=  2.4356703000D+01 Coefficients=  3.4922143700D-01
     Exponent=  1.2771108000D+01 Coefficients=  2.5500865980D-01
     Exponent=  6.8110160000D+00 Coefficients=  8.1045385630D-02
     Exponent=  3.6434570000D+00 Coefficients=  9.7650628520D-03
     Exponent=  1.9028910000D+00 Coefficients=  4.1130302460D-04
 S 10 1.00 0.000000000000
     Exponent=  1.4255037300D+02 Coefficients=  1.6212844410D-03
     Exponent=  6.8191030000D+01 Coefficients=  2.7492590230D-03
     Exponent=  3.2861054000D+01 Coefficients= -1.6340890580D-02
     Exponent=  1.5825467000D+01 Coefficients= -1.7068924860D-01
     Exponent=  7.5591040000D+00 Coefficients= -1.4829373660D-01
     Exponent=  3.5539140000D+00 Coefficients=  4.1948829280D-01
     Exponent=  1.6311370000D+00 Coefficients=  6.2278632250D-01
     Exponent=  7.2403300000D-01 Coefficients=  1.8663888060D-01
     Exponent=  3.0742200000D-01 Coefficients= -1.5757445510D-03
     Exponent=  1.2322800000D-01 Coefficients=  3.2219125990D-03
 P 12 1.00 0.000000000000
     Exponent=  9.9508359600D+02 Coefficients= -9.8133054480D-06
     Exponent=  4.2722070600D+02 Coefficients= -1.0140088610D-04
     Exponent=  1.9716066200D+02 Coefficients= -7.0751168700D-04
     Exponent=  9.5258404000D+01 Coefficients= -3.5729526450D-03
     Exponent=  4.7535702000D+01 Coefficients= -1.1308298990D-02
     Exponent=  2.4356703000D+01 Coefficients= -2.2955142320D-02
     Exponent=  1.2771108000D+01 Coefficients=  7.1093285550D-03
     Exponent=  6.8110160000D+00 Coefficients=  1.6091076950D-01
     Exponent=  3.6434570000D+00 Coefficients=  3.3606067490D-01
     Exponent=  1.9028910000D+00 Coefficients=  3.8407221160D-01
     Exponent=  9.2742400000D-01 Coefficients=  2.1478866210D-01
     Exponent=  3.9383100000D-01 Coefficients=  3.0996798570D-02
 D 12 1.00 0.000000000000
     Exponent=  9.0255801400D+02 Coefficients=  9.5466025540D-05
     Exponent=  2.7618486500D+02 Coefficients=  9.2555714140D-04
     Exponent=  1.0609484200D+02 Coefficients=  5.5211971220D-03
     Exponent=  4.6967623000D+01 Coefficients=  2.1463240910D-02
     Exponent=  2.2560637000D+01 Coefficients=  6.1072716520D-02
     Exponent=  1.1294311000D+01 Coefficients=  1.3839766910D-01
     Exponent=  5.7434080000D+00 Coefficients=  2.3099331710D-01
     Exponent=  2.9183430000D+00 Coefficients=  2.8414839810D-01
     Exponent=  1.4631690000D+00 Coefficients=  2.7640188810D-01
     Exponent=  7.1372100000D-01 Coefficients=  2.1263200310D-01
     Exponent=  3.3169800000D-01 Coefficients=  1.1201401800D-01
     Exponent=  1.4207900000D-01 Coefficients=  2.6002741910D-02
 S 9 1.00 0.000000000000
     Exponent=  3.2861054000D+01 Coefficients=  4.6638655570D-05
     Exponent=  1.5825467000D+01 Coefficients=  4.3076015100D-03
     Exponent=  7.5591040000D+00 Coefficients=  2.3828874390D-03
     Exponent=  3.5539140000D+00 Coefficients= -1.7334634760D-02
     Exponent=  1.6311370000D+00 Coefficients= -8.2492706720D-02
     Exponent=  7.2403300000D-01 Coefficients= -1.2589427550D-01
     Exponent=  3.0742200000D-01 Coefficients=  1.1954715530D-01
     Exponent=  1.2322800000D-01 Coefficients=  5.9584510070D-01
     Exponent=  4.5898000000D-02 Coefficients=  4.3515819250D-01
 S 1 1.00 0.000000000000
     Exponent=  1.7095355000D-02 Coefficients=  1.0000000000D+00
 P 8 1.00
     Exponent=  2.4356703000D+01 Coefficients=  4.5156830940D-03
     Exponent=  1.2771108000D+01 Coefficients= -1.1313704760D-02
     Exponent=  6.8110160000D+00 Coefficients=  9.9980695010D-03
     Exponent=  3.6434570000D+00 Coefficients= -7.5154645010D-02
     Exponent=  1.9028910000D+00 Coefficients=  3.5742282820D-02
     Exponent=  9.2742400000D-01 Coefficients= -1.3754014360D-01
     Exponent=  3.9383100000D-01 Coefficients=  2.5559378610D-01
     Exponent=  7.3552465800D-02 Coefficients=  8.9905707360D-01
 S 1 1.00 0.000000000000
     Exponent=  4.4106680000D+00 Coefficients=  1.0000000000D+00
 S 1 1.00 0.000000000000
     Exponent=  1.7101840000D+00 Coefficients=  1.0000000000D+00
 S 1 1.00 0.000000000000
     Exponent=  6.6310300000D-01 Coefficients=  1.0000000000D+00
 S 1 1.00 0.000000000000
     Exponent=  2.5711000000D-01 Coefficients=  1.0000000000D+00
 P 1 1.00 0.000000000000
     Exponent=  2.8987520000D+00 Coefficients=  1.0000000000D+00
 P 1 1.00 0.000000000000
     Exponent=  1.1965620000D+00 Coefficients=  1.0000000000D+00
 P 1 1.00 0.000000000000
     Exponent=  4.9392300000D-01 Coefficients=  1.0000000000D+00
 P 1 1.00 0.000000000000
     Exponent=  2.0388400000D-01 Coefficients=  1.0000000000D+00
 P 1 1.00 0.000000000000
     Exponent=  8.4160000000D-02 Coefficients=  1.0000000000D+00
 D 1 1.00 0.000000000000
     Exponent=  3.9756170000D+00 Coefficients=  1.0000000000D+00
 D 1 1.00 0.000000000000
     Exponent=  1.5310670000D+00 Coefficients=  1.0000000000D+00
 D 1 1.00 0.000000000000
     Exponent=  5.8963600000D-01 Coefficients=  1.0000000000D+00
 D 1 1.00 0.000000000000
     Exponent=  2.2707700000D-01 Coefficients=  1.0000000000D+00
 D 1 1.00 0.000000000000
     Exponent=  8.7450000000D-02 Coefficients=  1.0000000000D+00
 F 1 1.00 0.000000000000
     Exponent=  1.2143761000D+01 Coefficients=  1.0000000000D+00
 F 1 1.00 0.000000000000
     Exponent=  4.3395820000D+00 Coefficients=  1.0000000000D+00
 F 1 1.00 0.000000000000
     Exponent=  1.5507520000D+00 Coefficients=  1.0000000000D+00
 F 1 1.00 0.000000000000
     Exponent=  5.5416200000D-01 Coefficients=  1.0000000000D+00
 F 1 1.00 0.000000000000
     Exponent=  1.9803000000D-01 Coefficients=  1.0000000000D+00
 G 1 1.00 0.000000000000
     Exponent=  9.8044700000D+00 Coefficients=  1.0000000000D+00
 G 1 1.00 0.000000000000
     Exponent=  3.4615960000D+00 Coefficients=  1.0000000000D+00
 G 1 1.00 0.000000000000
     Exponent=  1.2221620000D+00 Coefficients=  1.0000000000D+00
 G 1 1.00 0.000000000000
     Exponent=  4.3150000000D-01 Coefficients=  1.0000000000D+00
 H 1 1.00 0.000000000000
     Exponent=  7.3133440000D+00 Coefficients=  1.0000000000D+00
 H 1 1.00 0.000000000000
     Exponent=  2.3333500000D+00 Coefficients=  1.0000000000D+00
 H 1 1.00 0.000000000000
     Exponent=  7.4446400000D-01 Coefficients=  1.0000000000D+00
 I 1 1.00 0.000000000000
     Exponent=  5.6003018410D+00 Coefficients=  1.0000000000D+00
 ****
 AO basis set in the form of general basis input (Overlap normalization):
      1 0
 S  14 1.00       0.000000000000
      0.7712242570D+07  0.5441091299D-05
      0.1379565890D+07  0.3612554206D-04
      0.3094678300D+06  0.2072830227D-03
      0.8355154360D+05  0.9334115998D-03
      0.2620410670D+05  0.3525026616D-02
      0.9261882680D+04  0.1149429428D-01
      0.3595722460D+04  0.3304970414D-01
      0.1500543130D+04  0.8378534862D-01
      0.6610813800D+03  0.1813904450D+00
      0.3028991990D+03  0.3084923571D+00
      0.1425503730D+03  0.3394842623D+00
      0.6819103000D+02  0.1668118976D+00
      0.3286105400D+02  0.1897170303D-01
      0.1582546700D+02  0.1624532879D-02
 S  12 1.00       0.000000000000
      0.9261882680D+04 -0.3361796486D-04
      0.3595722460D+04 -0.2433297820D-03
      0.1500543130D+04 -0.1658040911D-02
      0.6610813800D+03 -0.8278135655D-02
      0.3028991990D+03 -0.3340260038D-01
      0.1425503730D+03 -0.8577760060D-01
      0.6819103000D+02 -0.7132409399D-01
      0.3286105400D+02  0.2416525669D+00
      0.1582546700D+02  0.5859051146D+00
      0.7559104000D+01  0.2927685481D+00
      0.3553914000D+01  0.2074829820D-01
      0.1631137000D+01  0.5269842182D-02
 P  13 1.00       0.000000000000
      0.3413817080D+05  0.2200904883D-04
      0.8196472160D+04  0.1998674583D-03
      0.2604532540D+04  0.1205617029D-02
      0.9950835960D+03  0.5324867103D-02
      0.4272207060D+03  0.1905141872D-01
      0.1971606620D+03  0.5737423596D-01
      0.9525840400D+02  0.1422077403D+00
      0.4753570200D+02  0.2680786931D+00
      0.2435670300D+02  0.3492214370D+00
      0.1277110800D+02  0.2550086598D+00
      0.6811016000D+01  0.8104538563D-01
      0.3643457000D+01  0.9765062852D-02
      0.1902891000D+01  0.4113030246D-03
 S  10 1.00       0.000000000000
      0.1425503730D+03  0.1621284441D-02
      0.6819103000D+02  0.2749259023D-02
      0.3286105400D+02 -0.1634089058D-01
      0.1582546700D+02 -0.1706892486D+00
      0.7559104000D+01 -0.1482937366D+00
      0.3553914000D+01  0.4194882928D+00
      0.1631137000D+01  0.6227863225D+00
      0.7240330000D+00  0.1866388806D+00
      0.3074220000D+00 -0.1575744551D-02
      0.1232280000D+00  0.3221912599D-02
 P  12 1.00       0.000000000000
      0.9950835960D+03 -0.9813305449D-05
      0.4272207060D+03 -0.1014008861D-03
      0.1971606620D+03 -0.7075116870D-03
      0.9525840400D+02 -0.3572952645D-02
      0.4753570200D+02 -0.1130829899D-01
      0.2435670300D+02 -0.2295514232D-01
      0.1277110800D+02  0.7109328555D-02
      0.6811016000D+01  0.1609107695D+00
      0.3643457000D+01  0.3360606749D+00
      0.1902891000D+01  0.3840722116D+00
      0.9274240000D+00  0.2147886621D+00
      0.3938310000D+00  0.3099679857D-01
 D  12 1.00       0.000000000000
      0.9025580140D+03  0.9546602554D-04
      0.2761848650D+03  0.9255571414D-03
      0.1060948420D+03  0.5521197122D-02
      0.4696762300D+02  0.2146324091D-01
      0.2256063700D+02  0.6107271652D-01
      0.1129431100D+02  0.1383976691D+00
      0.5743408000D+01  0.2309933171D+00
      0.2918343000D+01  0.2841483981D+00
      0.1463169000D+01  0.2764018881D+00
      0.7137210000D+00  0.2126320031D+00
      0.3316980000D+00  0.1120140180D+00
      0.1420790000D+00  0.2600274191D-01
 S   9 1.00       0.000000000000
      0.3286105400D+02  0.4663865557D-04
      0.1582546700D+02  0.4307601510D-02
      0.7559104000D+01  0.2382887439D-02
      0.3553914000D+01 -0.1733463476D-01
      0.1631137000D+01 -0.8249270672D-01
      0.7240330000D+00 -0.1258942755D+00
      0.3074220000D+00  0.1195471553D+00
      0.1232280000D+00  0.5958451007D+00
      0.4589800000D-01  0.4351581925D+00
 S   1 1.00       0.000000000000
      0.1709535500D-01  0.1000000000D+01
 P   8 1.00       0.000000000000
      0.2435670300D+02  0.4515683094D-02
      0.1277110800D+02 -0.1131370476D-01
      0.6811016000D+01  0.9998069501D-02
      0.3643457000D+01 -0.7515464501D-01
      0.1902891000D+01  0.3574228282D-01
      0.9274240000D+00 -0.1375401436D+00
      0.3938310000D+00  0.2555937861D+00
      0.7355246580D-01  0.8990570736D+00
 S   1 1.00       0.000000000000
      0.4410668000D+01  0.1000000000D+01
 S   1 1.00       0.000000000000
      0.1710184000D+01  0.1000000000D+01
 S   1 1.00       0.000000000000
      0.6631030000D+00  0.1000000000D+01
 S   1 1.00       0.000000000000
      0.2571100000D+00  0.1000000000D+01
 P   1 1.00       0.000000000000
      0.2898752000D+01  0.1000000000D+01
 P   1 1.00       0.000000000000
      0.1196562000D+01  0.1000000000D+01
 P   1 1.00       0.000000000000
      0.4939230000D+00  0.1000000000D+01
 P   1 1.00       0.000000000000
      0.2038840000D+00  0.1000000000D+01
 P   1 1.00       0.000000000000
      0.8416000000D-01  0.1000000000D+01
 D   1 1.00       0.000000000000
      0.3975617000D+01  0.1000000000D+01
 D   1 1.00       0.000000000000
      0.1531067000D+01  0.1000000000D+01
 D   1 1.00       0.000000000000
      0.5896360000D+00  0.1000000000D+01
 D   1 1.00       0.000000000000
      0.2270770000D+00  0.1000000000D+01
 D   1 1.00       0.000000000000
      0.8745000000D-01  0.1000000000D+01
 F   1 1.00       0.000000000000
      0.1214376100D+02  0.1000000000D+01
 F   1 1.00       0.000000000000
      0.4339582000D+01  0.1000000000D+01
 F   1 1.00       0.000000000000
      0.1550752000D+01  0.1000000000D+01
 F   1 1.00       0.000000000000
      0.5541620000D+00  0.1000000000D+01
 F   1 1.00       0.000000000000
      0.1980300000D+00  0.1000000000D+01
 G   1 1.00       0.000000000000
      0.9804470000D+01  0.1000000000D+01
 G   1 1.00       0.000000000000
      0.3461596000D+01  0.1000000000D+01
 G   1 1.00       0.000000000000
      0.1222162000D+01  0.1000000000D+01
 G   1 1.00       0.000000000000
      0.4315000000D+00  0.1000000000D+01
 H   1 1.00       0.000000000000
      0.7313344000D+01  0.1000000000D+01
 H   1 1.00       0.000000000000
      0.2333350000D+01  0.1000000000D+01
 H   1 1.00       0.000000000000
      0.7444640000D+00  0.1000000000D+01
 I   1 1.00       0.000000000000
      0.5600301841D+01  0.1000000000D+01
 ****
      2 0
 S  14 1.00       0.000000000000
      0.7712242570D+07  0.5441091299D-05
      0.1379565890D+07  0.3612554206D-04
      0.3094678300D+06  0.2072830227D-03
      0.8355154360D+05  0.9334115998D-03
      0.2620410670D+05  0.3525026616D-02
      0.9261882680D+04  0.1149429428D-01
      0.3595722460D+04  0.3304970414D-01
      0.1500543130D+04  0.8378534862D-01
      0.6610813800D+03  0.1813904450D+00
      0.3028991990D+03  0.3084923571D+00
      0.1425503730D+03  0.3394842623D+00
      0.6819103000D+02  0.1668118976D+00
      0.3286105400D+02  0.1897170303D-01
      0.1582546700D+02  0.1624532879D-02
 S  12 1.00       0.000000000000
      0.9261882680D+04 -0.3361796486D-04
      0.3595722460D+04 -0.2433297820D-03
      0.1500543130D+04 -0.1658040911D-02
      0.6610813800D+03 -0.8278135655D-02
      0.3028991990D+03 -0.3340260038D-01
      0.1425503730D+03 -0.8577760060D-01
      0.6819103000D+02 -0.7132409399D-01
      0.3286105400D+02  0.2416525669D+00
      0.1582546700D+02  0.5859051146D+00
      0.7559104000D+01  0.2927685481D+00
      0.3553914000D+01  0.2074829820D-01
      0.1631137000D+01  0.5269842182D-02
 P  13 1.00       0.000000000000
      0.3413817080D+05  0.2200904883D-04
      0.8196472160D+04  0.1998674583D-03
      0.2604532540D+04  0.1205617029D-02
      0.9950835960D+03  0.5324867103D-02
      0.4272207060D+03  0.1905141872D-01
      0.1971606620D+03  0.5737423596D-01
      0.9525840400D+02  0.1422077403D+00
      0.4753570200D+02  0.2680786931D+00
      0.2435670300D+02  0.3492214370D+00
      0.1277110800D+02  0.2550086598D+00
      0.6811016000D+01  0.8104538563D-01
      0.3643457000D+01  0.9765062852D-02
      0.1902891000D+01  0.4113030246D-03
 S  10 1.00       0.000000000000
      0.1425503730D+03  0.1621284441D-02
      0.6819103000D+02  0.2749259023D-02
      0.3286105400D+02 -0.1634089058D-01
      0.1582546700D+02 -0.1706892486D+00
      0.7559104000D+01 -0.1482937366D+00
      0.3553914000D+01  0.4194882928D+00
      0.1631137000D+01  0.6227863225D+00
      0.7240330000D+00  0.1866388806D+00
      0.3074220000D+00 -0.1575744551D-02
      0.1232280000D+00  0.3221912599D-02
 P  12 1.00       0.000000000000
      0.9950835960D+03 -0.9813305449D-05
      0.4272207060D+03 -0.1014008861D-03
      0.1971606620D+03 -0.7075116870D-03
      0.9525840400D+02 -0.3572952645D-02
      0.4753570200D+02 -0.1130829899D-01
      0.2435670300D+02 -0.2295514232D-01
      0.1277110800D+02  0.7109328555D-02
      0.6811016000D+01  0.1609107695D+00
      0.3643457000D+01  0.3360606749D+00
      0.1902891000D+01  0.3840722116D+00
      0.9274240000D+00  0.2147886621D+00
      0.3938310000D+00  0.3099679857D-01
 D  12 1.00       0.000000000000
      0.9025580140D+03  0.9546602554D-04
      0.2761848650D+03  0.9255571414D-03
      0.1060948420D+03  0.5521197122D-02
      0.4696762300D+02  0.2146324091D-01
      0.2256063700D+02  0.6107271652D-01
      0.1129431100D+02  0.1383976691D+00
      0.5743408000D+01  0.2309933171D+00
      0.2918343000D+01  0.2841483981D+00
      0.1463169000D+01  0.2764018881D+00
      0.7137210000D+00  0.2126320031D+00
      0.3316980000D+00  0.1120140180D+00
      0.1420790000D+00  0.2600274191D-01
 S   9 1.00       0.000000000000
      0.3286105400D+02  0.4663865557D-04
      0.1582546700D+02  0.4307601510D-02
      0.7559104000D+01  0.2382887439D-02
      0.3553914000D+01 -0.1733463476D-01
      0.1631137000D+01 -0.8249270672D-01
      0.7240330000D+00 -0.1258942755D+00
      0.3074220000D+00  0.1195471553D+00
      0.1232280000D+00  0.5958451007D+00
      0.4589800000D-01  0.4351581925D+00
 S   1 1.00       0.000000000000
      0.1709535500D-01  0.1000000000D+01
 P   8 1.00       0.000000000000
      0.2435670300D+02  0.4515683094D-02
      0.1277110800D+02 -0.1131370476D-01
      0.6811016000D+01  0.9998069501D-02
      0.3643457000D+01 -0.7515464501D-01
      0.1902891000D+01  0.3574228282D-01
      0.9274240000D+00 -0.1375401436D+00
      0.3938310000D+00  0.2555937861D+00
      0.7355246580D-01  0.8990570736D+00
 S   1 1.00       0.000000000000
      0.4410668000D+01  0.1000000000D+01
 S   1 1.00       0.000000000000
      0.1710184000D+01  0.1000000000D+01
 S   1 1.00       0.000000000000
      0.6631030000D+00  0.1000000000D+01
 S   1 1.00       0.000000000000
      0.2571100000D+00  0.1000000000D+01
 P   1 1.00       0.000000000000
      0.2898752000D+01  0.1000000000D+01
 P   1 1.00       0.000000000000
      0.1196562000D+01  0.1000000000D+01
 P   1 1.00       0.000000000000
      0.4939230000D+00  0.1000000000D+01
 P   1 1.00       0.000000000000
      0.2038840000D+00  0.1000000000D+01
 P   1 1.00       0.000000000000
      0.8416000000D-01  0.1000000000D+01
 D   1 1.00       0.000000000000
      0.3975617000D+01  0.1000000000D+01
 D   1 1.00       0.000000000000
      0.1531067000D+01  0.1000000000D+01
 D   1 1.00       0.000000000000
      0.5896360000D+00  0.1000000000D+01
 D   1 1.00       0.000000000000
      0.2270770000D+00  0.1000000000D+01
 D   1 1.00       0.000000000000
      0.8745000000D-01  0.1000000000D+01
 F   1 1.00       0.000000000000
      0.1214376100D+02  0.1000000000D+01
 F   1 1.00       0.000000000000
      0.4339582000D+01  0.1000000000D+01
 F   1 1.00       0.000000000000
      0.1550752000D+01  0.1000000000D+01
 F   1 1.00       0.000000000000
      0.5541620000D+00  0.1000000000D+01
 F   1 1.00       0.000000000000
      0.1980300000D+00  0.1000000000D+01
 G   1 1.00       0.000000000000
      0.9804470000D+01  0.1000000000D+01
 G   1 1.00       0.000000000000
      0.3461596000D+01  0.1000000000D+01
 G   1 1.00       0.000000000000
      0.1222162000D+01  0.1000000000D+01
 G   1 1.00       0.000000000000
      0.4315000000D+00  0.1000000000D+01
 H   1 1.00       0.000000000000
      0.7313344000D+01  0.1000000000D+01
 H   1 1.00       0.000000000000
      0.2333350000D+01  0.1000000000D+01
 H   1 1.00       0.000000000000
      0.7444640000D+00  0.1000000000D+01
 I   1 1.00       0.000000000000
      0.5600301841D+01  0.1000000000D+01
 ****

 There are    64 symmetry adapted basis functions of AG  symmetry.
 There are    28 symmetry adapted basis functions of B1G symmetry.
 There are    44 symmetry adapted basis functions of B2G symmetry.
 There are    44 symmetry adapted basis functions of B3G symmetry.
 There are    28 symmetry adapted basis functions of AU  symmetry.
 There are    64 symmetry adapted basis functions of B1U symmetry.
 There are    44 symmetry adapted basis functions of B2U symmetry.
 There are    44 symmetry adapted basis functions of B3U symmetry.
 Integral buffers will be    131072 words long.
 Raffenetti 2 integral format.
 Two-electron integral symmetry is turned on.
   360 basis functions,   934 primitive gaussians,   540 cartesian basis functions
    30 alpha electrons       30 beta electrons
       nuclear repulsion energy       123.8002307593 Hartrees.
 IExCor=    0 DFT=F Ex=HF Corr=None ExCW=0 ScaHFX=  1.000000
 ScaDFX=  1.000000  1.000000  1.000000  1.000000 ScalE2=  1.000000  1.000000
 IRadAn=      5 IRanWt=     -1 IRanGd=            0 ICorTp=0
 NAtoms=    2 NActive=    2 NUniq=    1 SFac= 3.00D+00 NAtFMM=   80 NAOKFM=F Big=F
 Leave Link  301 at Thu Jul 25 16:56:32 2013, MaxMem= 8589934592 cpu:      13.1
 (Enter /share/apps/gaussian/g09root/g09/l302.exe)
 NPDir=0 NMtPBC=     1 NCelOv=     1 NCel=       1 NClECP=     1 NCelD=      1
         NCelK=      1 NCelE2=     1 NClLst=     1 CellRange=     0.0.
 One-electron integrals computed using PRISM.
 One-electron integral symmetry used in STVInt
 NBasis=   360 RedAO= F  NBF=    64    28    44    44    28    64    44    44
 NBsUse=   360 1.00D-04 NBFU=    64    28    44    44    28    64    44    44
 Leave Link  302 at Thu Jul 25 16:56:36 2013, MaxMem= 8589934592 cpu:      60.0
 (Enter /share/apps/gaussian/g09root/g09/l303.exe)
 DipDrv:  MaxL=1.
 Leave Link  303 at Thu Jul 25 16:56:37 2013, MaxMem= 8589934592 cpu:       6.6
 (Enter /share/apps/gaussian/g09root/g09/l401.exe)
 Initial guess read from the checkpoint file:  Zn...Zn.chk
 B after Tr=     0.000000    0.000000    0.000000
         Rot=    1.000000    0.000000    0.000000    0.000000 Ang=   0.00 deg.
 Guess basis will be translated and rotated to current coordinates.
 Initial guess orbital symmetries:
       Occupied  (SGU) (SGG) (SGU) (SGG) (PIG) (PIG) (PIU) (PIU)
                 (SGU) (SGG) (SGG) (SGU) (SGU) (PIG) (PIG) (SGG)
                 (PIU) (PIU) (SGG) (PIU) (PIU) (DLTG) (DLTG) (DLTU)
                 (DLTU) (PIG) (PIG) (SGU) (SGG) (SGU)
       Virtual   (SGG) (SGU) (PIU) (PIU) (SGG) (PIG) (PIG) (SGU)
                 (PIU) (PIU) (DLTG) (DLTG) (SGG) (DLTU) (DLTU)
                 (PIG) (PIG) (SGU) (PIU) (PIU) (PIG) (PIG) (SGG)
                 (SGU) (SGG) (SGU) (SGG) (PIU) (PIU) (DLTG) (DLTG)
                 (PHIU) (PHIU) (PHIG) (PHIG) (DLTU) (DLTU) (PIG)
                 (PIG) (SGU) (DLTG) (DLTG) (PIU) (PIU) (DLTU) (DLTU)
                 (SGG) (PIG) (PIG) (SGU) (PIU) (PIU) (PIG) (PIG)
                 (SGG) (SGU) (SGG) (PIU) (PIU) (DLTG) (DLTG) (PHIU)
                 (PHIU) (PHIG) (PHIG) (DLTU) (DLTU) (PIG) (PIG)
                 (SGU) (PIU) (PIU) (SGG) (PIG) (PIG) (SGU) (PIU)
                 (PIU) (DLTG) (DLTG) (DLTU) (DLTU) (PIG) (PIG)
                 (SGG) (SGU) (SGG) (SGU) (SGG) (PIU) (PIU) (DLTG)
                 (DLTG) (PHIU) (PHIU) (PHIG) (PHIG) (DLTU) (DLTU)
                 (PIG) (PIG) (SGU) (?A) (?A) (?B) (?B) (PHIG) (PHIG)
                 (PHIU) (PHIU) (DLTU) (DLTU) (DLTG) (DLTG) (PIU)
                 (PIU) (PIG) (PIG) (SGG) (SGU) (?C) (?C) (?D) (?D)
                 (?C) (?C) (?D) (?D) (?E) (?E) (?C) (?D) (?D) (?C)
                 (?C) (?D) (?D) (?C) (?D) (?D) (?E) (?E) (?C) (?C)
                 (?D) (?D) (?E) (?E) (?F) (?F) (?C) (?D) (?D) (?E)
                 (?E) (?F) (?F) (?C) (?G) (?G) (?E) (?E) (?F) (?F)
                 (?H) (?H) (?C) (?D) (?D) (?E) (?E) (?F) (?F) (?H)
                 (?H) (?C) (?D) (?D) (?E) (?E) (?F) (?F) (?H) (?H)
                 (?C) (?D) (?D) (?E) (?E) (?F) (?F) (?H) (?H) (?H)
                 (?H) (?C) (?D) (?D) (?E) (?E) (?F) (?F) (?H) (?H)
                 (?H) (?H) (?C) (?D) (?D) (?E) (?E) (?F) (?F) (?H)
                 (?H) (?H) (?H) (?H) (?G) (?G) (?E) (?E) (?F) (?F)
                 (?H) (?H) (?H) (?H) (?H) (?H) (?C) (?C) (?D) (?D)
                 (?C) (?C) (?D) (?D) (?E) (?E) (?D) (?D) (?D) (?D)
                 (?E) (?E) (?C) (?D) (?D) (?E) (?E) (?F) (?F) (?E)
                 (?E) (?F) (?F) (?C) (?D) (?D) (?C) (?G) (?G) (?E)
                 (?E) (?F) (?F) (?H) (?H) (?C) (?D) (?D) (?E) (?E)
                 (?F) (?F) (?H) (?H) (?C) (?D) (?D) (?E) (?E) (?F)
                 (?F) (?H) (?H) (?C) (?D) (?D) (?E) (?E) (?F) (?F)
                 (?H) (?H) (?H) (?H) (?C) (?D) (?D) (?E) (?E) (?F)
                 (?F) (?H) (?H) (?H) (?H) (?E) (?E) (?F) (?F) (?H)
                 (?H) (?H) (?H) (?H) (?G) (?G) (?E) (?E) (?F) (?F)
                 (?H) (?H) (?H) (?H) (?H) (?H)
 The electronic state of the initial guess is 1-SGG.
 Leave Link  401 at Thu Jul 25 16:56:39 2013, MaxMem= 8589934592 cpu:      32.1
 (Enter /share/apps/gaussian/g09root/g09/l502.exe)
 Restricted open shell SCF:
 Requested convergence on RMS density matrix=1.00D-10 within 128 cycles.
 Requested convergence on MAX density matrix=1.00D-08.
 Requested convergence on             energy=1.00D-08.
 No special actions if energy rises.
 Using DIIS extrapolation, IDIIS=  1040.
 Integral symmetry usage will be decided dynamically.
 IEnd=      906126 IEndB=      906126 NGot=  8589934592 MDV=  8589337247
 LenX=  8589337247 LenY=  8589045107
 Fock matrices will be formed incrementally for  20 cycles.
 An orbital has undefined symmetry, so N**3 symmetry is turned off.

 Cycle   1  Pass 1  IDiag  1:
 FoFCou: FMM=F IPFlag=           0 FMFlag=      100000 FMFlg1=           0
         NFxFlg=           0 DoJE=F BraDBF=F KetDBF=F FulRan=T
         Omega=  0.000000  0.000000  1.000000  0.000000  0.000000 ICntrl=       0 IOpCl=  1
         NMat0=    1 NMatS0=    1 NMatT0=    0 NMatD0=    1 NMtDS0=    0 NMtDT0=    0
         I1Cent=           0 NGrid=           0.
 Petite list used in FoFCou.
 E= -3555.69249460869    
 DIIS: error= 3.22D-02 at cycle   1 NSaved=   1.
 NSaved= 1 IEnMin= 1 EnMin= -3555.69249460869     IErMin= 1 ErrMin= 3.22D-02
 ErrMax= 3.22D-02 EMaxC= 1.00D-01 BMatC= 3.48D-02 BMatP= 3.48D-02
 IDIUse=3 WtCom= 6.78D-01 WtEn= 3.22D-01
 Coeff-Com:  0.100D+01
 Coeff-En:   0.100D+01
 Coeff:      0.100D+01
 Gap=     0.322 Goal=   None    Shift=    0.000
 GapD=    0.322 DampG=1.000 DampE=0.250 DampFc=0.2500 IDamp=-1.
 Damping current iteration by 2.50D-01
 RMSDP=8.07D-04 MaxDP=6.04D-02              OVMax= 1.01D-02

 Cycle   2  Pass 1  IDiag  1:
 RMSU=  1.42D-04    CP:  1.00D+00
 E= -3555.69279407952     Delta-E=       -0.000299470832 Rises=F Damp=T
 DIIS: error= 2.42D-02 at cycle   2 NSaved=   2.
 NSaved= 2 IEnMin= 2 EnMin= -3555.69279407952     IErMin= 2 ErrMin= 2.42D-02
 ErrMax= 2.42D-02 EMaxC= 1.00D-01 BMatC= 1.96D-02 BMatP= 3.48D-02
 IDIUse=3 WtCom= 7.58D-01 WtEn= 2.42D-01
 Coeff-Com: -0.302D+01 0.402D+01
 Coeff-En:   0.000D+00 0.100D+01
 Coeff:     -0.229D+01 0.329D+01
 Gap=     0.313 Goal=   None    Shift=    0.000
 RMSDP=6.51D-04 MaxDP=5.14D-02 DE=-2.99D-04 OVMax= 1.27D-03

 Cycle   3  Pass 1  IDiag  1:
 RMSU=  1.76D-04    CP:  1.00D+00  3.00D+00
 E= -3555.69376021543     Delta-E=       -0.000966135914 Rises=F Damp=F
 DIIS: error= 1.27D-04 at cycle   3 NSaved=   3.
 NSaved= 3 IEnMin= 3 EnMin= -3555.69376021543     IErMin= 3 ErrMin= 1.27D-04
 ErrMax= 1.27D-04 EMaxC= 1.00D-01 BMatC= 3.46D-06 BMatP= 1.96D-02
 IDIUse=3 WtCom= 9.99D-01 WtEn= 1.27D-03
 Coeff-Com: -0.780D+00 0.104D+01 0.743D+00
 Coeff-En:   0.000D+00 0.000D+00 0.100D+01
 Coeff:     -0.779D+00 0.104D+01 0.744D+00
 Gap=     0.313 Goal=   None    Shift=    0.000
 RMSDP=1.92D-05 MaxDP=1.98D-03 DE=-9.66D-04 OVMax= 5.05D-04

 Cycle   4  Pass 1  IDiag  1:
 RMSU=  7.33D-06    CP:  1.00D+00  3.00D+00  1.06D+00
 E= -3555.69376182318     Delta-E=       -0.000001607743 Rises=F Damp=F
 DIIS: error= 4.92D-05 at cycle   4 NSaved=   4.
 NSaved= 4 IEnMin= 4 EnMin= -3555.69376182318     IErMin= 4 ErrMin= 4.92D-05
 ErrMax= 4.92D-05 EMaxC= 1.00D-01 BMatC= 5.47D-07 BMatP= 3.46D-06
 IDIUse=1 WtCom= 1.00D+00 WtEn= 0.00D+00
 Coeff-Com:  0.331D+00-0.441D+00 0.219D+00 0.891D+00
 Coeff:      0.331D+00-0.441D+00 0.219D+00 0.891D+00
 Gap=     0.313 Goal=   None    Shift=    0.000
 RMSDP=5.80D-06 MaxDP=5.68D-04 DE=-1.61D-06 OVMax= 1.94D-04

 Cycle   5  Pass 1  IDiag  1:
 RMSU=  1.22D-06    CP:  1.00D+00  3.00D+00  1.08D+00  1.32D+00
 E= -3555.69376203993     Delta-E=       -0.000000216759 Rises=F Damp=F
 DIIS: error= 5.27D-06 at cycle   5 NSaved=   5.
 NSaved= 5 IEnMin= 5 EnMin= -3555.69376203993     IErMin= 5 ErrMin= 5.27D-06
 ErrMax= 5.27D-06 EMaxC= 1.00D-01 BMatC= 4.66D-09 BMatP= 5.47D-07
 IDIUse=1 WtCom= 1.00D+00 WtEn= 0.00D+00
 Coeff-Com: -0.629D-01 0.838D-01-0.614D-01-0.121D+00 0.116D+01
 Coeff:     -0.629D-01 0.838D-01-0.614D-01-0.121D+00 0.116D+01
 Gap=     0.313 Goal=   None    Shift=    0.000
 RMSDP=9.35D-07 MaxDP=1.30D-04 DE=-2.17D-07 OVMax= 5.05D-05

 Cycle   6  Pass 1  IDiag  1:
 RMSU=  3.72D-07    CP:  1.00D+00  3.00D+00  1.08D+00  1.38D+00  1.23D+00
 E= -3555.69376204520     Delta-E=       -0.000000005261 Rises=F Damp=F
 DIIS: error= 7.47D-07 at cycle   6 NSaved=   6.
 NSaved= 6 IEnMin= 6 EnMin= -3555.69376204520     IErMin= 6 ErrMin= 7.47D-07
 ErrMax= 7.47D-07 EMaxC= 1.00D-01 BMatC= 7.89D-11 BMatP= 4.66D-09
 IDIUse=1 WtCom= 1.00D+00 WtEn= 0.00D+00
 Coeff-Com: -0.582D-02 0.774D-02-0.203D-02-0.198D-01-0.950D-01 0.111D+01
 Coeff:     -0.582D-02 0.774D-02-0.203D-02-0.198D-01-0.950D-01 0.111D+01
 Gap=     0.313 Goal=   None    Shift=    0.000
 RMSDP=1.53D-07 MaxDP=1.99D-05 DE=-5.26D-09 OVMax= 1.17D-05

 Cycle   7  Pass 1  IDiag  1:
 RMSU=  2.20D-08    CP:  1.00D+00  3.00D+00  1.08D+00  1.39D+00  1.27D+00
                    CP:  1.20D+00
 E= -3555.69376204540     Delta-E=       -0.000000000208 Rises=F Damp=F
 DIIS: error= 1.47D-07 at cycle   7 NSaved=   7.
 NSaved= 7 IEnMin= 7 EnMin= -3555.69376204540     IErMin= 7 ErrMin= 1.47D-07
 ErrMax= 1.47D-07 EMaxC= 1.00D-01 BMatC= 4.91D-12 BMatP= 7.89D-11
 IDIUse=1 WtCom= 1.00D+00 WtEn= 0.00D+00
 Coeff-Com:  0.190D-02-0.253D-02 0.194D-02 0.433D-02-0.460D-01 0.404D-01
 Coeff-Com:  0.100D+01
 Coeff:      0.190D-02-0.253D-02 0.194D-02 0.433D-02-0.460D-01 0.404D-01
 Coeff:      0.100D+01
 Gap=     0.313 Goal=   None    Shift=    0.000
 RMSDP=1.47D-08 MaxDP=1.57D-06 DE=-2.08D-10 OVMax= 3.22D-06

 Cycle   8  Pass 1  IDiag  1:
 RMSU=  4.00D-09    CP:  1.00D+00  3.00D+00  1.08D+00  1.39D+00  1.28D+00
                    CP:  1.21D+00  1.33D+00
 E= -3555.69376204541     Delta-E=       -0.000000000006 Rises=F Damp=F
 DIIS: error= 5.23D-08 at cycle   8 NSaved=   8.
 NSaved= 8 IEnMin= 8 EnMin= -3555.69376204541     IErMin= 8 ErrMin= 5.23D-08
 ErrMax= 5.23D-08 EMaxC= 1.00D-01 BMatC= 9.03D-13 BMatP= 4.91D-12
 IDIUse=1 WtCom= 1.00D+00 WtEn= 0.00D+00
 Coeff-Com:  0.209D-03-0.279D-03-0.186D-03 0.147D-02 0.145D-01-0.136D+00
 Coeff-Com:  0.269D-01 0.109D+01
 Coeff:      0.209D-03-0.279D-03-0.186D-03 0.147D-02 0.145D-01-0.136D+00
 Coeff:      0.269D-01 0.109D+01
 Gap=     0.313 Goal=   None    Shift=    0.000
 RMSDP=6.96D-09 MaxDP=1.00D-06 DE=-5.91D-12 OVMax= 1.22D-06

 Cycle   9  Pass 1  IDiag  1:
 RMSU=  1.21D-09    CP:  1.00D+00  3.00D+00  1.08D+00  1.39D+00  1.28D+00
                    CP:  1.21D+00  1.49D+00  1.58D+00
 E= -3555.69376204542     Delta-E=       -0.000000000008 Rises=F Damp=F
 DIIS: error= 1.38D-08 at cycle   9 NSaved=   9.
 NSaved= 9 IEnMin= 9 EnMin= -3555.69376204542     IErMin= 9 ErrMin= 1.38D-08
 ErrMax= 1.38D-08 EMaxC= 1.00D-01 BMatC= 6.17D-14 BMatP= 9.03D-13
 IDIUse=1 WtCom= 1.00D+00 WtEn= 0.00D+00
 Coeff-Com: -0.156D-03 0.208D-03-0.758D-04-0.661D-03 0.169D-02 0.133D-01
 Coeff-Com: -0.136D-01-0.306D+00 0.131D+01
 Coeff:     -0.156D-03 0.208D-03-0.758D-04-0.661D-03 0.169D-02 0.133D-01
 Coeff:     -0.136D-01-0.306D+00 0.131D+01
 Gap=     0.313 Goal=   None    Shift=    0.000
 RMSDP=3.03D-09 MaxDP=5.10D-07 DE=-8.19D-12 OVMax= 2.28D-07

 Cycle  10  Pass 1  IDiag  1:
 RMSU=  2.22D-10    CP:  1.00D+00  3.00D+00  1.08D+00  1.38D+00  1.28D+00
                    CP:  1.21D+00  1.51D+00  1.77D+00  1.33D+00
 E= -3555.69376204543     Delta-E=       -0.000000000008 Rises=F Damp=F
 DIIS: error= 2.00D-09 at cycle  10 NSaved=  10.
 NSaved=10 IEnMin=10 EnMin= -3555.69376204543     IErMin=10 ErrMin= 2.00D-09
 ErrMax= 2.00D-09 EMaxC= 1.00D-01 BMatC= 9.26D-16 BMatP= 6.17D-14
 IDIUse=1 WtCom= 1.00D+00 WtEn= 0.00D+00
 Coeff-Com:  0.400D-04-0.533D-04 0.275D-04 0.159D-03-0.858D-03-0.103D-02
 Coeff-Com:  0.120D-01 0.338D-01-0.332D+00 0.129D+01
 Coeff:      0.400D-04-0.533D-04 0.275D-04 0.159D-03-0.858D-03-0.103D-02
 Coeff:      0.120D-01 0.338D-01-0.332D+00 0.129D+01
 Gap=     0.313 Goal=   None    Shift=    0.000
 RMSDP=2.49D-10 MaxDP=2.15D-08 DE=-8.19D-12 OVMax= 2.76D-08

 Cycle  11  Pass 1  IDiag  1:
 RMSU=  4.78D-11    CP:  1.00D+00  3.00D+00  1.08D+00  1.38D+00  1.28D+00
                    CP:  1.21D+00  1.51D+00  1.78D+00  1.32D+00  1.51D+00
 E= -3555.69376204542     Delta-E=        0.000000000008 Rises=F Damp=F
 DIIS: error= 3.96D-10 at cycle  11 NSaved=  11.
 NSaved=11 IEnMin=10 EnMin= -3555.69376204543     IErMin=11 ErrMin= 3.96D-10
 ErrMax= 3.96D-10 EMaxC= 1.00D-01 BMatC= 2.82D-17 BMatP= 9.26D-16
 IDIUse=1 WtCom= 1.00D+00 WtEn= 0.00D+00
 Coeff-Com: -0.735D-05 0.979D-05-0.588D-05-0.276D-04 0.203D-03-0.623D-04
 Coeff-Com: -0.152D-02-0.711D-02 0.728D-01-0.390D+00 0.133D+01
 Coeff:     -0.735D-05 0.979D-05-0.588D-05-0.276D-04 0.203D-03-0.623D-04
 Coeff:     -0.152D-02-0.711D-02 0.728D-01-0.390D+00 0.133D+01
 Gap=     0.313 Goal=   None    Shift=    0.000
 RMSDP=6.83D-11 MaxDP=1.11D-08 DE= 7.73D-12 OVMax= 7.57D-09

 Cycle  12  Pass 1  IDiag  1:
 RMSU=  9.20D-12    CP:  1.00D+00  3.00D+00  1.08D+00  1.38D+00  1.28D+00
                    CP:  1.21D+00  1.51D+00  1.77D+00  1.31D+00  1.59D+00
                    CP:  1.30D+00
 E= -3555.69376204543     Delta-E=       -0.000000000007 Rises=F Damp=F
 DIIS: error= 5.67D-11 at cycle  12 NSaved=  12.
 NSaved=12 IEnMin=10 EnMin= -3555.69376204543     IErMin=12 ErrMin= 5.67D-11
 ErrMax= 5.67D-11 EMaxC= 1.00D-01 BMatC= 3.12D-19 BMatP= 2.82D-17
 IDIUse=1 WtCom= 1.00D+00 WtEn= 0.00D+00
 Coeff-Com: -0.647D-06 0.862D-06-0.371D-06-0.281D-05 0.111D-04 0.480D-04
 Coeff-Com: -0.250D-03-0.608D-03 0.459D-02-0.139D-01-0.824D-01 0.109D+01
 Coeff:     -0.647D-06 0.862D-06-0.371D-06-0.281D-05 0.111D-04 0.480D-04
 Coeff:     -0.250D-03-0.608D-03 0.459D-02-0.139D-01-0.824D-01 0.109D+01
 Gap=     0.313 Goal=   None    Shift=    0.000
 RMSDP=9.52D-12 MaxDP=1.26D-09 DE=-7.28D-12 OVMax= 1.14D-09

 SCF Done:  E(ROHF) =  -3555.69376205     A.U. after   12 cycles
             Convg  =    0.9525D-11             -V/T =  2.0000
 <Sx>= 0.0000 <Sy>= 0.0000 <Sz>= 0.0000 <S**2>= 0.0000 S= 0.0000
 <L.S>= 0.000000000000E+00
 KE= 3.555727926395D+03 PE=-8.771499167847D+03 EE= 1.536277248647D+03
 Annihilation of the first spin contaminant:
 S**2 before annihilation     0.0000,   after     0.0000
 Leave Link  502 at Thu Jul 25 17:14:21 2013, MaxMem= 8589934592 cpu:   16891.6
 (Enter /share/apps/gaussian/g09root/g09/l801.exe)
 An orbital has undefined symmetry, so N**3 symmetry is turned off.
 GenMOA:  NOpAll=  8 NOp2=8 NOpUse=  8 JSym2X=1
 FoFCou: FMM=F IPFlag=           0 FMFlag=           0 FMFlg1=           0
         NFxFlg=           0 DoJE=F BraDBF=F KetDBF=F FulRan=T
         Omega=  0.000000  0.000000  1.000000  0.000000  0.000000 ICntrl=       0 IOpCl=  1
         NMat0=    1 NMatS0=    1 NMatT0=    0 NMatD0=    1 NMtDS0=    0 NMtDT0=    0
         I1Cent=           0 NGrid=           0.
 Petite list used in FoFCou.
 <Sx>= 0.0000 <Sy>= 0.0000 <Sz>= 0.0000 <S**2>= 0.0000 S= 0.0000
 Range of M.O.s used for correlation:    19   360
 NBasis=   360 NAE=    30 NBE=    30 NFC=    18 NFV=     0
 NROrb=    342 NOA=    12 NOB=    12 NVA=   330 NVB=   330

 **** Warning!!: The largest alpha MO coefficient is  0.42217807D+02


 **** Warning!!: The largest beta MO coefficient is  0.42217807D+02

 Singles contribution to E2=   -0.6814743655D-14
 Leave Link  801 at Thu Jul 25 17:16:00 2013, MaxMem= 8589934592 cpu:    1567.2
 (Enter /share/apps/gaussian/g09root/g09/l906.exe)
 FulOut=F Deriv=F AODrv=F NAtomX=     2
   MMem=           0  MDisk=          12 MDiskD=          12
  W3Min=     4276800 MinDsk=     3835670 NBas6D=         540
 NBas2D=      149604    NTT=      146070    LW2=    47357950
    MDV=  8588669432 MDiskM=       10141 NBas2p=       62023
 Disk-based method using OVN memory for 12 occupieds at a time.
 Permanent disk used for amplitudes and <ij||ab> integrals=    45694440 words.
 Estimated scratch disk usage=   618679880 words.
 IUseRI=2 ITolRI= 6 IR12RI=0
 IMap=   1   2   3   4   5   6   7   8   9  10  11  12
 Actual    scratch disk usage=   615472712 words.
 JobTyp=2 Pass  1:  I=   1 to  12 NPSUse= 16 ParTrn=T ParDer=T DoDerP=F.
 (rs|ai) integrals will be sorted in core.
 T,EIJ(AA): I=   1 J=   2      0.5965060E-03     -0.5507321E-02
 T,EIJ(AA): I=   1 J=   3      0.5965060E-03     -0.5507321E-02
 T,EIJ(AA): I=   1 J=   4      0.3881227E-03     -0.3305140E-02
 T,EIJ(AA): I=   1 J=   5      0.3881227E-03     -0.3305140E-02
 T,EIJ(AA): I=   1 J=   6      0.3881451E-03     -0.3305527E-02
 T,EIJ(AA): I=   1 J=   7      0.3881451E-03     -0.3305527E-02
 T,EIJ(AA): I=   1 J=   8      0.5968306E-03     -0.5512947E-02
 T,EIJ(AA): I=   1 J=   9      0.5968306E-03     -0.5512947E-02
 T,EIJ(AA): I=   1 J=  10      0.4652578E-06     -0.1694342E-05
 T,EIJ(AA): I=   1 J=  11      0.2566895E-03     -0.1074959E-02
 T,EIJ(AA): I=   1 J=  12      0.2794973E-03     -0.1172317E-02
 T,EIJ(AA): I=   2 J=   3      0.4582246E-03     -0.4043133E-02
 T,EIJ(AA): I=   2 J=   4      0.4581046E-03     -0.4044340E-02
 T,EIJ(AA): I=   2 J=   5      0.4581046E-03     -0.4044340E-02
 T,EIJ(AA): I=   2 J=   6      0.4581747E-03     -0.4044908E-02
 T,EIJ(AA): I=   2 J=   7      0.4581747E-03     -0.4044908E-02
 T,EIJ(AA): I=   2 J=   8      0.2044191E-06     -0.8181790E-06
 T,EIJ(AA): I=   2 J=   9      0.4586659E-03     -0.4047647E-02
 T,EIJ(AA): I=   2 J=  10      0.5978192E-03     -0.5522361E-02
 T,EIJ(AA): I=   2 J=  11      0.2558854E-03     -0.1072639E-02
 T,EIJ(AA): I=   2 J=  12      0.2799626E-03     -0.1176935E-02
 T,EIJ(AA): I=   3 J=   4      0.4581046E-03     -0.4044340E-02
 T,EIJ(AA): I=   3 J=   5      0.4581046E-03     -0.4044340E-02
 T,EIJ(AA): I=   3 J=   6      0.4581747E-03     -0.4044908E-02
 T,EIJ(AA): I=   3 J=   7      0.4581747E-03     -0.4044908E-02
 T,EIJ(AA): I=   3 J=   8      0.4586659E-03     -0.4047647E-02
 T,EIJ(AA): I=   3 J=   9      0.2044191E-06     -0.8181790E-06
 T,EIJ(AA): I=   3 J=  10      0.5978192E-03     -0.5522361E-02
 T,EIJ(AA): I=   3 J=  11      0.2558854E-03     -0.1072639E-02
 T,EIJ(AA): I=   3 J=  12      0.2799626E-03     -0.1176935E-02
 T,EIJ(AA): I=   4 J=   5      0.6664823E-03     -0.6252677E-02
 T,EIJ(AA): I=   4 J=   6      0.7330340E-07     -0.3189081E-06
 T,EIJ(AA): I=   4 J=   7      0.6665480E-03     -0.6253411E-02
 T,EIJ(AA): I=   4 J=   8      0.4587461E-03     -0.4049280E-02
 T,EIJ(AA): I=   4 J=   9      0.4587461E-03     -0.4049280E-02
 T,EIJ(AA): I=   4 J=  10      0.3896803E-03     -0.3316044E-02
 T,EIJ(AA): I=   4 J=  11      0.2507843E-03     -0.1055698E-02
 T,EIJ(AA): I=   4 J=  12      0.2843821E-03     -0.1190179E-02
 T,EIJ(AA): I=   5 J=   6      0.6665480E-03     -0.6253411E-02
 T,EIJ(AA): I=   5 J=   7      0.7330340E-07     -0.3189081E-06
 T,EIJ(AA): I=   5 J=   8      0.4587461E-03     -0.4049280E-02
 T,EIJ(AA): I=   5 J=   9      0.4587461E-03     -0.4049280E-02
 T,EIJ(AA): I=   5 J=  10      0.3896803E-03     -0.3316044E-02
 T,EIJ(AA): I=   5 J=  11      0.2507843E-03     -0.1055698E-02
 T,EIJ(AA): I=   5 J=  12      0.2843821E-03     -0.1190179E-02
 T,EIJ(AA): I=   6 J=   7      0.6666289E-03     -0.6254181E-02
 T,EIJ(AA): I=   6 J=   8      0.4588178E-03     -0.4049794E-02
 T,EIJ(AA): I=   6 J=   9      0.4588178E-03     -0.4049794E-02
 T,EIJ(AA): I=   6 J=  10      0.3897525E-03     -0.3316475E-02
 T,EIJ(AA): I=   6 J=  11      0.2521435E-03     -0.1057600E-02
 T,EIJ(AA): I=   6 J=  12      0.2839714E-03     -0.1189656E-02
 T,EIJ(AA): I=   7 J=   8      0.4588178E-03     -0.4049794E-02
 T,EIJ(AA): I=   7 J=   9      0.4588178E-03     -0.4049794E-02
 T,EIJ(AA): I=   7 J=  10      0.3897525E-03     -0.3316475E-02
 T,EIJ(AA): I=   7 J=  11      0.2521435E-03     -0.1057600E-02
 T,EIJ(AA): I=   7 J=  12      0.2839714E-03     -0.1189656E-02
 T,EIJ(AA): I=   8 J=   9      0.4593234E-03     -0.4052404E-02
 T,EIJ(AA): I=   8 J=  10      0.5987531E-03     -0.5528784E-02
 T,EIJ(AA): I=   8 J=  11      0.2618161E-03     -0.1082355E-02
 T,EIJ(AA): I=   8 J=  12      0.2821245E-03     -0.1180732E-02
 T,EIJ(AA): I=   9 J=  10      0.5987531E-03     -0.5528784E-02
 T,EIJ(AA): I=   9 J=  11      0.2618161E-03     -0.1082355E-02
 T,EIJ(AA): I=   9 J=  12      0.2821245E-03     -0.1180732E-02
 T,EIJ(AA): I=  10 J=  11      0.2666309E-03     -0.1093859E-02
 T,EIJ(AA): I=  10 J=  12      0.2814324E-03     -0.1177386E-02
 T,EIJ(AA): I=  11 J=  12      0.7162959E-03     -0.6571764E-03
 T,EIJ(AB): I=   1 J=   1      0.1030129E-02     -0.9712563E-02
 T,EIJ(AB): I=   1 J=   2      0.6582579E-03     -0.5956422E-02
 T,EIJ(AB): I=   1 J=   3      0.6582579E-03     -0.5956422E-02
 T,EIJ(AB): I=   1 J=   4      0.5694564E-03     -0.5123602E-02
 T,EIJ(AB): I=   1 J=   5      0.5694564E-03     -0.5123602E-02
 T,EIJ(AB): I=   1 J=   6      0.5694814E-03     -0.5124164E-02
 T,EIJ(AB): I=   1 J=   7      0.5694814E-03     -0.5124164E-02
 T,EIJ(AB): I=   1 J=   8      0.6584091E-03     -0.5962003E-02
 T,EIJ(AB): I=   1 J=   9      0.6584091E-03     -0.5962003E-02
 T,EIJ(AB): I=   1 J=  10      0.1028491E-02     -0.9730277E-02
 T,EIJ(AB): I=   1 J=  11      0.4677580E-03     -0.1612546E-02
 T,EIJ(AB): I=   1 J=  12      0.4889628E-03     -0.1730536E-02
 T,EIJ(AB): I=   2 J=   1      0.6582579E-03     -0.5956422E-02
 T,EIJ(AB): I=   2 J=   2      0.1029328E-02     -0.9725661E-02
 T,EIJ(AB): I=   2 J=   3      0.6000818E-03     -0.5406588E-02
 T,EIJ(AB): I=   2 J=   4      0.5999294E-03     -0.5408285E-02
 T,EIJ(AB): I=   2 J=   5      0.5999294E-03     -0.5408285E-02
 T,EIJ(AB): I=   2 J=   6      0.5999667E-03     -0.5408880E-02
 T,EIJ(AB): I=   2 J=   7      0.5999667E-03     -0.5408880E-02
 T,EIJ(AB): I=   2 J=   8      0.1029637E-02     -0.9734805E-02
 T,EIJ(AB): I=   2 J=   9      0.6005458E-03     -0.5412279E-02
 T,EIJ(AB): I=   2 J=  10      0.6588603E-03     -0.5970629E-02
 T,EIJ(AB): I=   2 J=  11      0.4546658E-03     -0.1587996E-02
 T,EIJ(AB): I=   2 J=  12      0.4943007E-03     -0.1740412E-02
 T,EIJ(AB): I=   3 J=   1      0.6582579E-03     -0.5956422E-02
 T,EIJ(AB): I=   3 J=   2      0.6000818E-03     -0.5406588E-02
 T,EIJ(AB): I=   3 J=   3      0.1029328E-02     -0.9725661E-02
 T,EIJ(AB): I=   3 J=   4      0.5999294E-03     -0.5408285E-02
 T,EIJ(AB): I=   3 J=   5      0.5999294E-03     -0.5408285E-02
 T,EIJ(AB): I=   3 J=   6      0.5999667E-03     -0.5408880E-02
 T,EIJ(AB): I=   3 J=   7      0.5999667E-03     -0.5408880E-02
 T,EIJ(AB): I=   3 J=   8      0.6005458E-03     -0.5412279E-02
 T,EIJ(AB): I=   3 J=   9      0.1029637E-02     -0.9734805E-02
 T,EIJ(AB): I=   3 J=  10      0.6588603E-03     -0.5970629E-02
 T,EIJ(AB): I=   3 J=  11      0.4546658E-03     -0.1587996E-02
 T,EIJ(AB): I=   3 J=  12      0.4943007E-03     -0.1740412E-02
 T,EIJ(AB): I=   4 J=   1      0.5694564E-03     -0.5123602E-02
 T,EIJ(AB): I=   4 J=   2      0.5999294E-03     -0.5408285E-02
 T,EIJ(AB): I=   4 J=   3      0.5999294E-03     -0.5408285E-02
 T,EIJ(AB): I=   4 J=   4      0.1029307E-02     -0.9733200E-02
 T,EIJ(AB): I=   4 J=   5      0.6875090E-03     -0.6243414E-02
 T,EIJ(AB): I=   4 J=   6      0.1029278E-02     -0.9734108E-02
 T,EIJ(AB): I=   4 J=   7      0.6875841E-03     -0.6244167E-02
 T,EIJ(AB): I=   4 J=   8      0.6006526E-03     -0.5414525E-02
 T,EIJ(AB): I=   4 J=   9      0.6006526E-03     -0.5414525E-02
 T,EIJ(AB): I=   4 J=  10      0.5725492E-03     -0.5142010E-02
 T,EIJ(AB): I=   4 J=  11      0.4419138E-03     -0.1557965E-02
 T,EIJ(AB): I=   4 J=  12      0.5027502E-03     -0.1760881E-02
 T,EIJ(AB): I=   5 J=   1      0.5694564E-03     -0.5123602E-02
 T,EIJ(AB): I=   5 J=   2      0.5999294E-03     -0.5408285E-02
 T,EIJ(AB): I=   5 J=   3      0.5999294E-03     -0.5408285E-02
 T,EIJ(AB): I=   5 J=   4      0.6875090E-03     -0.6243414E-02
 T,EIJ(AB): I=   5 J=   5      0.1029307E-02     -0.9733200E-02
 T,EIJ(AB): I=   5 J=   6      0.6875841E-03     -0.6244167E-02
 T,EIJ(AB): I=   5 J=   7      0.1029278E-02     -0.9734108E-02
 T,EIJ(AB): I=   5 J=   8      0.6006526E-03     -0.5414525E-02
 T,EIJ(AB): I=   5 J=   9      0.6006526E-03     -0.5414525E-02
 T,EIJ(AB): I=   5 J=  10      0.5725492E-03     -0.5142010E-02
 T,EIJ(AB): I=   5 J=  11      0.4419138E-03     -0.1557965E-02
 T,EIJ(AB): I=   5 J=  12      0.5027502E-03     -0.1760881E-02
 T,EIJ(AB): I=   6 J=   1      0.5694814E-03     -0.5124164E-02
 T,EIJ(AB): I=   6 J=   2      0.5999667E-03     -0.5408880E-02
 T,EIJ(AB): I=   6 J=   3      0.5999667E-03     -0.5408880E-02
 T,EIJ(AB): I=   6 J=   4      0.1029278E-02     -0.9734108E-02
 T,EIJ(AB): I=   6 J=   5      0.6875841E-03     -0.6244167E-02
 T,EIJ(AB): I=   6 J=   6      0.1029507E-02     -0.9735462E-02
 T,EIJ(AB): I=   6 J=   7      0.6876647E-03     -0.6244925E-02
 T,EIJ(AB): I=   6 J=   8      0.6007244E-03     -0.5415166E-02
 T,EIJ(AB): I=   6 J=   9      0.6007244E-03     -0.5415166E-02
 T,EIJ(AB): I=   6 J=  10      0.5726475E-03     -0.5142672E-02
 T,EIJ(AB): I=   6 J=  11      0.4409944E-03     -0.1557018E-02
 T,EIJ(AB): I=   6 J=  12      0.5025368E-03     -0.1760750E-02
 T,EIJ(AB): I=   7 J=   1      0.5694814E-03     -0.5124164E-02
 T,EIJ(AB): I=   7 J=   2      0.5999667E-03     -0.5408880E-02
 T,EIJ(AB): I=   7 J=   3      0.5999667E-03     -0.5408880E-02
 T,EIJ(AB): I=   7 J=   4      0.6875841E-03     -0.6244167E-02
 T,EIJ(AB): I=   7 J=   5      0.1029278E-02     -0.9734108E-02
 T,EIJ(AB): I=   7 J=   6      0.6876647E-03     -0.6244925E-02
 T,EIJ(AB): I=   7 J=   7      0.1029507E-02     -0.9735462E-02
 T,EIJ(AB): I=   7 J=   8      0.6007244E-03     -0.5415166E-02
 T,EIJ(AB): I=   7 J=   9      0.6007244E-03     -0.5415166E-02
 T,EIJ(AB): I=   7 J=  10      0.5726475E-03     -0.5142672E-02
 T,EIJ(AB): I=   7 J=  11      0.4409944E-03     -0.1557018E-02
 T,EIJ(AB): I=   7 J=  12      0.5025368E-03     -0.1760750E-02
 T,EIJ(AB): I=   8 J=   1      0.6584091E-03     -0.5962003E-02
 T,EIJ(AB): I=   8 J=   2      0.1029637E-02     -0.9734805E-02
 T,EIJ(AB): I=   8 J=   3      0.6005458E-03     -0.5412279E-02
 T,EIJ(AB): I=   8 J=   4      0.6006526E-03     -0.5414525E-02
 T,EIJ(AB): I=   8 J=   5      0.6006526E-03     -0.5414525E-02
 T,EIJ(AB): I=   8 J=   6      0.6007244E-03     -0.5415166E-02
 T,EIJ(AB): I=   8 J=   7      0.6007244E-03     -0.5415166E-02
 T,EIJ(AB): I=   8 J=   8      0.1030932E-02     -0.9745360E-02
 T,EIJ(AB): I=   8 J=   9      0.6013033E-03     -0.5418359E-02
 T,EIJ(AB): I=   8 J=  10      0.6597729E-03     -0.5977270E-02
 T,EIJ(AB): I=   8 J=  11      0.4475979E-03     -0.1580004E-02
 T,EIJ(AB): I=   8 J=  12      0.4950813E-03     -0.1741654E-02
 T,EIJ(AB): I=   9 J=   1      0.6584091E-03     -0.5962003E-02
 T,EIJ(AB): I=   9 J=   2      0.6005458E-03     -0.5412279E-02
 T,EIJ(AB): I=   9 J=   3      0.1029637E-02     -0.9734805E-02
 T,EIJ(AB): I=   9 J=   4      0.6006526E-03     -0.5414525E-02
 T,EIJ(AB): I=   9 J=   5      0.6006526E-03     -0.5414525E-02
 T,EIJ(AB): I=   9 J=   6      0.6007244E-03     -0.5415166E-02
 T,EIJ(AB): I=   9 J=   7      0.6007244E-03     -0.5415166E-02
 T,EIJ(AB): I=   9 J=   8      0.6013033E-03     -0.5418359E-02
 T,EIJ(AB): I=   9 J=   9      0.1030932E-02     -0.9745360E-02
 T,EIJ(AB): I=   9 J=  10      0.6597729E-03     -0.5977270E-02
 T,EIJ(AB): I=   9 J=  11      0.4475979E-03     -0.1580004E-02
 T,EIJ(AB): I=   9 J=  12      0.4950813E-03     -0.1741654E-02
 T,EIJ(AB): I=  10 J=   1      0.1028491E-02     -0.9730277E-02
 T,EIJ(AB): I=  10 J=   2      0.6588603E-03     -0.5970629E-02
 T,EIJ(AB): I=  10 J=   3      0.6588603E-03     -0.5970629E-02
 T,EIJ(AB): I=  10 J=   4      0.5725492E-03     -0.5142010E-02
 T,EIJ(AB): I=  10 J=   5      0.5725492E-03     -0.5142010E-02
 T,EIJ(AB): I=  10 J=   6      0.5726475E-03     -0.5142672E-02
 T,EIJ(AB): I=  10 J=   7      0.5726475E-03     -0.5142672E-02
 T,EIJ(AB): I=  10 J=   8      0.6597729E-03     -0.5977270E-02
 T,EIJ(AB): I=  10 J=   9      0.6597729E-03     -0.5977270E-02
 T,EIJ(AB): I=  10 J=  10      0.1030752E-02     -0.9754079E-02
 T,EIJ(AB): I=  10 J=  11      0.4463539E-03     -0.1585348E-02
 T,EIJ(AB): I=  10 J=  12      0.4936785E-03     -0.1735808E-02
 T,EIJ(AB): I=  11 J=   1      0.4677580E-03     -0.1612546E-02
 T,EIJ(AB): I=  11 J=   2      0.4546658E-03     -0.1587996E-02
 T,EIJ(AB): I=  11 J=   3      0.4546658E-03     -0.1587996E-02
 T,EIJ(AB): I=  11 J=   4      0.4419138E-03     -0.1557965E-02
 T,EIJ(AB): I=  11 J=   5      0.4419138E-03     -0.1557965E-02
 T,EIJ(AB): I=  11 J=   6      0.4409944E-03     -0.1557018E-02
 T,EIJ(AB): I=  11 J=   7      0.4409944E-03     -0.1557018E-02
 T,EIJ(AB): I=  11 J=   8      0.4475979E-03     -0.1580004E-02
 T,EIJ(AB): I=  11 J=   9      0.4475979E-03     -0.1580004E-02
 T,EIJ(AB): I=  11 J=  10      0.4463539E-03     -0.1585348E-02
 T,EIJ(AB): I=  11 J=  11      0.1198329E-01     -0.1262429E-01
 T,EIJ(AB): I=  11 J=  12      0.1115512E-01     -0.1189035E-01
 T,EIJ(AB): I=  12 J=   1      0.4889628E-03     -0.1730536E-02
 T,EIJ(AB): I=  12 J=   2      0.4943007E-03     -0.1740412E-02
 T,EIJ(AB): I=  12 J=   3      0.4943007E-03     -0.1740412E-02
 T,EIJ(AB): I=  12 J=   4      0.5027502E-03     -0.1760881E-02
 T,EIJ(AB): I=  12 J=   5      0.5027502E-03     -0.1760881E-02
 T,EIJ(AB): I=  12 J=   6      0.5025368E-03     -0.1760750E-02
 T,EIJ(AB): I=  12 J=   7      0.5025368E-03     -0.1760750E-02
 T,EIJ(AB): I=  12 J=   8      0.4950813E-03     -0.1741654E-02
 T,EIJ(AB): I=  12 J=   9      0.4950813E-03     -0.1741654E-02
 T,EIJ(AB): I=  12 J=  10      0.4936785E-03     -0.1735808E-02
 T,EIJ(AB): I=  12 J=  11      0.1115512E-01     -0.1189035E-01
 T,EIJ(AB): I=  12 J=  12      0.1432609E-01     -0.1426624E-01
 IMap=   1   2   3   4   5   6   7   8   9  10  11  12
 Actual    scratch disk usage=   615472712 words.
 JobTyp=3 Pass  1:  I=   1 to  12 NPSUse= 16 ParTrn=T ParDer=T DoDerP=F.
 (rs|ai) integrals will be sorted in core.
 T,EIJ(BB): I=   1 J=   2      0.5965060E-03     -0.5507321E-02
 T,EIJ(BB): I=   1 J=   3      0.5965060E-03     -0.5507321E-02
 T,EIJ(BB): I=   1 J=   4      0.3881227E-03     -0.3305140E-02
 T,EIJ(BB): I=   1 J=   5      0.3881227E-03     -0.3305140E-02
 T,EIJ(BB): I=   1 J=   6      0.3881451E-03     -0.3305527E-02
 T,EIJ(BB): I=   1 J=   7      0.3881451E-03     -0.3305527E-02
 T,EIJ(BB): I=   1 J=   8      0.5968306E-03     -0.5512947E-02
 T,EIJ(BB): I=   1 J=   9      0.5968306E-03     -0.5512947E-02
 T,EIJ(BB): I=   1 J=  10      0.4652578E-06     -0.1694342E-05
 T,EIJ(BB): I=   1 J=  11      0.2566895E-03     -0.1074959E-02
 T,EIJ(BB): I=   1 J=  12      0.2794973E-03     -0.1172317E-02
 T,EIJ(BB): I=   2 J=   3      0.4582246E-03     -0.4043133E-02
 T,EIJ(BB): I=   2 J=   4      0.4581046E-03     -0.4044340E-02
 T,EIJ(BB): I=   2 J=   5      0.4581046E-03     -0.4044340E-02
 T,EIJ(BB): I=   2 J=   6      0.4581747E-03     -0.4044908E-02
 T,EIJ(BB): I=   2 J=   7      0.4581747E-03     -0.4044908E-02
 T,EIJ(BB): I=   2 J=   8      0.2044191E-06     -0.8181790E-06
 T,EIJ(BB): I=   2 J=   9      0.4586659E-03     -0.4047647E-02
 T,EIJ(BB): I=   2 J=  10      0.5978192E-03     -0.5522361E-02
 T,EIJ(BB): I=   2 J=  11      0.2558854E-03     -0.1072639E-02
 T,EIJ(BB): I=   2 J=  12      0.2799626E-03     -0.1176935E-02
 T,EIJ(BB): I=   3 J=   4      0.4581046E-03     -0.4044340E-02
 T,EIJ(BB): I=   3 J=   5      0.4581046E-03     -0.4044340E-02
 T,EIJ(BB): I=   3 J=   6      0.4581747E-03     -0.4044908E-02
 T,EIJ(BB): I=   3 J=   7      0.4581747E-03     -0.4044908E-02
 T,EIJ(BB): I=   3 J=   8      0.4586659E-03     -0.4047647E-02
 T,EIJ(BB): I=   3 J=   9      0.2044191E-06     -0.8181790E-06
 T,EIJ(BB): I=   3 J=  10      0.5978192E-03     -0.5522361E-02
 T,EIJ(BB): I=   3 J=  11      0.2558854E-03     -0.1072639E-02
 T,EIJ(BB): I=   3 J=  12      0.2799626E-03     -0.1176935E-02
 T,EIJ(BB): I=   4 J=   5      0.6664823E-03     -0.6252677E-02
 T,EIJ(BB): I=   4 J=   6      0.7330340E-07     -0.3189081E-06
 T,EIJ(BB): I=   4 J=   7      0.6665480E-03     -0.6253411E-02
 T,EIJ(BB): I=   4 J=   8      0.4587461E-03     -0.4049280E-02
 T,EIJ(BB): I=   4 J=   9      0.4587461E-03     -0.4049280E-02
 T,EIJ(BB): I=   4 J=  10      0.3896803E-03     -0.3316044E-02
 T,EIJ(BB): I=   4 J=  11      0.2507843E-03     -0.1055698E-02
 T,EIJ(BB): I=   4 J=  12      0.2843821E-03     -0.1190179E-02
 T,EIJ(BB): I=   5 J=   6      0.6665480E-03     -0.6253411E-02
 T,EIJ(BB): I=   5 J=   7      0.7330340E-07     -0.3189081E-06
 T,EIJ(BB): I=   5 J=   8      0.4587461E-03     -0.4049280E-02
 T,EIJ(BB): I=   5 J=   9      0.4587461E-03     -0.4049280E-02
 T,EIJ(BB): I=   5 J=  10      0.3896803E-03     -0.3316044E-02
 T,EIJ(BB): I=   5 J=  11      0.2507843E-03     -0.1055698E-02
 T,EIJ(BB): I=   5 J=  12      0.2843821E-03     -0.1190179E-02
 T,EIJ(BB): I=   6 J=   7      0.6666289E-03     -0.6254181E-02
 T,EIJ(BB): I=   6 J=   8      0.4588178E-03     -0.4049794E-02
 T,EIJ(BB): I=   6 J=   9      0.4588178E-03     -0.4049794E-02
 T,EIJ(BB): I=   6 J=  10      0.3897525E-03     -0.3316475E-02
 T,EIJ(BB): I=   6 J=  11      0.2521435E-03     -0.1057600E-02
 T,EIJ(BB): I=   6 J=  12      0.2839714E-03     -0.1189656E-02
 T,EIJ(BB): I=   7 J=   8      0.4588178E-03     -0.4049794E-02
 T,EIJ(BB): I=   7 J=   9      0.4588178E-03     -0.4049794E-02
 T,EIJ(BB): I=   7 J=  10      0.3897525E-03     -0.3316475E-02
 T,EIJ(BB): I=   7 J=  11      0.2521435E-03     -0.1057600E-02
 T,EIJ(BB): I=   7 J=  12      0.2839714E-03     -0.1189656E-02
 T,EIJ(BB): I=   8 J=   9      0.4593234E-03     -0.4052404E-02
 T,EIJ(BB): I=   8 J=  10      0.5987531E-03     -0.5528784E-02
 T,EIJ(BB): I=   8 J=  11      0.2618161E-03     -0.1082355E-02
 T,EIJ(BB): I=   8 J=  12      0.2821245E-03     -0.1180732E-02
 T,EIJ(BB): I=   9 J=  10      0.5987531E-03     -0.5528784E-02
 T,EIJ(BB): I=   9 J=  11      0.2618161E-03     -0.1082355E-02
 T,EIJ(BB): I=   9 J=  12      0.2821245E-03     -0.1180732E-02
 T,EIJ(BB): I=  10 J=  11      0.2666309E-03     -0.1093859E-02
 T,EIJ(BB): I=  10 J=  12      0.2814324E-03     -0.1177386E-02
 T,EIJ(BB): I=  11 J=  12      0.7162959E-03     -0.6571764E-03
 Spin components of T(2) and E(2):
     alpha-alpha T2 =       0.2583138458D-01 E2=     -0.1997782510D+00
     alpha-beta  T2 =       0.1373177365D+00 E2=     -0.7558509320D+00
     beta-beta   T2 =       0.2583138458D-01 E2=     -0.1997782510D+00
 The integrals were generated   2 times.
 ANorm=    0.1090403827D+01
 E2 =    -0.1155407434D+01 EUMP2 =    -0.35568491694794D+04
 Leave Link  906 at Thu Jul 25 17:19:42 2013, MaxMem= 8589934592 cpu:    3242.6
 (Enter /share/apps/gaussian/g09root/g09/l904.exe)

 Complete Basis Set (CBS) Extrapolation:
 M. R. Nyden and G. A. Petersson, JCP 75, 1843 (1981)
 G. A. Petersson and M. A. Al-Laham, JCP 94, 6081 (1991)
 G. A. Petersson, T. Tensfeldt, and J. A. Montgomery, JCP 94, 6091 (1991)
 J. A. Montgomery, J. W. Ochterski, and G. A. Petersson, JCP 101, 5900 (1994)
 
 Available Memory in CBS = 8589934592
 Minimum Number of PNO for Extrapolation =  15
 Absolute Overlaps: IRadAn =         5
 LocTrn: ILocal=3 LocCor=F DoCore=F.
 Entering OneElI...
 Overlap between basis sets.
 Requested accuracy = 0.1000D-12
 PrsmSu:  NPrtUS=   1 ThrOK=F IAlg=1
 PRISM was handed  8589362365 working-precision words and    76 shell-pairs
 IPart=  0 NShTot=          76 NBatch=          13 AvBLen=         5.8
 CnvPC2: ToCart=F DoDens=F IPureD=0 IPureF=0.
 Transformed matrix in CnvPC2: 
                 1             2             3             4             5 
      1   0.100000D+01  0.397781D+00  0.000000D+00  0.000000D+00  0.000000D+00
      2   0.397781D+00  0.100000D+01  0.000000D+00  0.000000D+00  0.000000D+00
      3   0.000000D+00  0.000000D+00  0.100000D+01  0.000000D+00  0.000000D+00
      4   0.000000D+00  0.000000D+00  0.000000D+00  0.100000D+01  0.000000D+00
      5   0.000000D+00  0.000000D+00  0.000000D+00  0.000000D+00  0.100000D+01
      6   0.273329D-01  0.326933D+00  0.000000D+00  0.000000D+00  0.000000D+00
      7   0.000000D+00  0.000000D+00  0.339871D+00  0.000000D+00  0.000000D+00
      8   0.000000D+00  0.000000D+00  0.000000D+00  0.339871D+00  0.000000D+00
      9   0.000000D+00  0.000000D+00  0.000000D+00  0.000000D+00  0.339871D+00
     10   0.000000D+00  0.000000D+00  0.000000D+00  0.000000D+00  0.000000D+00
     11   0.000000D+00  0.000000D+00  0.000000D+00  0.000000D+00  0.000000D+00
     12   0.000000D+00  0.000000D+00  0.000000D+00  0.000000D+00  0.000000D+00
     13   0.000000D+00  0.000000D+00  0.000000D+00  0.000000D+00  0.000000D+00
     14   0.000000D+00  0.000000D+00  0.000000D+00  0.000000D+00  0.000000D+00
     15  -0.379176D-03  0.483794D-02  0.000000D+00  0.000000D+00  0.000000D+00
     16   0.000000D+00  0.000000D+00  0.130039D-01  0.000000D+00  0.000000D+00
     17   0.000000D+00  0.000000D+00  0.000000D+00  0.130039D-01  0.000000D+00
     18   0.000000D+00  0.000000D+00  0.000000D+00  0.000000D+00  0.130039D-01
     19   0.000000D+00  0.000000D+00  0.000000D+00  0.000000D+00  0.000000D+00
     20   0.000000D+00  0.000000D+00  0.000000D+00  0.000000D+00  0.000000D+00
     21   0.000000D+00  0.000000D+00  0.000000D+00  0.000000D+00  0.000000D+00
     22   0.000000D+00  0.000000D+00  0.000000D+00  0.000000D+00  0.000000D+00
     23   0.000000D+00  0.000000D+00  0.000000D+00  0.000000D+00  0.000000D+00
     24   0.000000D+00  0.000000D+00  0.000000D+00  0.000000D+00  0.000000D+00
     25   0.000000D+00  0.000000D+00  0.000000D+00  0.000000D+00  0.000000D+00
     26   0.000000D+00  0.000000D+00  0.000000D+00  0.000000D+00  0.000000D+00
     27   0.000000D+00  0.000000D+00  0.000000D+00  0.000000D+00  0.000000D+00
     28   0.000000D+00  0.000000D+00  0.000000D+00  0.000000D+00  0.000000D+00
     29   0.000000D+00  0.000000D+00  0.000000D+00  0.000000D+00  0.000000D+00
     30   0.000000D+00  0.000000D+00  0.000000D+00  0.000000D+00  0.000000D+00
     31   0.000000D+00  0.000000D+00  0.000000D+00  0.000000D+00  0.000000D+00
     32   0.000000D+00  0.000000D+00  0.000000D+00  0.000000D+00  0.000000D+00
     33   0.772375D-05  0.508838D-04  0.000000D+00  0.000000D+00 -0.196435D-04
     34   0.000000D+00  0.000000D+00  0.345069D-05  0.000000D+00  0.000000D+00
     35   0.000000D+00  0.000000D+00  0.000000D+00  0.345069D-05  0.000000D+00
     36   0.207710D-04  0.135529D-03  0.000000D+00  0.000000D+00 -0.489316D-04
                 6             7             8             9            10 
      1   0.273329D-01  0.000000D+00  0.000000D+00  0.000000D+00  0.000000D+00
      2   0.326933D+00  0.000000D+00  0.000000D+00  0.000000D+00  0.000000D+00
      3   0.000000D+00  0.339871D+00  0.000000D+00  0.000000D+00  0.000000D+00
      4   0.000000D+00  0.000000D+00  0.339871D+00  0.000000D+00  0.000000D+00
      5   0.000000D+00  0.000000D+00  0.000000D+00  0.339871D+00  0.000000D+00
      6   0.100000D+01  0.000000D+00  0.000000D+00  0.000000D+00  0.000000D+00
      7   0.000000D+00  0.100000D+01  0.000000D+00  0.000000D+00  0.000000D+00
      8   0.000000D+00  0.000000D+00  0.100000D+01  0.000000D+00  0.000000D+00
      9   0.000000D+00  0.000000D+00  0.000000D+00  0.100000D+01  0.000000D+00
     10   0.000000D+00  0.000000D+00  0.000000D+00  0.000000D+00  0.100000D+01
     11   0.000000D+00  0.000000D+00  0.000000D+00  0.000000D+00  0.000000D+00
     12   0.000000D+00  0.000000D+00  0.000000D+00  0.000000D+00  0.000000D+00
     13   0.000000D+00  0.000000D+00  0.000000D+00  0.000000D+00  0.000000D+00
     14   0.000000D+00  0.000000D+00  0.000000D+00  0.000000D+00  0.000000D+00
     15   0.204897D+00  0.000000D+00  0.000000D+00  0.000000D+00  0.000000D+00
     16   0.000000D+00  0.221280D+00  0.000000D+00  0.000000D+00  0.000000D+00
     17   0.000000D+00  0.000000D+00  0.221280D+00  0.000000D+00  0.000000D+00
     18   0.000000D+00  0.000000D+00  0.000000D+00  0.221280D+00  0.000000D+00
     19   0.000000D+00  0.000000D+00  0.000000D+00  0.000000D+00  0.000000D+00
     20   0.000000D+00  0.000000D+00  0.000000D+00  0.000000D+00  0.000000D+00
     21   0.000000D+00  0.000000D+00  0.000000D+00  0.000000D+00  0.000000D+00
     22   0.000000D+00  0.000000D+00  0.000000D+00  0.000000D+00  0.000000D+00
     23   0.000000D+00  0.000000D+00  0.000000D+00  0.000000D+00  0.000000D+00
     24   0.000000D+00  0.000000D+00  0.000000D+00  0.000000D+00  0.000000D+00
     25   0.000000D+00  0.000000D+00  0.000000D+00  0.000000D+00  0.000000D+00
     26   0.000000D+00  0.000000D+00  0.000000D+00  0.000000D+00  0.000000D+00
     27   0.000000D+00  0.000000D+00  0.000000D+00  0.000000D+00  0.000000D+00
     28   0.000000D+00  0.000000D+00  0.000000D+00  0.000000D+00  0.000000D+00
     29   0.000000D+00  0.000000D+00  0.000000D+00  0.000000D+00  0.000000D+00
     30   0.000000D+00  0.000000D+00  0.000000D+00  0.000000D+00  0.000000D+00
     31   0.000000D+00  0.000000D+00  0.000000D+00  0.000000D+00  0.000000D+00
     32   0.000000D+00  0.000000D+00  0.000000D+00  0.000000D+00  0.000000D+00
     33   0.450449D-03  0.000000D+00  0.000000D+00 -0.460467D-03  0.337663D-03
     34   0.000000D+00  0.809818D-04  0.000000D+00  0.000000D+00  0.000000D+00
     35   0.000000D+00  0.000000D+00  0.809818D-04  0.000000D+00  0.000000D+00
     36   0.110614D-02  0.000000D+00  0.000000D+00 -0.106328D-02  0.717946D-03
                11            12            13            14            15 
      1   0.000000D+00  0.000000D+00  0.000000D+00  0.000000D+00 -0.379176D-03
      2   0.000000D+00  0.000000D+00  0.000000D+00  0.000000D+00  0.483794D-02
      3   0.000000D+00  0.000000D+00  0.000000D+00  0.000000D+00  0.000000D+00
      4   0.000000D+00  0.000000D+00  0.000000D+00  0.000000D+00  0.000000D+00
      5   0.000000D+00  0.000000D+00  0.000000D+00  0.000000D+00  0.000000D+00
      6   0.000000D+00  0.000000D+00  0.000000D+00  0.000000D+00  0.204897D+00
      7   0.000000D+00  0.000000D+00  0.000000D+00  0.000000D+00  0.000000D+00
      8   0.000000D+00  0.000000D+00  0.000000D+00  0.000000D+00  0.000000D+00
      9   0.000000D+00  0.000000D+00  0.000000D+00  0.000000D+00  0.000000D+00
     10   0.000000D+00  0.000000D+00  0.000000D+00  0.000000D+00  0.000000D+00
     11   0.100000D+01  0.000000D+00  0.000000D+00  0.000000D+00  0.000000D+00
     12   0.000000D+00  0.100000D+01  0.000000D+00  0.000000D+00  0.000000D+00
     13   0.000000D+00  0.000000D+00  0.100000D+01  0.000000D+00  0.000000D+00
     14   0.000000D+00  0.000000D+00  0.000000D+00  0.100000D+01  0.000000D+00
     15   0.000000D+00  0.000000D+00  0.000000D+00  0.000000D+00  0.100000D+01
     16   0.000000D+00  0.000000D+00  0.000000D+00  0.000000D+00  0.000000D+00
     17   0.000000D+00  0.000000D+00  0.000000D+00  0.000000D+00  0.000000D+00
     18   0.000000D+00  0.000000D+00  0.000000D+00  0.000000D+00  0.000000D+00
     19   0.000000D+00  0.000000D+00  0.000000D+00  0.000000D+00  0.772375D-05
     20   0.000000D+00  0.000000D+00  0.000000D+00  0.000000D+00  0.508838D-04
     21   0.000000D+00  0.000000D+00  0.000000D+00  0.000000D+00  0.000000D+00
     22   0.000000D+00  0.000000D+00  0.000000D+00  0.000000D+00  0.000000D+00
     23   0.000000D+00  0.000000D+00  0.000000D+00  0.000000D+00  0.196435D-04
     24   0.000000D+00  0.000000D+00  0.000000D+00  0.000000D+00  0.450449D-03
     25   0.000000D+00  0.000000D+00  0.000000D+00  0.000000D+00  0.000000D+00
     26   0.000000D+00  0.000000D+00  0.000000D+00  0.000000D+00  0.000000D+00
     27   0.000000D+00  0.000000D+00  0.000000D+00  0.000000D+00  0.460467D-03
     28   0.000000D+00  0.000000D+00  0.000000D+00  0.000000D+00  0.337663D-03
     29   0.000000D+00  0.000000D+00  0.000000D+00  0.000000D+00  0.000000D+00
     30   0.000000D+00  0.000000D+00  0.000000D+00  0.000000D+00  0.000000D+00
     31   0.000000D+00  0.000000D+00  0.000000D+00  0.000000D+00  0.000000D+00
     32   0.000000D+00  0.000000D+00  0.000000D+00  0.000000D+00  0.000000D+00
     33   0.000000D+00  0.000000D+00  0.000000D+00  0.000000D+00  0.273593D-01
     34  -0.103051D-03  0.000000D+00  0.000000D+00  0.000000D+00  0.000000D+00
     35   0.000000D+00 -0.103051D-03  0.000000D+00  0.000000D+00  0.000000D+00
     36   0.000000D+00  0.000000D+00  0.000000D+00  0.000000D+00  0.438180D-01
                16            17            18            19            20 
      1   0.000000D+00  0.000000D+00  0.000000D+00  0.000000D+00  0.000000D+00
      2   0.000000D+00  0.000000D+00  0.000000D+00  0.000000D+00  0.000000D+00
      3   0.130039D-01  0.000000D+00  0.000000D+00  0.000000D+00  0.000000D+00
      4   0.000000D+00  0.130039D-01  0.000000D+00  0.000000D+00  0.000000D+00
      5   0.000000D+00  0.000000D+00  0.130039D-01  0.000000D+00  0.000000D+00
      6   0.000000D+00  0.000000D+00  0.000000D+00  0.000000D+00  0.000000D+00
      7   0.221280D+00  0.000000D+00  0.000000D+00  0.000000D+00  0.000000D+00
      8   0.000000D+00  0.221280D+00  0.000000D+00  0.000000D+00  0.000000D+00
      9   0.000000D+00  0.000000D+00  0.221280D+00  0.000000D+00  0.000000D+00
     10   0.000000D+00  0.000000D+00  0.000000D+00  0.000000D+00  0.000000D+00
     11   0.000000D+00  0.000000D+00  0.000000D+00  0.000000D+00  0.000000D+00
     12   0.000000D+00  0.000000D+00  0.000000D+00  0.000000D+00  0.000000D+00
     13   0.000000D+00  0.000000D+00  0.000000D+00  0.000000D+00  0.000000D+00
     14   0.000000D+00  0.000000D+00  0.000000D+00  0.000000D+00  0.000000D+00
     15   0.000000D+00  0.000000D+00  0.000000D+00  0.772375D-05  0.508838D-04
     16   0.100000D+01  0.000000D+00  0.000000D+00  0.000000D+00  0.000000D+00
     17   0.000000D+00  0.100000D+01  0.000000D+00  0.000000D+00  0.000000D+00
     18   0.000000D+00  0.000000D+00  0.100000D+01 -0.207710D-04 -0.135529D-03
     19   0.000000D+00  0.000000D+00 -0.207710D-04  0.100000D+01  0.397781D+00
     20   0.000000D+00  0.000000D+00 -0.135529D-03  0.397781D+00  0.100000D+01
     21   0.345069D-05  0.000000D+00  0.000000D+00  0.000000D+00  0.000000D+00
     22   0.000000D+00  0.345069D-05  0.000000D+00  0.000000D+00  0.000000D+00
     23   0.000000D+00  0.000000D+00 -0.489316D-04  0.000000D+00  0.000000D+00
     24   0.000000D+00  0.000000D+00 -0.110614D-02  0.273329D-01  0.326933D+00
     25   0.809818D-04  0.000000D+00  0.000000D+00  0.000000D+00  0.000000D+00
     26   0.000000D+00  0.809818D-04  0.000000D+00  0.000000D+00  0.000000D+00
     27   0.000000D+00  0.000000D+00 -0.106328D-02  0.000000D+00  0.000000D+00
     28   0.000000D+00  0.000000D+00 -0.717946D-03  0.000000D+00  0.000000D+00
     29   0.103051D-03  0.000000D+00  0.000000D+00  0.000000D+00  0.000000D+00
     30   0.000000D+00  0.103051D-03  0.000000D+00  0.000000D+00  0.000000D+00
     31   0.000000D+00  0.000000D+00  0.000000D+00  0.000000D+00  0.000000D+00
     32   0.000000D+00  0.000000D+00  0.000000D+00  0.000000D+00  0.000000D+00
     33   0.000000D+00  0.000000D+00 -0.438180D-01 -0.379176D-03  0.483794D-02
     34   0.905439D-02  0.000000D+00  0.000000D+00  0.000000D+00  0.000000D+00
     35   0.000000D+00  0.905439D-02  0.000000D+00  0.000000D+00  0.000000D+00
     36   0.000000D+00  0.000000D+00 -0.679418D-01  0.000000D+00  0.000000D+00
                21            22            23            24            25 
      1   0.000000D+00  0.000000D+00  0.000000D+00  0.000000D+00  0.000000D+00
      2   0.000000D+00  0.000000D+00  0.000000D+00  0.000000D+00  0.000000D+00
      3   0.000000D+00  0.000000D+00  0.000000D+00  0.000000D+00  0.000000D+00
      4   0.000000D+00  0.000000D+00  0.000000D+00  0.000000D+00  0.000000D+00
      5   0.000000D+00  0.000000D+00  0.000000D+00  0.000000D+00  0.000000D+00
      6   0.000000D+00  0.000000D+00  0.000000D+00  0.000000D+00  0.000000D+00
      7   0.000000D+00  0.000000D+00  0.000000D+00  0.000000D+00  0.000000D+00
      8   0.000000D+00  0.000000D+00  0.000000D+00  0.000000D+00  0.000000D+00
      9   0.000000D+00  0.000000D+00  0.000000D+00  0.000000D+00  0.000000D+00
     10   0.000000D+00  0.000000D+00  0.000000D+00  0.000000D+00  0.000000D+00
     11   0.000000D+00  0.000000D+00  0.000000D+00  0.000000D+00  0.000000D+00
     12   0.000000D+00  0.000000D+00  0.000000D+00  0.000000D+00  0.000000D+00
     13   0.000000D+00  0.000000D+00  0.000000D+00  0.000000D+00  0.000000D+00
     14   0.000000D+00  0.000000D+00  0.000000D+00  0.000000D+00  0.000000D+00
     15   0.000000D+00  0.000000D+00  0.196435D-04  0.450449D-03  0.000000D+00
     16   0.345069D-05  0.000000D+00  0.000000D+00  0.000000D+00  0.809818D-04
     17   0.000000D+00  0.345069D-05  0.000000D+00  0.000000D+00  0.000000D+00
     18   0.000000D+00  0.000000D+00 -0.489316D-04 -0.110614D-02  0.000000D+00
     19   0.000000D+00  0.000000D+00  0.000000D+00  0.273329D-01  0.000000D+00
     20   0.000000D+00  0.000000D+00  0.000000D+00  0.326933D+00  0.000000D+00
     21   0.100000D+01  0.000000D+00  0.000000D+00  0.000000D+00  0.339871D+00
     22   0.000000D+00  0.100000D+01  0.000000D+00  0.000000D+00  0.000000D+00
     23   0.000000D+00  0.000000D+00  0.100000D+01  0.000000D+00  0.000000D+00
     24   0.000000D+00  0.000000D+00  0.000000D+00  0.100000D+01  0.000000D+00
     25   0.339871D+00  0.000000D+00  0.000000D+00  0.000000D+00  0.100000D+01
     26   0.000000D+00  0.339871D+00  0.000000D+00  0.000000D+00  0.000000D+00
     27   0.000000D+00  0.000000D+00  0.339871D+00  0.000000D+00  0.000000D+00
     28   0.000000D+00  0.000000D+00  0.000000D+00  0.000000D+00  0.000000D+00
     29   0.000000D+00  0.000000D+00  0.000000D+00  0.000000D+00  0.000000D+00
     30   0.000000D+00  0.000000D+00  0.000000D+00  0.000000D+00  0.000000D+00
     31   0.000000D+00  0.000000D+00  0.000000D+00  0.000000D+00  0.000000D+00
     32   0.000000D+00  0.000000D+00  0.000000D+00  0.000000D+00  0.000000D+00
     33   0.000000D+00  0.000000D+00  0.000000D+00  0.204897D+00  0.000000D+00
     34   0.130039D-01  0.000000D+00  0.000000D+00  0.000000D+00  0.221280D+00
     35   0.000000D+00  0.130039D-01  0.000000D+00  0.000000D+00  0.000000D+00
     36   0.000000D+00  0.000000D+00  0.130039D-01  0.000000D+00  0.000000D+00
                26            27            28            29            30 
      1   0.000000D+00  0.000000D+00  0.000000D+00  0.000000D+00  0.000000D+00
      2   0.000000D+00  0.000000D+00  0.000000D+00  0.000000D+00  0.000000D+00
      3   0.000000D+00  0.000000D+00  0.000000D+00  0.000000D+00  0.000000D+00
      4   0.000000D+00  0.000000D+00  0.000000D+00  0.000000D+00  0.000000D+00
      5   0.000000D+00  0.000000D+00  0.000000D+00  0.000000D+00  0.000000D+00
      6   0.000000D+00  0.000000D+00  0.000000D+00  0.000000D+00  0.000000D+00
      7   0.000000D+00  0.000000D+00  0.000000D+00  0.000000D+00  0.000000D+00
      8   0.000000D+00  0.000000D+00  0.000000D+00  0.000000D+00  0.000000D+00
      9   0.000000D+00  0.000000D+00  0.000000D+00  0.000000D+00  0.000000D+00
     10   0.000000D+00  0.000000D+00  0.000000D+00  0.000000D+00  0.000000D+00
     11   0.000000D+00  0.000000D+00  0.000000D+00  0.000000D+00  0.000000D+00
     12   0.000000D+00  0.000000D+00  0.000000D+00  0.000000D+00  0.000000D+00
     13   0.000000D+00  0.000000D+00  0.000000D+00  0.000000D+00  0.000000D+00
     14   0.000000D+00  0.000000D+00  0.000000D+00  0.000000D+00  0.000000D+00
     15   0.000000D+00  0.460467D-03  0.337663D-03  0.000000D+00  0.000000D+00
     16   0.000000D+00  0.000000D+00  0.000000D+00  0.103051D-03  0.000000D+00
     17   0.809818D-04  0.000000D+00  0.000000D+00  0.000000D+00  0.103051D-03
     18   0.000000D+00 -0.106328D-02 -0.717946D-03  0.000000D+00  0.000000D+00
     19   0.000000D+00  0.000000D+00  0.000000D+00  0.000000D+00  0.000000D+00
     20   0.000000D+00  0.000000D+00  0.000000D+00  0.000000D+00  0.000000D+00
[...]
                                                  ----------
                         Total pair energies =    -1.183549 A.U.

                         Single Excitations  =     0.000000 A.U.

                          Total second order =    -1.183549 A.U.



            MP2(CBS) (With Interference Correction) 
            ---------------------------------------

 AB - AA |     19        20        21        22        23        24
 BA - BB |     19        20        21        22        23        24
----------------------------------------------------------------------
   19    | -0.019952 -0.008131  0.000000 -0.000001 -0.000030  0.000000
   19    |  0.000000 -0.008131  0.000000 -0.000001 -0.000030  0.000000
         |
   20    | -0.011082 -0.019960  0.000000 -0.000001 -0.000020  0.000000
   20    | -0.011082  0.000000  0.000000 -0.000001 -0.000020  0.000000
         |
   21    |  0.000000  0.000000 -0.019958 -0.006978 -0.002318 -0.012142
   21    |  0.000000  0.000000  0.000000 -0.006978 -0.002318 -0.012142
         |
   22    | -0.000001 -0.000001 -0.010643 -0.019586 -0.002276 -0.006712
   22    | -0.000001 -0.000001 -0.010643  0.000000 -0.002276 -0.006712
         |
   23    | -0.000032 -0.000022 -0.003410 -0.003817 -0.024275 -0.002315
   23    | -0.000032 -0.000022 -0.003410 -0.003817  0.000000 -0.002315
         |
   24    |  0.000000  0.000000 -0.012583 -0.010548 -0.003400 -0.019959
   24    |  0.000000  0.000000 -0.012583 -0.010548 -0.003400  0.000000
         |
   25    | -0.012041 -0.010517 -0.000001 -0.000001 -0.000036 -0.000001
   25    | -0.012041 -0.010517 -0.000001 -0.000001 -0.000036 -0.000001
         |
   26    | -0.003544 -0.003397 -0.000023 -0.000036 -0.000942 -0.000022
   26    | -0.003544 -0.003397 -0.000023 -0.000036 -0.000942 -0.000022
         |
   27    | -0.000001  0.000000 -0.010992 -0.012042 -0.003544 -0.011110
   27    | -0.000001  0.000000 -0.010992 -0.012042 -0.003544 -0.011110
         |
   28    | -0.011081 -0.011070  0.000000 -0.000001 -0.000032  0.000000
   28    | -0.011081 -0.011070  0.000000 -0.000001 -0.000032  0.000000
         |

 AB - AA |     19        20        21        22        23        24
 BA - BB |     19        20        21        22        23        24
----------------------------------------------------------------------
   29    | -0.000001  0.000000 -0.011132 -0.011897 -0.003535 -0.011133
   29    | -0.000001  0.000000 -0.011132 -0.011897 -0.003535 -0.011133
         |
   30    | -0.011072 -0.012716  0.000000 -0.000001 -0.000022  0.000000
   30    | -0.011073 -0.012716  0.000000 -0.000001 -0.000022  0.000000
         |

 AB - AA |     25        26        27        28        29        30
 BA - BB |     25        26        27        28        29        30
----------------------------------------------------------------------
   19    | -0.010909 -0.002362 -0.000001 -0.008125 -0.000001 -0.008142
   19    | -0.010910 -0.002362 -0.000001 -0.008125 -0.000001 -0.008142
         |
   20    | -0.006624 -0.002314  0.000000 -0.008118  0.000000 -0.012486
   20    | -0.006623 -0.002314  0.000000 -0.008118  0.000000 -0.012487
         |
   21    | -0.000001 -0.000021 -0.007933  0.000000 -0.008294  0.000000
   21    | -0.000001 -0.000021 -0.007933  0.000000 -0.008294  0.000000
         |
   22    | -0.000001 -0.000032 -0.010898 -0.000001 -0.010508 -0.000001
   22    | -0.000001 -0.000032 -0.010898 -0.000001 -0.010508 -0.000001
         |
   23    | -0.000032 -0.000689 -0.002362 -0.000030 -0.002358 -0.000020
   23    | -0.000032 -0.000689 -0.002362 -0.000030 -0.002358 -0.000020
         |
   24    | -0.000001 -0.000020 -0.008234  0.000000 -0.008267  0.000000
   24    | -0.000001 -0.000020 -0.008234  0.000000 -0.008267  0.000000
         |
   25    | -0.019586 -0.002276 -0.000001 -0.010953 -0.000001 -0.006613
   25    |  0.000000 -0.002276 -0.000001 -0.010953 -0.000001 -0.006613
         |
   26    | -0.003817 -0.024275 -0.000030 -0.002361 -0.000029 -0.002314
   26    | -0.003817  0.000000 -0.000030 -0.002361 -0.000029 -0.002314
         |
   27    | -0.000001 -0.000031 -0.019952 -0.000001 -0.008241  0.000000
   27    | -0.000001 -0.000031  0.000000 -0.000001 -0.008241  0.000000
         |
   28    | -0.012045 -0.003542 -0.000001 -0.019961 -0.000001 -0.008111
   28    | -0.012045 -0.003542 -0.000001  0.000000 -0.000001 -0.008111
         |

 AB - AA |     25        26        27        28        29        30
 BA - BB |     25        26        27        28        29        30
----------------------------------------------------------------------
   29    | -0.000001 -0.000031 -0.011133 -0.000001 -0.019933  0.000000
   29    | -0.000001 -0.000031 -0.011133 -0.000001  0.000000  0.000000
         |
   30    | -0.010516 -0.003397  0.000000 -0.011048  0.000000 -0.019960
   30    | -0.010516 -0.003397  0.000000 -0.011048  0.000000  0.000000
         |

                     Sum of ab pair energies =    -0.510402 A.U.
                     Sum of ba pair energies =    -0.263045 A.U.
                     Sum of aa pair energies =    -0.200645 A.U.
                     Sum of bb pair energies =    -0.200645 A.U.

           Sum of intraorbital pair energies =    -0.247357 A.U.
           Sum of interorbital pair energies =    -0.927381 A.U.
                                                  ----------
                         Total pair energies =    -1.174737 A.U.

                         Single Excitations  =     0.000000 A.U.

                          Total second order =    -1.174737 A.U.

                         E2(CBS) - E2(Dir) =      -0.028141 A.U.

 E2(CBS)=      -1.183549 CBS-Int=       0.008811 OIii=       6.819581
 Leave Link  904 at Thu Jul 25 17:21:43 2013, MaxMem= 8589934592 cpu:    1901.9
 (Enter /share/apps/gaussian/g09root/g09/l601.exe)
 Copying SCF densities to generalized density rwf, IOpCl= 0 IROHF=1.

 **********************************************************************

            Population analysis using the SCF density.

 **********************************************************************

 Orbital symmetries:
       Occupied  (?A) (?A) (SGU) (SGG) (PIG) (PIG) (PIU) (PIU)
                 (SGU) (SGG) (SGG) (SGU) (PIG) (PIG) (PIU) (PIU)
                 (SGU) (SGG) (SGG) (PIU) (PIU) (DLTG) (DLTG) (DLTU)
                 (DLTU) (PIG) (PIG) (SGU) (SGG) (SGU)
       Virtual   (SGG) (SGU) (PIU) (PIU) (SGG) (PIG) (PIG) (SGU)
                 (DLTG) (DLTG) (PIU) (PIU) (SGG) (DLTU) (DLTU)
                 (SGU) (PIG) (PIG) (PIU) (PIU) (PIG) (PIG) (SGG)
                 (SGU) (SGG) (PIU) (PIU) (SGU) (SGG) (DLTG) (DLTG)
                 (PHIU) (PHIU) (PHIG) (PHIG) (DLTU) (DLTU) (DLTG)
                 (DLTG) (SGU) (PIG) (PIG) (DLTU) (DLTU) (PIU) (PIU)
                 (PIU) (PIU) (SGG) (PIG) (PIG) (PIG) (PIG) (SGG)
                 (SGU) (SGU) (SGG) (PIU) (PIU) (DLTG) (DLTG) (PHIU)
                 (PHIU) (?B) (?B) (?C) (?C) (PHIG) (PHIG) (DLTU)
                 (DLTU) (PIG) (PIG) (SGU) (DLTG) (DLTG) (PIU) (PIU)
                 (PHIU) (PHIU) (PHIG) (PHIG) (PIU) (PIU) (SGG)
                 (DLTU) (DLTU) (PIG) (PIG) (SGG) (SGU) (PIG) (PIG)
                 (SGU) (DLTG) (DLTG) (PIU) (PIU) (DLTU) (DLTU)
                 (SGG) (PIG) (PIG) (SGG) (SGU) (SGU) (SGG) (PIU)
                 (PIU) (DLTG) (DLTG) (PHIU) (PHIU) (?D) (?D) (?E)
                 (?E) (?B) (?B) (?C) (?C) (PHIG) (PHIG) (DLTU)
                 (DLTU) (PIG) (PIG) (SGU) (PIU) (PIU) (DLTG) (DLTG)
                 (PHIU) (PHIU) (PHIG) (PHIG) (DLTU) (DLTU) (SGG)
                 (PIG) (PIG) (SGU) (SGG) (PIU) (PIU) (DLTG) (DLTG)
                 (PHIU) (PHIU) (?B) (?B) (?C) (?C) (PHIG) (PHIG)
                 (DLTU) (DLTU) (PIG) (PIG) (SGU) (PIU) (PIU) (PIG)
                 (PIG) (SGG) (SGU) (DLTG) (DLTG) (PIU) (PIU) (DLTU)
                 (DLTU) (SGG) (PIG) (PIG) (SGU) (SGG) (SGU) (?D)
                 (?D) (?E) (?E) (?B) (?B) (?C) (?C) (PHIU) (PHIU)
                 (DLTG) (DLTG) (PHIG) (PHIG) (PIU) (PIU) (DLTU)
                 (DLTU) (SGG) (PIG) (PIG) (SGU) (PIU) (PIU) (DLTG)
                 (DLTG) (PHIU) (PHIU) (PHIG) (PHIG) (DLTU) (DLTU)
                 (SGG) (PIG) (PIG) (SGU) (SGG) (PIU) (PIU) (DLTG)
                 (DLTG) (PHIU) (PHIU) (?B) (?B) (?C) (?C) (PHIG)
                 (PHIG) (DLTU) (DLTU) (PIG) (PIG) (SGU) (PIU) (PIU)
                 (PIG) (PIG) (SGG) (SGU) (DLTG) (DLTG) (PIU) (PIU)
                 (DLTU) (DLTU) (SGG) (PIG) (PIG) (SGU) (SGG) (SGU)
                 (?A) (?A) (?A) (?A) (?F) (?F) (?F) (?F) (?G) (?G)
                 (?G) (?G) (PIU) (PIU) (PIG) (PIG) (?H) (?H) (?H)
                 (?H) (DLTG) (DLTG) (DLTU) (DLTU) (PIU) (PIU) (DLTG)
                 (DLTG) (PHIU) (PHIU) (PHIG) (PHIG) (DLTU) (DLTU)
                 (SGG) (PIG) (PIG) (SGU) (?D) (?D) (?E) (?E) (?B)
                 (?B) (?C) (?C) (PHIU) (PHIU) (PHIG) (PHIG) (DLTG)
                 (DLTG) (DLTU) (DLTU) (PIU) (PIU) (SGG) (PIG) (PIG)
                 (SGU) (SGG) (PIU) (PIU) (DLTG) (DLTG) (PHIU) (PHIU)
                 (?B) (?B) (?C) (?C) (PHIG) (PHIG) (DLTU) (DLTU)
                 (PIG) (PIG) (SGU) (SGG) (SGU)
 Unable to determine electronic state:  an orbital has unidentified symmetry.
 Alpha  occ. eigenvalues -- -353.30446-353.30446 -44.36183 -44.36183 -38.92494
 Alpha  occ. eigenvalues --  -38.92494 -38.92494 -38.92494 -38.92493 -38.92493
 Alpha  occ. eigenvalues --   -5.63792  -5.63792  -3.83947  -3.83947  -3.83947
 Alpha  occ. eigenvalues --   -3.83947  -3.83947  -3.83947  -0.78318  -0.78278
 Alpha  occ. eigenvalues --   -0.78278  -0.78267  -0.78267  -0.78263  -0.78263
 Alpha  occ. eigenvalues --   -0.78241  -0.78241  -0.78212  -0.31627  -0.27094
 Alpha virt. eigenvalues --    0.04239   0.05190   0.05501   0.05501   0.06280
 Alpha virt. eigenvalues --    0.09108   0.09108   0.15874   0.23374   0.23374
 Alpha virt. eigenvalues --    0.23731   0.23731   0.25993   0.27334   0.27334
 Alpha virt. eigenvalues --    0.31460   0.31603   0.31603   0.33430   0.33430
 Alpha virt. eigenvalues --    0.39640   0.39640   0.40497   0.43065   0.51681
 Alpha virt. eigenvalues --    0.69619   0.69619   0.70219   0.70941   0.72642
 Alpha virt. eigenvalues --    0.72642   0.75869   0.75869   0.77021   0.77021
 Alpha virt. eigenvalues --    0.80516   0.80516   0.83771   0.83771   0.84458
 Alpha virt. eigenvalues --    0.84622   0.84622   0.86276   0.86276   0.86438
 Alpha virt. eigenvalues --    0.86438   0.90863   0.90863   0.94518   0.96107
 Alpha virt. eigenvalues --    0.96107   0.99158   0.99158   1.00592   1.11906
 Alpha virt. eigenvalues --    1.22753   2.05824   2.06464   2.06464   2.08655
 Alpha virt. eigenvalues --    2.08655   2.09451   2.09451   2.09570   2.09570
 Alpha virt. eigenvalues --    2.09582   2.09582   2.09683   2.09683   2.10359
 Alpha virt. eigenvalues --    2.10359   2.11926   2.11926   2.13673   2.24750
 Alpha virt. eigenvalues --    2.24750   2.24939   2.24939   2.26269   2.26269
 Alpha virt. eigenvalues --    2.26949   2.26949   2.28323   2.28323   2.29486
 Alpha virt. eigenvalues --    2.29755   2.29755   2.34215   2.34215   2.38517
 Alpha virt. eigenvalues --    2.39899   2.41014   2.41014   2.45318   2.50366
 Alpha virt. eigenvalues --    2.50366   2.51553   2.51553   2.51845   2.51845
 Alpha virt. eigenvalues --    2.55394   2.55569   2.55569   2.76588   2.76777
 Alpha virt. eigenvalues --    3.09333   4.41091   4.41095   4.41095   4.41102
 Alpha virt. eigenvalues --    4.41102   4.41112   4.41112   4.41113   4.41113
 Alpha virt. eigenvalues --    4.41113   4.41113   4.41115   4.41115   4.41115
 Alpha virt. eigenvalues --    4.41115   4.41117   4.41117   4.41147   4.41147
 Alpha virt. eigenvalues --    4.41353   4.41353   4.41786   5.75475   5.75475
 Alpha virt. eigenvalues --    5.75567   5.75567   5.76573   5.76573   5.76954
 Alpha virt. eigenvalues --    5.76954   5.78473   5.78473   5.80888   5.83304
 Alpha virt. eigenvalues --    5.83304   5.87567   6.21247   6.21629   6.21629
 Alpha virt. eigenvalues --    6.22256   6.22256   6.22496   6.22496   6.22534
 Alpha virt. eigenvalues --    6.22534   6.22539   6.22539   6.22585   6.22585
 Alpha virt. eigenvalues --    6.22999   6.22999   6.25376   6.25376   6.30098
 Alpha virt. eigenvalues --    6.53026   6.53026   6.60961   6.60961   6.62361
 Alpha virt. eigenvalues --    6.79591   7.31218   7.31218   7.31891   7.31891
 Alpha virt. eigenvalues --    7.32261   7.32261   7.33269   7.34510   7.34510
 Alpha virt. eigenvalues --    7.42482  12.53537  12.77541  13.95126  13.95126
 Alpha virt. eigenvalues --   13.95126  13.95126  13.95129  13.95129  13.95129
 Alpha virt. eigenvalues --   13.95129  13.95131  13.95131  13.95131  13.95131
 Alpha virt. eigenvalues --   13.95132  13.95132  13.95134  13.95134  13.95139
 Alpha virt. eigenvalues --   13.95139  13.95140  13.95183  13.95183  13.95275
 Alpha virt. eigenvalues --   14.67936  14.67936  14.68102  14.68102  14.68753
 Alpha virt. eigenvalues --   14.68753  14.68989  14.68989  14.69974  14.69974
 Alpha virt. eigenvalues --   14.71349  14.73430  14.73430  14.77854  16.64013
 Alpha virt. eigenvalues --   16.64112  16.64112  16.64368  16.64368  16.64466
 Alpha virt. eigenvalues --   16.64466  16.64479  16.64479  16.64481  16.64481
 Alpha virt. eigenvalues --   16.64500  16.64500  16.64659  16.64659  16.65517
 Alpha virt. eigenvalues --   16.65517  16.67298  21.31893  21.31893  21.40180
 Alpha virt. eigenvalues --   21.40180  21.40984  21.60350  22.48864  22.48864
 Alpha virt. eigenvalues --   22.49426  22.49426  22.49680  22.49680  22.50608
 Alpha virt. eigenvalues --   22.51212  22.51212  22.55167  36.95871  36.95871
 Alpha virt. eigenvalues --   36.95954  36.95954  36.95954  36.95954  36.95955
 Alpha virt. eigenvalues --   36.95955  36.95955  36.95955  36.95956  36.95956
 Alpha virt. eigenvalues --   36.95956  36.95956  36.95957  36.95957  36.95957
 Alpha virt. eigenvalues --   36.95957  36.95958  36.95958  36.95958  36.95958
 Alpha virt. eigenvalues --   36.95958  36.95958  36.95958  36.95958  40.70223
 Alpha virt. eigenvalues --   40.70223  40.70378  40.70378  40.70782  40.70782
 Alpha virt. eigenvalues --   40.70924  40.70924  40.71528  40.71528  40.72238
 Alpha virt. eigenvalues --   40.73692  40.73692  40.76141  41.68240  41.68240
 Alpha virt. eigenvalues --   41.68240  41.68240  41.68242  41.68242  41.68242
 Alpha virt. eigenvalues --   41.68242  41.68243  41.68243  41.68244  41.68244
 Alpha virt. eigenvalues --   41.68245  41.68245  41.68247  41.68247  41.68247
 Alpha virt. eigenvalues --   41.68247  41.68251  41.68262  41.68262  41.68295
 Alpha virt. eigenvalues --   45.13912  45.13960  45.13960  45.14075  45.14075
 Alpha virt. eigenvalues --   45.14117  45.14117  45.14122  45.14122  45.14123
 Alpha virt. eigenvalues --   45.14123  45.14132  45.14132  45.14203  45.14203
 Alpha virt. eigenvalues --   45.14590  45.14590  45.15376 163.11671 164.10125
          Condensed to atoms (all electrons):
              1          2
     1  Zn  30.028451  -0.028451
     2  Zn  -0.028451  30.028451
 Mulliken atomic charges:
              1
     1  Zn   0.000000
     2  Zn   0.000000
 Sum of Mulliken atomic charges =   0.00000
 Mulliken charges with hydrogens summed into heavy atoms:
              1
     1  Zn   0.000000
     2  Zn   0.000000
 Sum of Mulliken charges with hydrogens summed into heavy atoms =   0.00000
          Atomic-Atomic Spin Densities.
              1          2
     1  Zn   0.000000   0.000000
     2  Zn   0.000000   0.000000
 Mulliken atomic spin densities:
              1
     1  Zn   0.000000
     2  Zn   0.000000
 Sum of Mulliken atomic spin densities =   0.00000
 Electronic spatial extent (au):  <R**2>=            863.2578
 Charge=              0.0000 electrons
 Dipole moment (field-independent basis, Debye):
    X=              0.0000    Y=              0.0000    Z=              0.0000  Tot=              0.0000
 Quadrupole moment (field-independent basis, Debye-Ang):
   XX=            -31.2083   YY=            -31.2083   ZZ=            -32.4259
   XY=              0.0000   XZ=              0.0000   YZ=              0.0000
 Traceless Quadrupole moment (field-independent basis, Debye-Ang):
   XX=              0.4059   YY=              0.4059   ZZ=             -0.8117
   XY=              0.0000   XZ=              0.0000   YZ=              0.0000
 Octapole moment (field-independent basis, Debye-Ang**2):
  XXX=              0.0000  YYY=              0.0000  ZZZ=              0.0000  XYY=              0.0000
  XXY=              0.0000  XXZ=              0.0000  XZZ=              0.0000  YZZ=              0.0000
  YYZ=              0.0000  XYZ=              0.0000
 Hexadecapole moment (field-independent basis, Debye-Ang**3):
 XXXX=            -56.4805 YYYY=            -56.4805 ZZZZ=           -769.7467 XXXY=              0.0000
 XXXZ=              0.0000 YYYX=              0.0000 YYYZ=              0.0000 ZZZX=              0.0000
 ZZZY=              0.0000 XXYY=            -18.8268 XXZZ=           -136.5783 YYZZ=           -136.5783
 XXYZ=              0.0000 YYXZ=              0.0000 ZZXY=              0.0000
 N-N= 1.238002307593D+02 E-N=-1.315724875176D+04  KE= 5.333591889592D+03
                          Isotropic Fermi Contact Couplings
        Atom                 a.u.       MegaHertz       Gauss      10(-4) cm-1
     1  Zn(67)             0.00000       0.00000       0.00000       0.00000
     2  Zn(67)             0.00000       0.00000       0.00000       0.00000
 --------------------------------------------------------
       Center         ----  Spin Dipole Couplings  ----
                      3XX-RR        3YY-RR        3ZZ-RR
 --------------------------------------------------------
     1   Atom        0.000000      0.000000      0.000000
     2   Atom        0.000000      0.000000      0.000000
 --------------------------------------------------------
                        XY            XZ            YZ
 --------------------------------------------------------
     1   Atom        0.000000      0.000000      0.000000
     2   Atom        0.000000      0.000000      0.000000
 --------------------------------------------------------


 ---------------------------------------------------------------------------------
              Anisotropic Spin Dipole Couplings in Principal Axis System
 ---------------------------------------------------------------------------------

       Atom             a.u.   MegaHertz   Gauss  10(-4) cm-1        Axes

              Baa     0.0000     0.000     0.000     0.000  1.0000  0.0000  0.0000
     1 Zn(67) Bbb     0.0000     0.000     0.000     0.000  0.0000  1.0000  0.0000
              Bcc     0.0000     0.000     0.000     0.000  0.0000  0.0000  1.0000
 
              Baa     0.0000     0.000     0.000     0.000  1.0000  0.0000  0.0000
     2 Zn(67) Bbb     0.0000     0.000     0.000     0.000  0.0000  1.0000  0.0000
              Bcc     0.0000     0.000     0.000     0.000  0.0000  0.0000  1.0000
 

 ---------------------------------------------------------------------------------

 No NMR shielding tensors so no spin-rotation constants.
 Leave Link  601 at Thu Jul 25 17:21:45 2013, MaxMem= 8589934592 cpu:      24.6
 (Enter /share/apps/gaussian/g09root/g09/l9999.exe)

 Test job not archived.
 1\1\GINC-N35\SP\ROMP2-RW\Gen\Zn2\GPETERSSON\25-Jul-2013\0\\#P ROMP2(RW
 ) Gen GFinput Int=NoBasisTransform Int(Grid=Ultrafine) IOp(3/32=2,5/6=
 10,8/11=1,9/33=1) Maxdisk=128GB CBSextrapolate(Nmin=15,MinPop) Guess=R
 ead\\Zn...Zn 1Sg+\\0,1\Zn\Zn,1,3.847\\Version=EM64L-G09RevA.02\State=1
 -SGG\HF=-3555.693762\MP2=-3556.8491695\E2(CBS)=-1.1835487\CBS-Int=-1.1
 747373\OIii=6.8195809\RMSD=9.525e-12\PG=D*H [C*(Zn1.Zn1)]\\@


 THOSE WITH THE GOLD MAKE THE RULES.

             -- PETER'S GOLDEN RULE
 Job cpu time:  0 days  6 hours 35 minutes 53.3 seconds.
 File lengths (MBytes):  RWF=   5085 Int=      0 D2E=      0 Chk=     12 Scr=      1
 Normal termination of Gaussian 09 at Thu Jul 25 17:21:46 2013.
