 Entering Gaussian System, Link 0=g09
 AtFile(1): 7ZaPa-NR.gbs
 Initial command:
 /share/apps/gaussian/g09root/g09/l1.exe /localscratch/Gau-23291.inp -scrdir=/localscratch/
 Entering Link 1 = /share/apps/gaussian/g09root/g09/l1.exe PID=     23292.
  
 Copyright (c) 1988,1990,1992,1993,1995,1998,2003,2009, Gaussian, Inc.
                  All Rights Reserved.
  
 This is part of the Gaussian(R) 09 program.  It is based on
 the Gaussian(R) 03 system (copyright 2003, Gaussian, Inc.),
 the Gaussian(R) 98 system (copyright 1998, Gaussian, Inc.),
 the Gaussian(R) 94 system (copyright 1995, Gaussian, Inc.),
 the Gaussian 92(TM) system (copyright 1992, Gaussian, Inc.),
 the Gaussian 90(TM) system (copyright 1990, Gaussian, Inc.),
 the Gaussian 88(TM) system (copyright 1988, Gaussian, Inc.),
 the Gaussian 86(TM) system (copyright 1986, Carnegie Mellon
 University), and the Gaussian 82(TM) system (copyright 1983,
 Carnegie Mellon University). Gaussian is a federally registered
 trademark of Gaussian, Inc.
  
 This software contains proprietary and confidential information,
 including trade secrets, belonging to Gaussian, Inc.
  
 This software is provided under written license and may be
 used, copied, transmitted, or stored only in accord with that
 written license.
  
 The following legend is applicable only to US Government
 contracts under FAR:
  
                    RESTRICTED RIGHTS LEGEND
  
 Use, reproduction and disclosure by the US Government is
 subject to restrictions as set forth in subparagraphs (a)
 and (c) of the Commercial Computer Software - Restricted
 Rights clause in FAR 52.227-19.
  
 Gaussian, Inc.
 340 Quinnipiac St., Bldg. 40, Wallingford CT 06492
  
  
 ---------------------------------------------------------------
 Warning -- This program may not be used in any manner that
 competes with the business of Gaussian, Inc. or will provide
 assistance to any competitor of Gaussian, Inc.  The licensee
 of this program is prohibited from giving any competitor of
 Gaussian, Inc. access to this program.  By using this program,
 the user acknowledges that Gaussian, Inc. is engaged in the
 business of creating and licensing software in the field of
 computational chemistry and represents and warrants to the
 licensee that it is not a competitor of Gaussian, Inc. and that
 it will not use this program in any manner prohibited above.
 ---------------------------------------------------------------
  

 Cite this work as:
 Gaussian 09, Revision A.02,
 M. J. Frisch, G. W. Trucks, H. B. Schlegel, G. E. Scuseria, 
 M. A. Robb, J. R. Cheeseman, G. Scalmani, V. Barone, B. Mennucci, 
 G. A. Petersson, H. Nakatsuji, M. Caricato, X. Li, H. P. Hratchian, 
 A. F. Izmaylov, J. Bloino, G. Zheng, J. L. Sonnenberg, M. Hada, 
 M. Ehara, K. Toyota, R. Fukuda, J. Hasegawa, M. Ishida, T. Nakajima, 
 Y. Honda, O. Kitao, H. Nakai, T. Vreven, J. A. Montgomery, Jr., 
 J. E. Peralta, F. Ogliaro, M. Bearpark, J. J. Heyd, E. Brothers, 
 K. N. Kudin, V. N. Staroverov, R. Kobayashi, J. Normand, 
 K. Raghavachari, A. Rendell, J. C. Burant, S. S. Iyengar, J. Tomasi, 
 M. Cossi, N. Rega, J. M. Millam, M. Klene, J. E. Knox, J. B. Cross, 
 V. Bakken, C. Adamo, J. Jaramillo, R. Gomperts, R. E. Stratmann, 
 O. Yazyev, A. J. Austin, R. Cammi, C. Pomelli, J. W. Ochterski, 
 R. L. Martin, K. Morokuma, V. G. Zakrzewski, G. A. Voth, 
 P. Salvador, J. J. Dannenberg, S. Dapprich, A. D. Daniels, 
 O. Farkas, J. B. Foresman, J. V. Ortiz, J. Cioslowski, 
 and D. J. Fox, Gaussian, Inc., Wallingford CT, 2009.
 
 ******************************************
 Gaussian 09:  EM64L-G09RevA.02 11-Jun-2009
                20-Jul-2013 
 ******************************************
 % Mem=128GB
 % Nproc=24
 Will use up to   24 processors via shared memory.
 ----------------------------------------------------------------------
 #P ROMP2(RW) Gen GFinput Int=NoBasisTransform Int(Grid=Ultrafine) IOp(
 3/32=2,5/6=10,8/11=1,9/33=1) Maxdisk=128GB CBSextrapolate(Nmin=25,MinP
 op)
 ----------------------------------------------------------------------
 1/38=1/1;
 2/12=2,17=6,18=5,40=1/2;
 3/5=7,11=2,16=1,24=10,25=1,30=1,32=2,60=-1,75=-5,116=101/1,2,3;
 4//1;
 5/5=2,6=10,38=5/2;
 8/5=-1,10=91,11=1/1;
 9/16=-3,33=1,75=2,81=25,83=4/6,4;
 6/7=2,8=2,9=2,10=2/1;
 99/5=1,9=1/99;
 Leave Link    1 at Sat Jul 20 17:54:23 2013, MaxMem=17179869184 cpu:       2.6
 (Enter /share/apps/gaussian/g09root/g09/l101.exe)
 --------
 ZnF 2Sg+
 --------
 Symbolic Z-matrix:
 Charge =  0 Multiplicity = 2
 Zn
 F                    1     1.768 
 
 NAtoms=      2 NQM=      2 NQMF=      0 NMic=      0 NMicF=      0 NTot=      2.
                    Isotopes and Nuclear Properties:
 (Nuclear quadrupole moments (NQMom) in fm**2, nuclear magnetic moments (NMagM)
  in nuclear magnetons)

  Atom         1           2
 IAtWgt=          64          19
 AtmWgt=  63.9291454  18.9984033
 NucSpn=           0           1
 AtZEff=   0.0000000   0.0000000
 NQMom=    0.0000000   0.0000000
 NMagM=    0.0000000   2.6288670
 Leave Link  101 at Sat Jul 20 17:54:23 2013, MaxMem=17179869184 cpu:       1.3
 (Enter /share/apps/gaussian/g09root/g09/l202.exe)
                          Input orientation:                          
 ---------------------------------------------------------------------
 Center     Atomic      Atomic             Coordinates (Angstroms)
 Number     Number       Type             X           Y           Z
 ---------------------------------------------------------------------
      1         30           0        0.000000    0.000000    0.000000
      2          9           0        0.000000    0.000000    1.768000
 ---------------------------------------------------------------------
 Stoichiometry    FZn(2)
 Framework group  C*V[C*(FZn)]
 Deg. of freedom     1
 Full point group                 C*V     NOp   4
 Largest Abelian subgroup         C2V     NOp   4
 Largest concise Abelian subgroup C1      NOp   1
                         Standard orientation:                         
 ---------------------------------------------------------------------
 Center     Atomic      Atomic             Coordinates (Angstroms)
 Number     Number       Type             X           Y           Z
 ---------------------------------------------------------------------
      1         30           0        0.000000    0.000000    0.408000
      2          9           0        0.000000    0.000000   -1.360000
 ---------------------------------------------------------------------
 Rotational constants (GHZ):      0.0000000     11.0391466     11.0391466
 Leave Link  202 at Sat Jul 20 17:54:23 2013, MaxMem=17179869184 cpu:       0.2
 (Enter /share/apps/gaussian/g09root/g09/l301.exe)
 General basis read from cards:  (5D, 7F)
 Centers:   2
 S 17 1.00 0.000000000000
     Exponent=  3.0482447700D+06 Coefficients=  8.3968105730D-07
     Exponent=  5.3699688200D+05 Coefficients=  5.6765456070D-06
     Exponent=  1.1998832000D+05 Coefficients=  3.2549646240D-05
     Exponent=  3.2453638800D+04 Coefficients=  1.4605510240D-04
     Exponent=  1.0216781900D+04 Coefficients=  5.5107241300D-04
     Exponent=  3.6239441500D+03 Coefficients=  1.8116655990D-03
     Exponent=  1.4103966900D+03 Coefficients=  5.3583546480D-03
     Exponent=  5.8954744700D+02 Coefficients=  1.4525396850D-02
     Exponent=  2.6022731700D+02 Coefficients=  3.6337019830D-02
     Exponent=  1.1969069000D+02 Coefficients=  8.2817036130D-02
     Exponent=  5.6767511000D+01 Coefficients=  1.6612593450D-01
     Exponent=  2.7531888000D+01 Coefficients=  2.7419908640D-01
     Exponent=  1.3558250000D+01 Coefficients=  3.2329585070D-01
     Exponent=  6.7355320000D+00 Coefficients=  2.0258647220D-01
     Exponent=  3.3528050000D+00 Coefficients=  4.3012698790D-02
     Exponent=  1.6593690000D+00 Coefficients=  2.6466009180D-03
     Exponent=  8.0878400000D-01 Coefficients=  5.2204549360D-04
 S 11 1.00 0.000000000000
     Exponent=  2.6022731700D+02 Coefficients= -2.3851760030D-04
     Exponent=  1.1969069000D+02 Coefficients= -9.7988222320D-04
     Exponent=  5.6767511000D+01 Coefficients= -4.8267961720D-03
     Exponent=  2.7531888000D+01 Coefficients= -1.7213105130D-02
     Exponent=  1.3558250000D+01 Coefficients= -4.8522332980D-02
     Exponent=  6.7355320000D+00 Coefficients= -6.9365258340D-02
     Exponent=  3.3528050000D+00 Coefficients=  3.5510758260D-02
     Exponent=  1.6593690000D+00 Coefficients=  2.6415725100D-01
     Exponent=  8.0878400000D-01 Coefficients=  4.2341596920D-01
     Exponent=  3.8355200000D-01 Coefficients=  3.3175896380D-01
     Exponent=  1.7427000000D-01 Coefficients=  7.5877663480D-02
 S 1 1.00 0.000000000000
     Exponent=  1.0031070330D-01 Coefficients=  1.0000000000D+00
 P 14 1.00 0.000000000000
     Exponent=  4.1312225000D+03 Coefficients=  6.9414297140D-06
     Exponent=  1.0050245200D+03 Coefficients=  6.2776038150D-05
     Exponent=  3.1537605900D+02 Coefficients=  3.9283966570D-04
     Exponent=  1.1843344200D+02 Coefficients=  1.7851036080D-03
     Exponent=  5.0270072000D+01 Coefficients=  6.3876384350D-03
     Exponent=  2.3125522000D+01 Coefficients=  1.8888310680D-02
     Exponent=  1.1192940000D+01 Coefficients=  4.8405326960D-02
     Exponent=  5.5867910000D+00 Coefficients=  1.0649775790D-01
     Exponent=  2.8380350000D+00 Coefficients=  1.8695756380D-01
     Exponent=  1.4539940000D+00 Coefficients=  2.5452421880D-01
     Exponent=  7.4548100000D-01 Coefficients=  2.7440267780D-01
     Exponent=  3.7902600000D-01 Coefficients=  2.2949369180D-01
     Exponent=  1.8857600000D-01 Coefficients=  1.2104573390D-01
     Exponent=  8.9974000000D-02 Coefficients=  2.2464557380D-02
 P 1 1.00 0.000000000000
     Exponent=  5.4384344900D-02 Coefficients=  1.0000000000D+00
 S 1 1.00 0.000000000000
     Exponent=  1.0682426000D+01 Coefficients=  1.0000000000D+00
 S 1 1.00 0.000000000000
     Exponent=  4.9191010000D+00 Coefficients=  1.0000000000D+00
 S 1 1.00 0.000000000000
     Exponent=  2.2651740000D+00 Coefficients=  1.0000000000D+00
 S 1 1.00 0.000000000000
     Exponent=  1.0430790000D+00 Coefficients=  1.0000000000D+00
 S 1 1.00 0.000000000000
     Exponent=  4.8032300000D-01 Coefficients=  1.0000000000D+00
 S 1 1.00 0.000000000000
     Exponent=  2.2118200000D-01 Coefficients=  1.0000000000D+00
 P 1 1.00 0.000000000000
     Exponent=  6.7546640000D+00 Coefficients=  1.0000000000D+00
 P 1 1.00 0.000000000000
     Exponent=  3.1040050000D+00 Coefficients=  1.0000000000D+00
 P 1 1.00 0.000000000000
     Exponent=  1.4263990000D+00 Coefficients=  1.0000000000D+00
 P 1 1.00 0.000000000000
     Exponent=  6.5548000000D-01 Coefficients=  1.0000000000D+00
 P 1 1.00 0.000000000000
     Exponent=  3.0121600000D-01 Coefficients=  1.0000000000D+00
 P 1 1.00 0.000000000000
     Exponent=  1.3841900000D-01 Coefficients=  1.0000000000D+00
 D 1 1.00 0.000000000000
     Exponent=  1.6352372000D+01 Coefficients=  1.0000000000D+00
 D 1 1.00 0.000000000000
     Exponent=  7.6816400000D+00 Coefficients=  1.0000000000D+00
 D 1 1.00 0.000000000000
     Exponent=  3.6085030000D+00 Coefficients=  1.0000000000D+00
 D 1 1.00 0.000000000000
     Exponent=  1.6951190000D+00 Coefficients=  1.0000000000D+00
 D 1 1.00 0.000000000000
     Exponent=  7.9629400000D-01 Coefficients=  1.0000000000D+00
 D 1 1.00 0.000000000000
     Exponent=  3.7406500000D-01 Coefficients=  1.0000000000D+00
 D 1 1.00 0.000000000000
     Exponent=  1.7571900000D-01 Coefficients=  1.0000000000D+00
 F 1 1.00 0.000000000000
     Exponent=  8.9964810000D+00 Coefficients=  1.0000000000D+00
 F 1 1.00 0.000000000000
     Exponent=  4.4455150000D+00 Coefficients=  1.0000000000D+00
 F 1 1.00 0.000000000000
     Exponent=  2.1967040000D+00 Coefficients=  1.0000000000D+00
 F 1 1.00 0.000000000000
     Exponent=  1.0854780000D+00 Coefficients=  1.0000000000D+00
 F 1 1.00 0.000000000000
     Exponent=  5.3637700000D-01 Coefficients=  1.0000000000D+00
 F 1 1.00 0.000000000000
     Exponent=  2.6504400000D-01 Coefficients=  1.0000000000D+00
 G 1 1.00 0.000000000000
     Exponent=  9.7849860000D+00 Coefficients=  1.0000000000D+00
 G 1 1.00 0.000000000000
     Exponent=  4.5866660000D+00 Coefficients=  1.0000000000D+00
 G 1 1.00 0.000000000000
     Exponent=  2.1499780000D+00 Coefficients=  1.0000000000D+00
 G 1 1.00 0.000000000000
     Exponent=  1.0077920000D+00 Coefficients=  1.0000000000D+00
 G 1 1.00 0.000000000000
     Exponent=  4.7239770000D-01 Coefficients=  1.0000000000D+00
 H 1 1.00 0.000000000000
     Exponent=  6.4194020000D+00 Coefficients=  1.0000000000D+00
 H 1 1.00 0.000000000000
     Exponent=  2.9538240000D+00 Coefficients=  1.0000000000D+00
 H 1 1.00 0.000000000000
     Exponent=  1.3591730000D+00 Coefficients=  1.0000000000D+00
 H 1 1.00 0.000000000000
     Exponent=  6.2541000000D-01 Coefficients=  1.0000000000D+00
 I 1 1.00 0.000000000000
     Exponent=  5.9405140000D+00 Coefficients=  1.0000000000D+00
 I 1 1.00 0.000000000000
     Exponent=  2.3224890000D+00 Coefficients=  1.0000000000D+00
 I 1 1.00 0.000000000000
     Exponent=  9.0799460000D-01 Coefficients=  1.0000000000D+00
 J 1 1.00 0.000000000000
     Exponent=  3.9047856500D+00 Coefficients=  1.0000000000D+00
 ****
 Centers:   1
 S 18 1.00 0.000000000000
     Exponent=  4.3482903900D+07 Coefficients=  6.0687003210D-07
     Exponent=  8.3971257200D+06 Coefficients=  3.6405486570D-06
     Exponent=  1.9442341200D+06 Coefficients=  2.0663230990D-05
     Exponent=  5.2599322000D+05 Coefficients=  9.4465344850D-05
     Exponent=  1.6247448800D+05 Coefficients=  3.6986800590D-04
     Exponent=  5.6130462700D+04 Coefficients=  1.2644411610D-03
     Exponent=  2.1293839700D+04 Coefficients=  3.8648248270D-03
     Exponent=  8.7278369000D+03 Coefficients=  1.0726420410D-02
     Exponent=  3.8102819200D+03 Coefficients=  2.7285074610D-02
     Exponent=  1.7497441100D+03 Coefficients=  6.3386084880D-02
     Exponent=  8.3602615200D+02 Coefficients=  1.3171087550D-01
     Exponent=  4.1168896600D+02 Coefficients=  2.3249820210D-01
     Exponent=  2.0722268700D+02 Coefficients=  3.1351051050D-01
     Exponent=  1.0585237500D+02 Coefficients=  2.6122870210D-01
     Exponent=  5.4528161000D+01 Coefficients=  9.4649223670D-02
     Exponent=  2.8168795000D+01 Coefficients=  8.1772463010D-03
     Exponent=  1.4519274000D+01 Coefficients=  6.5247837350D-04
     Exponent=  7.4320400000D+00 Coefficients= -2.2200706910D-04
 S 15 1.00 0.000000000000
     Exponent=  2.1293839700D+04 Coefficients= -5.2154440560D-06
     Exponent=  8.7278369000D+03 Coefficients= -3.1262389780D-05
     Exponent=  3.8102819200D+03 Coefficients= -2.1311348520D-04
     Exponent=  1.7497441100D+03 Coefficients= -1.0572299940D-03
     Exponent=  8.3602615200D+02 Coefficients= -4.8334461420D-03
     Exponent=  4.1168896600D+02 Coefficients= -1.7785419590D-02
     Exponent=  2.0722268700D+02 Coefficients= -5.2418851990D-02
     Exponent=  1.0585237500D+02 Coefficients= -9.0482811420D-02
     Exponent=  5.4528161000D+01 Coefficients= -1.3245821940D-02
     Exponent=  2.8168795000D+01 Coefficients=  3.0854034020D-01
     Exponent=  1.4519274000D+01 Coefficients=  5.3303964270D-01
     Exponent=  7.4320400000D+00 Coefficients=  2.5359632060D-01
     Exponent=  3.7609150000D+00 Coefficients=  2.5666731510D-02
     Exponent=  1.8730040000D+00 Coefficients=  3.6369243470D-03
     Exponent=  9.1370600000D-01 Coefficients= -3.2965528180D-04
 P 17 1.00 0.000000000000
     Exponent=  1.2057654200D+05 Coefficients=  2.2935108110D-06
     Exponent=  3.0977867500D+04 Coefficients=  1.9220277430D-05
     Exponent=  9.8162655800D+03 Coefficients=  1.2308593560D-04
     Exponent=  3.6522657000D+03 Coefficients=  5.9511771280D-04
     Exponent=  1.5331986400D+03 Coefficients=  2.3497019740D-03
     Exponent=  7.0363027400D+02 Coefficients=  7.8624737880D-03
     Exponent=  3.4450044800D+02 Coefficients=  2.2884409740D-02
     Exponent=  1.7665678800D+02 Coefficients=  5.8321311390D-02
     Exponent=  9.3600235000D+01 Coefficients=  1.2734308400D-01
     Exponent=  5.0741460000D+01 Coefficients=  2.2568848330D-01
     Exponent=  2.7941651000D+01 Coefficients=  3.0712314440D-01
     Exponent=  1.5539822000D+01 Coefficients=  2.7612719890D-01
     Exponent=  8.6814570000D+00 Coefficients=  1.3133110230D-01
     Exponent=  4.8416490000D+00 Coefficients=  2.6894223660D-02
     Exponent=  2.6736900000D+00 Coefficients=  2.0142488420D-03
     Exponent=  1.4457010000D+00 Coefficients= -1.2138684030D-05
     Exponent=  7.5371100000D-01 Coefficients= -1.1792019280D-04
 S 14 1.00 0.000000000000
     Exponent=  4.1168896600D+02 Coefficients=  1.2068744980D-04
     Exponent=  2.0722268700D+02 Coefficients=  5.9860081380D-04
     Exponent=  1.0585237500D+02 Coefficients=  2.8523850550D-03
     Exponent=  5.4528161000D+01 Coefficients=  1.9015195700D-03
     Exponent=  2.8168795000D+01 Coefficients= -3.2886744240D-02
     Exponent=  1.4519274000D+01 Coefficients= -1.7837985030D-01
     Exponent=  7.4320400000D+00 Coefficients= -1.2718782330D-01
     Exponent=  3.7609150000D+00 Coefficients=  3.3710542540D-01
     Exponent=  1.8730040000D+00 Coefficients=  5.8776693320D-01
     Exponent=  9.1370600000D-01 Coefficients=  2.8163990630D-01
     Exponent=  4.3441900000D-01 Coefficients=  1.9875985050D-02
     Exponent=  2.0018300000D-01 Coefficients=  2.3369901640D-03
     Exponent=  8.8847000000D-02 Coefficients= -8.8273659130D-04
     Exponent=  3.7709000000D-02 Coefficients=  2.3423531130D-04
 P 16 1.00 0.000000000000
     Exponent=  3.6522657000D+03 Coefficients= -2.6437559350D-07
     Exponent=  1.5331986400D+03 Coefficients= -3.6400246120D-06
     Exponent=  7.0363027400D+02 Coefficients= -2.6904801560D-05
     Exponent=  3.4450044800D+02 Coefficients= -1.6962418720D-04
     Exponent=  1.7665678800D+02 Coefficients= -8.4017975370D-04
     Exponent=  9.3600235000D+01 Coefficients= -3.3270071440D-03
     Exponent=  5.0741460000D+01 Coefficients= -9.2097147490D-03
     Exponent=  2.7941651000D+01 Coefficients= -1.9027173660D-02
     Exponent=  1.5539822000D+01 Coefficients= -1.2024193350D-02
     Exponent=  8.6814570000D+00 Coefficients=  8.1626654790D-02
     Exponent=  4.8416490000D+00 Coefficients=  2.4989401190D-01
     Exponent=  2.6736900000D+00 Coefficients=  3.5637585570D-01
     Exponent=  1.4457010000D+00 Coefficients=  3.0316112130D-01
     Exponent=  7.5371100000D-01 Coefficients=  1.2950464440D-01
     Exponent=  3.7109400000D-01 Coefficients=  1.7470160480D-02
     Exponent=  1.6792100000D-01 Coefficients=  1.6050273360D-03
 D 16 1.00 0.000000000000
     Exponent=  3.2989684500D+03 Coefficients=  5.1050216490D-06
     Exponent=  1.0572065000D+03 Coefficients=  5.0065528590D-05
     Exponent=  4.0837745700D+02 Coefficients=  3.3722215790D-04
     Exponent=  1.8060017900D+02 Coefficients=  1.6370842900D-03
     Exponent=  8.7819345000D+01 Coefficients=  6.2351246090D-03
     Exponent=  4.5528498000D+01 Coefficients=  1.8702836000D-02
     Exponent=  2.4596028000D+01 Coefficients=  4.5889543090D-02
     Exponent=  1.3620152000D+01 Coefficients=  9.6575104480D-02
     Exponent=  7.6414860000D+00 Coefficients=  1.6480402200D-01
     Exponent=  4.3073540000D+00 Coefficients=  2.2105302790D-01
     Exponent=  2.4230930000D+00 Coefficients=  2.4301732390D-01
     Exponent=  1.3514360000D+00 Coefficients=  2.2790264890D-01
     Exponent=  7.4129700000D-01 Coefficients=  1.8062990400D-01
     Exponent=  3.9550400000D-01 Coefficients=  1.1203298900D-01
     Exponent=  2.0205200000D-01 Coefficients=  4.4319395790D-02
     Exponent=  9.6703000000D-02 Coefficients=  6.6510809980D-03
 S 11 1.00 0.000000000000
     Exponent=  5.4528161000D+01 Coefficients= -3.2661064380D-05
     Exponent=  2.8168795000D+01 Coefficients=  2.8752254110D-04
     Exponent=  1.4519274000D+01 Coefficients=  2.4661872680D-03
     Exponent=  7.4320400000D+00 Coefficients=  1.9757676730D-03
     Exponent=  3.7609150000D+00 Coefficients= -1.2749875190D-02
     Exponent=  1.8730040000D+00 Coefficients= -5.0557781150D-02
     Exponent=  9.1370600000D-01 Coefficients= -1.2036064580D-01
     Exponent=  4.3441900000D-01 Coefficients= -1.3196236140D-02
     Exponent=  2.0018300000D-01 Coefficients=  3.0022744220D-01
     Exponent=  8.8847000000D-02 Coefficients=  5.6711579430D-01
     Exponent=  3.7709000000D-02 Coefficients=  2.6423720530D-01
 S 1 1.00 0.000000000000
     Exponent=  1.6004690000D-02 Coefficients=  1.0000000000D+00
 P 11 1.00 0.000000000000
     Exponent=  5.0741460000D+01 Coefficients= -6.3326854890D-04
     Exponent=  2.7941651000D+01 Coefficients=  7.8867661710D-04
     Exponent=  1.5539822000D+01 Coefficients= -3.4394535930D-03
     Exponent=  8.6814570000D+00 Coefficients=  8.1179312710D-03
     Exponent=  4.8416490000D+00 Coefficients= -6.3628278120D-03
     Exponent=  2.6736900000D+00 Coefficients=  2.6327812960D-02
     Exponent=  1.4457010000D+00 Coefficients= -3.2000376840D-02
     Exponent=  7.5371100000D-01 Coefficients=  4.5457346960D-02
     Exponent=  3.7109400000D-01 Coefficients=  1.0945410750D-03
     Exponent=  1.6792100000D-01 Coefficients=  4.5070128220D-01
     Exponent=  5.0232974900D-02 Coefficients=  6.3226232190D-01
 S 1 1.00 0.000000000000
     Exponent=  8.1897510000D+00 Coefficients=  1.0000000000D+00
 S 1 1.00 0.000000000000
     Exponent=  3.9742370000D+00 Coefficients=  1.0000000000D+00
 S 1 1.00 0.000000000000
     Exponent=  1.9285760000D+00 Coefficients=  1.0000000000D+00
 S 1 1.00 0.000000000000
     Exponent=  9.3587900000D-01 Coefficients=  1.0000000000D+00
 S 1 1.00 0.000000000000
     Exponent=  4.5415400000D-01 Coefficients=  1.0000000000D+00
 S 1 1.00 0.000000000000
     Exponent=  2.2038700000D-01 Coefficients=  1.0000000000D+00
 P 1 1.00 0.000000000000
     Exponent=  4.4112850000D+00 Coefficients=  1.0000000000D+00
 P 1 1.00 0.000000000000
     Exponent=  2.2071420000D+00 Coefficients=  1.0000000000D+00
 P 1 1.00 0.000000000000
     Exponent=  1.1043220000D+00 Coefficients=  1.0000000000D+00
 P 1 1.00 0.000000000000
     Exponent=  5.5253600000D-01 Coefficients=  1.0000000000D+00
 P 1 1.00 0.000000000000
     Exponent=  2.7645600000D-01 Coefficients=  1.0000000000D+00
 P 1 1.00 0.000000000000
     Exponent=  1.3832200000D-01 Coefficients=  1.0000000000D+00
 P 1 1.00 0.000000000000
     Exponent=  6.9208000000D-02 Coefficients=  1.0000000000D+00
 D 1 1.00 0.000000000000
     Exponent=  8.9154630000D+00 Coefficients=  1.0000000000D+00
 D 1 1.00 0.000000000000
     Exponent=  4.0274500000D+00 Coefficients=  1.0000000000D+00
 D 1 1.00 0.000000000000
     Exponent=  1.8193510000D+00 Coefficients=  1.0000000000D+00
 D 1 1.00 0.000000000000
     Exponent=  8.2186900000D-01 Coefficients=  1.0000000000D+00
 D 1 1.00 0.000000000000
     Exponent=  3.7126900000D-01 Coefficients=  1.0000000000D+00
 D 1 1.00 0.000000000000
     Exponent=  1.6771600000D-01 Coefficients=  1.0000000000D+00
 D 1 1.00 0.000000000000
     Exponent=  7.5763000000D-02 Coefficients=  1.0000000000D+00
 F 1 1.00 0.000000000000
     Exponent=  1.9025832000D+01 Coefficients=  1.0000000000D+00
 F 1 1.00 0.000000000000
     Exponent=  8.3358560000D+00 Coefficients=  1.0000000000D+00
 F 1 1.00 0.000000000000
     Exponent=  3.6522190000D+00 Coefficients=  1.0000000000D+00
 F 1 1.00 0.000000000000
     Exponent=  1.6001600000D+00 Coefficients=  1.0000000000D+00
 F 1 1.00 0.000000000000
     Exponent=  7.0108400000D-01 Coefficients=  1.0000000000D+00
 F 1 1.00 0.000000000000
     Exponent=  3.0716800000D-01 Coefficients=  1.0000000000D+00
 F 1 1.00 0.000000000000
     Exponent=  1.3458000000D-01 Coefficients=  1.0000000000D+00
 G 1 1.00 0.000000000000
     Exponent=  1.4931445000D+01 Coefficients=  1.0000000000D+00
 G 1 1.00 0.000000000000
     Exponent=  6.5411240000D+00 Coefficients=  1.0000000000D+00
 G 1 1.00 0.000000000000
     Exponent=  2.8655170000D+00 Coefficients=  1.0000000000D+00
 G 1 1.00 0.000000000000
     Exponent=  1.2553170000D+00 Coefficients=  1.0000000000D+00
 G 1 1.00 0.000000000000
     Exponent=  5.4992600000D-01 Coefficients=  1.0000000000D+00
 G 1 1.00 0.000000000000
     Exponent=  2.4091000000D-01 Coefficients=  1.0000000000D+00
 H 1 1.00 0.000000000000
     Exponent=  1.2873733000D+01 Coefficients=  1.0000000000D+00
 H 1 1.00 0.000000000000
     Exponent=  5.5056450000D+00 Coefficients=  1.0000000000D+00
 H 1 1.00 0.000000000000
     Exponent=  2.3545710000D+00 Coefficients=  1.0000000000D+00
 H 1 1.00 0.000000000000
     Exponent=  1.0069680000D+00 Coefficients=  1.0000000000D+00
 H 1 1.00 0.000000000000
     Exponent=  4.3064500000D-01 Coefficients=  1.0000000000D+00
 I 1 1.00 0.000000000000
     Exponent=  1.2469555000D+01 Coefficients=  1.0000000000D+00
 I 1 1.00 0.000000000000
     Exponent=  5.0338700000D+00 Coefficients=  1.0000000000D+00
 I 1 1.00 0.000000000000
     Exponent=  2.0321370000D+00 Coefficients=  1.0000000000D+00
 I 1 1.00 0.000000000000
     Exponent=  8.2035900000D-01 Coefficients=  1.0000000000D+00
 J 1 1.00 0.000000000000
     Exponent=  9.8003540000D+00 Coefficients=  1.0000000000D+00
 J 1 1.00 0.000000000000
     Exponent=  3.5786390000D+00 Coefficients=  1.0000000000D+00
 J 1 1.00 0.000000000000
     Exponent=  1.3067540000D+00 Coefficients=  1.0000000000D+00
 K 1 1.00 0.000000000000
     Exponent=  6.9786081700D+00 Coefficients=  1.0000000000D+00
 ****
 AO basis set in the form of general basis input (Overlap normalization):
      1 0
 S  18 1.00       0.000000000000
      0.4348290390D+08  0.6068700320D-06
      0.8397125720D+07  0.3640548657D-05
      0.1944234120D+07  0.2066323099D-04
      0.5259932200D+06  0.9446534484D-04
      0.1624744880D+06  0.3698680059D-03
      0.5613046270D+05  0.1264441161D-02
      0.2129383970D+05  0.3864824827D-02
      0.8727836900D+04  0.1072642041D-01
      0.3810281920D+04  0.2728507461D-01
      0.1749744110D+04  0.6338608487D-01
      0.8360261520D+03  0.1317108755D+00
      0.4116889660D+03  0.2324982021D+00
      0.2072226870D+03  0.3135105105D+00
      0.1058523750D+03  0.2612287021D+00
      0.5452816100D+02  0.9464922366D-01
      0.2816879500D+02  0.8177246300D-02
      0.1451927400D+02  0.6524783734D-03
      0.7432040000D+01 -0.2220070691D-03
 S  15 1.00       0.000000000000
      0.2129383970D+05 -0.5215444056D-05
      0.8727836900D+04 -0.3126238978D-04
      0.3810281920D+04 -0.2131134852D-03
      0.1749744110D+04 -0.1057229994D-02
      0.8360261520D+03 -0.4833446142D-02
      0.4116889660D+03 -0.1778541959D-01
      0.2072226870D+03 -0.5241885199D-01
      0.1058523750D+03 -0.9048281142D-01
      0.5452816100D+02 -0.1324582194D-01
      0.2816879500D+02  0.3085403402D+00
      0.1451927400D+02  0.5330396427D+00
      0.7432040000D+01  0.2535963206D+00
      0.3760915000D+01  0.2566673151D-01
      0.1873004000D+01  0.3636924347D-02
      0.9137060000D+00 -0.3296552818D-03
 P  17 1.00       0.000000000000
      0.1205765420D+06  0.2293510811D-05
      0.3097786750D+05  0.1922027743D-04
      0.9816265580D+04  0.1230859356D-03
      0.3652265700D+04  0.5951177128D-03
      0.1533198640D+04  0.2349701974D-02
      0.7036302740D+03  0.7862473788D-02
      0.3445004480D+03  0.2288440974D-01
      0.1766567880D+03  0.5832131139D-01
      0.9360023500D+02  0.1273430840D+00
      0.5074146000D+02  0.2256884833D+00
      0.2794165100D+02  0.3071231444D+00
      0.1553982200D+02  0.2761271989D+00
      0.8681457000D+01  0.1313311023D+00
      0.4841649000D+01  0.2689422366D-01
      0.2673690000D+01  0.2014248842D-02
      0.1445701000D+01 -0.1213868403D-04
      0.7537110000D+00 -0.1179201928D-03
 S  14 1.00       0.000000000000
      0.4116889660D+03  0.1206874498D-03
      0.2072226870D+03  0.5986008138D-03
      0.1058523750D+03  0.2852385055D-02
      0.5452816100D+02  0.1901519570D-02
      0.2816879500D+02 -0.3288674424D-01
      0.1451927400D+02 -0.1783798503D+00
      0.7432040000D+01 -0.1271878233D+00
      0.3760915000D+01  0.3371054254D+00
      0.1873004000D+01  0.5877669332D+00
      0.9137060000D+00  0.2816399063D+00
      0.4344190000D+00  0.1987598505D-01
      0.2001830000D+00  0.2336990164D-02
      0.8884700000D-01 -0.8827365913D-03
      0.3770900000D-01  0.2342353113D-03
 P  16 1.00       0.000000000000
      0.3652265700D+04 -0.2643755935D-06
      0.1533198640D+04 -0.3640024612D-05
      0.7036302740D+03 -0.2690480156D-04
      0.3445004480D+03 -0.1696241872D-03
      0.1766567880D+03 -0.8401797537D-03
      0.9360023500D+02 -0.3327007144D-02
      0.5074146000D+02 -0.9209714749D-02
      0.2794165100D+02 -0.1902717366D-01
      0.1553982200D+02 -0.1202419335D-01
      0.8681457000D+01  0.8162665479D-01
      0.4841649000D+01  0.2498940119D+00
      0.2673690000D+01  0.3563758557D+00
      0.1445701000D+01  0.3031611213D+00
      0.7537110000D+00  0.1295046444D+00
      0.3710940000D+00  0.1747016048D-01
      0.1679210000D+00  0.1605027336D-02
 D  16 1.00       0.000000000000
      0.3298968450D+04  0.5105021649D-05
      0.1057206500D+04  0.5006552859D-04
      0.4083774570D+03  0.3372221579D-03
      0.1806001790D+03  0.1637084290D-02
      0.8781934500D+02  0.6235124609D-02
      0.4552849800D+02  0.1870283600D-01
      0.2459602800D+02  0.4588954309D-01
      0.1362015200D+02  0.9657510448D-01
      0.7641486000D+01  0.1648040220D+00
      0.4307354000D+01  0.2210530279D+00
      0.2423093000D+01  0.2430173239D+00
      0.1351436000D+01  0.2279026489D+00
      0.7412970000D+00  0.1806299040D+00
      0.3955040000D+00  0.1120329890D+00
      0.2020520000D+00  0.4431939579D-01
      0.9670300000D-01  0.6651080998D-02
 S  11 1.00       0.000000000000
      0.5452816100D+02 -0.3266106438D-04
      0.2816879500D+02  0.2875225411D-03
      0.1451927400D+02  0.2466187268D-02
      0.7432040000D+01  0.1975767673D-02
      0.3760915000D+01 -0.1274987519D-01
      0.1873004000D+01 -0.5055778115D-01
      0.9137060000D+00 -0.1203606458D+00
      0.4344190000D+00 -0.1319623614D-01
      0.2001830000D+00  0.3002274422D+00
      0.8884700000D-01  0.5671157943D+00
      0.3770900000D-01  0.2642372053D+00
 S   1 1.00       0.000000000000
      0.1600469000D-01  0.1000000000D+01
 P  11 1.00       0.000000000000
      0.5074146000D+02 -0.6332685489D-03
      0.2794165100D+02  0.7886766171D-03
      0.1553982200D+02 -0.3439453593D-02
      0.8681457000D+01  0.8117931271D-02
      0.4841649000D+01 -0.6362827812D-02
      0.2673690000D+01  0.2632781296D-01
      0.1445701000D+01 -0.3200037684D-01
      0.7537110000D+00  0.4545734696D-01
      0.3710940000D+00  0.1094541075D-02
      0.1679210000D+00  0.4507012822D+00
      0.5023297490D-01  0.6322623219D+00
 S   1 1.00       0.000000000000
      0.8189751000D+01  0.1000000000D+01
 S   1 1.00       0.000000000000
      0.3974237000D+01  0.1000000000D+01
 S   1 1.00       0.000000000000
      0.1928576000D+01  0.1000000000D+01
 S   1 1.00       0.000000000000
      0.9358790000D+00  0.1000000000D+01
 S   1 1.00       0.000000000000
      0.4541540000D+00  0.1000000000D+01
 S   1 1.00       0.000000000000
      0.2203870000D+00  0.1000000000D+01
 P   1 1.00       0.000000000000
      0.4411285000D+01  0.1000000000D+01
 P   1 1.00       0.000000000000
      0.2207142000D+01  0.1000000000D+01
 P   1 1.00       0.000000000000
      0.1104322000D+01  0.1000000000D+01
 P   1 1.00       0.000000000000
      0.5525360000D+00  0.1000000000D+01
 P   1 1.00       0.000000000000
      0.2764560000D+00  0.1000000000D+01
 P   1 1.00       0.000000000000
      0.1383220000D+00  0.1000000000D+01
 P   1 1.00       0.000000000000
      0.6920800000D-01  0.1000000000D+01
 D   1 1.00       0.000000000000
      0.8915463000D+01  0.1000000000D+01
 D   1 1.00       0.000000000000
      0.4027450000D+01  0.1000000000D+01
 D   1 1.00       0.000000000000
      0.1819351000D+01  0.1000000000D+01
 D   1 1.00       0.000000000000
      0.8218690000D+00  0.1000000000D+01
 D   1 1.00       0.000000000000
      0.3712690000D+00  0.1000000000D+01
 D   1 1.00       0.000000000000
      0.1677160000D+00  0.1000000000D+01
 D   1 1.00       0.000000000000
      0.7576300000D-01  0.1000000000D+01
 F   1 1.00       0.000000000000
      0.1902583200D+02  0.1000000000D+01
 F   1 1.00       0.000000000000
      0.8335856000D+01  0.1000000000D+01
 F   1 1.00       0.000000000000
      0.3652219000D+01  0.1000000000D+01
 F   1 1.00       0.000000000000
      0.1600160000D+01  0.1000000000D+01
 F   1 1.00       0.000000000000
      0.7010840000D+00  0.1000000000D+01
 F   1 1.00       0.000000000000
      0.3071680000D+00  0.1000000000D+01
 F   1 1.00       0.000000000000
      0.1345800000D+00  0.1000000000D+01
 G   1 1.00       0.000000000000
      0.1493144500D+02  0.1000000000D+01
 G   1 1.00       0.000000000000
      0.6541124000D+01  0.1000000000D+01
 G   1 1.00       0.000000000000
      0.2865517000D+01  0.1000000000D+01
 G   1 1.00       0.000000000000
      0.1255317000D+01  0.1000000000D+01
 G   1 1.00       0.000000000000
      0.5499260000D+00  0.1000000000D+01
 G   1 1.00       0.000000000000
      0.2409100000D+00  0.1000000000D+01
 H   1 1.00       0.000000000000
      0.1287373300D+02  0.1000000000D+01
 H   1 1.00       0.000000000000
      0.5505645000D+01  0.1000000000D+01
 H   1 1.00       0.000000000000
      0.2354571000D+01  0.1000000000D+01
 H   1 1.00       0.000000000000
      0.1006968000D+01  0.1000000000D+01
 H   1 1.00       0.000000000000
      0.4306450000D+00  0.1000000000D+01
 I   1 1.00       0.000000000000
      0.1246955500D+02  0.1000000000D+01
 I   1 1.00       0.000000000000
      0.5033870000D+01  0.1000000000D+01
 I   1 1.00       0.000000000000
      0.2032137000D+01  0.1000000000D+01
 I   1 1.00       0.000000000000
      0.8203590000D+00  0.1000000000D+01
 J   1 1.00       0.000000000000
      0.9800354000D+01  0.1000000000D+01
 J   1 1.00       0.000000000000
      0.3578639000D+01  0.1000000000D+01
 J   1 1.00       0.000000000000
      0.1306754000D+01  0.1000000000D+01
 K   1 1.00       0.000000000000
      0.6978608170D+01  0.1000000000D+01
 ****
      2 0
 S  17 1.00       0.000000000000
      0.3048244770D+07  0.8396810573D-06
      0.5369968820D+06  0.5676545607D-05
      0.1199883200D+06  0.3254964624D-04
      0.3245363880D+05  0.1460551024D-03
      0.1021678190D+05  0.5510724130D-03
      0.3623944150D+04  0.1811665599D-02
      0.1410396690D+04  0.5358354648D-02
      0.5895474470D+03  0.1452539685D-01
      0.2602273170D+03  0.3633701983D-01
      0.1196906900D+03  0.8281703613D-01
      0.5676751100D+02  0.1661259345D+00
      0.2753188800D+02  0.2741990864D+00
      0.1355825000D+02  0.3232958507D+00
      0.6735532000D+01  0.2025864722D+00
      0.3352805000D+01  0.4301269879D-01
      0.1659369000D+01  0.2646600918D-02
      0.8087840000D+00  0.5220454936D-03
 S  11 1.00       0.000000000000
      0.2602273170D+03 -0.2385176003D-03
      0.1196906900D+03 -0.9798822232D-03
      0.5676751100D+02 -0.4826796172D-02
      0.2753188800D+02 -0.1721310513D-01
      0.1355825000D+02 -0.4852233298D-01
      0.6735532000D+01 -0.6936525834D-01
      0.3352805000D+01  0.3551075826D-01
      0.1659369000D+01  0.2641572510D+00
      0.8087840000D+00  0.4234159692D+00
      0.3835520000D+00  0.3317589638D+00
      0.1742700000D+00  0.7587766348D-01
 S   1 1.00       0.000000000000
      0.1003107033D+00  0.1000000000D+01
 P  14 1.00       0.000000000000
      0.4131222500D+04  0.6941429714D-05
      0.1005024520D+04  0.6277603815D-04
      0.3153760590D+03  0.3928396657D-03
      0.1184334420D+03  0.1785103608D-02
      0.5027007200D+02  0.6387638435D-02
      0.2312552200D+02  0.1888831068D-01
      0.1119294000D+02  0.4840532696D-01
      0.5586791000D+01  0.1064977579D+00
      0.2838035000D+01  0.1869575638D+00
      0.1453994000D+01  0.2545242188D+00
      0.7454810000D+00  0.2744026778D+00
      0.3790260000D+00  0.2294936918D+00
      0.1885760000D+00  0.1210457339D+00
      0.8997400000D-01  0.2246455738D-01
 P   1 1.00       0.000000000000
      0.5438434490D-01  0.1000000000D+01
 S   1 1.00       0.000000000000
      0.1068242600D+02  0.1000000000D+01
 S   1 1.00       0.000000000000
      0.4919101000D+01  0.1000000000D+01
 S   1 1.00       0.000000000000
      0.2265174000D+01  0.1000000000D+01
 S   1 1.00       0.000000000000
      0.1043079000D+01  0.1000000000D+01
 S   1 1.00       0.000000000000
      0.4803230000D+00  0.1000000000D+01
 S   1 1.00       0.000000000000
      0.2211820000D+00  0.1000000000D+01
 P   1 1.00       0.000000000000
      0.6754664000D+01  0.1000000000D+01
 P   1 1.00       0.000000000000
      0.3104005000D+01  0.1000000000D+01
 P   1 1.00       0.000000000000
      0.1426399000D+01  0.1000000000D+01
 P   1 1.00       0.000000000000
      0.6554800000D+00  0.1000000000D+01
 P   1 1.00       0.000000000000
      0.3012160000D+00  0.1000000000D+01
 P   1 1.00       0.000000000000
      0.1384190000D+00  0.1000000000D+01
 D   1 1.00       0.000000000000
      0.1635237200D+02  0.1000000000D+01
 D   1 1.00       0.000000000000
      0.7681640000D+01  0.1000000000D+01
 D   1 1.00       0.000000000000
      0.3608503000D+01  0.1000000000D+01
 D   1 1.00       0.000000000000
      0.1695119000D+01  0.1000000000D+01
 D   1 1.00       0.000000000000
      0.7962940000D+00  0.1000000000D+01
 D   1 1.00       0.000000000000
      0.3740650000D+00  0.1000000000D+01
 D   1 1.00       0.000000000000
      0.1757190000D+00  0.1000000000D+01
 F   1 1.00       0.000000000000
      0.8996481000D+01  0.1000000000D+01
 F   1 1.00       0.000000000000
      0.4445515000D+01  0.1000000000D+01
 F   1 1.00       0.000000000000
      0.2196704000D+01  0.1000000000D+01
 F   1 1.00       0.000000000000
      0.1085478000D+01  0.1000000000D+01
 F   1 1.00       0.000000000000
      0.5363770000D+00  0.1000000000D+01
 F   1 1.00       0.000000000000
      0.2650440000D+00  0.1000000000D+01
 G   1 1.00       0.000000000000
      0.9784986000D+01  0.1000000000D+01
 G   1 1.00       0.000000000000
      0.4586666000D+01  0.1000000000D+01
 G   1 1.00       0.000000000000
      0.2149978000D+01  0.1000000000D+01
 G   1 1.00       0.000000000000
      0.1007792000D+01  0.1000000000D+01
 G   1 1.00       0.000000000000
      0.4723977000D+00  0.1000000000D+01
 H   1 1.00       0.000000000000
      0.6419402000D+01  0.1000000000D+01
 H   1 1.00       0.000000000000
      0.2953824000D+01  0.1000000000D+01
 H   1 1.00       0.000000000000
      0.1359173000D+01  0.1000000000D+01
 H   1 1.00       0.000000000000
      0.6254100000D+00  0.1000000000D+01
 I   1 1.00       0.000000000000
      0.5940514000D+01  0.1000000000D+01
 I   1 1.00       0.000000000000
      0.2322489000D+01  0.1000000000D+01
 I   1 1.00       0.000000000000
      0.9079946000D+00  0.1000000000D+01
 J   1 1.00       0.000000000000
      0.3904785650D+01  0.1000000000D+01
 ****

 There are   203 symmetry adapted basis functions of A1  symmetry.
 There are   105 symmetry adapted basis functions of A2  symmetry.
 There are   149 symmetry adapted basis functions of B1  symmetry.
 There are   149 symmetry adapted basis functions of B2  symmetry.
 Integral buffers will be    131072 words long.
 Raffenetti 2 integral format.
 Two-electron integral symmetry is turned on.
   606 basis functions,  1365 primitive gaussians,  1033 cartesian basis functions
    20 alpha electrons       19 beta electrons
       nuclear repulsion energy        80.8132614928 Hartrees.
 IExCor=    0 DFT=F Ex=HF Corr=None ExCW=0 ScaHFX=  1.000000
 ScaDFX=  1.000000  1.000000  1.000000  1.000000 ScalE2=  1.000000  1.000000
 IRadAn=      5 IRanWt=     -1 IRanGd=            0 ICorTp=0
 NAtoms=    2 NActive=    2 NUniq=    2 SFac= 7.50D-01 NAtFMM=   80 NAOKFM=F Big=F
 Leave Link  301 at Sat Jul 20 17:54:24 2013, MaxMem=17179869184 cpu:      25.4
 (Enter /share/apps/gaussian/g09root/g09/l302.exe)
 NPDir=0 NMtPBC=     1 NCelOv=     1 NCel=       1 NClECP=     1 NCelD=      1
         NCelK=      1 NCelE2=     1 NClLst=     1 CellRange=     0.0.
 One-electron integrals computed using PRISM.
 NBasis=   606 RedAO= F  NBF=   203   105   149   149
 NBsUse=   606 1.00D-04 NBFU=   203   105   149   149
 Leave Link  302 at Sat Jul 20 17:54:25 2013, MaxMem=17179869184 cpu:      29.8
 (Enter /share/apps/gaussian/g09root/g09/l303.exe)
 DipDrv:  MaxL=1.
 Leave Link  303 at Sat Jul 20 17:54:26 2013, MaxMem=17179869184 cpu:       8.7
 (Enter /share/apps/gaussian/g09root/g09/l401.exe)
 Harris functional with IExCor=  205 diagonalized for initial guess.
 ExpMin= 1.60D-02 ExpMax= 4.35D+07 ExpMxC= 8.73D+03 IAcc=3 IRadAn=         5 AccDes= 0.00D+00
 HarFok:  IExCor=  205 AccDes= 0.00D+00 IRadAn=         5 IDoV= 1
 ScaDFX=  1.000000  1.000000  1.000000  1.000000
 FoFCou: FMM=F IPFlag=           0 FMFlag=      100000 FMFlg1=           0
         NFxFlg=           0 DoJE=T BraDBF=F KetDBF=T FulRan=T
         Omega=  0.000000  0.000000  1.000000  0.000000  0.000000 ICntrl=     500 IOpCl=  0
         NMat0=    1 NMatS0=    1 NMatT0=    0 NMatD0=    1 NMtDS0=    0 NMtDT0=    0
         I1Cent=           4 NGrid=           0.
 Petite list used in FoFCou.
 Harris En= -1876.64627236564    
 Initial guess orbital symmetries:
       Occupied  (SG) (SG) (SG) (PI) (PI) (SG) (SG) (SG) (PI) (PI)
                 (SG) (SG) (PI) (PI) (DLTA) (DLTA) (PI) (PI) (SG)
                 (SG)
       Virtual   (PI) (PI) (SG) (SG) (SG) (PI) (PI) (PI) (PI) (DLTA)
                 (DLTA) (SG) (SG) (SG) (PI) (PI) (SG) (DLTA) (DLTA)
                 (PI) (PI) (PHI) (PHI) (PI) (PI) (SG) (SG) (PI)
                 (PI) (SG) (DLTA) (DLTA) (PI) (PI) (DLTA) (DLTA)
                 (SG) (PI) (PI) (SG) (PHI) (PHI) (SG) (PI) (PI)
                 (SG) (DLTA) (DLTA) (?A) (?A) (PI) (PI) (PHI) (PHI)
                 (SG) (DLTA) (DLTA) (PI) (PI) (PHI) (PHI) (SG)
                 (DLTA) (DLTA) (PI) (PI) (SG) (DLTA) (DLTA) (SG)
                 (PI) (PI) (PI) (PI) (DLTA) (DLTA) (SG) (SG) (PI)
                 (PI) (?A) (?A) (SG) (PHI) (PHI) (SG) (?B) (?B)
                 (DLTA) (DLTA) (PI) (PI) (PHI) (PHI) (?A) (?A)
                 (PI) (PI) (SG) (PI) (PI) (DLTA) (DLTA) (SG) (DLTA)
                 (DLTA) (PHI) (PHI) (DLTA) (DLTA) (PI) (PI) (SG)
                 (?A) (?A) (PHI) (PHI) (PHI) (PHI) (DLTA) (DLTA)
                 (SG) (PI) (PI) (SG) (PI) (PI) (SG) (DLTA) (DLTA)
                 (PI) (PI) (?B) (?B) (?A) (?A) (PI) (PI) (SG) (DLTA)
                 (DLTA) (PHI) (PHI) (SG) (DLTA) (DLTA) (PI) (PI)
                 (PI) (PI) (SG) (SG) (SG) (?B) (?B) (PHI) (PHI)
                 (SG) (SG) (?A) (?A) (PI) (PI) (?A) (?A) (DLTA)
                 (DLTA) (PHI) (PHI) (SG) (DLTA) (DLTA) (PI) (PI)
                 (PHI) (PHI) (SG) (PI) (PI) (DLTA) (DLTA) (?B)
                 (?B) (SG) (PHI) (PHI) (?A) (?A) (SG) (SG) (PI)
                 (PI) (DLTA) (DLTA) (PHI) (PHI) (DLTA) (DLTA) (?B)
                 (?B) (SG) (PI) (PI) (?A) (?A) (SG) (PHI) (PHI)
                 (DLTA) (DLTA) (PI) (PI) (?A) (?A) (SG) (SG) (PI)
                 (PI) (DLTA) (DLTA) (PHI) (PHI) (PI) (PI) (SG)
                 (PI) (PI) (SG) (PI) (PI) (SG) (DLTA) (DLTA) (DLTA)
                 (DLTA) (?B) (?B) (?A) (?A) (DLTA) (DLTA) (PHI)
                 (PHI) (SG) (PI) (PI) (SG) (SG) (?C) (?C) (?C)
                 (?C) (?B) (?B) (SG) (?A) (?A) (PHI) (PHI) (DLTA)
                 (DLTA) (PI) (PI) (SG) (PHI) (PHI) (SG) (DLTA)
                 (DLTA) (?A) (?A) (SG) (PHI) (PHI) (PI) (PI) (DLTA)
                 (DLTA) (PI) (PI) (SG) (PHI) (PHI) (DLTA) (DLTA)
                 (SG) (PI) (PI) (DLTA) (DLTA) (SG) (SG) (?B) (?B)
                 (SG) (?A) (?A) (?D) (?D) (?E) (?E) (?D) (?D) (?D)
                 (?D) (?E) (?E) (DLTA) (DLTA) (PI) (PI) (PHI) (PHI)
                 (SG) (SG) (PHI) (PHI) (PI) (PI) (DLTA) (DLTA)
                 (SG) (PI) (PI) (DLTA) (DLTA) (SG) (PI) (PI) (SG)
                 (SG) (SG) (?B) (?B) (?A) (?A) (PHI) (PHI) (DLTA)
                 (DLTA) (PI) (PI) (SG) (?B) (?B) (?A) (?A) (PI)
                 (PI) (PHI) (PHI) (DLTA) (DLTA) (SG) (SG) (PI)
                 (PI) (SG) (DLTA) (DLTA) (PI) (PI) (PHI) (PHI)
                 (DLTA) (DLTA) (SG) (PI) (PI) (SG) (?A) (?A) (PHI)
                 (PHI) (DLTA) (DLTA) (PI) (PI) (SG) (SG) (PI) (PI)
                 (SG) (PI) (PI) (?A) (?A) (PHI) (PHI) (DLTA) (DLTA)
                 (SG) (PI) (PI) (PHI) (PHI) (DLTA) (DLTA) (?A)
                 (?A) (PI) (PI) (SG) (SG) (PI) (PI) (PHI) (PHI)
                 (PI) (PI) (SG) (DLTA) (DLTA) (DLTA) (DLTA) (PI)
                 (PI) (SG) (PI) (PI) (?A) (?A) (PHI) (PHI) (SG)
                 (DLTA) (DLTA) (PI) (PI) (?B) (?B) (?A) (?A) (PHI)
                 (PHI) (SG) (DLTA) (DLTA) (PI) (PI) (SG) (SG) (SG)
                 (?B) (?B) (?A) (?A) (PHI) (PHI) (DLTA) (DLTA)
                 (PI) (PI) (SG) (PI) (PI) (SG) (SG) (SG) (SG) (?B)
                 (?B) (?A) (?A) (PHI) (PHI) (DLTA) (DLTA) (PI)
                 (PI) (SG) (?B) (?B) (?A) (?A) (PHI) (PHI) (DLTA)
                 (DLTA) (PI) (PI) (SG) (PHI) (PHI) (DLTA) (DLTA)
                 (PI) (PI) (SG) (SG) (PI) (PI) (?F) (?G) (?G) (?G)
                 (?G) (?H) (?F) (?H) (?H) (?G) (?G) (?H) (?F) (?G)
                 (?G) (?F) (?F) (SG) (DLTA) (DLTA) (PI) (PI) (?A)
                 (?A) (PHI) (PHI) (DLTA) (DLTA) (SG) (PI) (PI)
                 (SG) (DLTA) (DLTA) (PI) (PI) (SG) (PHI) (PHI)
                 (DLTA) (DLTA) (PI) (PI) (?A) (?A) (PHI) (PHI)
                 (SG) (DLTA) (DLTA) (PI) (PI) (SG) (SG) (SG) (PI)
                 (PI) (PI) (PI) (?A) (?A) (PHI) (PHI) (DLTA) (DLTA)
                 (SG) (PI) (PI) (?B) (?B) (?A) (?A) (PHI) (PHI)
                 (DLTA) (DLTA) (PI) (PI) (SG) (SG) (SG) (?B) (?B)
                 (?A) (?A) (PHI) (PHI) (DLTA) (DLTA) (PI) (PI)
                 (SG) (SG) (SG)
 The electronic state of the initial guess is 2-SG.
 Leave Link  401 at Sat Jul 20 17:55:07 2013, MaxMem=17179869184 cpu:     999.7
 (Enter /share/apps/gaussian/g09root/g09/l502.exe)
 Restricted open shell SCF:
 Requested convergence on RMS density matrix=1.00D-10 within 128 cycles.
 Requested convergence on MAX density matrix=1.00D-08.
 Requested convergence on             energy=1.00D-08.
 No special actions if energy rises.
 Using DIIS extrapolation, IDIIS=  1040.
 Integral symmetry usage will be decided dynamically.
 IEnd=     3251405 IEndB=     3251405 NGot= 17179869184 MDV= 17177702542
 LenX= 17177702542 LenY= 17176634420
 Fock matrices will be formed incrementally for  20 cycles.

 Cycle   1  Pass 0  IDiag  1:
 FoFCou: FMM=F IPFlag=           0 FMFlag=      100000 FMFlg1=           0
         NFxFlg=           0 DoJE=F BraDBF=F KetDBF=F FulRan=T
         Omega=  0.000000  0.000000  1.000000  0.000000  0.000000 ICntrl=       0 IOpCl=  1
         NMat0=    1 NMatS0=    1 NMatT0=    0 NMatD0=    1 NMtDS0=    0 NMtDT0=    0
         I1Cent=           0 NGrid=           0.
 Petite list used in FoFCou.
 E= -1877.08672757651    
 DIIS: error= 3.52D-01 at cycle   1 NSaved=   1.
 NSaved= 1 IEnMin= 1 EnMin= -1877.08672757651     IErMin= 1 ErrMin= 3.52D-01
 ErrMax= 3.52D-01 EMaxC= 1.00D-01 BMatC= 2.63D+00 BMatP= 2.63D+00
 IDIUse=3 WtCom= 0.00D+00 WtEn= 1.00D+00
 Coeff-Com:  0.100D+01
 Coeff-En:   0.100D+01
 Coeff:      0.100D+01
 Gap=     0.182 Goal=   None    Shift=    0.000
 GapD=    0.182 DampG=1.000 DampE=0.125 DampFc=0.1250 IDamp=-1.
 Damping current iteration by 1.25D-01
 RMSDP=1.92D-03 MaxDP=3.70D-01              OVMax= 2.04D-01

 Cycle   2  Pass 0  IDiag  1:
 RMSU=  1.74D-04    CP:  9.95D-01
 E= -1877.13382950059     Delta-E=       -0.047101924078 Rises=F Damp=T
 DIIS: error= 3.07D-01 at cycle   2 NSaved=   2.
 NSaved= 2 IEnMin= 2 EnMin= -1877.13382950059     IErMin= 2 ErrMin= 3.07D-01
 ErrMax= 3.07D-01 EMaxC= 1.00D-01 BMatC= 1.88D+00 BMatP= 2.63D+00
 IDIUse=3 WtCom= 0.00D+00 WtEn= 1.00D+00
 Coeff-Com: -0.431D+01 0.531D+01
 Coeff-En:   0.000D+00 0.100D+01
 Coeff:      0.000D+00 0.100D+01
 Gap=     0.147 Goal=   None    Shift=    0.000
 RMSDP=1.53D-03 MaxDP=2.53D-01 DE=-4.71D-02 OVMax= 1.45D-01

 Cycle   3  Pass 0  IDiag  1:
 RMSU=  7.89D-04    CP:  9.56D-01  3.00D+00
 E= -1877.24148347652     Delta-E=       -0.107653975933 Rises=F Damp=F
 DIIS: error= 4.72D-02 at cycle   3 NSaved=   3.
 NSaved= 3 IEnMin= 3 EnMin= -1877.24148347652     IErMin= 3 ErrMin= 4.72D-02
 ErrMax= 4.72D-02 EMaxC= 1.00D-01 BMatC= 4.47D-01 BMatP= 1.88D+00
 IDIUse=3 WtCom= 5.28D-01 WtEn= 4.72D-01
 EnCoef did   100 forward-backward iterations
 Coeff-Com:  0.358D+01-0.389D+01 0.131D+01
 Coeff-En:   0.198D+00 0.777D-02 0.795D+00
 Coeff:      0.198D+01-0.205D+01 0.107D+01
 Gap=     0.140 Goal=   None    Shift=    0.000
 RMSDP=1.34D-03 MaxDP=4.22D-01 DE=-1.08D-01 OVMax= 3.55D-01

 Cycle   4  Pass 0  IDiag  1:
 RMSU=  1.08D-03    CP:  9.18D-01  3.00D+00  4.73D-01
 E= -1877.30418391730     Delta-E=       -0.062700440780 Rises=F Damp=F
 DIIS: error= 2.42D-02 at cycle   4 NSaved=   4.
 NSaved= 4 IEnMin= 4 EnMin= -1877.30418391730     IErMin= 4 ErrMin= 2.42D-02
 ErrMax= 2.42D-02 EMaxC= 1.00D-01 BMatC= 1.29D-01 BMatP= 4.47D-01
 IDIUse=3 WtCom= 7.58D-01 WtEn= 2.42D-01
 Coeff-Com:  0.667D+00-0.769D+00 0.462D+00 0.640D+00
 Coeff-En:   0.000D+00 0.000D+00 0.234D+00 0.766D+00
 Coeff:      0.506D+00-0.583D+00 0.407D+00 0.670D+00
 Gap=     0.136 Goal=   None    Shift=    0.000
 RMSDP=1.17D-03 MaxDP=3.54D-01 DE=-6.27D-02 OVMax= 2.20D-01

 Cycle   5  Pass 0  IDiag  1:
 RMSU=  7.63D-04    CP:  9.32D-01  3.00D+00  6.88D-01  2.95D-01
 E= -1877.34331622546     Delta-E=       -0.039132308152 Rises=F Damp=F
 DIIS: error= 3.04D-03 at cycle   5 NSaved=   5.
 NSaved= 5 IEnMin= 5 EnMin= -1877.34331622546     IErMin= 5 ErrMin= 3.04D-03
 ErrMax= 3.04D-03 EMaxC= 1.00D-01 BMatC= 2.85D-03 BMatP= 1.29D-01
 IDIUse=3 WtCom= 9.70D-01 WtEn= 3.04D-02
 Coeff-Com:  0.348D+00-0.403D+00 0.171D+00 0.259D+00 0.625D+00
 Coeff-En:   0.000D+00 0.000D+00 0.000D+00 0.000D+00 0.100D+01
 Coeff:      0.338D+00-0.391D+00 0.166D+00 0.252D+00 0.636D+00
 Gap=     0.139 Goal=   None    Shift=    0.000
 RMSDP=9.04D-04 MaxDP=4.91D-01 DE=-3.91D-02 OVMax= 3.29D-02

 Cycle   6  Pass 0  IDiag  1:
 RMSU=  3.20D-04    CP:  9.34D-01  3.00D+00  7.40D-01  3.74D-01 -4.52D-02
 E= -1877.34423217050     Delta-E=       -0.000915945049 Rises=F Damp=F
 DIIS: error= 1.22D-03 at cycle   6 NSaved=   6.
 NSaved= 6 IEnMin= 6 EnMin= -1877.34423217050     IErMin= 6 ErrMin= 1.22D-03
 ErrMax= 1.22D-03 EMaxC= 1.00D-01 BMatC= 1.83D-04 BMatP= 2.85D-03
 IDIUse=3 WtCom= 9.88D-01 WtEn= 1.22D-02
 Coeff-Com:  0.194D+00-0.222D+00 0.243D-01-0.245D-01 0.563D-01 0.972D+00
 Coeff-En:   0.000D+00 0.000D+00 0.000D+00 0.000D+00 0.000D+00 0.100D+01
 Coeff:      0.192D+00-0.220D+00 0.240D-01-0.242D-01 0.557D-01 0.972D+00
 Gap=     0.134 Goal=   None    Shift=    0.000
 RMSDP=2.20D-04 MaxDP=1.37D-01 DE=-9.16D-04 OVMax= 1.34D-02

 Cycle   7  Pass 0  IDiag  1:
 RMSU=  8.73D-05    CP:  9.33D-01  3.00D+00  7.24D-01  3.74D-01  1.70D-01
                    CP:  7.05D-01
 E= -1877.34456938684     Delta-E=       -0.000337216338 Rises=F Damp=F
 DIIS: error= 9.74D-04 at cycle   7 NSaved=   7.
 NSaved= 7 IEnMin= 7 EnMin= -1877.34456938684     IErMin= 7 ErrMin= 9.74D-04
 ErrMax= 9.74D-04 EMaxC= 1.00D-01 BMatC= 6.45D-05 BMatP= 1.83D-04
 IDIUse=3 WtCom= 9.90D-01 WtEn= 9.74D-03
 Coeff-Com:  0.117D+00-0.134D+00 0.193D-01-0.129D-01-0.608D-01-0.128D+00
 Coeff-Com:  0.120D+01
 Coeff-En:   0.000D+00 0.000D+00 0.000D+00 0.000D+00 0.000D+00 0.000D+00
 Coeff-En:   0.100D+01
 Coeff:      0.116D+00-0.133D+00 0.191D-01-0.127D-01-0.602D-01-0.127D+00
 Coeff:      0.120D+01
 Gap=     0.134 Goal=   None    Shift=    0.000
 RMSDP=1.22D-04 MaxDP=7.83D-02 DE=-3.37D-04 OVMax= 1.14D-02

 Cycle   8  Pass 0  IDiag  1:
 RMSU=  2.38D-05    CP:  9.34D-01  3.00D+00  7.37D-01  3.53D-01  5.95D-02
                    CP:  8.90D-01  5.79D-01
 E= -1877.34472359441     Delta-E=       -0.000154207565 Rises=F Damp=F
 DIIS: error= 5.82D-04 at cycle   8 NSaved=   8.
 NSaved= 8 IEnMin= 8 EnMin= -1877.34472359441     IErMin= 8 ErrMin= 5.82D-04
 ErrMax= 5.82D-04 EMaxC= 1.00D-01 BMatC= 2.38D-05 BMatP= 6.45D-05
 IDIUse=3 WtCom= 9.94D-01 WtEn= 5.82D-03
 Coeff-Com:  0.425D-01-0.488D-01 0.126D-01 0.844D-02-0.462D-02-0.267D+00
 Coeff-Com: -0.254D+00 0.151D+01
 Coeff-En:   0.000D+00 0.000D+00 0.000D+00 0.000D+00 0.000D+00 0.000D+00
 Coeff-En:   0.000D+00 0.100D+01
 Coeff:      0.423D-01-0.485D-01 0.126D-01 0.839D-02-0.459D-02-0.266D+00
 Coeff:     -0.253D+00 0.151D+01
 Gap=     0.134 Goal=   None    Shift=    0.000
 RMSDP=5.78D-05 MaxDP=3.13D-02 DE=-1.54D-04 OVMax= 1.03D-02

 Cycle   9  Pass 0  IDiag  1:
 RMSU=  2.95D-05    CP:  9.34D-01  3.00D+00  7.43D-01  3.47D-01  5.75D-03
                    CP:  9.52D-01  5.12D-01  1.16D+00
 E= -1877.34479653392     Delta-E=       -0.000072939511 Rises=F Damp=F
 DIIS: error= 2.19D-04 at cycle   9 NSaved=   9.
 NSaved= 9 IEnMin= 9 EnMin= -1877.34479653392     IErMin= 9 ErrMin= 2.19D-04
 ErrMax= 2.19D-04 EMaxC= 1.00D-01 BMatC= 3.58D-06 BMatP= 2.38D-05
 IDIUse=3 WtCom= 9.98D-01 WtEn= 2.19D-03
 Coeff-Com:  0.105D-01-0.120D-01 0.217D-02 0.270D-03 0.577D-02 0.228D-01
 Coeff-Com: -0.897D-01-0.354D+00 0.141D+01
 Coeff-En:   0.000D+00 0.000D+00 0.000D+00 0.000D+00 0.000D+00 0.000D+00
 Coeff-En:   0.000D+00 0.000D+00 0.100D+01
 Coeff:      0.104D-01-0.120D-01 0.217D-02 0.269D-03 0.576D-02 0.228D-01
 Coeff:     -0.895D-01-0.354D+00 0.141D+01
 Gap=     0.134 Goal=   None    Shift=    0.000
 RMSDP=1.53D-05 MaxDP=4.95D-03 DE=-7.29D-05 OVMax= 5.59D-03

 Cycle  10  Pass 0  IDiag  1:
 RMSU=  3.01D-06    CP:  9.34D-01  3.00D+00  7.44D-01  3.40D-01  1.58D-02
                    CP:  9.50D-01  5.43D-01  1.46D+00  8.92D-01
 E= -1877.34480882900     Delta-E=       -0.000012295078 Rises=F Damp=F
 DIIS: error= 7.17D-05 at cycle  10 NSaved=  10.
 NSaved=10 IEnMin=10 EnMin= -1877.34480882900     IErMin=10 ErrMin= 7.17D-05
 ErrMax= 7.17D-05 EMaxC= 1.00D-01 BMatC= 2.31D-07 BMatP= 3.58D-06
 IDIUse=1 WtCom= 1.00D+00 WtEn= 0.00D+00
 Coeff-Com:  0.365D-02-0.417D-02 0.298D-03-0.110D-02 0.945D-03 0.236D-01
 Coeff-Com:  0.248D-01-0.260D+00 0.352D+00 0.860D+00
 Coeff:      0.365D-02-0.417D-02 0.298D-03-0.110D-02 0.945D-03 0.236D-01
 Coeff:      0.248D-01-0.260D+00 0.352D+00 0.860D+00
 Gap=     0.134 Goal=   None    Shift=    0.000
 RMSDP=3.06D-05 MaxDP=1.93D-02 DE=-1.23D-05 OVMax= 1.09D-03

 Cycle  11  Pass 0  IDiag  1:
 RMSU=  1.61D-06    CP:  9.35D-01  3.00D+00  7.47D-01  3.40D-01 -1.47D-02
                    CP:  9.89D-01  4.35D-01  1.49D+00  1.14D+00  7.39D-01
 E= -1877.34480939105     Delta-E=       -0.000000562059 Rises=F Damp=F
 DIIS: error= 2.98D-05 at cycle  11 NSaved=  11.
 NSaved=11 IEnMin=11 EnMin= -1877.34480939105     IErMin=11 ErrMin= 2.98D-05
 ErrMax= 2.98D-05 EMaxC= 1.00D-01 BMatC= 3.29D-08 BMatP= 2.31D-07
 IDIUse=1 WtCom= 1.00D+00 WtEn= 0.00D+00
 Coeff-Com:  0.150D-02-0.172D-02 0.164D-03-0.362D-03-0.882D-03-0.437D-03
 Coeff-Com:  0.224D-01-0.181D-01-0.102D+00 0.132D+00 0.967D+00
 Coeff:      0.150D-02-0.172D-02 0.164D-03-0.362D-03-0.882D-03-0.437D-03
 Coeff:      0.224D-01-0.181D-01-0.102D+00 0.132D+00 0.967D+00
 Gap=     0.134 Goal=   None    Shift=    0.000
 RMSDP=1.02D-05 MaxDP=6.70D-03 DE=-5.62D-07 OVMax= 5.22D-04

 Cycle  12  Pass 0  IDiag  1:
 RMSU=  4.71D-07    CP:  9.35D-01  3.00D+00  7.46D-01  3.39D-01 -4.93D-03
                    CP:  9.75D-01  4.82D-01  1.47D+00  1.13D+00  8.75D-01
                    CP:  5.53D-01
 E= -1877.34480949260     Delta-E=       -0.000000101548 Rises=F Damp=F
 DIIS: error= 1.07D-05 at cycle  12 NSaved=  12.
 NSaved=12 IEnMin=12 EnMin= -1877.34480949260     IErMin=12 ErrMin= 1.07D-05
 ErrMax= 1.07D-05 EMaxC= 1.00D-01 BMatC= 4.94D-09 BMatP= 3.29D-08
 IDIUse=1 WtCom= 1.00D+00 WtEn= 0.00D+00
 Coeff-Com:  0.319D-03-0.366D-03 0.788D-04 0.377D-04-0.462D-03-0.428D-02
 Coeff-Com:  0.405D-02 0.288D-01-0.750D-01-0.120D+00 0.205D+00 0.962D+00
 Coeff:      0.319D-03-0.366D-03 0.788D-04 0.377D-04-0.462D-03-0.428D-02
 Coeff:      0.405D-02 0.288D-01-0.750D-01-0.120D+00 0.205D+00 0.962D+00
 Gap=     0.134 Goal=   None    Shift=    0.000
 RMSDP=4.83D-06 MaxDP=3.22D-03 DE=-1.02D-07 OVMax= 1.87D-04

 Cycle  13  Pass 0  IDiag  1:
 RMSU=  1.12D-07    CP:  9.35D-01  3.00D+00  7.47D-01  3.39D-01 -9.53D-03
                    CP:  9.82D-01  4.62D-01  1.49D+00  1.14D+00  8.68D-01
                    CP:  7.75D-01  8.09D-01
 E= -1877.34480950655     Delta-E=       -0.000000013943 Rises=F Damp=F
 DIIS: error= 1.50D-06 at cycle  13 NSaved=  13.
 NSaved=13 IEnMin=13 EnMin= -1877.34480950655     IErMin=13 ErrMin= 1.50D-06
 ErrMax= 1.50D-06 EMaxC= 1.00D-01 BMatC= 2.64D-10 BMatP= 4.94D-09
 IDIUse=1 WtCom= 1.00D+00 WtEn= 0.00D+00
 Coeff-Com:  0.583D-04-0.670D-04 0.191D-04 0.260D-04 0.688D-04 0.425D-04
 Coeff-Com: -0.237D-02-0.193D-02 0.254D-01-0.936D-02-0.150D+00-0.917D-01
 Coeff-Com:  0.123D+01
 Coeff:      0.583D-04-0.670D-04 0.191D-04 0.260D-04 0.688D-04 0.425D-04
 Coeff:     -0.237D-02-0.193D-02 0.254D-01-0.936D-02-0.150D+00-0.917D-01
 Coeff:      0.123D+01
 Gap=     0.134 Goal=   None    Shift=    0.000
 RMSDP=4.14D-07 MaxDP=2.55D-04 DE=-1.39D-08 OVMax= 3.63D-05

 Initial convergence to 1.0D-05 achieved.  Increase integral accuracy.
 Cycle  14  Pass 1  IDiag  1:
 E= -1877.34480950729     Delta-E=       -0.000000000746 Rises=F Damp=F
 DIIS: error= 3.72D-07 at cycle   1 NSaved=   1.
 NSaved= 1 IEnMin= 1 EnMin= -1877.34480950729     IErMin= 1 ErrMin= 3.72D-07
 ErrMax= 3.72D-07 EMaxC= 1.00D-01 BMatC= 1.30D-11 BMatP= 1.30D-11
 IDIUse=1 WtCom= 1.00D+00 WtEn= 0.00D+00
 Coeff-Com:  0.100D+01
 Coeff:      0.100D+01
 Gap=     0.134 Goal=   None    Shift=    0.000
 RMSDP=4.14D-07 MaxDP=2.55D-04 DE=-7.46D-10 OVMax= 1.21D-05

 Cycle  15  Pass 1  IDiag  1:
 RMSU=  1.03D-07    CP:  1.00D+00
 E= -1877.34480950734     Delta-E=       -0.000000000043 Rises=F Damp=F
 DIIS: error= 2.00D-07 at cycle   2 NSaved=   2.
 NSaved= 2 IEnMin= 2 EnMin= -1877.34480950734     IErMin= 2 ErrMin= 2.00D-07
 ErrMax= 2.00D-07 EMaxC= 1.00D-01 BMatC= 4.38D-12 BMatP= 1.30D-11
 IDIUse=1 WtCom= 1.00D+00 WtEn= 0.00D+00
 Coeff-Com:  0.289D+00 0.711D+00
 Coeff:      0.289D+00 0.711D+00
 Gap=     0.134 Goal=   None    Shift=    0.000
 RMSDP=4.73D-08 MaxDP=2.58D-05 DE=-4.27D-11 OVMax= 4.06D-06

 Cycle  16  Pass 1  IDiag  1:
 RMSU=  3.35D-08    CP:  1.00D+00  1.32D+00
 E= -1877.34480950734     Delta-E=       -0.000000000002 Rises=F Damp=F
 DIIS: error= 6.34D-08 at cycle   3 NSaved=   3.
 NSaved= 3 IEnMin= 3 EnMin= -1877.34480950734     IErMin= 3 ErrMin= 6.34D-08
 ErrMax= 6.34D-08 EMaxC= 1.00D-01 BMatC= 6.74D-13 BMatP= 4.38D-12
 IDIUse=1 WtCom= 1.00D+00 WtEn= 0.00D+00
 Coeff-Com: -0.920D-01 0.146D+00 0.946D+00
 Coeff:     -0.920D-01 0.146D+00 0.946D+00
 Gap=     0.134 Goal=   None    Shift=    0.000
 RMSDP=4.67D-08 MaxDP=2.99D-05 DE=-1.59D-12 OVMax= 1.01D-06

 Cycle  17  Pass 1  IDiag  1:
 RMSU=  5.10D-09    CP:  1.00D+00  8.98D-01  5.53D-01
 E= -1877.34480950733     Delta-E=        0.000000000005 Rises=F Damp=F
 DIIS: error= 2.15D-08 at cycle   4 NSaved=   4.
 NSaved= 4 IEnMin= 3 EnMin= -1877.34480950734     IErMin= 4 ErrMin= 2.15D-08
 ErrMax= 2.15D-08 EMaxC= 1.00D-01 BMatC= 1.05D-13 BMatP= 6.74D-13
 IDIUse=1 WtCom= 1.00D+00 WtEn= 0.00D+00
 Coeff-Com: -0.478D-01-0.349D-01 0.270D+00 0.813D+00
 Coeff:     -0.478D-01-0.349D-01 0.270D+00 0.813D+00
 Gap=     0.134 Goal=   None    Shift=    0.000
 RMSDP=1.61D-08 MaxDP=1.05D-05 DE= 4.77D-12 OVMax= 3.55D-07

 Cycle  18  Pass 1  IDiag  1:
 RMSU=  1.75D-09    CP:  1.00D+00  1.05D+00  6.14D-01  7.51D-01
 E= -1877.34480950733     Delta-E=       -0.000000000001 Rises=F Damp=F
 DIIS: error= 9.58D-09 at cycle   5 NSaved=   5.
 NSaved= 5 IEnMin= 3 EnMin= -1877.34480950734     IErMin= 5 ErrMin= 9.58D-09
 ErrMax= 9.58D-09 EMaxC= 1.00D-01 BMatC= 1.88D-14 BMatP= 1.05D-13
 IDIUse=1 WtCom= 1.00D+00 WtEn= 0.00D+00
 Coeff-Com: -0.112D-01-0.131D-01-0.425D-01 0.177D+00 0.890D+00
 Coeff:     -0.112D-01-0.131D-01-0.425D-01 0.177D+00 0.890D+00
 Gap=     0.134 Goal=   None    Shift=    0.000
 RMSDP=5.24D-09 MaxDP=3.09D-06 DE=-6.82D-13 OVMax= 1.92D-07

 Cycle  19  Pass 1  IDiag  1:
 RMSU=  4.27D-10    CP:  1.00D+00  1.09D+00  6.93D-01  7.33D-01  8.77D-01
 E= -1877.34480950733     Delta-E=        0.000000000002 Rises=F Damp=F
 DIIS: error= 8.44D-09 at cycle   6 NSaved=   6.
 NSaved= 6 IEnMin= 3 EnMin= -1877.34480950734     IErMin= 6 ErrMin= 8.44D-09
 ErrMax= 8.44D-09 EMaxC= 1.00D-01 BMatC= 3.07D-15 BMatP= 1.88D-14
 IDIUse=1 WtCom= 1.00D+00 WtEn= 0.00D+00
 Coeff-Com:  0.475D-02 0.783D-02-0.561D-01-0.122D+00 0.171D+00 0.995D+00
 Coeff:      0.475D-02 0.783D-02-0.561D-01-0.122D+00 0.171D+00 0.995D+00
 Gap=     0.134 Goal=   None    Shift=    0.000
 RMSDP=5.50D-09 MaxDP=3.59D-06 DE= 2.05D-12 OVMax= 1.53D-07

 Cycle  20  Pass 1  IDiag  1:
 RMSU=  1.24D-10    CP:  1.00D+00  1.04D+00  6.41D-01  8.39D-01  7.30D-01
                    CP:  1.27D+00
 E= -1877.34480950734     Delta-E=       -0.000000000007 Rises=F Damp=F
 DIIS: error= 3.77D-09 at cycle   7 NSaved=   7.
 NSaved= 7 IEnMin= 7 EnMin= -1877.34480950734     IErMin= 7 ErrMin= 3.77D-09
 ErrMax= 3.77D-09 EMaxC= 1.00D-01 BMatC= 3.88D-16 BMatP= 3.07D-15
 IDIUse=1 WtCom= 1.00D+00 WtEn= 0.00D+00
 Coeff-Com:  0.173D-02 0.408D-02-0.639D-02-0.514D-01-0.913D-01 0.259D+00
 Coeff-Com:  0.884D+00
 Coeff:      0.173D-02 0.408D-02-0.639D-02-0.514D-01-0.913D-01 0.259D+00
 Coeff:      0.884D+00
 Gap=     0.134 Goal=   None    Shift=    0.000
 RMSDP=2.42D-09 MaxDP=1.60D-06 DE=-6.82D-12 OVMax= 5.85D-08

 Cycle  21  Pass 1  IDiag  1:
 RMSU=  6.29D-11    CP:  1.00D+00  1.07D+00  6.57D-01  7.93D-01  8.84D-01
                    CP:  1.14D+00  8.86D-01
 E= -1877.34480950733     Delta-E=        0.000000000003 Rises=F Damp=F
 DIIS: error= 8.25D-10 at cycle   8 NSaved=   8.
 NSaved= 8 IEnMin= 7 EnMin= -1877.34480950734     IErMin= 8 ErrMin= 8.25D-10
 ErrMax= 8.25D-10 EMaxC= 1.00D-01 BMatC= 1.67D-17 BMatP= 3.88D-16
 IDIUse=1 WtCom= 1.00D+00 WtEn= 0.00D+00
 Coeff-Com:  0.204D-04 0.355D-03 0.197D-02-0.216D-02-0.124D-01-0.317D-01
 Coeff-Com:  0.100D+00 0.944D+00
 Coeff:      0.204D-04 0.355D-03 0.197D-02-0.216D-02-0.124D-01-0.317D-01
 Coeff:      0.100D+00 0.944D+00
 Gap=     0.134 Goal=   None    Shift=    0.000
 RMSDP=4.92D-10 MaxDP=3.29D-07 DE= 3.18D-12 OVMax= 1.34D-08

 Cycle  22  Pass 1  IDiag  1:
 RMSU=  1.41D-11    CP:  1.00D+00  1.06D+00  6.54D-01  8.02D-01  8.49D-01
                    CP:  1.21D+00  9.52D-01  8.52D-01
 E= -1877.34480950734     Delta-E=       -0.000000000004 Rises=F Damp=F
 DIIS: error= 2.25D-10 at cycle   9 NSaved=   9.
 NSaved= 9 IEnMin= 9 EnMin= -1877.34480950734     IErMin= 9 ErrMin= 2.25D-10
 ErrMax= 2.25D-10 EMaxC= 1.00D-01 BMatC= 2.68D-18 BMatP= 1.67D-17
 IDIUse=1 WtCom= 1.00D+00 WtEn= 0.00D+00
 Coeff-Com: -0.827D-04-0.835D-04 0.520D-03 0.210D-02 0.357D-02-0.253D-01
 Coeff-Com: -0.317D-01 0.292D+00 0.759D+00
 Coeff:     -0.827D-04-0.835D-04 0.520D-03 0.210D-02 0.357D-02-0.253D-01
 Coeff:     -0.317D-01 0.292D+00 0.759D+00
 Gap=     0.134 Goal=   None    Shift=    0.000
 RMSDP=1.35D-10 MaxDP=8.92D-08 DE=-4.32D-12 OVMax= 3.35D-09

 Cycle  23  Pass 1  IDiag  1:
 RMSU=  2.15D-12    CP:  1.00D+00  1.06D+00  6.55D-01  8.00D-01  8.55D-01
                    CP:  1.20D+00  9.57D-01  9.14D-01  8.90D-01
 E= -1877.34480950734     Delta-E=       -0.000000000005 Rises=F Damp=F
 DIIS: error= 3.75D-11 at cycle  10 NSaved=  10.
 NSaved=10 IEnMin=10 EnMin= -1877.34480950734     IErMin=10 ErrMin= 3.75D-11
 ErrMax= 3.75D-11 EMaxC= 1.00D-01 BMatC= 1.69D-19 BMatP= 2.68D-18
 IDIUse=1 WtCom= 1.00D+00 WtEn= 0.00D+00
 Coeff-Com: -0.360D-04-0.245D-04-0.894D-04 0.664D-03 0.187D-02-0.400D-03
 Coeff-Com: -0.163D-01-0.584D-01 0.636D-01 0.101D+01
 Coeff:     -0.360D-04-0.245D-04-0.894D-04 0.664D-03 0.187D-02-0.400D-03
 Coeff:     -0.163D-01-0.584D-01 0.636D-01 0.101D+01
 Gap=     0.134 Goal=   None    Shift=    0.000
 RMSDP=1.77D-11 MaxDP=9.53D-09 DE=-4.77D-12 OVMax= 7.57D-10

 SCF Done:  E(ROHF) =  -1877.34480951     A.U. after   23 cycles
             Convg  =    0.1769D-10             -V/T =  2.0000
 <Sx>= 0.0000 <Sy>= 0.0000 <Sz>= 0.5000 <S**2>= 0.7500 S= 0.5000
 <L.S>= 0.000000000000E+00
 KE= 1.877357145301D+03 PE=-4.662374294411D+03 EE= 8.268590781095D+02
 Annihilation of the first spin contaminant:
 S**2 before annihilation     0.7500,   after     0.7500
 DiagDN has N=   606 LTot=  1850 but NE2=     3 cannot use DSYEVD.
 Leave Link  502 at Sun Jul 21 02:36:19 2013, MaxMem=17179869184 cpu:  749146.7
 (Enter /share/apps/gaussian/g09root/g09/l801.exe)
 GenMOA:  NOpAll=  4 NOp2=4 NOpUse=  4 JSym2X=1
 FoFCou: FMM=F IPFlag=           0 FMFlag=           0 FMFlg1=           0
         NFxFlg=           0 DoJE=F BraDBF=F KetDBF=F FulRan=T
         Omega=  0.000000  0.000000  1.000000  0.000000  0.000000 ICntrl=       0 IOpCl=  1
         NMat0=    1 NMatS0=    1 NMatT0=    0 NMatD0=    1 NMtDS0=    0 NMtDT0=    0
         I1Cent=           0 NGrid=           0.
 Petite list used in FoFCou.
 <Sx>= 0.0000 <Sy>= 0.0000 <Sz>= 0.5000 <S**2>= 0.7500 S= 0.5000
 Range of M.O.s used for correlation:    11   606
 NBasis=   606 NAE=    20 NBE=    19 NFC=    10 NFV=     0
 NROrb=    596 NOA=    10 NOB=     9 NVA=   586 NVB=   587

 **** Warning!!: The largest alpha MO coefficient is  0.33249171D+03


 **** Warning!!: The largest beta MO coefficient is  0.33249171D+03

 Singles contribution to E2=   -0.4972765557D-03
 Leave Link  801 at Sun Jul 21 02:57:31 2013, MaxMem=17179869184 cpu:   30458.8
 (Enter /share/apps/gaussian/g09root/g09/l906.exe)
 FulOut=F Deriv=F AODrv=F NAtomX=     2
   MMem=           0  MDisk=          10 MDiskD=          10
  W3Min=    12127420 MinDsk=    12566463 NBas6D=        1033
 NBas2D=      544126    NTT=      534061    LW2=   251210375
    MDV= 17175467728 MDiskM=        4104 NBas2p=      541166
 Disk-based method using OVN memory for 10 occupieds at a time.
 Permanent disk used for amplitudes and <ij||ab> integrals=    89726562 words.
 Estimated scratch disk usage=  9554854724 words.
 IUseRI=2 ITolRI= 6 IR12RI=0
 IMap=   1   2   3   4   5   6   7   8   9  10
 Actual    scratch disk usage=  9538570744 words.
 GetIJB would need an additional  3353188766 words of memory to use all  24 processors.
 JobTyp=2 Pass  1:  I=   1 to  10 NPSUse= 20 ParTrn=T ParDer=T DoDerP=F.
 T,EIJ(AA): I=   1 J=   2      0.4354794E-04     -0.2967418E-03
 T,EIJ(AA): I=   1 J=   3      0.1080637E-04     -0.7981217E-04
 T,EIJ(AA): I=   1 J=   4      0.1080637E-04     -0.7981217E-04
 T,EIJ(AA): I=   1 J=   5      0.2470438E-04     -0.1812373E-03
 T,EIJ(AA): I=   1 J=   6      0.2470438E-04     -0.1812373E-03
 T,EIJ(AA): I=   1 J=   7      0.4302646E-03     -0.2721466E-02
 T,EIJ(AA): I=   1 J=   8      0.4921748E-03     -0.3119421E-02
 T,EIJ(AA): I=   1 J=   9      0.4921748E-03     -0.3119421E-02
 T,EIJ(AA): I=   1 J=  10      0.4533364E-04     -0.2421309E-03
 T,EIJ(AA): I=   2 J=   3      0.7226288E-03     -0.6179021E-02
 T,EIJ(AA): I=   2 J=   4      0.7226288E-03     -0.6179021E-02
 T,EIJ(AA): I=   2 J=   5      0.1063568E-02     -0.1006023E-01
 T,EIJ(AA): I=   2 J=   6      0.1063568E-02     -0.1006023E-01
 T,EIJ(AA): I=   2 J=   7      0.1293539E-03     -0.6812099E-03
 T,EIJ(AA): I=   2 J=   8      0.1622034E-03     -0.9265759E-03
 T,EIJ(AA): I=   2 J=   9      0.1622034E-03     -0.9265759E-03
 T,EIJ(AA): I=   2 J=  10      0.4529164E-03     -0.1854507E-02
 T,EIJ(AA): I=   3 J=   4      0.1327230E-02     -0.1261498E-01
 T,EIJ(AA): I=   3 J=   5      0.8719584E-03     -0.7926511E-02
 T,EIJ(AA): I=   3 J=   6      0.8719584E-03     -0.7926511E-02
 T,EIJ(AA): I=   3 J=   7      0.1417362E-03     -0.9181901E-03
 T,EIJ(AA): I=   3 J=   8      0.4435061E-04     -0.2836163E-03
 T,EIJ(AA): I=   3 J=   9      0.4435061E-04     -0.2836163E-03
 T,EIJ(AA): I=   3 J=  10      0.4343157E-03     -0.1865790E-02
 T,EIJ(AA): I=   4 J=   5      0.8719584E-03     -0.7926511E-02
 T,EIJ(AA): I=   4 J=   6      0.8719584E-03     -0.7926511E-02
 T,EIJ(AA): I=   4 J=   7      0.1417362E-03     -0.9181901E-03
 T,EIJ(AA): I=   4 J=   8      0.4435061E-04     -0.2836163E-03
 T,EIJ(AA): I=   4 J=   9      0.4435061E-04     -0.2836163E-03
 T,EIJ(AA): I=   4 J=  10      0.4343157E-03     -0.1865790E-02
 T,EIJ(AA): I=   5 J=   6      0.8393817E-03     -0.7721545E-02
 T,EIJ(AA): I=   5 J=   7      0.1901347E-03     -0.1346209E-02
 T,EIJ(AA): I=   5 J=   8      0.6534230E-04     -0.4051482E-03
 T,EIJ(AA): I=   5 J=   9      0.3109597E-04     -0.1478239E-03
 T,EIJ(AA): I=   5 J=  10      0.4328818E-03     -0.1873764E-02
 T,EIJ(AA): I=   6 J=   7      0.1901347E-03     -0.1346209E-02
 T,EIJ(AA): I=   6 J=   8      0.3109597E-04     -0.1478239E-03
 T,EIJ(AA): I=   6 J=   9      0.6534230E-04     -0.4051482E-03
 T,EIJ(AA): I=   6 J=  10      0.4328818E-03     -0.1873764E-02
 T,EIJ(AA): I=   7 J=   8      0.1959202E-02     -0.8846924E-02
 T,EIJ(AA): I=   7 J=   9      0.1959202E-02     -0.8846924E-02
 T,EIJ(AA): I=   7 J=  10      0.2546009E-03     -0.6370714E-03
 T,EIJ(AA): I=   8 J=   9      0.2170561E-02     -0.9842283E-02
 T,EIJ(AA): I=   8 J=  10      0.3719348E-03     -0.1037346E-02
 T,EIJ(AA): I=   9 J=  10      0.3719348E-03     -0.1037346E-02
 T,EIJ(AB): I=   1 J=   1      0.1311295E-02     -0.1201198E-01
 T,EIJ(AB): I=   1 J=   2      0.1228437E-04     -0.1023345E-03
 T,EIJ(AB): I=   1 J=   3      0.1228437E-04     -0.1023345E-03
 T,EIJ(AB): I=   1 J=   4      0.4082881E-04     -0.3235765E-03
 T,EIJ(AB): I=   1 J=   5      0.4082881E-04     -0.3235765E-03
 T,EIJ(AB): I=   1 J=   6      0.1178689E-03     -0.9677704E-03
 T,EIJ(AB): I=   1 J=   7      0.1473265E-02     -0.1066045E-01
 T,EIJ(AB): I=   1 J=   8      0.1492856E-02     -0.1132761E-01
 T,EIJ(AB): I=   1 J=   9      0.1492856E-02     -0.1132761E-01
 T,EIJ(AB): I=   2 J=   1      0.1190552E-03     -0.9876582E-03
 T,EIJ(AB): I=   2 J=   2      0.1079451E-02     -0.9879005E-02
 T,EIJ(AB): I=   2 J=   3      0.1079451E-02     -0.9879005E-02
 T,EIJ(AB): I=   2 J=   4      0.1158001E-02     -0.1104294E-01
 T,EIJ(AB): I=   2 J=   5      0.1158001E-02     -0.1104294E-01
 T,EIJ(AB): I=   2 J=   6      0.1793352E-02     -0.1750912E-01
 T,EIJ(AB): I=   2 J=   7      0.5089621E-03     -0.3423557E-02
 T,EIJ(AB): I=   2 J=   8      0.2080541E-03     -0.1263992E-02
 T,EIJ(AB): I=   2 J=   9      0.2080541E-03     -0.1263992E-02
 T,EIJ(AB): I=   3 J=   1      0.1216579E-04     -0.1006990E-03
 T,EIJ(AB): I=   3 J=   2      0.1367809E-02     -0.1284382E-01
 T,EIJ(AB): I=   3 J=   3      0.2072055E-02     -0.2026832E-01
 T,EIJ(AB): I=   3 J=   4      0.1143538E-02     -0.1083354E-01
 T,EIJ(AB): I=   3 J=   5      0.1143538E-02     -0.1083354E-01
 T,EIJ(AB): I=   3 J=   6      0.1134139E-02     -0.1006697E-01
 T,EIJ(AB): I=   3 J=   7      0.2105364E-03     -0.1265033E-02
 T,EIJ(AB): I=   3 J=   8      0.5368084E-04     -0.3707088E-03
 T,EIJ(AB): I=   3 J=   9      0.5368084E-04     -0.3707088E-03
 T,EIJ(AB): I=   4 J=   1      0.1216579E-04     -0.1006990E-03
 T,EIJ(AB): I=   4 J=   2      0.2072055E-02     -0.2026832E-01
 T,EIJ(AB): I=   4 J=   3      0.1367809E-02     -0.1284382E-01
 T,EIJ(AB): I=   4 J=   4      0.1143538E-02     -0.1083354E-01
 T,EIJ(AB): I=   4 J=   5      0.1143538E-02     -0.1083354E-01
 T,EIJ(AB): I=   4 J=   6      0.1134139E-02     -0.1006697E-01
 T,EIJ(AB): I=   4 J=   7      0.2105364E-03     -0.1265033E-02
 T,EIJ(AB): I=   4 J=   8      0.5368084E-04     -0.3707088E-03
 T,EIJ(AB): I=   4 J=   9      0.5368084E-04     -0.3707088E-03
 T,EIJ(AB): I=   5 J=   1      0.3999987E-04     -0.3131034E-03
 T,EIJ(AB): I=   5 J=   2      0.1145704E-02     -0.1084544E-01
 T,EIJ(AB): I=   5 J=   3      0.1145704E-02     -0.1084544E-01
 T,EIJ(AB): I=   5 J=   4      0.1101461E-02     -0.1055766E-01
 T,EIJ(AB): I=   5 J=   5      0.1908747E-02     -0.1925389E-01
 T,EIJ(AB): I=   5 J=   6      0.1182892E-02     -0.1113983E-01
 T,EIJ(AB): I=   5 J=   7      0.2384959E-03     -0.1611185E-02
 T,EIJ(AB): I=   5 J=   8      0.7988385E-04     -0.5266946E-03
 T,EIJ(AB): I=   5 J=   9      0.1363914E-03     -0.9317649E-03
 T,EIJ(AB): I=   6 J=   1      0.3999987E-04     -0.3131034E-03
 T,EIJ(AB): I=   6 J=   2      0.1145704E-02     -0.1084544E-01
 T,EIJ(AB): I=   6 J=   3      0.1145704E-02     -0.1084544E-01
 T,EIJ(AB): I=   6 J=   4      0.1908747E-02     -0.1925389E-01
 T,EIJ(AB): I=   6 J=   5      0.1101461E-02     -0.1055766E-01
 T,EIJ(AB): I=   6 J=   6      0.1182892E-02     -0.1113983E-01
 T,EIJ(AB): I=   6 J=   7      0.2384959E-03     -0.1611185E-02
 T,EIJ(AB): I=   6 J=   8      0.1363914E-03     -0.9317649E-03
 T,EIJ(AB): I=   6 J=   9      0.7988385E-04     -0.5266946E-03
 T,EIJ(AB): I=   7 J=   1      0.1371398E-02     -0.1021225E-01
 T,EIJ(AB): I=   7 J=   2      0.2354820E-03     -0.1381816E-02
 T,EIJ(AB): I=   7 J=   3      0.2354820E-03     -0.1381816E-02
 T,EIJ(AB): I=   7 J=   4      0.2520791E-03     -0.1701804E-02
 T,EIJ(AB): I=   7 J=   5      0.2520791E-03     -0.1701804E-02
 T,EIJ(AB): I=   7 J=   6      0.5228307E-03     -0.3493362E-02
 T,EIJ(AB): I=   7 J=   7      0.4826070E-02     -0.2250485E-01
 T,EIJ(AB): I=   7 J=   8      0.2555761E-02     -0.1218134E-01
 T,EIJ(AB): I=   7 J=   9      0.2555761E-02     -0.1218134E-01
 T,EIJ(AB): I=   8 J=   1      0.1528581E-02     -0.1146887E-01
 T,EIJ(AB): I=   8 J=   2      0.5017871E-04     -0.3515873E-03
 T,EIJ(AB): I=   8 J=   3      0.5017871E-04     -0.3515873E-03
 T,EIJ(AB): I=   8 J=   4      0.1364576E-03     -0.9266868E-03
 T,EIJ(AB): I=   8 J=   5      0.7978249E-04     -0.5226417E-03
 T,EIJ(AB): I=   8 J=   6      0.2159558E-03     -0.1253325E-02
 T,EIJ(AB): I=   8 J=   7      0.2997685E-02     -0.1317315E-01
 T,EIJ(AB): I=   8 J=   8      0.5009201E-02     -0.2588343E-01
 T,EIJ(AB): I=   8 J=   9      0.2813984E-02     -0.1357536E-01
 T,EIJ(AB): I=   9 J=   1      0.1528581E-02     -0.1146887E-01
 T,EIJ(AB): I=   9 J=   2      0.5017871E-04     -0.3515873E-03
 T,EIJ(AB): I=   9 J=   3      0.5017871E-04     -0.3515873E-03
 T,EIJ(AB): I=   9 J=   4      0.7978249E-04     -0.5226417E-03
 T,EIJ(AB): I=   9 J=   5      0.1364576E-03     -0.9266868E-03
 T,EIJ(AB): I=   9 J=   6      0.2159558E-03     -0.1253325E-02
 T,EIJ(AB): I=   9 J=   7      0.2997685E-02     -0.1317315E-01
 T,EIJ(AB): I=   9 J=   8      0.2813984E-02     -0.1357536E-01
 T,EIJ(AB): I=   9 J=   9      0.5009201E-02     -0.2588343E-01
 T,EIJ(AB): I=  10 J=   1      0.1368058E-03     -0.8452736E-03
 T,EIJ(AB): I=  10 J=   2      0.7232656E-03     -0.2711737E-02
 T,EIJ(AB): I=  10 J=   3      0.7232656E-03     -0.2711737E-02
 T,EIJ(AB): I=  10 J=   4      0.6892672E-03     -0.2705100E-02
 T,EIJ(AB): I=  10 J=   5      0.6892672E-03     -0.2705100E-02
 T,EIJ(AB): I=  10 J=   6      0.7336228E-03     -0.2771963E-02
 T,EIJ(AB): I=  10 J=   7      0.1014845E-02     -0.2688303E-02
 T,EIJ(AB): I=  10 J=   8      0.4452287E-03     -0.1347628E-02
 T,EIJ(AB): I=  10 J=   9      0.4452287E-03     -0.1347628E-02
 IMap=   1   2   3   4   5   6   7   8   9
 Actual    scratch disk usage=  9554848580 words.
 GetIJB would need an additional  3353165007 words of memory to use all  24 processors.
 JobTyp=3 Pass  1:  I=   1 to   9 NPSUse= 20 ParTrn=T ParDer=T DoDerP=F.
 T,EIJ(BB): I=   1 J=   2      0.1084452E-04     -0.7931242E-04
 T,EIJ(BB): I=   1 J=   3      0.1084452E-04     -0.7931242E-04
 T,EIJ(BB): I=   1 J=   4      0.2592395E-04     -0.1861257E-03
 T,EIJ(BB): I=   1 J=   5      0.2592395E-04     -0.1861257E-03
 T,EIJ(BB): I=   1 J=   6      0.4865679E-04     -0.3131060E-03
 T,EIJ(BB): I=   1 J=   7      0.5039111E-03     -0.3005731E-02
 T,EIJ(BB): I=   1 J=   8      0.5062361E-03     -0.3170766E-02
 T,EIJ(BB): I=   1 J=   9      0.5062361E-03     -0.3170766E-02
 T,EIJ(BB): I=   2 J=   3      0.1314198E-02     -0.1259331E-01
 T,EIJ(BB): I=   2 J=   4      0.8618153E-03     -0.7903205E-02
 T,EIJ(BB): I=   2 J=   5      0.8618153E-03     -0.7903205E-02
 T,EIJ(BB): I=   2 J=   6      0.7382654E-03     -0.6249258E-02
 T,EIJ(BB): I=   2 J=   7      0.1305401E-03     -0.8545924E-03
 T,EIJ(BB): I=   2 J=   8      0.4597220E-04     -0.2964606E-03
 T,EIJ(BB): I=   2 J=   9      0.4597220E-04     -0.2964606E-03
 T,EIJ(BB): I=   3 J=   4      0.8618153E-03     -0.7903205E-02
 T,EIJ(BB): I=   3 J=   5      0.8618153E-03     -0.7903205E-02
 T,EIJ(BB): I=   3 J=   6      0.7382654E-03     -0.6249258E-02
 T,EIJ(BB): I=   3 J=   7      0.1305401E-03     -0.8545924E-03
 T,EIJ(BB): I=   3 J=   8      0.4597220E-04     -0.2964606E-03
 T,EIJ(BB): I=   3 J=   9      0.4597220E-04     -0.2964606E-03
 T,EIJ(BB): I=   4 J=   5      0.8242180E-03     -0.7679171E-02
 T,EIJ(BB): I=   4 J=   6      0.1076412E-02     -0.1013122E-01
 T,EIJ(BB): I=   4 J=   7      0.1833310E-03     -0.1292466E-02
 T,EIJ(BB): I=   4 J=   8      0.3117704E-04     -0.1494173E-03
 T,EIJ(BB): I=   4 J=   9      0.6748767E-04     -0.4230916E-03
 T,EIJ(BB): I=   5 J=   6      0.1076412E-02     -0.1013122E-01
 T,EIJ(BB): I=   5 J=   7      0.1833310E-03     -0.1292466E-02
 T,EIJ(BB): I=   5 J=   8      0.6748767E-04     -0.4230916E-03
 T,EIJ(BB): I=   5 J=   9      0.3117704E-04     -0.1494173E-03
 T,EIJ(BB): I=   6 J=   7      0.1381911E-03     -0.6938150E-03
 T,EIJ(BB): I=   6 J=   8      0.1768615E-03     -0.9597567E-03
 T,EIJ(BB): I=   6 J=   9      0.1768615E-03     -0.9597567E-03
 T,EIJ(BB): I=   7 J=   8      0.2296098E-02     -0.9619283E-02
 T,EIJ(BB): I=   7 J=   9      0.2296098E-02     -0.9619283E-02
 T,EIJ(BB): I=   8 J=   9      0.2153511E-02     -0.9816469E-02
 Spin components of T(2) and E(2):
     alpha-alpha T2 =       0.2156388451D-01 E2=     -0.1434274119D+00
     alpha-beta  T2 =       0.8581934085D-01 E2=     -0.6009842288D+00
     beta-beta   T2 =       0.1910018875D-01 E2=     -0.1331308326D+00
 The integrals were generated   2 times.
 ANorm=    0.1061555158D+01
 E2 =    -0.8780397499D+00 EUMP2 =    -0.18782228492573D+04
 Leave Link  906 at Sun Jul 21 04:02:40 2013, MaxMem=17179869184 cpu:   76293.0
 (Enter /share/apps/gaussian/g09root/g09/l904.exe)

 Complete Basis Set (CBS) Extrapolation:
 M. R. Nyden and G. A. Petersson, JCP 75, 1843 (1981)
 G. A. Petersson and M. A. Al-Laham, JCP 94, 6081 (1991)
 G. A. Petersson, T. Tensfeldt, and J. A. Montgomery, JCP 94, 6091 (1991)
 J. A. Montgomery, J. W. Ochterski, and G. A. Petersson, JCP 101, 5900 (1994)
 
 Available Memory in CBS = **********
 Minimum Number of PNO for Extrapolation =  25
 Absolute Overlaps: IRadAn =         5
 LocTrn: ILocal=3 LocCor=F DoCore=F.
 Entering OneElI...
 Overlap between basis sets.
 Requested accuracy = 0.1000D-12
 PrsmSu:  NPrtUS=   1 ThrOK=F IAlg=1
 PRISM was handed 17178055185 working-precision words and    45 shell-pairs
 IPart=  0 NShTot=          45 NBatch=          11 AvBLen=         4.1
 CnvPC2: ToCart=F DoDens=F IPureD=0 IPureF=0.
 Transformed matrix in CnvPC2: 
                 1             2             3             4             5 
      1   0.100000D+01  0.397781D+00  0.000000D+00  0.000000D+00  0.000000D+00
      2   0.397781D+00  0.100000D+01  0.000000D+00  0.000000D+00  0.000000D+00
      3   0.000000D+00  0.000000D+00  0.100000D+01  0.000000D+00  0.000000D+00
      4   0.000000D+00  0.000000D+00  0.000000D+00  0.100000D+01  0.000000D+00
      5   0.000000D+00  0.000000D+00  0.000000D+00  0.000000D+00  0.100000D+01
      6   0.273329D-01  0.326933D+00  0.000000D+00  0.000000D+00  0.000000D+00
      7   0.000000D+00  0.000000D+00  0.339871D+00  0.000000D+00  0.000000D+00
      8   0.000000D+00  0.000000D+00  0.000000D+00  0.339871D+00  0.000000D+00
      9   0.000000D+00  0.000000D+00  0.000000D+00  0.000000D+00  0.339871D+00
     10   0.000000D+00  0.000000D+00  0.000000D+00  0.000000D+00  0.000000D+00
     11   0.000000D+00  0.000000D+00  0.000000D+00  0.000000D+00  0.000000D+00
     12   0.000000D+00  0.000000D+00  0.000000D+00  0.000000D+00  0.000000D+00
     13   0.000000D+00  0.000000D+00  0.000000D+00  0.000000D+00  0.000000D+00
     14   0.000000D+00  0.000000D+00  0.000000D+00  0.000000D+00  0.000000D+00
     15  -0.379176D-03  0.483794D-02  0.000000D+00  0.000000D+00  0.000000D+00
     16   0.000000D+00  0.000000D+00  0.130039D-01  0.000000D+00  0.000000D+00
     17   0.000000D+00  0.000000D+00  0.000000D+00  0.130039D-01  0.000000D+00
     18   0.000000D+00  0.000000D+00  0.000000D+00  0.000000D+00  0.130039D-01
[...]
 Leave Link  904 at Sun Jul 21 04:07:01 2013, MaxMem=17179869184 cpu:    6227.6
 (Enter /share/apps/gaussian/g09root/g09/l601.exe)
 Copying SCF densities to generalized density rwf, IOpCl= 0 IROHF=1.

 **********************************************************************

            Population analysis using the SCF density.

 **********************************************************************

 Orbital symmetries:
       Occupied  (SG) (SG) (PI) (PI) (SG) (SG) (SG) (PI) (PI) (SG)
                 (SG) (DLTA) (DLTA) (PI) (PI) (SG) (SG) (PI) (PI)
                 (SG)
       Virtual   (SG) (PI) (PI) (SG) (SG) (PI) (PI) (SG) (PI) (PI)
                 (DLTA) (DLTA) (SG) (PI) (PI) (SG) (SG) (DLTA)
                 (DLTA) (PI) (PI) (PHI) (PHI) (PI) (PI) (SG) (SG)
                 (PI) (PI) (DLTA) (DLTA) (SG) (PI) (PI) (DLTA)
                 (DLTA) (SG) (PI) (PI) (SG) (PHI) (PHI) (SG) (?A)
                 (?A) (PI) (PI) (SG) (DLTA) (DLTA) (PHI) (PHI)
                 (PI) (PI) (DLTA) (DLTA) (SG) (PHI) (PHI) (PI)
                 (PI) (SG) (PI) (PI) (DLTA) (DLTA) (SG) (DLTA)
                 (DLTA) (SG) (PI) (PI) (PI) (PI) (DLTA) (DLTA)
                 (SG) (SG) (PI) (PI) (?A) (?A) (PHI) (PHI) (SG)
                 (?B) (?B) (SG) (?A) (?A) (DLTA) (DLTA) (PI) (PI)
                 (PHI) (PHI) (PI) (PI) (PI) (PI) (DLTA) (DLTA)
                 (SG) (PHI) (PHI) (?A) (?A) (DLTA) (DLTA) (PHI)
                 (PHI) (DLTA) (DLTA) (PI) (PI) (SG) (SG) (PHI)
                 (PHI) (PI) (PI) (SG) (DLTA) (DLTA) (SG) (PI) (PI)
                 (SG) (DLTA) (DLTA) (PI) (PI) (?B) (?B) (?A) (?A)
                 (DLTA) (DLTA) (PI) (PI) (SG) (PHI) (PHI) (SG)
                 (DLTA) (DLTA) (PI) (PI) (PI) (PI) (SG) (?B) (?B)
                 (SG) (SG) (SG) (?A) (?A) (SG) (PI) (PI) (PHI)
                 (PHI) (PHI) (PHI) (DLTA) (DLTA) (?A) (?A) (SG)
                 (DLTA) (DLTA) (PI) (PI) (PHI) (PHI) (SG) (?B)
                 (?B) (PI) (PI) (DLTA) (DLTA) (SG) (?A) (?A) (PHI)
                 (PHI) (SG) (SG) (PI) (PI) (PHI) (PHI) (DLTA) (DLTA)
                 (?B) (?B) (DLTA) (DLTA) (SG) (?A) (?A) (PI) (PI)
                 (PHI) (PHI) (?A) (?A) (SG) (PI) (PI) (DLTA) (DLTA)
                 (SG) (DLTA) (DLTA) (SG) (PI) (PI) (PHI) (PHI)
                 (PI) (PI) (SG) (PI) (PI) (SG) (DLTA) (DLTA) (SG)
                 (PI) (PI) (?B) (?B) (?A) (?A) (DLTA) (DLTA) (DLTA)
                 (DLTA) (PHI) (PHI) (SG) (PI) (PI) (?C) (?C) (SG)
                 (SG) (?B) (?B) (?A) (?A) (PI) (PI) (SG) (PHI)
                 (PHI) (DLTA) (DLTA) (PI) (PI) (SG) (PHI) (PHI)
                 (SG) (DLTA) (DLTA) (SG) (?A) (?A) (PHI) (PHI)
                 (PI) (PI) (DLTA) (DLTA) (PI) (PI) (SG) (PHI) (PHI)
                 (DLTA) (DLTA) (SG) (SG) (SG) (?B) (?B) (?A) (?A)
                 (PI) (PI) (?B) (?B) (DLTA) (DLTA) (SG) (?A) (?A)
                 (PHI) (PHI) (DLTA) (DLTA) (PI) (PI) (?A) (?A)
                 (PHI) (PHI) (SG) (PI) (PI) (PHI) (PHI) (SG) (PI)
                 (PI) (DLTA) (DLTA) (SG) (PI) (PI) (DLTA) (DLTA)
                 (SG) (PI) (PI) (SG) (SG) (SG) (?B) (?B) (?A) (?A)
                 (PHI) (PHI) (DLTA) (DLTA) (PI) (PI) (SG) (?B)
                 (?B) (?A) (?A) (PHI) (PHI) (PI) (PI) (DLTA) (DLTA)
                 (SG) (PI) (PI) (SG) (SG) (DLTA) (DLTA) (PI) (PI)
                 (PHI) (PHI) (DLTA) (DLTA) (SG) (PI) (PI) (SG)
                 (?A) (?A) (PHI) (PHI) (DLTA) (DLTA) (PI) (PI)
                 (SG) (?C) (?C) (SG) (SG) (?B) (?B) (?A) (?A) (PHI)
                 (PHI) (DLTA) (DLTA) (SG) (PI) (PI) (?A) (?A) (?B)
                 (?B) (SG) (SG) (?C) (?C) (PHI) (PHI) (DLTA) (DLTA)
                 (PI) (PI) (SG) (PHI) (PHI) (DLTA) (DLTA) (DLTA)
                 (DLTA) (PI) (PI) (SG) (?A) (?A) (PI) (PI) (PHI)
                 (PHI) (DLTA) (DLTA) (SG) (PI) (PI) (?B) (?B) (?A)
                 (?A) (PHI) (PHI) (SG) (DLTA) (DLTA) (PI) (PI)
                 (SG) (SG) (SG) (?B) (?B) (?A) (?A) (PHI) (PHI)
                 (DLTA) (DLTA) (PI) (PI) (SG) (PI) (PI) (SG) (SG)
                 (?B) (?B) (SG) (SG) (?A) (?A) (PHI) (PHI) (DLTA)
                 (DLTA) (PI) (PI) (SG) (?B) (?B) (?A) (?A) (PHI)
                 (PHI) (DLTA) (DLTA) (PI) (PI) (SG) (PHI) (PHI)
                 (DLTA) (DLTA) (PI) (PI) (SG) (SG) (PI) (PI) (?D)
                 (?D) (?C) (?C) (SG) (SG) (?B) (?B) (SG) (?A) (?A)
                 (PHI) (PHI) (DLTA) (DLTA) (PI) (PI) (SG) (DLTA)
                 (DLTA) (?A) (?A) (PHI) (PHI) (DLTA) (DLTA) (PI)
                 (PI) (SG) (PI) (PI) (SG) (DLTA) (DLTA) (PI) (PI)
                 (SG) (PHI) (PHI) (DLTA) (DLTA) (?A) (?A) (PHI)
                 (PHI) (DLTA) (DLTA) (PI) (PI) (SG) (PI) (PI) (SG)
                 (?C) (?C) (SG) (SG) (?B) (?B) (?A) (?A) (PHI)
                 (PHI) (DLTA) (DLTA) (SG) (PI) (PI) (?B) (?B) (?A)
                 (?A) (PHI) (PHI) (DLTA) (DLTA) (PI) (PI) (SG)
                 (SG) (SG) (?B) (?B) (?A) (?A) (PHI) (PHI) (DLTA)
                 (DLTA) (PI) (PI) (SG) (SG) (SG)
 The electronic state is 2-SG.
 Alpha  occ. eigenvalues -- -353.34873 -44.40442 -38.96905 -38.96905 -38.96646
 Alpha  occ. eigenvalues --  -26.19001  -5.68706  -3.89146  -3.89146  -3.88834
 Alpha  occ. eigenvalues --   -1.46643  -0.83922  -0.83758  -0.83758  -0.83690
 Alpha  occ. eigenvalues --   -0.83690  -0.57817  -0.54966  -0.54966  -0.32734
 Alpha virt. eigenvalues --    0.03023   0.03523   0.03523   0.08206   0.14514
 Alpha virt. eigenvalues --    0.15789   0.15789   0.17488   0.18066   0.18066
 Alpha virt. eigenvalues --    0.19142   0.19142   0.24359   0.26238   0.26238
 Alpha virt. eigenvalues --    0.27848   0.42544   0.48176   0.48176   0.48300
 Alpha virt. eigenvalues --    0.48300   0.48693   0.48693   0.53717   0.54135
 Alpha virt. eigenvalues --    0.54135   0.55599   0.58024   0.58024   0.59234
 Alpha virt. eigenvalues --    0.59234   0.62900   0.67996   0.67996   0.68849
 Alpha virt. eigenvalues --    0.68849   0.74138   0.86675   0.86675   0.89182
 Alpha virt. eigenvalues --    1.04043   1.04043   1.06497   1.12607   1.12607
 Alpha virt. eigenvalues --    1.13628   1.13628   1.17877   1.19737   1.19737
 Alpha virt. eigenvalues --    1.29258   1.29258   1.29263   1.29263   1.30224
 Alpha virt. eigenvalues --    1.30224   1.31420   1.34141   1.34141   1.42339
 Alpha virt. eigenvalues --    1.42339   1.47388   1.48392   1.48392   1.49571
 Alpha virt. eigenvalues --    1.49571   1.54421   1.57451   1.57451   1.62111
 Alpha virt. eigenvalues --    1.62210   1.62210   1.66561   1.66561   1.69337
 Alpha virt. eigenvalues --    1.69337   1.86660   2.14478   2.28636   2.28636
 Alpha virt. eigenvalues --    2.30040   2.30040   2.41263   2.41263   2.42795
 Alpha virt. eigenvalues --    2.46908   2.46908   2.55055   2.64715   2.64715
 Alpha virt. eigenvalues --    2.65308   2.65308   2.66850   2.66850   2.76586
 Alpha virt. eigenvalues --    2.76586   2.77351   2.77351   2.89138   2.89138
 Alpha virt. eigenvalues --    2.89775   2.89775   2.91953   2.96776   2.96776
 Alpha virt. eigenvalues --    2.98682   2.98682   3.05914   3.05914   3.06330
 Alpha virt. eigenvalues --    3.06330   3.06978   3.06978   3.08240   3.08240
 Alpha virt. eigenvalues --    3.08414   3.11194   3.15603   3.15603   3.34763
 Alpha virt. eigenvalues --    3.34763   3.35205   3.37023   3.37023   3.59035
 Alpha virt. eigenvalues --    3.61805   3.61805   3.65013   3.73691   3.73691
 Alpha virt. eigenvalues --    3.78910   3.78910   3.81002   3.81002   3.95167
 Alpha virt. eigenvalues --    3.95167   4.07034   4.07034   4.12376   4.12376
 Alpha virt. eigenvalues --    4.12767   4.36394   4.36394   4.49480   4.77725
 Alpha virt. eigenvalues --    4.77725   4.99042   4.99042   5.06536   5.06536
 Alpha virt. eigenvalues --    5.16007   5.58465   5.58465   5.58979   5.58979
 Alpha virt. eigenvalues --    5.60440   5.69715   5.69715   5.74790   5.88125
 Alpha virt. eigenvalues --    5.88125   5.90714   5.90714   6.00116   6.00116
 Alpha virt. eigenvalues --    6.02835   6.02835   6.04867   6.04867   6.10418
 Alpha virt. eigenvalues --    6.19045   6.19045   6.31031   6.31031   6.32409
 Alpha virt. eigenvalues --    6.32409   6.43478   6.45362   6.45362   6.46144
 Alpha virt. eigenvalues --    6.46144   6.48344   6.48344   6.48521   6.50018
 Alpha virt. eigenvalues --    6.50018   6.59289   6.59289   6.62445   6.62445
 Alpha virt. eigenvalues --    6.64286   6.64286   6.64466   6.64466   6.64551
 Alpha virt. eigenvalues --    6.64551   6.68141   6.68141   6.83077   6.83077
 Alpha virt. eigenvalues --    6.87828   6.90141   6.90141   6.97207   6.97207
 Alpha virt. eigenvalues --    7.04470   7.04470   7.11189   7.11189   7.11796
 Alpha virt. eigenvalues --    7.16408   7.16408   7.26921   7.26921   7.33718
 Alpha virt. eigenvalues --    7.79390   7.79390   7.83618   7.84010   7.84010
 Alpha virt. eigenvalues --    8.00635   8.00635   8.49268   8.49268   8.62800
 Alpha virt. eigenvalues --    8.90431   8.90431   8.96121   9.15472   9.15472
 Alpha virt. eigenvalues --    9.19756   9.25967   9.25967   9.46114   9.46114
 Alpha virt. eigenvalues --    9.54554   9.54554   9.56144   9.56144   9.60952
 Alpha virt. eigenvalues --    9.60952   9.74424   9.74424   9.91080  10.19194
 Alpha virt. eigenvalues --   10.19194  10.35999  10.35999  10.36876  10.36876
 Alpha virt. eigenvalues --   10.41262  10.41262  10.65142  10.65142  10.74134
 Alpha virt. eigenvalues --   10.74134  10.86320  11.14206  11.14206  11.46937
 Alpha virt. eigenvalues --   11.46937  11.52567  11.52567  11.59382  12.03564
 Alpha virt. eigenvalues --   12.03564  12.23404  12.45153  12.45153  13.31365
 Alpha virt. eigenvalues --   13.31714  13.31714  13.47488  13.47488  13.47909
 Alpha virt. eigenvalues --   13.47909  13.80240  13.80240  13.94699  13.94699
 Alpha virt. eigenvalues --   14.14968  14.33237  14.33237  14.55962  14.55962
 Alpha virt. eigenvalues --   14.80249  14.84094  14.84094  14.85750  14.85750
 Alpha virt. eigenvalues --   14.97045  14.97045  15.01570  15.01570  15.13428
 Alpha virt. eigenvalues --   15.13428  15.13794  15.13913  15.13913  15.15917
 Alpha virt. eigenvalues --   15.15917  15.17209  15.17209  15.23818  15.23818
 Alpha virt. eigenvalues --   15.24361  15.24361  15.27917  15.27917  15.29223
 Alpha virt. eigenvalues --   15.29223  15.34105  15.34800  15.34800  15.50236
 Alpha virt. eigenvalues --   15.50236  15.68920  15.69927  15.69927  15.73018
 Alpha virt. eigenvalues --   15.73018  16.15456  16.37783  16.37783  16.37965
 Alpha virt. eigenvalues --   16.37965  16.84787  17.12687  17.12687  17.77255
 Alpha virt. eigenvalues --   17.94603  17.94603  17.95436  17.95436  18.06511
 Alpha virt. eigenvalues --   18.06511  18.27657  18.27657  18.45638  18.45638
 Alpha virt. eigenvalues --   18.84662  18.84662  19.13291  21.06460  21.06460
 Alpha virt. eigenvalues --   21.11055  21.11055  21.24715  21.24715  21.39713
 Alpha virt. eigenvalues --   21.39713  21.49707  21.49707  21.64164  21.90750
 Alpha virt. eigenvalues --   21.90750  22.02618  23.08071  23.28663  23.28663
 Alpha virt. eigenvalues --   23.94798  23.94798  24.56326  24.56326  24.80144
 Alpha virt. eigenvalues --   24.80144  25.43375  25.68515  25.68515  26.42633
 Alpha virt. eigenvalues --   28.55319  28.55319  28.64897  28.64897  28.87248
 Alpha virt. eigenvalues --   28.87248  29.15359  29.15359  29.22784  29.22912
 Alpha virt. eigenvalues --   29.22912  29.23268  29.23268  29.24230  29.24230
 Alpha virt. eigenvalues --   29.29574  29.29574  29.42863  29.42863  29.59061
 Alpha virt. eigenvalues --   29.59061  29.63920  29.78055  29.78055  32.28219
 Alpha virt. eigenvalues --   32.28219  32.28541  32.28541  32.29217  32.29217
 Alpha virt. eigenvalues --   32.29937  32.29937  32.30169  32.30169  32.32109
 Alpha virt. eigenvalues --   32.32109  32.34783  32.34783  32.42995  32.45502
 Alpha virt. eigenvalues --   32.45502  32.74147  32.74147  33.26689  33.26689
 Alpha virt. eigenvalues --   33.37689  33.37689  33.41149  33.68472  33.68472
 Alpha virt. eigenvalues --   33.71145  33.71145  33.73474  33.73474  33.92244
 Alpha virt. eigenvalues --   33.92244  33.94421  34.21406  34.21406  34.44538
 Alpha virt. eigenvalues --   34.44538  34.45985  34.45985  34.54183  34.54183
 Alpha virt. eigenvalues --   34.74056  34.91965  34.91965  35.42970  35.42970
 Alpha virt. eigenvalues --   35.67509  36.33117  36.33117  36.33988  36.33988
 Alpha virt. eigenvalues --   36.39063  36.39063  36.53416  36.53416  36.65854
 Alpha virt. eigenvalues --   36.65854  36.67750  36.67750  36.81087  41.84021
 Alpha virt. eigenvalues --   41.84021  42.46828  44.70316  46.33891  46.33891
 Alpha virt. eigenvalues --   46.33961  46.33961  46.37633  46.37633  46.45704
 Alpha virt. eigenvalues --   46.45704  46.52132  46.52132  46.58756  46.58756
 Alpha virt. eigenvalues --   46.63431  47.11466  47.11466  47.14361  47.14361
 Alpha virt. eigenvalues --   47.23491  47.23491  47.38600  47.38600  47.55016
 Alpha virt. eigenvalues --   47.55016  47.55914  51.91350  51.91350  52.09875
 Alpha virt. eigenvalues --   52.09875  52.75819  52.75819  52.92558  60.87236
 Alpha virt. eigenvalues --   61.31719  61.31719  61.60966  61.60966  61.61269
 Alpha virt. eigenvalues --   61.61269  61.61518  61.61518  61.61719  61.61719
 Alpha virt. eigenvalues --   61.61877  61.61877  61.62004  61.62004  61.62064
 Alpha virt. eigenvalues --   61.62109  61.62109  61.62384  61.62384  62.82649
 Alpha virt. eigenvalues --   63.26697  63.26697  63.27045  63.27045  63.34210
 Alpha virt. eigenvalues --   63.34210  63.52866  63.52866  63.61844  63.61844
 Alpha virt. eigenvalues --   63.66048  63.89482  63.89482  65.19885  75.43886
 Alpha virt. eigenvalues --   75.43886  75.80149  75.80149  76.20390  76.91324
 Alpha virt. eigenvalues --   76.91324  77.09288  77.09288  77.51218  77.51218
 Alpha virt. eigenvalues --   77.54705  77.54705  77.68391  77.68391  77.69060
 Alpha virt. eigenvalues --   77.69060  77.78716  77.85192  77.85192  78.13915
 Alpha virt. eigenvalues --   79.07073  79.07073  79.07506  79.07506  79.08015
 Alpha virt. eigenvalues --   79.08015  79.09665  79.09665  79.13642  79.13642
 Alpha virt. eigenvalues --   79.17735  79.17735  79.20540  79.22623  79.22623
 Alpha virt. eigenvalues --   80.33306  80.33306  80.34387  80.34387  80.38855
 Alpha virt. eigenvalues --   80.38855  80.57254  80.57254  80.75416  80.75416
 Alpha virt. eigenvalues --   80.86781  89.39609  89.39609  89.40322  89.40322
 Alpha virt. eigenvalues --   89.42759  89.42759  89.49111  89.49111  89.53906
 Alpha virt. eigenvalues --   89.53906  89.54596  89.54596  89.57863 273.82092
 Alpha virt. eigenvalues --  915.30203
          Condensed to atoms (all electrons):
              1          2
     1  Zn  28.983233   0.054873
     2  F    0.054873   9.907021
 Mulliken atomic charges:
              1
     1  Zn   0.961894
     2  F   -0.961894
 Sum of Mulliken atomic charges =   0.00000
 Mulliken charges with hydrogens summed into heavy atoms:
              1
     1  Zn   0.961894
     2  F   -0.961894
 Sum of Mulliken charges with hydrogens summed into heavy atoms =   0.00000
          Atomic-Atomic Spin Densities.
              1          2
     1  Zn   0.896013   0.032082
     2  F    0.032082   0.039824
 Mulliken atomic spin densities:
              1
     1  Zn   0.928095
     2  F    0.071905
 Sum of Mulliken atomic spin densities =   1.00000
 Electronic spatial extent (au):  <R**2>=            122.4306
 Charge=              0.0000 electrons
 Dipole moment (field-independent basis, Debye):
    X=              0.0000    Y=              0.0000    Z=              3.1990  Tot=              3.1990
 Quadrupole moment (field-independent basis, Debye-Ang):
   XX=            -17.4267   YY=            -17.4267   ZZ=            -25.8771
   XY=              0.0000   XZ=              0.0000   YZ=              0.0000
 Traceless Quadrupole moment (field-independent basis, Debye-Ang):
   XX=              2.8168   YY=              2.8168   ZZ=             -5.6336
   XY=              0.0000   XZ=              0.0000   YZ=              0.0000
 Octapole moment (field-independent basis, Debye-Ang**2):
  XXX=              0.0000  YYY=              0.0000  ZZZ=              6.0511  XYY=              0.0000
  XXY=              0.0000  XXZ=              1.0019  XZZ=              0.0000  YZZ=              0.0000
  YYZ=              1.0019  XYZ=              0.0000
 Hexadecapole moment (field-independent basis, Debye-Ang**3):
 XXXX=            -18.9233 YYYY=            -18.9233 ZZZZ=           -120.8570 XXXY=              0.0000
 XXXZ=              0.0000 YYYX=              0.0000 YYYZ=              0.0000 ZZZX=              0.0000
 ZZZY=              0.0000 XXYY=             -6.3078 XXZZ=            -21.7858 YYZZ=            -21.7858
 XXYZ=              0.0000 YYXZ=              0.0000 ZZXY=              0.0000
 N-N= 8.081326149282D+01 E-N=-6.985986375576D+03  KE= 2.815453433954D+03
                          Isotropic Fermi Contact Couplings
        Atom                 a.u.       MegaHertz       Gauss      10(-4) cm-1
     1  Zn(67)             3.33859     935.59519     333.84362     312.08096
     2  F(19)              0.04173     175.58871      62.65442      58.57009
 --------------------------------------------------------
       Center         ----  Spin Dipole Couplings  ----
                      3XX-RR        3YY-RR        3ZZ-RR
 --------------------------------------------------------
     1   Atom       -0.335577     -0.335577      0.671154
     2   Atom       -0.102513     -0.102513      0.205025
 --------------------------------------------------------
                        XY            XZ            YZ
 --------------------------------------------------------
     1   Atom        0.000000      0.000000      0.000000
     2   Atom        0.000000      0.000000      0.000000
 --------------------------------------------------------


 ---------------------------------------------------------------------------------
              Anisotropic Spin Dipole Couplings in Principal Axis System
 ---------------------------------------------------------------------------------

       Atom             a.u.   MegaHertz   Gauss  10(-4) cm-1        Axes

              Baa    -0.3356   -11.225    -4.005    -3.744  1.0000  0.0000  0.0000
     1 Zn(67) Bbb    -0.3356   -11.225    -4.005    -3.744  0.0000  1.0000  0.0000
              Bcc     0.6712    22.451     8.011     7.489  0.0000  0.0000  1.0000
 
              Baa    -0.1025   -51.484   -18.371   -17.173  1.0000  0.0000  0.0000
     2 F(19)  Bbb    -0.1025   -51.484   -18.371   -17.173  0.0000  1.0000  0.0000
              Bcc     0.2050   102.969    36.742    34.347  0.0000  0.0000  1.0000
 

 ---------------------------------------------------------------------------------

 No NMR shielding tensors so no spin-rotation constants.
 Leave Link  601 at Sun Jul 21 04:07:12 2013, MaxMem=17179869184 cpu:     285.3
 (Enter /share/apps/gaussian/g09root/g09/l9999.exe)

 Test job not archived.
 1\1\GINC-N37\SP\ROMP2-RW\Gen\F1Zn1(2)\GPETERSSON\21-Jul-2013\0\\#P ROM
 P2(RW) Gen GFinput Int=NoBasisTransform Int(Grid=Ultrafine) IOp(3/32=2
 ,5/6=10,8/11=1,9/33=1) Maxdisk=128GB CBSextrapolate(Nmin=25,MinPop)\\Z
 nF 2Sg+\\0,2\Zn\F,1,1.768\\Version=EM64L-G09RevA.02\State=2-SG\HF=-187
 7.3448095\MP2=-1878.2228493\E2(CBS)=-0.8865113\CBS-Int=-0.8837314\OIii
 =5.1082971\RMSD=1.769e-11\PG=C*V [C*(F1Zn1)]\\@


 WE SHOULD BE CAREFUL TO GET OUT OF AN EXPERIENCE ONLY THE WISDOM
 THAT IS IN IT -- AND STOP THERE;
 LEST WE BE LIKE THE CAT THAT SITS DOWN ON A HOT STOVE-LID.
 SHE WILL NEVER SIT DOWN ON A HOT STOVE LID AGAIN;
 BUT ALSO SHE WILL NEVER SIT DOWN ON A COLD ONE ANY MORE.

                                                     -- MARK TWAIN
 Job cpu time:  9 days 23 hours 51 minutes 21.6 seconds.
 File lengths (MBytes):  RWF=  73692 Int=      0 D2E=      0 Chk=     29 Scr=      1
 Normal termination of Gaussian 09 at Sun Jul 21 04:07:29 2013.
