 Entering Gaussian System, Link 0=g09
 AtFile(1): 4ZaP-NR.gbs
 Initial command:
 /share/apps/gaussian/g09root/g09/l1.exe /localscratch/738043/Gau-31596.inp -scrdir=/localscratch/738043/
 Entering Link 1 = /share/apps/gaussian/g09root/g09/l1.exe PID=     31597.
  
 Copyright (c) 1988,1990,1992,1993,1995,1998,2003,2009, Gaussian, Inc.
                  All Rights Reserved.
  
 This is part of the Gaussian(R) 09 program.  It is based on
 the Gaussian(R) 03 system (copyright 2003, Gaussian, Inc.),
 the Gaussian(R) 98 system (copyright 1998, Gaussian, Inc.),
 the Gaussian(R) 94 system (copyright 1995, Gaussian, Inc.),
 the Gaussian 92(TM) system (copyright 1992, Gaussian, Inc.),
 the Gaussian 90(TM) system (copyright 1990, Gaussian, Inc.),
 the Gaussian 88(TM) system (copyright 1988, Gaussian, Inc.),
 the Gaussian 86(TM) system (copyright 1986, Carnegie Mellon
 University), and the Gaussian 82(TM) system (copyright 1983,
 Carnegie Mellon University). Gaussian is a federally registered
 trademark of Gaussian, Inc.
  
 This software contains proprietary and confidential information,
 including trade secrets, belonging to Gaussian, Inc.
  
 This software is provided under written license and may be
 used, copied, transmitted, or stored only in accord with that
 written license.
  
 The following legend is applicable only to US Government
 contracts under FAR:
  
                    RESTRICTED RIGHTS LEGEND
  
 Use, reproduction and disclosure by the US Government is
 subject to restrictions as set forth in subparagraphs (a)
 and (c) of the Commercial Computer Software - Restricted
 Rights clause in FAR 52.227-19.
  
 Gaussian, Inc.
 340 Quinnipiac St., Bldg. 40, Wallingford CT 06492
  
  
 ---------------------------------------------------------------
 Warning -- This program may not be used in any manner that
 competes with the business of Gaussian, Inc. or will provide
 assistance to any competitor of Gaussian, Inc.  The licensee
 of this program is prohibited from giving any competitor of
 Gaussian, Inc. access to this program.  By using this program,
 the user acknowledges that Gaussian, Inc. is engaged in the
 business of creating and licensing software in the field of
 computational chemistry and represents and warrants to the
 licensee that it is not a competitor of Gaussian, Inc. and that
 it will not use this program in any manner prohibited above.
 ---------------------------------------------------------------
  

 Cite this work as:
 Gaussian 09, Revision A.02,
 M. J. Frisch, G. W. Trucks, H. B. Schlegel, G. E. Scuseria, 
 M. A. Robb, J. R. Cheeseman, G. Scalmani, V. Barone, B. Mennucci, 
 G. A. Petersson, H. Nakatsuji, M. Caricato, X. Li, H. P. Hratchian, 
 A. F. Izmaylov, J. Bloino, G. Zheng, J. L. Sonnenberg, M. Hada, 
 M. Ehara, K. Toyota, R. Fukuda, J. Hasegawa, M. Ishida, T. Nakajima, 
 Y. Honda, O. Kitao, H. Nakai, T. Vreven, J. A. Montgomery, Jr., 
 J. E. Peralta, F. Ogliaro, M. Bearpark, J. J. Heyd, E. Brothers, 
 K. N. Kudin, V. N. Staroverov, R. Kobayashi, J. Normand, 
 K. Raghavachari, A. Rendell, J. C. Burant, S. S. Iyengar, J. Tomasi, 
 M. Cossi, N. Rega, J. M. Millam, M. Klene, J. E. Knox, J. B. Cross, 
 V. Bakken, C. Adamo, J. Jaramillo, R. Gomperts, R. E. Stratmann, 
 O. Yazyev, A. J. Austin, R. Cammi, C. Pomelli, J. W. Ochterski, 
 R. L. Martin, K. Morokuma, V. G. Zakrzewski, G. A. Voth, 
 P. Salvador, J. J. Dannenberg, S. Dapprich, A. D. Daniels, 
 O. Farkas, J. B. Foresman, J. V. Ortiz, J. Cioslowski, 
 and D. J. Fox, Gaussian, Inc., Wallingford CT, 2009.
 
 ******************************************
 Gaussian 09:  EM64L-G09RevA.02 11-Jun-2009
                25-Aug-2012 
 ******************************************
 % Mem=6GB
 % Nproc=8
 Will use up to    8 processors via shared memory.
 ----------------------------------------------------------------------
 # ROCCSD(T,RW) Gen GFinput Int=NoBasisTransform Int(Grid=Ultrafine) IO
 p(3/32=2,5/6=10,8/11=1,9/33=1) Maxdisk=128GB Opt=(Tight,Z-Matrix)
 ----------------------------------------------------------------------

 Warning:  this job cannot use analytic gradients
           and so will do many energy evaluations.

 1/7=10,18=40,29=20000,38=1/1,14;
 2/12=2,17=6,18=5,29=3,40=1/2;
 3/5=7,11=2,16=1,24=10,25=1,30=1,32=2,60=-1,75=-5,116=101/1,2,3;
 4//1;
 5/5=2,6=10,38=5/2;
 8/5=-1,6=4,9=120000,10=91,11=1/1,4;
 9/5=7,14=2,33=1/13;
 6/7=2,8=2,9=2,10=2/1;
 1/7=10,18=40/14(2);
 2/29=3/2;
 99//99;
 2/29=3/2;
 3/5=7,6=1,11=2,16=1,25=1,30=1,32=2,60=-1,75=-5,82=7,116=101/1,2,3;
 4/5=5,16=3/1;
 5/5=2,6=10,23=1,38=5/2;
 8/5=-1,6=4,9=120000,10=93,11=1/1,4;
 9/5=7,14=2,33=1/13;
 1/7=10,18=40/14(-6);
 2/29=3/2;
 6/7=2,8=2,9=2,10=2/1;
 99//99;
 --------
 ZnH 2Sg+
 --------
 Symbolic Z-matrix:
 Charge =  0 Multiplicity = 2
 Zn
 H                    1    R
       Variables:
  R                     1.5949                   
 

 NEF-NEF-NEF-NEF-NEF-NEF-NEF-NEF-NEF-NEF-NEF-NEF-NEF-NEF-NEF-NEF-NEF-NEF-
 NUMERICAL EIGENVECTOR FOLLOWING MINIMUM SEARCH
 INITIALIZATION PASS
                       ----------------------------
                       !    Initial Parameters    !
                       ! (Angstroms and Degrees)  !
 ----------------------                            ----------------------
 !      Name          Value   Derivative information (Atomic Units)     !
 ------------------------------------------------------------------------
 !        R          1.5949   estimate D2E/DX2                          !
 ------------------------------------------------------------------------


 ***************************************************
 ** O P T I M I Z A T I O N   P A R A M E T E R S **
 **  MAXIMUM NO. OF ITERATIONS      :          21 **
 **  MAXIMUM ALLOWED STEP LENGTH    :    0.300000 **
 ***************************************************



 NEF-NEF-NEF-NEF-NEF-NEF-NEF-NEF-NEF-NEF-NEF-NEF-NEF-NEF-NEF-NEF-NEF-NEF-
 ---------------------------------------------------------------------------------------------------
                            Z-MATRIX (ANGSTROMS AND DEGREES)
   CD    Cent   Atom    N1       Length/X        N2       Alpha/Y        N3        Beta/Z          J
 ---------------------------------------------------------------------------------------------------
      1      1  Zn
      2      2  H        1   1.594900(     1)
 ---------------------------------------------------------------------------------------------------
                         Z-Matrix orientation:                         
 ---------------------------------------------------------------------
 Center     Atomic      Atomic             Coordinates (Angstroms)
 Number     Number       Type             X           Y           Z
 ---------------------------------------------------------------------
      1         30           0        0.000000    0.000000    0.000000
      2          1           0        0.000000    0.000000    1.594900
 ---------------------------------------------------------------------
 Stoichiometry    HZn(2)
 Framework group  C*V[C*(HZn)]
 Deg. of freedom     1
 Full point group                 C*V     NOp   4
 Largest Abelian subgroup         C2V     NOp   4
 Largest concise Abelian subgroup C1      NOp   1
                         Standard orientation:                         
 ---------------------------------------------------------------------
 Center     Atomic      Atomic             Coordinates (Angstroms)
 Number     Number       Type             X           Y           Z
 ---------------------------------------------------------------------
      1         30           0        0.000000    0.000000    0.051448
      2          1           0        0.000000    0.000000   -1.543452
 ---------------------------------------------------------------------
 Rotational constants (GHZ):      0.0000000    200.2434233    200.2434233
 General basis read from cards:  (5D, 7F)
 AO basis set in the form of general basis input (Overlap normalization):
      1 0
 S  14 1.00       0.000000000000
      0.3569285380D+07  0.1497123928D-04
      0.6158103200D+06  0.1038556761D-03
      0.1366285090D+06  0.5954929671D-03
      0.3701475300D+05  0.2642474205D-02
      0.1172518090D+05  0.9747767258D-02
      0.4189706630D+04  0.3076465352D-01
      0.1639782040D+04  0.8403511730D-01
      0.6863280030D+03  0.1927906567D+00
      0.3012903750D+03  0.3415528066D+00
      0.1365357930D+03  0.3760910604D+00
      0.6302674300D+02  0.1651338328D+00
      0.2928963300D+02 -0.3694290587D-01
      0.1355084200D+02 -0.8585099494D-01
      0.6169758000D+01 -0.2849459657D-01
 S  11 1.00       0.000000000000
      0.4189706630D+04 -0.1740418966D-03
      0.1639782040D+04 -0.1373658684D-02
      0.6863280030D+03 -0.7894570495D-02
      0.3012903750D+03 -0.3522891612D-01
      0.1365357930D+03 -0.9185663027D-01
      0.6302674300D+02 -0.5906471483D-01
      0.2928963300D+02  0.3332915745D+00
      0.1355084200D+02  0.6018454284D+00
      0.6169758000D+01  0.1927368655D+00
      0.2729066000D+01  0.1087440350D-01
      0.1154998000D+01  0.7373844493D-02
 P  11 1.00       0.000000000000
      0.1595364250D+05  0.8234729414D-04
      0.3878280790D+04  0.7299253187D-03
      0.1232388000D+04  0.4347348759D-02
      0.4677585620D+03  0.1851633171D-01
      0.1989826110D+03  0.6166814101D-01
      0.9090725100D+02  0.1601566831D+00
      0.4340731400D+02  0.3038951886D+00
      0.2129224300D+02  0.3733092658D+00
      0.1059281600D+02  0.2208685450D+00
      0.5271047000D+01  0.4285009703D-01
      0.2570219000D+01  0.2573948037D-02
 S   9 1.00       0.000000000000
      0.1365357930D+03  0.1659893128D-02
      0.6302674300D+02  0.3199662313D-02
      0.2928963300D+02 -0.3147976144D-01
      0.1355084200D+02 -0.2162527595D+00
      0.6169758000D+01 -0.3346692023D-01
      0.2729066000D+01  0.6347604654D+00
      0.1154998000D+01  0.4999231310D+00
      0.4590980000D+00  0.3972738270D-01
      0.1675150000D+00  0.1515647544D-02
 P  10 1.00       0.000000000000
      0.4677585620D+03 -0.8750550890D-04
      0.1989826110D+03 -0.6797604453D-03
      0.9090725100D+02 -0.4182567646D-02
      0.4340731400D+02 -0.1321720093D-01
      0.2129224300D+02 -0.2566858358D-01
      0.1059281600D+02  0.4491550609D-01
      0.5271047000D+01  0.2700460586D+00
      0.2570219000D+01  0.4399319941D+00
      0.1188651000D+01  0.3198808833D+00
      0.4957990000D+00  0.6462619791D-01
 D  10 1.00       0.000000000000
      0.4438304440D+03  0.4485908522D-03
      0.1342962270D+03  0.4158610931D-02
      0.5137618700D+02  0.2123273401D-01
      0.2238791400D+02  0.6905485412D-01
      0.1038341800D+02  0.1663540171D+00
      0.4915606000D+01  0.2748808381D+00
      0.2314025000D+01  0.3201974391D+00
      0.1060868000D+01  0.2842397171D+00
      0.4615360000D+00  0.1765543361D+00
      0.1828270000D+00  0.5204473932D-01
 S   8 1.00       0.000000000000
      0.2928963300D+02  0.1564539026D-03
      0.1355084200D+02  0.3194012425D-02
      0.6169758000D+01 -0.8399647809D-03
      0.2729066000D+01 -0.3014411782D-01
      0.1154998000D+01 -0.1216726294D+00
      0.4590980000D+00 -0.5363279536D-01
      0.1675150000D+00  0.5341914447D+00
      0.5455100000D-01  0.6043701530D+00
 S   1 1.00       0.000000000000
      0.1776444900D-01  0.1000000000D+01
 P   7 1.00       0.000000000000
      0.2129224300D+02 -0.5009147315D-02
      0.1059281600D+02  0.1398373731D-01
      0.5271047000D+01 -0.6074113202D-02
      0.2570219000D+01  0.7525489841D-01
      0.1188651000D+01 -0.7360227994D-01
      0.4957990000D+00  0.1943588584D+00
      0.7932546880D-01  0.9171952792D+00
 S   1 1.00       0.000000000000
      0.3741940000D+01  0.1000000000D+01
 S   1 1.00       0.000000000000
      0.9668210000D+00  0.1000000000D+01
 S   1 1.00       0.000000000000
      0.2498010000D+00  0.1000000000D+01
 P   1 1.00       0.000000000000
      0.1906290000D+01  0.1000000000D+01
 P   1 1.00       0.000000000000
      0.6802290000D+00  0.1000000000D+01
 P   1 1.00       0.000000000000
      0.2427290000D+00  0.1000000000D+01
 D   1 1.00       0.000000000000
      0.2589064000D+01  0.1000000000D+01
 D   1 1.00       0.000000000000
      0.8713320000D+00  0.1000000000D+01
 D   1 1.00       0.000000000000
      0.2932410000D+00  0.1000000000D+01
 F   1 1.00       0.000000000000
      0.8777634000D+01  0.1000000000D+01
 F   1 1.00       0.000000000000
      0.2721037000D+01  0.1000000000D+01
 F   1 1.00       0.000000000000
      0.8435130000D+00  0.1000000000D+01
 G   1 1.00       0.000000000000
      0.6891673000D+01  0.1000000000D+01
 G   1 1.00       0.000000000000
      0.2042202000D+01  0.1000000000D+01
 H   1 1.00       0.000000000000
      0.4365211788D+01  0.1000000000D+01
 ****
      2 0
 S   7 1.00       0.000000000000
      0.1907996280D+03  0.7061124941D-03
      0.2864425700D+02  0.5475336771D-02
      0.6499666000D+01  0.2797731080D-01
      0.1843654000D+01  0.1074041990D+00
      0.5987830000D+00  0.2991562050D+00
      0.2139610000D+00  0.4740174051D+00
      0.8032200000D-01  0.2294115550D+00
 S   1 1.00       0.000000000000
      0.2905840000D-01  0.1000000000D+01
 S   1 1.00       0.000000000000
      0.1158000000D-01  0.1000000000D+01
 S   1 1.00       0.000000000000
      0.8017240000D+00  0.1000000000D+01
 S   1 1.00       0.000000000000
      0.2597140000D+00  0.1000000000D+01
 S   1 1.00       0.000000000000
      0.9337500000D-01  0.1000000000D+01
 P   1 1.00       0.000000000000
      0.2791527000D+01  0.1000000000D+01
 P   1 1.00       0.000000000000
      0.8745530000D+00  0.1000000000D+01
 P   1 1.00       0.000000000000
      0.3003000000D+00  0.1000000000D+01
 D   1 1.00       0.000000000000
      0.2023425000D+01  0.1000000000D+01
 D   1 1.00       0.000000000000
      0.6748480000D+00  0.1000000000D+01
 F   1 1.00       0.000000000000
      0.1367042037D+01  0.1000000000D+01
 ****

 There are    52 symmetry adapted basis functions of A1  symmetry.
 There are    16 symmetry adapted basis functions of A2  symmetry.
 There are    30 symmetry adapted basis functions of B1  symmetry.
 There are    30 symmetry adapted basis functions of B2  symmetry.
 Integral buffers will be    131072 words long.
 Raffenetti 2 integral format.
 Two-electron integral symmetry is turned on.
   128 basis functions,   341 primitive gaussians,   168 cartesian basis functions
    16 alpha electrons       15 beta electrons
       nuclear repulsion energy         9.9538003998 Hartrees.
 NAtoms=    2 NActive=    2 NUniq=    2 SFac= 7.50D-01 NAtFMM=   80 NAOKFM=F Big=F
 One-electron integrals computed using PRISM.
 NBasis=   128 RedAO= F  NBF=    52    16    30    30
 NBsUse=   128 1.00D-04 NBFU=    52    16    30    30
 Harris functional with IExCor=  205 diagonalized for initial guess.
 ExpMin= 1.16D-02 ExpMax= 3.57D+06 ExpMxC= 4.19D+03 IAcc=3 IRadAn=         5 AccDes= 0.00D+00
 HarFok:  IExCor=  205 AccDes= 0.00D+00 IRadAn=         5 IDoV= 1
 ScaDFX=  1.000000  1.000000  1.000000  1.000000
 FoFCou: FMM=F IPFlag=           0 FMFlag=      100000 FMFlg1=           0
         NFxFlg=           0 DoJE=T BraDBF=F KetDBF=T FulRan=T
         Omega=  0.000000  0.000000  1.000000  0.000000  0.000000 ICntrl=     500 IOpCl=  0
         NMat0=    1 NMatS0=    1 NMatT0=    0 NMatD0=    1 NMtDS0=    0 NMtDT0=    0
         I1Cent=           4 NGrid=           0.
 Petite list used in FoFCou.
 Initial guess orbital symmetries:
       Occupied  (SG) (SG) (SG) (PI) (PI) (SG) (SG) (PI) (PI) (SG)
                 (PI) (PI) (DLTA) (DLTA) (SG) (SG)
       Virtual   (PI) (PI) (SG) (SG) (SG) (SG) (SG) (PI) (PI) (SG)
                 (PI) (PI) (SG) (DLTA) (DLTA) (SG) (PI) (PI) (SG)
                 (SG) (SG) (DLTA) (DLTA) (PI) (PI) (PI) (PI) (SG)
                 (PI) (PI) (PHI) (PHI) (DLTA) (DLTA) (SG) (PI)
                 (PI) (DLTA) (DLTA) (SG) (PI) (PI) (SG) (SG) (PHI)
                 (PHI) (DLTA) (DLTA) (PI) (PI) (SG) (SG) (DLTA)
                 (DLTA) (PI) (PI) (PHI) (PHI) (DLTA) (DLTA) (PI)
                 (PI) (SG) (PHI) (PHI) (?A) (?A) (DLTA) (DLTA)
                 (SG) (PI) (PI) (SG) (PI) (PI) (SG) (PI) (PI) (SG)
                 (DLTA) (DLTA) (PI) (PI) (SG) (DLTA) (DLTA) (?B)
                 (?B) (?A) (?A) (?B) (?B) (PI) (PI) (SG) (PHI)
                 (PHI) (DLTA) (DLTA) (PI) (PI) (SG) (PHI) (PHI)
                 (?A) (?A) (DLTA) (DLTA) (PI) (PI) (SG) (SG)
 The electronic state of the initial guess is 2-SG.
 Requested convergence on RMS density matrix=1.00D-10 within 128 cycles.
 Requested convergence on MAX density matrix=1.00D-08.
 Requested convergence on             energy=1.00D-08.
 No special actions if energy rises.
 Keep R1 and R2 ints in memory in canonical form, NReq=218095161.
 EnCoef did   100 forward-backward iterations
 EnCoef did     1 forward-backward iterations
 SCF Done:  E(ROHF) =  -1778.37638918     A.U. after   18 cycles
             Convg  =    0.4753D-10             -V/T =  2.0000
 <Sx>= 0.0000 <Sy>= 0.0000 <Sz>= 0.5000 <S**2>= 0.7500 S= 0.5000
 <L.S>= 0.000000000000E+00
 Annihilation of the first spin contaminant:
 S**2 before annihilation     0.7500,   after     0.7500
 GenMOA:  NOpAll=  4 NOp2=4 NOpUse=  4 JSym2X=1
 <Sx>= 0.0000 <Sy>= 0.0000 <Sz>= 0.5000 <S**2>= 0.7500 S= 0.5000
 Range of M.O.s used for correlation:    15   128
 NBasis=   128 NAE=    16 NBE=    15 NFC=    14 NFV=     0
 NROrb=    114 NOA=     2 NOB=     1 NVA=   112 NVB=   113

 **** Warning!!: The largest alpha MO coefficient is  0.18685787D+02


 **** Warning!!: The largest beta MO coefficient is  0.18683019D+02

 Singles contribution to E2=   -0.5862792855D-03
 Semi-Direct transformation.
 ModeAB=           2 MOrb=             2 LenV=     804520560
 LASXX=       373333 LTotXX=      373333 LenRXX=      373333
 LTotAB=      387159 MaxLAS=     3236688 LenRXY=     3236688
 NonZer=     3400164 LenScr=     5828608 LnRSAI=           0
 LnScr1=           0 LExtra=      989706 Total=     10428335
 MaxDsk= 17179869184 SrtSym=           F ITran=            4
 GetIJB would need an additional    44197040 words of memory to use all   8 processors.
 JobTyp=1 Pass  1:  I=   1 to   2.
 (rs|ai) integrals will be sorted in core.
 ModeAB=           2 MOrb=             1 LenV=     804520560
 LASXX=       187608 LTotXX=      187608 LenRXX=     1618344
 LTotAB=      187164 MaxLAS=     1618344 LenRXY=      187164
 NonZer=     1700082 LenScr=     3187200 LnRSAI=           0
 LnScr1=           0 LExtra=     4225967 Total=      9218675
 MaxDsk= 17179869184 SrtSym=           F ITran=            4
 GetIJB would need an additional    43011632 words of memory to use all   8 processors.
 JobTyp=2 Pass  1:  I=   1 to   1.
 (rs|ai) integrals will be sorted in core.
 Spin components of T(2) and E(2):
     alpha-alpha T2 =       0.6882128067D-03 E2=     -0.1159483800D-02
     alpha-beta  T2 =       0.1499025742D-01 E2=     -0.2989196144D-01
     beta-beta   T2 =       0.0000000000D+00 E2=      0.0000000000D+00
 ANorm=    0.1008175477D+01
 E2 =    -0.3163772453D-01 EUMP2 =    -0.17784080269007D+04
 (S**2,0)=  0.75000D+00           (S**2,1)=  0.75000D+00
 E(PUHF)=      -0.17783763892D+04        E(PMP2)=      -0.17784080269D+04
 R2 and R3 integrals will be kept in memory, NReq=   217989694.
 Symmetry not used in FoFDir.
 MinBra= 0 MaxBra= 5 Meth= 1.
 IRaf=       0 NMat=   1 IRICut=       1 DoRegI=T DoRafI=F ISym2E= 0 JSym2E=0.
 PrsmSu:  NPrtUS=   8 ThrOK=T IAlg=1
 PRISM was handed    75398825 working-precision words and   666 shell-pairs
 PRISM was handed    75398825 working-precision words and   666 shell-pairs
 PRISM was handed    75398825 working-precision words and   666 shell-pairs
 PRISM was handed    75398825 working-precision words and   666 shell-pairs
 PRISM was handed    75398825 working-precision words and   666 shell-pairs
 PRISM was handed    75398825 working-precision words and   666 shell-pairs
 PRISM was handed    75398825 working-precision words and   666 shell-pairs
 PRISM was handed    75398825 working-precision words and   666 shell-pairs
 IPart=  7 NShTot=       25245 NBatch=        3331 AvBLen=         7.6
 IPart=  6 NShTot=       25518 NBatch=        3331 AvBLen=         7.7
 IPart=  5 NShTot=       26240 NBatch=        3749 AvBLen=         7.0
 IPart=  4 NShTot=       27084 NBatch=        4264 AvBLen=         6.4
 IPart=  3 NShTot=       28220 NBatch=        4823 AvBLen=         5.9
 IPart=  2 NShTot=       28504 NBatch=        4945 AvBLen=         5.8
 IPart=  1 NShTot=       29488 NBatch=        5504 AvBLen=         5.4
 IPart=  0 NShTot=       31792 NBatch=        7170 AvBLen=         4.4
 Iterations=  50 Convergence= 0.100D-06
 A(0)= 0.10000E+01      ANORM= 0.10078E+01      W(0)=-0.31051445E-01
 Singles contributions to ROMP2 energy
Alpha= -0.2917293034589E-03
Beta=  -0.2945499820412E-03
 Iteration Nr.   1
 **********************
 DD1Dir will call FoFMem   1 times, MxPair=         6
 NAB=     2 NAA=     1 NBB=     0.
 DD1Dir:  Pass   1 NRAB=     2 NRAA=     1 NRBB=     0 NR=     5.
 DD1Dir will call FoFMem   1 times, MxPair=         6
 NAB=     2 NAA=     1 NBB=     0.
 DD1Dir:  Pass   1 NRAB=     2 NRAA=     1 NRBB=     0 NR=     5.
 TestDE:  II= 99 I=2 DE=    0.109797165967D-01
 TestDE:  II= 99 I=1 DE=    0.257309499650D-03
 TestDE:  II= 99 I=3 DE=    0.000000000000D+00
 TestDE:  II= 19 I=1 DE=    0.128055292813D-06
 TestDE:  II= 19 I=2 DE=    0.612553881795D-05
 TestDE:  II= 19 I=3 DE=    0.000000000000D+00
 Contribution from DD1=    0.62535941D-05
 ExpSMa:  Full in-core algorithm.
 TestDE:  II= 70 I=2 DE=    0.115579575183D-04
 TestDE:  II= 50 I=1 DE=   -0.221727073280D-06
 TestDE:  II= 90 I=3 DE=    0.000000000000D+00
 Contribution from DD2=    0.50826363D-05
 TestDE:  II=  5 I=1 DE=   -0.634826467880D-03
 TestDE:  II=  5 I=1 DE=   -0.118951886715D-05
 TestDE:  II=  7 I=2 DE=    0.115579575183D-04
 TestDE:  II=  7 I=2 DE=    0.756251384401D-05
 TestDE:  II=  8 I=2 DE=   -0.130223904870D-01
 TestDE:  II=  8 I=2 DE=   -0.289810398524D-05
 TestDE:  II=  9 I=3 DE=    0.000000000000D+00
 TestDE:  II=  9 I=3 DE=    0.000000000000D+00
 Contribution from DD3=   -0.80830665D-05
 Singles added:  Sum=    0.33248701D-05
 Entering DoROCS
 GetDE: DE=      0.00000000D+00
 MP3 Singles =       -0.20084134488D-03 Doubles=       -0.59836500111D-02
 Linear MP4 energy terms:
 Singles =       -0.27351973386D-03
 Doubles =       -0.22044304593D-02
 Mixed  =        0.10710451956D-04
 Total MP4L =       -0.24672397412D-02
 TestDE:  II= 99 I=2 DE=   -0.307124243126D-03
 TestDE:  II= 99 I=1 DE=   -0.220921754057D-05
 TestDE:  II= 99 I=3 DE=    0.000000000000D+00
 TestDE:  II= 99 I=1 DE=    0.209328959892D-05
 TestDE:  II= 11 I=2 DE=   -0.307124243126D-03
 TestDE:  II= 99 I=2 DE=   -0.237367140184D-03
 TestDE:  II= 98 I=2 DE=   -0.147889344045D-03
 TestDE:  II= 98 I=3 DE=    0.000000000000D+00
 TestDE:  II= 89 I=1 DE=    0.256780652790D-04
 TestDE:  II= 89 I=2 DE=    0.204311948770D-03
 TestDE:  II= 88 I=3 DE=    0.000000000000D+00
 TestDE:  II= 88 I=2 DE=    0.639331076541D-03
 TestDE:  II= 85 I=1 DE=    0.216266159694D-04
 TestDE:  II= 85 I=2 DE=    0.482132308922D-03
 TestDE:  II= 85 I=3 DE=    0.000000000000D+00
 UMP4Q scratch file information:
   i      file        len
 ---     ------    ------
   1      19997     14476
   2      19998     14476
   3      19996     14476
   4      19995     14476
   5      19994     14476
   6      19993     12769
 total scratch length=       85149
 UMP4(Q)=  0.668825028D-02
 MP4(R+Q)=  0.66882503D-02
 TestDE:  II= 71 I=2 DE=    0.783675312623D-05
 TestDE:  II= 70 I=2 DE=   -0.175677059970D-05
 TestDE:  II= 72 I=2 DE=    0.673075940833D-05
 TestDE:  II= 75 I=2 DE=    0.471065403711D-03
 TestDE:  II= 75 I=1 DE=    0.216318937890D-04
 TestDE:  II= 75 I=3 DE=    0.000000000000D+00
 MP4 NL singles =        0.21221641777D-04
 MP4 NL doubles =        0.49269729750D-03
 MP4 L =       -0.24672397412D-02
 MP4 NL =        0.51391893928D-03
 MP4 Mixed =       -0.33956449694D-04
 RO-SDQ-MP4 Energy =       -0.19872772516D-02
 GetDE: DE=      0.00000000D+00
 TestDE:  II= 65 I=1 DE=    0.674051805489D-03
 TestDE:  II= 65 I=2 DE=    0.146902371978D-01
 TestDE:  II= 65 I=3 DE=    0.000000000000D+00
 Singles A-vector converged to   7.8577949D-04
 Singles A-vector converged to   1.6252616D-03
 The Euclidean norm of the A-vectors is   2.1855155D-03
 The Euclidean norm of the A-vectors is   5.8985988D-03
 A(0)= 0.10000E+01      ANORM= 0.10078E+01      W(0)=-0.30566623E-01
 E3=       -0.61844914D-02        EROMP3=      -0.17784142114D+04
 E4(SDQ)=  -0.19872773D-02        ROMP4(SDQ)=  -0.17784161987D+04
 DE(Corr)= -0.31147663E-01 E(Corr)=     -1778.4075368    
 NORM(A)=   0.10078440D+01
 Iteration Nr.   2
 **********************
 DD1Dir will call FoFMem   1 times, MxPair=         6
 NAB=     2 NAA=     1 NBB=     0.
 DD1Dir:  Pass   1 NRAB=     2 NRAA=     1 NRBB=     0 NR=     5.
 TestDE:  II= 99 I=2 DE=    0.106484010245D-01
 TestDE:  II= 99 I=1 DE=    0.248036728824D-03
 TestDE:  II= 99 I=3 DE=    0.000000000000D+00
 TestDE:  II= 19 I=1 DE=    0.241070154088D-03
 TestDE:  II= 19 I=2 DE=    0.106875007934D-01
 TestDE:  II= 19 I=3 DE=    0.000000000000D+00
 Contribution from DD1=    0.10928571D-01
 ExpSMa:  Full in-core algorithm.
 TestDE:  II=419 I=1 DE=    0.385106594499D-03
 TestDE:  II=419 I=2 DE=    0.166231269718D-01
 TestDE:  II=419 I=3 DE=    0.000000000000D+00
 Contribution from DD2=    0.60796626D-02
 Contribution from DD3=    0.00000000D+00
 Singles added:  Sum=    0.16849141D-01
 Entering DoROCS
 TestDE:  II= 99 I=2 DE=    0.166231269718D-01
 TestDE:  II= 99 I=1 DE=    0.385106594499D-03
 TestDE:  II= 99 I=3 DE=    0.000000000000D+00
 TestDE:  II= 99 I=1 DE=    0.389165762388D-03
 TestDE:  II= 11 I=2 DE=    0.166231269718D-01
 TestDE:  II= 99 I=2 DE=    0.166892773001D-01
 TestDE:  II= 98 I=2 DE=    0.167738041839D-01
 TestDE:  II= 98 I=3 DE=    0.000000000000D+00
 TestDE:  II= 89 I=1 DE=    0.411435432400D-03
 TestDE:  II= 89 I=2 DE=    0.171078855285D-01
 TestDE:  II= 88 I=3 DE=    0.000000000000D+00
 TestDE:  II= 88 I=2 DE=    0.175201554888D-01
 TestDE:  II=  5 I=1 DE=   -0.615452558170D-03
 TestDE:  II=  7 I=2 DE=    0.760649570558D-02
 TestDE:  II=  8 I=2 DE=   -0.126332626871D-01
 TestDE:  II=  9 I=3 DE=    0.000000000000D+00
 TestDE:  II= 50 I=1 DE=   -0.204017125771D-03
 TestDE:  II= 70 I=2 DE=   -0.502676698148D-02
 TestDE:  II= 90 I=3 DE=    0.000000000000D+00
 UMP4Q scratch file information:
   i      file        len
 ---     ------    ------
   1      19997     14476
   2      19998     14476
   3      19996     14476
   4      19995     14476
   5      19994     14476
   6      19993     12769
 total scratch length=       85149
 TestDE:  II= 71 I=2 DE=    0.711848626151D-05
 TestDE:  II= 70 I=2 DE=   -0.158557589808D-05
 TestDE:  II= 72 I=2 DE=    0.610341097659D-05
 TestDE:  II= 75 I=2 DE=   -0.503681448019D-02
 TestDE:  II= 75 I=1 DE=   -0.204014627979D-03
 TestDE:  II= 75 I=3 DE=    0.000000000000D+00
 GetDE: DE=      0.00000000D+00
 TestDE:  II= 65 I=1 DE=    0.810678011460D-03
 TestDE:  II= 65 I=2 DE=    0.182264931297D-01
 TestDE:  II= 65 I=3 DE=    0.000000000000D+00
 Singles A-vector converged to   1.4342642D-02
 Singles A-vector converged to   2.8205503D-02
 The Euclidean norm of the A-vectors is   3.4381508D-02
 The Euclidean norm of the A-vectors is   8.5852809D-02
 A(0)= 0.10000E+01      ANORM= 0.10081E+01      W(0)=-0.30907367E-01
 DE(Corr)= -0.37229730E-01 E(CORR)=     -1778.4136189     Delta=-6.08D-03
 NORM(A)=   0.10080921D+01
 Iteration Nr.   3
 **********************
 DD1Dir will call FoFMem   1 times, MxPair=         6
 NAB=     2 NAA=     1 NBB=     0.
 DD1Dir:  Pass   1 NRAB=     2 NRAA=     1 NRBB=     0 NR=     5.
 TestDE:  II= 99 I=2 DE=    0.108590962412D-01
 TestDE:  II= 99 I=1 DE=    0.253004121050D-03
 TestDE:  II= 99 I=3 DE=    0.000000000000D+00
 TestDE:  II= 19 I=1 DE=    0.246162137133D-03
 TestDE:  II= 19 I=2 DE=    0.109024178151D-01
 TestDE:  II= 19 I=3 DE=    0.000000000000D+00
 Contribution from DD1=    0.11148580D-01
 ExpSMa:  Full in-core algorithm.
 TestDE:  II=419 I=1 DE=    0.394049838440D-03
 TestDE:  II=419 I=2 DE=    0.170130388726D-01
 TestDE:  II=419 I=3 DE=    0.000000000000D+00
 Contribution from DD2=    0.62585088D-02
 Contribution from DD3=    0.00000000D+00
 Singles added:  Sum=    0.17227272D-01
 Entering DoROCS
 TestDE:  II= 99 I=2 DE=    0.170130388726D-01
 TestDE:  II= 99 I=1 DE=    0.394049838440D-03
 TestDE:  II= 99 I=3 DE=    0.000000000000D+00
 TestDE:  II= 99 I=1 DE=    0.398326578259D-03
 TestDE:  II= 11 I=2 DE=    0.170130388726D-01
 TestDE:  II= 99 I=2 DE=    0.170830320669D-01
 TestDE:  II= 98 I=2 DE=    0.171728119919D-01
 TestDE:  II= 98 I=3 DE=    0.000000000000D+00
 TestDE:  II= 89 I=1 DE=    0.421430816169D-03
 TestDE:  II= 89 I=2 DE=    0.175202137676D-01
 TestDE:  II= 88 I=3 DE=    0.000000000000D+00
 TestDE:  II= 88 I=2 DE=    0.179487722767D-01
 TestDE:  II=  5 I=1 DE=   -0.630961017490D-03
 TestDE:  II=  7 I=2 DE=    0.774792480552D-02
 TestDE:  II=  8 I=2 DE=   -0.130064358131D-01
 TestDE:  II=  9 I=3 DE=    0.000000000000D+00
 TestDE:  II= 50 I=1 DE=   -0.209530201321D-03
 TestDE:  II= 70 I=2 DE=   -0.525851100759D-02
 TestDE:  II= 90 I=3 DE=    0.000000000000D+00
 UMP4Q scratch file information:
   i      file        len
 ---     ------    ------
   1      19997     14476
   2      19998     14476
   3      19996     14476
   4      19995     14476
   5      19994     14476
   6      19993     12769
 total scratch length=       85149
 TestDE:  II= 71 I=2 DE=    0.776497268406D-05
 TestDE:  II= 70 I=2 DE=   -0.172539248852D-05
 TestDE:  II= 72 I=2 DE=    0.675474107580D-05
 TestDE:  II= 75 I=2 DE=   -0.526951489074D-02
 TestDE:  II= 75 I=1 DE=   -0.209542604442D-03
 TestDE:  II= 75 I=3 DE=    0.000000000000D+00
 GetDE: DE=      0.00000000D+00
 TestDE:  II= 65 I=1 DE=    0.823387963302D-03
 TestDE:  II= 65 I=2 DE=    0.186157258073D-01
 TestDE:  II= 65 I=3 DE=    0.000000000000D+00
 Singles A-vector converged to   1.3904225D-02
 Singles A-vector converged to   2.7665437D-02
 The Euclidean norm of the A-vectors is   3.3556516D-02
 The Euclidean norm of the A-vectors is   8.3305871D-02
 A(0)= 0.10000E+01      ANORM= 0.10103E+01      W(0)=-0.33504561E-01
 DE(Corr)= -0.37359833E-01 E(CORR)=     -1778.4137490     Delta=-1.30D-04
 NORM(A)=   0.10103197D+01
 Iteration Nr.   4
 **********************
 DD1Dir will call FoFMem   1 times, MxPair=         6
 NAB=     2 NAA=     1 NBB=     0.
 DD1Dir:  Pass   1 NRAB=     2 NRAA=     1 NRBB=     0 NR=     5.
 TestDE:  II= 99 I=2 DE=    0.126246960357D-01
 TestDE:  II= 99 I=1 DE=    0.282563936244D-03
 TestDE:  II= 99 I=3 DE=    0.000000000000D+00
 TestDE:  II= 19 I=1 DE=    0.277299986046D-03
 TestDE:  II= 19 I=2 DE=    0.126702620173D-01
 TestDE:  II= 19 I=3 DE=    0.000000000000D+00
 Contribution from DD1=    0.12947562D-01
 ExpSMa:  Full in-core algorithm.
 TestDE:  II=419 I=1 DE=    0.450485186805D-03
 TestDE:  II=419 I=2 DE=    0.202403131693D-01
 TestDE:  II=419 I=3 DE=    0.000000000000D+00
 Contribution from DD2=    0.77432364D-02
 Contribution from DD3=    0.00000000D+00
 Singles added:  Sum=    0.20240938D-01
 Entering DoROCS
 TestDE:  II= 99 I=2 DE=    0.202403131693D-01
 TestDE:  II= 99 I=1 DE=    0.450485186805D-03
 TestDE:  II= 99 I=3 DE=    0.000000000000D+00
 TestDE:  II= 99 I=1 DE=    0.456364429190D-03
 TestDE:  II= 11 I=2 DE=    0.202403131693D-01
 TestDE:  II= 99 I=2 DE=    0.203410411344D-01
 TestDE:  II= 98 I=2 DE=    0.204773017208D-01
 TestDE:  II= 98 I=3 DE=    0.000000000000D+00
 TestDE:  II= 89 I=1 DE=    0.485737678364D-03
 TestDE:  II= 89 I=2 DE=    0.209425539653D-01
 TestDE:  II= 88 I=3 DE=    0.000000000000D+00
 TestDE:  II= 88 I=2 DE=    0.215161883802D-01
 TestDE:  II=  5 I=1 DE=   -0.728824928071D-03
 TestDE:  II=  7 I=2 DE=    0.888893632655D-02
 TestDE:  II=  8 I=2 DE=   -0.161672563003D-01
 TestDE:  II=  9 I=3 DE=    0.000000000000D+00
 TestDE:  II= 50 I=1 DE=   -0.243087249707D-03
 TestDE:  II= 70 I=2 DE=   -0.727831997378D-02
 TestDE:  II= 90 I=3 DE=    0.000000000000D+00
 UMP4Q scratch file information:
   i      file        len
 ---     ------    ------
   1      19997     14476
   2      19998     14476
   3      19996     14476
   4      19995     14476
   5      19994     14476
   6      19993     12769
 total scratch length=       85149
 TestDE:  II= 71 I=2 DE=    0.165629545059D-04
 TestDE:  II= 70 I=2 DE=   -0.427977145847D-05
 TestDE:  II= 72 I=2 DE=    0.160614470627D-04
 TestDE:  II= 75 I=2 DE=   -0.730265507660D-02
 TestDE:  II= 75 I=1 DE=   -0.243225469234D-03
 TestDE:  II= 75 I=3 DE=    0.000000000000D+00
 GetDE: DE=      0.00000000D+00
 TestDE:  II= 65 I=1 DE=    0.901909960006D-03
 TestDE:  II= 65 I=2 DE=    0.219203859226D-01
 TestDE:  II= 65 I=3 DE=    0.000000000000D+00
 Singles A-vector converged to   1.0692056D-02
 Singles A-vector converged to   2.2412608D-02
 The Euclidean norm of the A-vectors is   2.6440703D-02
 The Euclidean norm of the A-vectors is   6.2819208D-02
 A(0)= 0.10000E+01      ANORM= 0.10122E+01      W(0)=-0.34889932E-01
 DE(Corr)= -0.38394000E-01 E(CORR)=     -1778.4147832     Delta=-1.03D-03
 NORM(A)=   0.10121963D+01
 Iteration Nr.   5
 **********************
 DD1Dir will call FoFMem   1 times, MxPair=         6
 NAB=     2 NAA=     1 NBB=     0.
 DD1Dir:  Pass   1 NRAB=     2 NRAA=     1 NRBB=     0 NR=     5.
 TestDE:  II= 99 I=2 DE=    0.137198469546D-01
 TestDE:  II= 99 I=1 DE=    0.287639887384D-03
 TestDE:  II= 99 I=3 DE=    0.000000000000D+00
 TestDE:  II= 19 I=1 DE=    0.284266165214D-03
 TestDE:  II= 19 I=2 DE=    0.137147044133D-01
 TestDE:  II= 19 I=3 DE=    0.000000000000D+00
 Contribution from DD1=    0.13998971D-01
 ExpSMa:  Full in-core algorithm.
 TestDE:  II=419 I=1 DE=    0.465316629532D-03
 TestDE:  II=419 I=2 DE=    0.222549722588D-01
 TestDE:  II=419 I=3 DE=    0.000000000000D+00
 Contribution from DD2=    0.87213183D-02
 Contribution from DD3=    0.00000000D+00
 Singles added:  Sum=    0.21831981D-01
 Entering DoROCS
 TestDE:  II= 99 I=2 DE=    0.222549722588D-01
 TestDE:  II= 99 I=1 DE=    0.465316629532D-03
 TestDE:  II= 99 I=3 DE=    0.000000000000D+00
 TestDE:  II= 99 I=1 DE=    0.471902474113D-03
 TestDE:  II= 11 I=2 DE=    0.222549722588D-01
 TestDE:  II= 99 I=2 DE=    0.223724286886D-01
 TestDE:  II= 98 I=2 DE=    0.225418136878D-01
 TestDE:  II= 98 I=3 DE=    0.000000000000D+00
 TestDE:  II= 89 I=1 DE=    0.504170980281D-03
 TestDE:  II= 89 I=2 DE=    0.230879655849D-01
 TestDE:  II= 88 I=3 DE=    0.000000000000D+00
 TestDE:  II= 88 I=2 DE=    0.237654508814D-01
 TestDE:  II=  5 I=1 DE=   -0.753182800149D-03
 TestDE:  II=  7 I=2 DE=    0.949904670973D-02
 TestDE:  II=  8 I=2 DE=   -0.183187412432D-01
 TestDE:  II=  9 I=3 DE=    0.000000000000D+00
 TestDE:  II= 50 I=1 DE=   -0.249011819868D-03
 TestDE:  II= 70 I=2 DE=   -0.881969453351D-02
 TestDE:  II= 90 I=3 DE=    0.000000000000D+00
 UMP4Q scratch file information:
   i      file        len
 ---     ------    ------
   1      19997     14476
   2      19998     14476
   3      19996     14476
   4      19995     14476
   5      19994     14476
   6      19993     12769
 total scratch length=       85149
 TestDE:  II= 71 I=2 DE=    0.305954293164D-04
 TestDE:  II= 70 I=2 DE=   -0.938844688837D-05
 TestDE:  II= 72 I=2 DE=    0.317304574284D-04
 TestDE:  II= 75 I=2 DE=   -0.886594396308D-02
 TestDE:  II= 75 I=1 DE=   -0.249232444392D-03
 TestDE:  II= 75 I=3 DE=    0.000000000000D+00
 GetDE: DE=      0.00000000D+00
 TestDE:  II= 65 I=1 DE=    0.921218124328D-03
 TestDE:  II= 65 I=2 DE=    0.243706843741D-01
 TestDE:  II= 65 I=3 DE=    0.000000000000D+00
 Singles A-vector converged to   8.1803516D-03
 Singles A-vector converged to   1.6777957D-02
 The Euclidean norm of the A-vectors is   2.0120341D-02
 The Euclidean norm of the A-vectors is   4.8414227D-02
 A(0)= 0.10000E+01      ANORM= 0.10455E+01      W(0)=-0.50216527E-01
 DE(Corr)= -0.39085253E-01 E(CORR)=     -1778.4154744     Delta=-6.91D-04
 NORM(A)=   0.10454946D+01
 Iteration Nr.   6
 **********************
 DD1Dir will call FoFMem   1 times, MxPair=         6
 NAB=     2 NAA=     1 NBB=     0.
 DD1Dir:  Pass   1 NRAB=     2 NRAA=     1 NRBB=     0 NR=     5.
 TestDE:  II= 99 I=2 DE=    0.305717828094D-01
 TestDE:  II= 99 I=1 DE=    0.437089967414D-03
 TestDE:  II= 99 I=3 DE=    0.000000000000D+00
 TestDE:  II= 19 I=1 DE=    0.461172395735D-03
 TestDE:  II= 19 I=2 DE=    0.296473740237D-01
 TestDE:  II= 19 I=3 DE=    0.000000000000D+00
 Contribution from DD1=    0.30108546D-01
 ExpSMa:  Full in-core algorithm.
 TestDE:  II=419 I=1 DE=    0.802822058639D-03
 TestDE:  II=419 I=2 DE=    0.535487965168D-01
 TestDE:  II=419 I=3 DE=    0.000000000000D+00
 Contribution from DD2=    0.24243072D-01
 Contribution from DD3=    0.00000000D+00
 Singles added:  Sum=    0.43710626D-01
 Entering DoROCS
 TestDE:  II= 99 I=2 DE=    0.535487965168D-01
 TestDE:  II= 99 I=1 DE=    0.802822058639D-03
 TestDE:  II= 99 I=3 DE=    0.000000000000D+00
 TestDE:  II= 99 I=1 DE=    0.824170002487D-03
 TestDE:  II= 11 I=2 DE=    0.535487965168D-01
 TestDE:  II= 99 I=2 DE=    0.541140511358D-01
 TestDE:  II= 98 I=2 DE=    0.550690245115D-01
 TestDE:  II= 98 I=3 DE=    0.000000000000D+00
 TestDE:  II= 89 I=1 DE=    0.915304250293D-03
 TestDE:  II= 89 I=2 DE=    0.572029048475D-01
 TestDE:  II= 88 I=3 DE=    0.000000000000D+00
 TestDE:  II= 88 I=2 DE=    0.599369284361D-01
 TestDE:  II=  5 I=1 DE=   -0.133850721405D-02
 TestDE:  II=  7 I=2 DE=    0.194536285298D-01
 TestDE:  II=  8 I=2 DE=   -0.525701536012D-01
 TestDE:  II=  9 I=3 DE=    0.000000000000D+00
 TestDE:  II= 50 I=1 DE=   -0.423202963753D-03
 TestDE:  II= 70 I=2 DE=   -0.331165250713D-01
 TestDE:  II= 90 I=3 DE=    0.000000000000D+00
 UMP4Q scratch file information:
   i      file        len
 ---     ------    ------
   1      19997     14476
   2      19998     14476
   3      19996     14476
   4      19995     14476
   5      19994     14476
   6      19993     12769
 total scratch length=       85149
 TestDE:  II= 71 I=2 DE=    0.566125263101D-03
 TestDE:  II= 70 I=2 DE=   -0.193507338723D-03
 TestDE:  II= 72 I=2 DE=    0.656510034079D-03
 TestDE:  II= 75 I=2 DE=   -0.340533290406D-01
 TestDE:  II= 75 I=1 DE=   -0.422024221360D-03
 TestDE:  II= 75 I=3 DE=    0.000000000000D+00
 GetDE: DE=      0.00000000D+00
 TestDE:  II= 65 I=1 DE=    0.130204602354D-02
 TestDE:  II= 65 I=2 DE=    0.567063162647D-01
 TestDE:  II= 65 I=3 DE=    0.000000000000D+00
 Singles A-vector converged to   1.5702529D-02
 Singles A-vector converged to   3.3072447D-02
 The Euclidean norm of the A-vectors is   3.9606190D-02
 The Euclidean norm of the A-vectors is   9.7351960D-02
 A(0)= 0.10000E+01      ANORM= 0.10199E+01      W(0)=-0.39860141E-01
 DE(Corr)= -0.45645019E-01 E(CORR)=     -1778.4220342     Delta=-6.56D-03
 NORM(A)=   0.10199253D+01
 Iteration Nr.   7
 **********************
 DD1Dir will call FoFMem   1 times, MxPair=         6
 NAB=     2 NAA=     1 NBB=     0.
 DD1Dir:  Pass   1 NRAB=     2 NRAA=     1 NRBB=     0 NR=     5.
 TestDE:  II= 99 I=2 DE=    0.181111133281D-01
 TestDE:  II= 99 I=1 DE=    0.335601395650D-03
 TestDE:  II= 99 I=3 DE=    0.000000000000D+00
 TestDE:  II= 19 I=1 DE=    0.338817434229D-03
 TestDE:  II= 19 I=2 DE=    0.179435388724D-01
 TestDE:  II= 19 I=3 DE=    0.000000000000D+00
 Contribution from DD1=    0.18282356D-01
 ExpSMa:  Full in-core algorithm.
 TestDE:  II=419 I=1 DE=    0.567822054606D-03
 TestDE:  II=419 I=2 DE=    0.303601231147D-01
 TestDE:  II=419 I=3 DE=    0.000000000000D+00
 Contribution from DD2=    0.12645589D-01
 Contribution from DD3=    0.00000000D+00
 Singles added:  Sum=    0.28116228D-01
 Entering DoROCS
 TestDE:  II= 99 I=2 DE=    0.303601231147D-01
 TestDE:  II= 99 I=1 DE=    0.567822054606D-03
 TestDE:  II= 99 I=3 DE=    0.000000000000D+00
 TestDE:  II= 99 I=1 DE=    0.578221620883D-03
 TestDE:  II= 11 I=2 DE=    0.303601231147D-01
 TestDE:  II= 99 I=2 DE=    0.305677731615D-01
 TestDE:  II= 98 I=2 DE=    0.308935092332D-01
 TestDE:  II= 98 I=3 DE=    0.000000000000D+00
 TestDE:  II= 89 I=1 DE=    0.625477335244D-03
 TestDE:  II= 89 I=2 DE=    0.317898502586D-01
 TestDE:  II= 88 I=3 DE=    0.000000000000D+00
 TestDE:  II= 88 I=2 DE=    0.329178424964D-01
 TestDE:  II=  5 I=1 DE=   -0.930172988287D-03
 TestDE:  II=  7 I=2 DE=    0.120551431052D-01
 TestDE:  II=  8 I=2 DE=   -0.269403812950D-01
 TestDE:  II=  9 I=3 DE=    0.000000000000D+00
 TestDE:  II= 50 I=1 DE=   -0.304695653042D-03
 TestDE:  II= 70 I=2 DE=   -0.148852381897D-01
 TestDE:  II= 90 I=3 DE=    0.000000000000D+00
 UMP4Q scratch file information:
   i      file        len
 ---     ------    ------
   1      19997     14476
   2      19998     14476
   3      19996     14476
   4      19995     14476
   5      19994     14476
   6      19993     12769
 total scratch length=       85149
 TestDE:  II= 71 I=2 DE=    0.106179863891D-03
 TestDE:  II= 70 I=2 DE=   -0.354094353451D-04
 TestDE:  II= 72 I=2 DE=    0.118438966910D-03
 TestDE:  II= 75 I=2 DE=   -0.150537082059D-01
 TestDE:  II= 75 I=1 DE=   -0.304902310839D-03
 TestDE:  II= 75 I=3 DE=    0.000000000000D+00
 GetDE: DE=      0.00000000D+00
 TestDE:  II= 65 I=1 DE=    0.104847032960D-02
 TestDE:  II= 65 I=2 DE=    0.330735777386D-01
 TestDE:  II= 65 I=3 DE=    0.000000000000D+00
 Singles A-vector converged to   5.2420783D-04
 Singles A-vector converged to   1.4901022D-03
 The Euclidean norm of the A-vectors is   1.5871995D-03
 The Euclidean norm of the A-vectors is   3.0054204D-03
 A(0)= 0.10000E+01      ANORM= 0.10203E+01      W(0)=-0.39994335E-01
 DE(Corr)= -0.41239074E-01 E(CORR)=     -1778.4176282     Delta= 4.41D-03
 NORM(A)=   0.10203292D+01
 Iteration Nr.   8
 **********************
 DD1Dir will call FoFMem   1 times, MxPair=         6
 NAB=     2 NAA=     1 NBB=     0.
 DD1Dir:  Pass   1 NRAB=     2 NRAA=     1 NRBB=     0 NR=     5.
 TestDE:  II= 99 I=2 DE=    0.182663041427D-01
 TestDE:  II= 99 I=1 DE=    0.335647144232D-03
 TestDE:  II= 99 I=3 DE=    0.000000000000D+00
 TestDE:  II= 19 I=1 DE=    0.339184211603D-03
 TestDE:  II= 19 I=2 DE=    0.180782167958D-01
 TestDE:  II= 19 I=3 DE=    0.000000000000D+00
 Contribution from DD1=    0.18417401D-01
 ExpSMa:  Full in-core algorithm.
 TestDE:  II=419 I=1 DE=    0.568709424990D-03
 TestDE:  II=419 I=2 DE=    0.306336747039D-01
 TestDE:  II=419 I=3 DE=    0.000000000000D+00
 Contribution from DD2=    0.12784983D-01
 Contribution from DD3=    0.00000000D+00
 Singles added:  Sum=    0.28237264D-01
 Entering DoROCS
 TestDE:  II= 99 I=2 DE=    0.306336747039D-01
 TestDE:  II= 99 I=1 DE=    0.568709424990D-03
 TestDE:  II= 99 I=3 DE=    0.000000000000D+00
 TestDE:  II= 99 I=1 DE=    0.579172741798D-03
 TestDE:  II= 11 I=2 DE=    0.306336747039D-01
 TestDE:  II= 99 I=2 DE=    0.308436965903D-01
 TestDE:  II= 98 I=2 DE=    0.311752146931D-01
 TestDE:  II= 98 I=3 DE=    0.000000000000D+00
 TestDE:  II= 89 I=1 DE=    0.626783068877D-03
 TestDE:  II= 89 I=2 DE=    0.320844165641D-01
 TestDE:  II= 88 I=3 DE=    0.000000000000D+00
 TestDE:  II= 88 I=2 DE=    0.332299686052D-01
 TestDE:  II=  5 I=1 DE=   -0.931290323139D-03
 TestDE:  II=  7 I=2 DE=    0.121289739781D-01
 TestDE:  II=  8 I=2 DE=   -0.272610840544D-01
 TestDE:  II=  9 I=3 DE=    0.000000000000D+00
 TestDE:  II= 50 I=1 DE=   -0.304507254262D-03
 TestDE:  II= 70 I=2 DE=   -0.151321100764D-01
 TestDE:  II= 90 I=3 DE=    0.000000000000D+00
 UMP4Q scratch file information:
   i      file        len
 ---     ------    ------
   1      19997     14476
   2      19998     14476
   3      19996     14476
   4      19995     14476
   5      19994     14476
   6      19993     12769
 total scratch length=       85149
 TestDE:  II= 71 I=2 DE=    0.112651032102D-03
 TestDE:  II= 70 I=2 DE=   -0.378714285505D-04
 TestDE:  II= 72 I=2 DE=    0.125782807935D-03
 TestDE:  II= 75 I=2 DE=   -0.153110381076D-01
 TestDE:  II= 75 I=1 DE=   -0.304707058736D-03
 TestDE:  II= 75 I=3 DE=    0.000000000000D+00
 GetDE: DE=      0.00000000D+00
 TestDE:  II= 65 I=1 DE=    0.104899078775D-02
 TestDE:  II= 65 I=2 DE=    0.334384063111D-01
 TestDE:  II= 65 I=3 DE=    0.000000000000D+00
 Singles A-vector converged to   2.0299192D-04
 Singles A-vector converged to   5.6489116D-04
 The Euclidean norm of the A-vectors is   6.0465188D-04
 The Euclidean norm of the A-vectors is   1.1413356D-03
 A(0)= 0.10000E+01      ANORM= 0.10205E+01      W(0)=-0.40060851E-01
 DE(Corr)= -0.41309225E-01 E(CORR)=     -1778.4176984     Delta=-7.02D-05
 NORM(A)=   0.10205444D+01
 Iteration Nr.   9
 **********************
 DD1Dir will call FoFMem   1 times, MxPair=         6
 NAB=     2 NAA=     1 NBB=     0.
 DD1Dir:  Pass   1 NRAB=     2 NRAA=     1 NRBB=     0 NR=     5.
 TestDE:  II= 99 I=2 DE=    0.183442549682D-01
 TestDE:  II= 99 I=1 DE=    0.335738018381D-03
 TestDE:  II= 99 I=3 DE=    0.000000000000D+00
 TestDE:  II= 19 I=1 DE=    0.339432841068D-03
 TestDE:  II= 19 I=2 DE=    0.181450624420D-01
 TestDE:  II= 19 I=3 DE=    0.000000000000D+00
 Contribution from DD1=    0.18484495D-01
 ExpSMa:  Full in-core algorithm.
 TestDE:  II=419 I=1 DE=    0.569295093848D-03
 TestDE:  II=419 I=2 DE=    0.307741128252D-01
 TestDE:  II=419 I=3 DE=    0.000000000000D+00
 Contribution from DD2=    0.12858913D-01
 Contribution from DD3=    0.00000000D+00
 Singles added:  Sum=    0.28295280D-01
 Entering DoROCS
 TestDE:  II= 99 I=2 DE=    0.307741128252D-01
 TestDE:  II= 99 I=1 DE=    0.569295093848D-03
 TestDE:  II= 99 I=3 DE=    0.000000000000D+00
 TestDE:  II= 99 I=1 DE=    0.579794182379D-03
 TestDE:  II= 11 I=2 DE=    0.307741128252D-01
 TestDE:  II= 99 I=2 DE=    0.309854200213D-01
 TestDE:  II= 98 I=2 DE=    0.313200890947D-01
 TestDE:  II= 98 I=3 DE=    0.000000000000D+00
 TestDE:  II= 89 I=1 DE=    0.627603568127D-03
 TestDE:  II= 89 I=2 DE=    0.322362485582D-01
 TestDE:  II= 88 I=3 DE=    0.000000000000D+00
 TestDE:  II= 88 I=2 DE=    0.333908057956D-01
 TestDE:  II=  5 I=1 DE=   -0.932142765466D-03
 TestDE:  II=  7 I=2 DE=    0.121660844524D-01
 TestDE:  II=  8 I=2 DE=   -0.274291728758D-01
 TestDE:  II=  9 I=3 DE=    0.000000000000D+00
 TestDE:  II= 50 I=1 DE=   -0.304539197339D-03
 TestDE:  II= 70 I=2 DE=   -0.152630884234D-01
 TestDE:  II= 90 I=3 DE=    0.000000000000D+00
 UMP4Q scratch file information:
   i      file        len
 ---     ------    ------
   1      19997     14476
   2      19998     14476
   3      19996     14476
   4      19995     14476
   5      19994     14476
   6      19993     12769
 total scratch length=       85149
 TestDE:  II= 71 I=2 DE=    0.116268164728D-03
 TestDE:  II= 70 I=2 DE=   -0.392294504151D-04
 TestDE:  II= 72 I=2 DE=    0.129885062426D-03
 TestDE:  II= 75 I=2 DE=   -0.154478747245D-01
 TestDE:  II= 75 I=1 DE=   -0.304732736875D-03
 TestDE:  II= 75 I=3 DE=    0.000000000000D+00
 GetDE: DE=      0.00000000D+00
 TestDE:  II= 65 I=1 DE=    0.104949322044D-02
 TestDE:  II= 65 I=2 DE=    0.336291784677D-01
 TestDE:  II= 65 I=3 DE=    0.000000000000D+00
 Singles A-vector converged to   2.5047026D-05
 Singles A-vector converged to   5.9490856D-05
 The Euclidean norm of the A-vectors is   6.6085020D-05
 The Euclidean norm of the A-vectors is   1.5290599D-04
 A(0)= 0.10000E+01      ANORM= 0.10206E+01      W(0)=-0.40066883E-01
 DE(Corr)= -0.41346162E-01 E(CORR)=     -1778.4177353     Delta=-3.69D-05
 NORM(A)=   0.10205651D+01
 Iteration Nr.  10
 **********************
 DD1Dir will call FoFMem   1 times, MxPair=         6
 NAB=     2 NAA=     1 NBB=     0.
 DD1Dir:  Pass   1 NRAB=     2 NRAA=     1 NRBB=     0 NR=     5.
 TestDE:  II= 99 I=2 DE=    0.183514574779D-01
 TestDE:  II= 99 I=1 DE=    0.335825905292D-03
 TestDE:  II= 99 I=3 DE=    0.000000000000D+00
 TestDE:  II= 19 I=1 DE=    0.339520647660D-03
 TestDE:  II= 19 I=2 DE=    0.181509665223D-01
 TestDE:  II= 19 I=3 DE=    0.000000000000D+00
 Contribution from DD1=    0.18490487D-01
 ExpSMa:  Full in-core algorithm.
 TestDE:  II=419 I=1 DE=    0.569449586289D-03
 TestDE:  II=419 I=2 DE=    0.307874285913D-01
 TestDE:  II=419 I=3 DE=    0.000000000000D+00
 Contribution from DD2=    0.12866391D-01
 Contribution from DD3=    0.00000000D+00
 Singles added:  Sum=    0.28300621D-01
 Entering DoROCS
 TestDE:  II= 99 I=2 DE=    0.307874285913D-01
 TestDE:  II= 99 I=1 DE=    0.569449586289D-03
 TestDE:  II= 99 I=3 DE=    0.000000000000D+00
 TestDE:  II= 99 I=1 DE=    0.579952565311D-03
 TestDE:  II= 11 I=2 DE=    0.307874285913D-01
 TestDE:  II= 99 I=2 DE=    0.309988583554D-01
 TestDE:  II= 98 I=2 DE=    0.313338569375D-01
 TestDE:  II= 98 I=3 DE=    0.000000000000D+00
 TestDE:  II= 89 I=1 DE=    0.627790294592D-03
 TestDE:  II= 89 I=2 DE=    0.322508483360D-01
 TestDE:  II= 88 I=3 DE=    0.000000000000D+00
 TestDE:  II= 88 I=2 DE=    0.334062446908D-01
 TestDE:  II=  5 I=1 DE=   -0.932404113664D-03
 TestDE:  II=  7 I=2 DE=    0.121702322197D-01
 TestDE:  II=  8 I=2 DE=   -0.274456298342D-01
 TestDE:  II=  9 I=3 DE=    0.000000000000D+00
 TestDE:  II= 50 I=1 DE=   -0.304613819072D-03
 TestDE:  II= 70 I=2 DE=   -0.152753976144D-01
 TestDE:  II= 90 I=3 DE=    0.000000000000D+00
 UMP4Q scratch file information:
   i      file        len
 ---     ------    ------
   1      19997     14476
   2      19998     14476
   3      19996     14476
   4      19995     14476
   5      19994     14476
   6      19993     12769
 total scratch length=       85149
 TestDE:  II= 71 I=2 DE=    0.116664741917D-03
 TestDE:  II= 70 I=2 DE=   -0.393769659735D-04
 TestDE:  II= 72 I=2 DE=    0.130334333272D-03
 TestDE:  II= 75 I=2 DE=   -0.154608288692D-01
 TestDE:  II= 75 I=1 DE=   -0.304806085205D-03
 TestDE:  II= 75 I=3 DE=    0.000000000000D+00
 GetDE: DE=      0.00000000D+00
 TestDE:  II= 65 I=1 DE=    0.104966327633D-02
 TestDE:  II= 65 I=2 DE=    0.336466476794D-01
 TestDE:  II= 65 I=3 DE=    0.000000000000D+00
 Singles A-vector converged to   4.3938973D-06
 Singles A-vector converged to   7.9069993D-06
 The Euclidean norm of the A-vectors is   9.6565723D-06
 The Euclidean norm of the A-vectors is   2.6920321D-05
 A(0)= 0.10000E+01      ANORM= 0.10206E+01      W(0)=-0.40066807E-01
 DE(Corr)= -0.41349518E-01 E(CORR)=     -1778.4177387     Delta=-3.36D-06
 NORM(A)=   0.10205637D+01
 Iteration Nr.  11
 **********************
 DD1Dir will call FoFMem   1 times, MxPair=         6
 NAB=     2 NAA=     1 NBB=     0.
 DD1Dir:  Pass   1 NRAB=     2 NRAA=     1 NRBB=     0 NR=     5.
 TestDE:  II= 99 I=2 DE=    0.183511946814D-01
 TestDE:  II= 99 I=1 DE=    0.335841982490D-03
 TestDE:  II= 99 I=3 DE=    0.000000000000D+00
 TestDE:  II= 19 I=1 DE=    0.339534104366D-03
 TestDE:  II= 19 I=2 DE=    0.181507090034D-01
 TestDE:  II= 19 I=3 DE=    0.000000000000D+00
 Contribution from DD1=    0.18490243D-01
 ExpSMa:  Full in-core algorithm.
 TestDE:  II=419 I=1 DE=    0.569472308851D-03
 TestDE:  II=419 I=2 DE=    0.307870755508D-01
 TestDE:  II=419 I=3 DE=    0.000000000000D+00
 Contribution from DD2=    0.12866305D-01
 Contribution from DD3=    0.00000000D+00
 Singles added:  Sum=    0.28300946D-01
 Entering DoROCS
 TestDE:  II= 99 I=2 DE=    0.307870755508D-01
 TestDE:  II= 99 I=1 DE=    0.569472308851D-03
 TestDE:  II= 99 I=3 DE=    0.000000000000D+00
 TestDE:  II= 99 I=1 DE=    0.579975387776D-03
 TestDE:  II= 11 I=2 DE=    0.307870755508D-01
 TestDE:  II= 99 I=2 DE=    0.309985082529D-01
 TestDE:  II= 98 I=2 DE=    0.313335066912D-01
 TestDE:  II= 98 I=3 DE=    0.000000000000D+00
 TestDE:  II= 89 I=1 DE=    0.627814663509D-03
 TestDE:  II= 89 I=2 DE=    0.322505245638D-01
 TestDE:  II= 88 I=3 DE=    0.000000000000D+00
 TestDE:  II= 88 I=2 DE=    0.334058880858D-01
 TestDE:  II=  5 I=1 DE=   -0.932459992074D-03
 TestDE:  II=  7 I=2 DE=    0.121703958149D-01
 TestDE:  II=  8 I=2 DE=   -0.274452673215D-01
 TestDE:  II=  9 I=3 DE=    0.000000000000D+00
 TestDE:  II= 50 I=1 DE=   -0.304645328565D-03
 TestDE:  II= 70 I=2 DE=   -0.152748715066D-01
 TestDE:  II= 90 I=3 DE=    0.000000000000D+00
 UMP4Q scratch file information:
   i      file        len
 ---     ------    ------
   1      19997     14476
   2      19998     14476
   3      19996     14476
   4      19995     14476
   5      19994     14476
   6      19993     12769
 total scratch length=       85149
 TestDE:  II= 71 I=2 DE=    0.116644726850D-03
 TestDE:  II= 70 I=2 DE=   -0.393691030680D-04
 TestDE:  II= 72 I=2 DE=    0.130315000557D-03
 TestDE:  II= 75 I=2 DE=   -0.154602746914D-01
 TestDE:  II= 75 I=1 DE=   -0.304837349120D-03
 TestDE:  II= 75 I=3 DE=    0.000000000000D+00
 GetDE: DE=      0.00000000D+00
 TestDE:  II= 65 I=1 DE=    0.104970249009D-02
 TestDE:  II= 65 I=2 DE=    0.336455220851D-01
 TestDE:  II= 65 I=3 DE=    0.000000000000D+00
 Singles A-vector converged to   2.3969002D-06
 Singles A-vector converged to   3.4486343D-06
 The Euclidean norm of the A-vectors is   4.2271868D-06
 The Euclidean norm of the A-vectors is   8.7235445D-06
 A(0)= 0.10000E+01      ANORM= 0.10206E+01      W(0)=-0.40066886E-01
 DE(Corr)= -0.41349353E-01 E(CORR)=     -1778.4177385     Delta= 1.65D-07
 NORM(A)=   0.10205639D+01
 Iteration Nr.  12
 **********************
 DD1Dir will call FoFMem   1 times, MxPair=         6
 NAB=     2 NAA=     1 NBB=     0.
 DD1Dir:  Pass   1 NRAB=     2 NRAA=     1 NRBB=     0 NR=     5.
 TestDE:  II= 99 I=2 DE=    0.183512907652D-01
 TestDE:  II= 99 I=1 DE=    0.335840633105D-03
 TestDE:  II= 99 I=3 DE=    0.000000000000D+00
 TestDE:  II= 19 I=1 DE=    0.339533353418D-03
 TestDE:  II= 19 I=2 DE=    0.181507492580D-01
 TestDE:  II= 19 I=3 DE=    0.000000000000D+00
 Contribution from DD1=    0.18490283D-01
 ExpSMa:  Full in-core algorithm.
 TestDE:  II=419 I=1 DE=    0.569471716047D-03
 TestDE:  II=419 I=2 DE=    0.307872164951D-01
 TestDE:  II=419 I=3 DE=    0.000000000000D+00
 Contribution from DD2=    0.12866406D-01
 Contribution from DD3=    0.00000000D+00
 Singles added:  Sum=    0.28301042D-01
 Entering DoROCS
 TestDE:  II= 99 I=2 DE=    0.307872164951D-01
 TestDE:  II= 99 I=1 DE=    0.569471716047D-03
 TestDE:  II= 99 I=3 DE=    0.000000000000D+00
 TestDE:  II= 99 I=1 DE=    0.579974707881D-03
 TestDE:  II= 11 I=2 DE=    0.307872164951D-01
 TestDE:  II= 99 I=2 DE=    0.309986519295D-01
 TestDE:  II= 98 I=2 DE=    0.313336533424D-01
 TestDE:  II= 98 I=3 DE=    0.000000000000D+00
 TestDE:  II= 89 I=1 DE=    0.627813956532D-03
 TestDE:  II= 89 I=2 DE=    0.322506825224D-01
 TestDE:  II= 88 I=3 DE=    0.000000000000D+00
 TestDE:  II= 88 I=2 DE=    0.334060600559D-01
 TestDE:  II=  5 I=1 DE=   -0.932465589133D-03
 TestDE:  II=  7 I=2 DE=    0.121704571629D-01
 TestDE:  II=  8 I=2 DE=   -0.274455468081D-01
 TestDE:  II=  9 I=3 DE=    0.000000000000D+00
 TestDE:  II= 50 I=1 DE=   -0.304651632601D-03
 TestDE:  II= 70 I=2 DE=   -0.152750896452D-01
 TestDE:  II= 90 I=3 DE=    0.000000000000D+00
 UMP4Q scratch file information:
   i      file        len
 ---     ------    ------
   1      19997     14476
   2      19998     14476
   3      19996     14476
   4      19995     14476
   5      19994     14476
   6      19993     12769
 total scratch length=       85149
 TestDE:  II= 71 I=2 DE=    0.116644472713D-03
 TestDE:  II= 70 I=2 DE=   -0.393702371385D-04
 TestDE:  II= 72 I=2 DE=    0.130316507156D-03
 TestDE:  II= 75 I=2 DE=   -0.154604942176D-01
 TestDE:  II= 75 I=1 DE=   -0.304843597317D-03
 TestDE:  II= 75 I=3 DE=    0.000000000000D+00
 GetDE: DE=      0.00000000D+00
 TestDE:  II= 65 I=1 DE=    0.104970538587D-02
 TestDE:  II= 65 I=2 DE=    0.336457421173D-01
 TestDE:  II= 65 I=3 DE=    0.000000000000D+00
 Singles A-vector converged to   6.8117225D-07
 Singles A-vector converged to   1.0257472D-06
 The Euclidean norm of the A-vectors is   1.1447593D-06
 The Euclidean norm of the A-vectors is   2.1331664D-06
 A(0)= 0.10000E+01      ANORM= 0.10206E+01      W(0)=-0.40066923E-01
 DE(Corr)= -0.41349378E-01 E(CORR)=     -1778.4177386     Delta=-2.50D-08
 NORM(A)=   0.10205639D+01
 Largest amplitude= 4.38D-02
    T4(aaa)=  0.00000000D+00
    T5(aaa)=  0.00000000D+00
    T4(aab)= -0.48533369D-03
    T5(aab)= -0.30639517D-04
 Time for triples=       12.53 seconds.
 T4(CCSD)= -0.48533369D-03
 T5(CCSD)= -0.30639517D-04
 CCSD(T)= -0.17784182545D+04

 **********************************************************************

            Population analysis using the SCF density.

 **********************************************************************

 Orbital symmetries:
       Occupied  (SG) (SG) (PI) (PI) (SG) (SG) (PI) (PI) (SG) (DLTA)
                 (DLTA) (SG) (PI) (PI) (SG) (SG)
       Virtual   (SG) (SG) (PI) (PI) (SG) (SG) (SG) (PI) (PI) (SG)
                 (PI) (PI) (SG) (DLTA) (DLTA) (SG) (PI) (PI) (SG)
                 (SG) (DLTA) (DLTA) (PI) (PI) (SG) (PI) (PI) (PI)
                 (PI) (SG) (PHI) (PHI) (DLTA) (DLTA) (SG) (PI)
                 (PI) (SG) (DLTA) (DLTA) (PI) (PI) (SG) (SG) (PHI)
                 (PHI) (DLTA) (DLTA) (PI) (PI) (SG) (SG) (DLTA)
                 (DLTA) (PI) (PI) (PHI) (PHI) (DLTA) (DLTA) (PI)
                 (PI) (SG) (SG) (?A) (?A) (PHI) (PHI) (DLTA) (DLTA)
                 (PI) (PI) (SG) (PI) (PI) (SG) (PI) (PI) (SG) (DLTA)
                 (DLTA) (PI) (PI) (SG) (?B) (?B) (?A) (?A) (PHI)
                 (PHI) (DLTA) (DLTA) (PI) (PI) (SG) (PHI) (PHI)
                 (DLTA) (DLTA) (PI) (PI) (SG) (?A) (?A) (PHI) (PHI)
                 (DLTA) (DLTA) (PI) (PI) (SG) (SG)
 The electronic state is 2-SG.
 Alpha  occ. eigenvalues -- -353.33292 -44.39100 -38.95498 -38.95498 -38.95375
 Alpha  occ. eigenvalues --   -5.66919  -3.87230  -3.87230  -3.87104  -0.81789
 Alpha  occ. eigenvalues --   -0.81789  -0.81679  -0.81284  -0.81284  -0.45238
 Alpha  occ. eigenvalues --   -0.27538
 Alpha virt. eigenvalues --    0.02142   0.06222   0.06231   0.06231   0.11252
 Alpha virt. eigenvalues --    0.19318   0.44700   0.51027   0.51027   0.54873
 Alpha virt. eigenvalues --    0.61512   0.61512   0.62616   0.80888   0.80888
 Alpha virt. eigenvalues --    0.93984   0.98576   0.98576   1.28759   1.76855
 Alpha virt. eigenvalues --    2.13125   2.13125   2.15744   2.15744   2.16451
 Alpha virt. eigenvalues --    2.44395   2.44395   2.65998   2.65998   2.66093
 Alpha virt. eigenvalues --    2.71930   2.71930   2.78987   2.78987   3.11491
 Alpha virt. eigenvalues --    3.25241   3.25241   3.42564   3.47549   3.47549
 Alpha virt. eigenvalues --    3.52076   3.52076   4.09760   4.89616   5.99837
 Alpha virt. eigenvalues --    5.99837   6.00909   6.00909   6.21704   6.21704
 Alpha virt. eigenvalues --    6.62956   7.69869   8.16020   8.16020   8.31487
 Alpha virt. eigenvalues --    8.31487   8.59969   8.59969   8.65327   8.65327
 Alpha virt. eigenvalues --    8.76580   8.76580   8.81163   8.89870   8.90256
 Alpha virt. eigenvalues --    8.90256   8.90848   8.90848   8.93982   8.93982
 Alpha virt. eigenvalues --    9.01011   9.01011   9.12952   9.37370   9.37370
 Alpha virt. eigenvalues --    9.95895  11.12723  11.12723  11.64201  12.90145
 Alpha virt. eigenvalues --   12.90145  12.96742  12.96742  13.61012  23.72525
 Alpha virt. eigenvalues --   23.72525  23.72890  23.72890  23.73151  23.73151
 Alpha virt. eigenvalues --   23.73359  23.73359  23.73802  23.73802  23.74428
 Alpha virt. eigenvalues --   26.68789  26.68789  26.70505  26.70505  26.82755
 Alpha virt. eigenvalues --   26.82755  26.98937  29.82319  29.82319  29.82772
 Alpha virt. eigenvalues --   29.82772  29.83367  29.83367  29.87221  29.87221
 Alpha virt. eigenvalues --   29.93653  32.29821
          Condensed to atoms (all electrons):
              1          2
     1  Zn  29.402840   0.244588
     2  H    0.244588   1.107983
 Mulliken atomic charges:
              1
     1  Zn   0.352571
     2  H   -0.352571
 Sum of Mulliken atomic charges =   0.00000
 Mulliken charges with hydrogens summed into heavy atoms:
              1
     1  Zn   0.000000
 Sum of Mulliken charges with hydrogens summed into heavy atoms =   0.00000
          Atomic-Atomic Spin Densities.
              1          2
     1  Zn   1.065846  -0.110985
     2  H   -0.110985   0.156124
 Mulliken atomic spin densities:
              1
     1  Zn   0.954861
     2  H    0.045139
 Sum of Mulliken atomic spin densities =   1.00000
 Electronic spatial extent (au):  <R**2>=             47.2019
 Charge=              0.0000 electrons
 Dipole moment (field-independent basis, Debye):
    X=              0.0000    Y=              0.0000    Z=              0.8601  Tot=              0.8601
 Quadrupole moment (field-independent basis, Debye-Ang):
   XX=            -15.0020   YY=            -15.0020   ZZ=            -21.6605
   XY=              0.0000   XZ=              0.0000   YZ=              0.0000
 Traceless Quadrupole moment (field-independent basis, Debye-Ang):
   XX=              2.2195   YY=              2.2195   ZZ=             -4.4390
   XY=              0.0000   XZ=              0.0000   YZ=              0.0000
 Octapole moment (field-independent basis, Debye-Ang**2):
  XXX=              0.0000  YYY=              0.0000  ZZZ=              4.9020  XYY=              0.0000
  XXY=              0.0000  XXZ=              0.4072  XZZ=              0.0000  YZZ=              0.0000
  YYZ=              0.4072  XYZ=              0.0000
 Hexadecapole moment (field-independent basis, Debye-Ang**3):
 XXXX=            -21.8257 YYYY=            -21.8257 ZZZZ=            -71.1058 XXXY=              0.0000
 XXXZ=              0.0000 YYYX=              0.0000 YYYZ=              0.0000 ZZZX=              0.0000
 ZZZY=              0.0000 XXYY=             -7.2752 XXZZ=            -14.9206 YYZZ=            -14.9206
 XXYZ=              0.0000 YYXZ=              0.0000 ZZXY=              0.0000
 N-N= 9.953800399837D+00 E-N=-6.416939086426D+03  KE= 2.667131106161D+03
                          Isotropic Fermi Contact Couplings
        Atom                 a.u.       MegaHertz       Gauss      10(-4) cm-1
     1  Zn(67)             2.07267     580.83822     207.25751     193.74678
     2  H(1)               0.03114     139.18621      49.66510      46.42752
 --------------------------------------------------------
       Center         ----  Spin Dipole Couplings  ----
                      3XX-RR        3YY-RR        3ZZ-RR
 --------------------------------------------------------
     1   Atom       -0.511753     -0.511753      1.023506
     2   Atom       -0.004362     -0.004362      0.008724
 --------------------------------------------------------
                        XY            XZ            YZ
 --------------------------------------------------------
     1   Atom        0.000000      0.000000      0.000000
     2   Atom        0.000000      0.000000      0.000000
 --------------------------------------------------------


 ---------------------------------------------------------------------------------
              Anisotropic Spin Dipole Couplings in Principal Axis System
 ---------------------------------------------------------------------------------

       Atom             a.u.   MegaHertz   Gauss  10(-4) cm-1        Axes

              Baa    -0.5118   -17.119    -6.108    -5.710  1.0000  0.0000  0.0000
     1 Zn(67) Bbb    -0.5118   -17.119    -6.108    -5.710  0.0000  1.0000  0.0000
              Bcc     1.0235    34.237    12.217    11.420  0.0000  0.0000  1.0000
 
              Baa    -0.0044    -2.327    -0.830    -0.776  0.0000  1.0000  0.0000
     2 H(1)   Bbb    -0.0044    -2.327    -0.830    -0.776  1.0000  0.0000  0.0000
              Bcc     0.0087     4.655     1.661     1.553  0.0000  0.0000  1.0000
 

 ---------------------------------------------------------------------------------


 NEF-NEF-NEF-NEF-NEF-NEF-NEF-NEF-NEF-NEF-NEF-NEF-NEF-NEF-NEF-NEF-NEF-NEF-
 NUMERICAL EIGENVECTOR FOLLOWING MINIMUM SEARCH
 NUMERICALLY ESTIMATING GRADIENTS
 ITERATION   0 VARIABLE  1 STEP  1

 NEF-NEF-NEF-NEF-NEF-NEF-NEF-NEF-NEF-NEF-NEF-NEF-NEF-NEF-NEF-NEF-NEF-NEF-
 ---------------------------------------------------------------------------------------------------
                            Z-MATRIX (ANGSTROMS AND DEGREES)
   CD    Cent   Atom    N1       Length/X        N2       Alpha/Y        N3        Beta/Z          J
 ---------------------------------------------------------------------------------------------------
      1      1  Zn
      2      2  H        1   1.594979(     1)
 ---------------------------------------------------------------------------------------------------
                         Z-Matrix orientation:                         
 ---------------------------------------------------------------------
 Center     Atomic      Atomic             Coordinates (Angstroms)
 Number     Number       Type             X           Y           Z
 ---------------------------------------------------------------------
      1         30           0        0.000000    0.000000    0.000000
      2          1           0        0.000000    0.000000    1.594979
 ---------------------------------------------------------------------
 Stoichiometry    HZn(2)
 Framework group  C*V[C*(HZn)]
 Deg. of freedom     1
 Full point group                 C*V     NOp   4
 Largest Abelian subgroup         C2V     NOp   4
 Largest concise Abelian subgroup C1      NOp   1
                         Standard orientation:                         
 ---------------------------------------------------------------------
 Center     Atomic      Atomic             Coordinates (Angstroms)
 Number     Number       Type             X           Y           Z
 ---------------------------------------------------------------------
      1         30           0        0.000000    0.000000    0.051451
      2          1           0        0.000000    0.000000   -1.543528
 ---------------------------------------------------------------------
 Rotational constants (GHZ):      0.0000000    200.2235021    200.2235021
 Basis read from rwf:  (5D, 7F)
 There are    52 symmetry adapted basis functions of A1  symmetry.
 There are    16 symmetry adapted basis functions of A2  symmetry.
 There are    30 symmetry adapted basis functions of B1  symmetry.
 There are    30 symmetry adapted basis functions of B2  symmetry.
 Integral buffers will be    131072 words long.
 Raffenetti 2 integral format.
 Two-electron integral symmetry is turned on.
   128 basis functions,   341 primitive gaussians,   168 cartesian basis functions
    16 alpha electrons       15 beta electrons
       nuclear repulsion energy         9.9533052622 Hartrees.
 NAtoms=    2 NActive=    2 NUniq=    2 SFac= 7.50D-01 NAtFMM=   80 NAOKFM=F Big=F
 One-electron integrals computed using PRISM.
 NBasis=   128 RedAO= F  NBF=    52    16    30    30
 NBsUse=   128 1.00D-04 NBFU=    52    16    30    30
 Initial guess read from the read-write file.
 B after Tr=     0.000000    0.000000    0.000000
         Rot=    1.000000    0.000000    0.000000    0.000000 Ang=   0.00 deg.
 Initial guess orbital symmetries:
       Occupied  (SG) (SG) (PI) (PI) (SG) (SG) (PI) (PI) (SG) (DLTA)
                 (DLTA) (SG) (PI) (PI) (SG) (SG)
       Virtual   (SG) (SG) (PI) (PI) (SG) (SG) (SG) (PI) (PI) (SG)
                 (PI) (PI) (SG) (DLTA) (DLTA) (SG) (PI) (PI) (SG)
                 (SG) (DLTA) (DLTA) (PI) (PI) (SG) (PI) (PI) (PI)
                 (PI) (SG) (PHI) (PHI) (DLTA) (DLTA) (SG) (PI)
                 (PI) (SG) (DLTA) (DLTA) (PI) (PI) (SG) (SG) (PHI)
                 (PHI) (DLTA) (DLTA) (PI) (PI) (SG) (SG) (DLTA)
                 (DLTA) (PI) (PI) (PHI) (PHI) (DLTA) (DLTA) (PI)
                 (PI) (SG) (SG) (?A) (?A) (PHI) (PHI) (DLTA) (DLTA)
                 (PI) (PI) (SG) (PI) (PI) (SG) (PI) (PI) (SG) (DLTA)
                 (DLTA) (PI) (PI) (SG) (?B) (?B) (?A) (?A) (PHI)
                 (PHI) (DLTA) (DLTA) (PI) (PI) (SG) (PHI) (PHI)
                 (DLTA) (DLTA) (PI) (PI) (SG) (?A) (?A) (PHI) (PHI)
                 (DLTA) (DLTA) (PI) (PI) (SG) (SG)
 Harris functional with IExCor=  205 diagonalized for initial guess.
 ExpMin= 1.16D-02 ExpMax= 3.57D+06 ExpMxC= 4.19D+03 IAcc=3 IRadAn=         5 AccDes= 0.00D+00
 HarFok:  IExCor=  205 AccDes= 0.00D+00 IRadAn=         5 IDoV= 1
 ScaDFX=  1.000000  1.000000  1.000000  1.000000
 FoFCou: FMM=F IPFlag=           0 FMFlag=      100000 FMFlg1=           0
         NFxFlg=           0 DoJE=T BraDBF=F KetDBF=T FulRan=T
         Omega=  0.000000  0.000000  1.000000  0.000000  0.000000 ICntrl=     500 IOpCl=  0
         NMat0=    1 NMatS0=    1 NMatT0=    0 NMatD0=    1 NMtDS0=    0 NMtDT0=    0
         I1Cent=           4 NGrid=           0.
 Petite list used in FoFCou.
 Requested convergence on RMS density matrix=1.00D-10 within 128 cycles.
 Requested convergence on MAX density matrix=1.00D-08.
 Requested convergence on             energy=1.00D-08.
 No special actions if energy rises.
 Keep R1 and R2 ints in memory in canonical form, NReq=218095161.
 SCF Done:  E(ROHF) =  -1778.37638984     A.U. after   10 cycles
             Convg  =    0.5410D-10             -V/T =  2.0000
 <Sx>= 0.0000 <Sy>= 0.0000 <Sz>= 0.5000 <S**2>= 0.7500 S= 0.5000
 <L.S>= 0.000000000000E+00
 Annihilation of the first spin contaminant:
 S**2 before annihilation     0.7500,   after     0.7500
 GenMOA:  NOpAll=  4 NOp2=4 NOpUse=  4 JSym2X=1
 <Sx>= 0.0000 <Sy>= 0.0000 <Sz>= 0.5000 <S**2>= 0.7500 S= 0.5000
 Range of M.O.s used for correlation:    15   128
 NBasis=   128 NAE=    16 NBE=    15 NFC=    14 NFV=     0
 NROrb=    114 NOA=     2 NOB=     1 NVA=   112 NVB=   113

 **** Warning!!: The largest alpha MO coefficient is  0.18685801D+02


 **** Warning!!: The largest beta MO coefficient is  0.18683033D+02

 Singles contribution to E2=   -0.5863695504D-03
 Semi-Direct transformation.
 ModeAB=           2 MOrb=             2 LenV=     804520560
 LASXX=       373333 LTotXX=      373333 LenRXX=      373333
 LTotAB=      387159 MaxLAS=     3236688 LenRXY=     3236688
 NonZer=     3400164 LenScr=     5828608 LnRSAI=           0
 LnScr1=           0 LExtra=      989322 Total=     10427951
 MaxDsk= 17179869184 SrtSym=           F ITran=            4
 GetIJB would need an additional    44197040 words of memory to use all   8 processors.
 JobTyp=1 Pass  1:  I=   1 to   2.
 (rs|ai) integrals will be sorted in core.
 ModeAB=           2 MOrb=             1 LenV=     804520560
 LASXX=       187608 LTotXX=      187608 LenRXX=     1618344
 LTotAB=      187164 MaxLAS=     1618344 LenRXY=      187164
 NonZer=     1700082 LenScr=     3187200 LnRSAI=           0
 LnScr1=           0 LExtra=     4225583 Total=      9218291
 MaxDsk= 17179869184 SrtSym=           F ITran=            4
 GetIJB would need an additional    43011632 words of memory to use all   8 processors.
 JobTyp=2 Pass  1:  I=   1 to   1.
 (rs|ai) integrals will be sorted in core.
 Spin components of T(2) and E(2):
     alpha-alpha T2 =       0.6882170039D-03 E2=     -0.1159470754D-02
     alpha-beta  T2 =       0.1499097936D-01 E2=     -0.2989245367D-01
     beta-beta   T2 =       0.0000000000D+00 E2=      0.0000000000D+00
 ANorm=    0.1008175906D+01
 E2 =    -0.3163829397D-01 EUMP2 =    -0.17784080281322D+04
 (S**2,0)=  0.75000D+00           (S**2,1)=  0.75000D+00
 E(PUHF)=      -0.17783763898D+04        E(PMP2)=      -0.17784080281D+04
 R2 and R3 integrals will be kept in memory, NReq=   217989694.
 Symmetry not used in FoFDir.
 MinBra= 0 MaxBra= 5 Meth= 1.
 IRaf=       0 NMat=   1 IRICut=       1 DoRegI=T DoRafI=F ISym2E= 0 JSym2E=0.
 PrsmSu:  NPrtUS=   8 ThrOK=T IAlg=1
 PRISM was handed    75398825 working-precision words and   666 shell-pairs
 PRISM was handed    75398825 working-precision words and   666 shell-pairs
 PRISM was handed    75398825 working-precision words and   666 shell-pairs
 PRISM was handed    75398825 working-precision words and   666 shell-pairs
 PRISM was handed    75398825 working-precision words and   666 shell-pairs
 PRISM was handed    75398825 working-precision words and   666 shell-pairs
 PRISM was handed    75398825 working-precision words and   666 shell-pairs
 PRISM was handed    75398825 working-precision words and   666 shell-pairs
 IPart=  6 NShTot=       25518 NBatch=        3331 AvBLen=         7.7
 IPart=  7 NShTot=       25245 NBatch=        3331 AvBLen=         7.6
 IPart=  5 NShTot=       26240 NBatch=        3749 AvBLen=         7.0
 IPart=  4 NShTot=       27084 NBatch=        4264 AvBLen=         6.4
 IPart=  3 NShTot=       28220 NBatch=        4823 AvBLen=         5.9
 IPart=  2 NShTot=       28504 NBatch=        4945 AvBLen=         5.8
 IPart=  1 NShTot=       29488 NBatch=        5504 AvBLen=         5.4
 IPart=  0 NShTot=       31792 NBatch=        7170 AvBLen=         4.4
 Iterations=  50 Convergence= 0.100D-06
 A(0)= 0.10000E+01      ANORM= 0.10078E+01      W(0)=-0.31051924E-01
 Singles contributions to ROMP2 energy
Alpha= -0.2917745745872E-03
Beta=  -0.2945949758473E-03
 Iteration Nr.   1
 **********************
 DD1Dir will call FoFMem   1 times, MxPair=         6
 NAB=     2 NAA=     1 NBB=     0.
 DD1Dir:  Pass   1 NRAB=     2 NRAA=     1 NRBB=     0 NR=     5.
 DD1Dir will call FoFMem   1 times, MxPair=         6
 NAB=     2 NAA=     1 NBB=     0.
 DD1Dir:  Pass   1 NRAB=     2 NRAA=     1 NRBB=     0 NR=     5.
 TestDE:  II= 99 I=2 DE=    0.109800798841D-01
 TestDE:  II= 99 I=1 DE=    0.257312456924D-03
 TestDE:  II= 99 I=3 DE=    0.000000000000D+00
 TestDE:  II= 19 I=1 DE=    0.128073087225D-06
 TestDE:  II= 19 I=2 DE=    0.612693954241D-05
 TestDE:  II= 19 I=3 DE=    0.000000000000D+00
 Contribution from DD1=    0.62550126D-05
 ExpSMa:  Full in-core algorithm.
 TestDE:  II= 70 I=2 DE=    0.115607175149D-04
 TestDE:  II= 50 I=1 DE=   -0.221765459930D-06
 TestDE:  II= 90 I=3 DE=    0.000000000000D+00
 Contribution from DD2=    0.50839394D-05
 TestDE:  II=  5 I=1 DE=   -0.634820779149D-03
 TestDE:  II=  5 I=1 DE=   -0.118966211957D-05
 TestDE:  II=  7 I=2 DE=    0.115607175149D-04
 TestDE:  II=  7 I=2 DE=    0.756410622207D-05
 TestDE:  II=  8 I=2 DE=   -0.130228750542D-01
 TestDE:  II=  8 I=2 DE=   -0.289898151911D-05
 TestDE:  II=  9 I=3 DE=    0.000000000000D+00
 TestDE:  II=  9 I=3 DE=    0.000000000000D+00
 Contribution from DD3=   -0.80852549D-05
 Singles added:  Sum=    0.33254280D-05
 Entering DoROCS
 GetDE: DE=      0.00000000D+00
 MP3 Singles =       -0.20087499739D-03 Doubles=       -0.59838608500D-02
 Linear MP4 energy terms:
 Singles =       -0.27356063656D-03
 Doubles =       -0.22045469319D-02
 Mixed  =        0.10712487943D-04
 Total MP4L =       -0.24673950805D-02
 TestDE:  II= 99 I=2 DE=   -0.307143408773D-03
 TestDE:  II= 99 I=1 DE=   -0.220939506825D-05
 TestDE:  II= 99 I=3 DE=    0.000000000000D+00
 TestDE:  II= 99 I=1 DE=    0.209333326416D-05
 TestDE:  II= 11 I=2 DE=   -0.307143408773D-03
 TestDE:  II= 99 I=2 DE=   -0.237379594724D-03
 TestDE:  II= 98 I=2 DE=   -0.147892075520D-03
 TestDE:  II= 98 I=3 DE=    0.000000000000D+00
 TestDE:  II= 89 I=1 DE=    0.256787205423D-04
 TestDE:  II= 89 I=2 DE=    0.204333340340D-03
 TestDE:  II= 88 I=3 DE=    0.000000000000D+00
 TestDE:  II= 88 I=2 DE=    0.639380252051D-03
 TestDE:  II= 85 I=1 DE=    0.216270815523D-04
 TestDE:  II= 85 I=2 DE=    0.482166041221D-03
 TestDE:  II= 85 I=3 DE=    0.000000000000D+00
 UMP4Q scratch file information:
   i      file        len
 ---     ------    ------
   1      19997     14476
   2      19998     14476
   3      19996     14476
   4      19995     14476
   5      19994     14476
   6      19993     12769
 total scratch length=       85149
 UMP4(Q)=  0.668852897D-02
 MP4(R+Q)=  0.66885290D-02
 TestDE:  II= 71 I=2 DE=    0.783869682620D-05
 TestDE:  II= 70 I=2 DE=   -0.175723229423D-05
 TestDE:  II= 72 I=2 DE=    0.673236522789D-05
 TestDE:  II= 75 I=2 DE=    0.471096512882D-03
 TestDE:  II= 75 I=1 DE=    0.216323614940D-04
 TestDE:  II= 75 I=3 DE=    0.000000000000D+00
 MP4 NL singles =        0.21226009267D-04
 MP4 NL doubles =        0.49272887438D-03
 MP4 L =       -0.24673950805D-02
 MP4 NL =        0.51395488364D-03
 MP4 Mixed =       -0.33963857618D-04
 RO-SDQ-MP4 Energy =       -0.19874040545D-02
 GetDE: DE=      0.00000000D+00
 TestDE:  II= 65 I=1 DE=    0.674055490674D-03
 TestDE:  II= 65 I=2 DE=    0.146909308602D-01
 TestDE:  II= 65 I=3 DE=    0.000000000000D+00
 Singles A-vector converged to   7.8588977D-04
 Singles A-vector converged to   1.6254921D-03
 The Euclidean norm of the A-vectors is   2.1857648D-03
 The Euclidean norm of the A-vectors is   5.8991079D-03
 A(0)= 0.10000E+01      ANORM= 0.10078E+01      W(0)=-0.30567072E-01
 E3=       -0.61847358D-02        EROMP3=      -0.17784142129D+04
 E4(SDQ)=  -0.19874041D-02        ROMP4(SDQ)=  -0.17784162003D+04
 DE(Corr)= -0.31148202E-01 E(Corr)=     -1778.4075380    
 NORM(A)=   0.10078444D+01
 Iteration Nr.   2
 **********************
 DD1Dir will call FoFMem   1 times, MxPair=         6
 NAB=     2 NAA=     1 NBB=     0.
 DD1Dir:  Pass   1 NRAB=     2 NRAA=     1 NRBB=     0 NR=     5.
 TestDE:  II= 99 I=2 DE=    0.106487381508D-01
 TestDE:  II= 99 I=1 DE=    0.248039274602D-03
 TestDE:  II= 99 I=3 DE=    0.000000000000D+00
 TestDE:  II= 19 I=1 DE=    0.241071645768D-03
 TestDE:  II= 19 I=2 DE=    0.106878471904D-01
 TestDE:  II= 19 I=3 DE=    0.000000000000D+00
 Contribution from DD1=    0.10928919D-01
 ExpSMa:  Full in-core algorithm.
 TestDE:  II=419 I=1 DE=    0.385106269890D-03
 TestDE:  II=419 I=2 DE=    0.166236601585D-01
 TestDE:  II=419 I=3 DE=    0.000000000000D+00
 Contribution from DD2=    0.60798476D-02
 Contribution from DD3=    0.00000000D+00
 Singles added:  Sum=    0.16849649D-01
 Entering DoROCS
 TestDE:  II= 99 I=2 DE=    0.166236601585D-01
 TestDE:  II= 99 I=1 DE=    0.385106269890D-03
 TestDE:  II= 99 I=3 DE=    0.000000000000D+00
 TestDE:  II= 99 I=1 DE=    0.389165639471D-03
 TestDE:  II= 11 I=2 DE=    0.166236601585D-01
 TestDE:  II= 99 I=2 DE=    0.166898166907D-01
 TestDE:  II= 98 I=2 DE=    0.167743524963D-01
 TestDE:  II= 98 I=3 DE=    0.000000000000D+00
 TestDE:  II= 89 I=1 DE=    0.411435842469D-03
 TestDE:  II= 89 I=2 DE=    0.171084558108D-01
 TestDE:  II= 88 I=3 DE=    0.000000000000D+00
 TestDE:  II= 88 I=2 DE=    0.175207511363D-01
 TestDE:  II=  5 I=1 DE=   -0.615446704114D-03
 TestDE:  II=  7 I=2 DE=    0.760678779250D-02
 TestDE:  II=  8 I=2 DE=   -0.126337160586D-01
 TestDE:  II=  9 I=3 DE=    0.000000000000D+00
 TestDE:  II= 50 I=1 DE=   -0.204010861645D-03
 TestDE:  II= 70 I=2 DE=   -0.502692826613D-02
 TestDE:  II= 90 I=3 DE=    0.000000000000D+00
 UMP4Q scratch file information:
   i      file        len
 ---     ------    ------
   1      19997     14476
   2      19998     14476
   3      19996     14476
   4      19995     14476
   5      19994     14476
   6      19993     12769
 total scratch length=       85149
 TestDE:  II= 71 I=2 DE=    0.712021055009D-05
 TestDE:  II= 70 I=2 DE=   -0.158598242595D-05
 TestDE:  II= 72 I=2 DE=    0.610483089126D-05
 TestDE:  II= 75 I=2 DE=   -0.503697808825D-02
 TestDE:  II= 75 I=1 DE=   -0.204008362698D-03
 TestDE:  II= 75 I=3 DE=    0.000000000000D+00
 GetDE: DE=      0.00000000D+00
 TestDE:  II= 65 I=1 DE=    0.810679951339D-03
 TestDE:  II= 65 I=2 DE=    0.182274042605D-01
 TestDE:  II= 65 I=3 DE=    0.000000000000D+00
 Singles A-vector converged to   1.4343595D-02
 Singles A-vector converged to   2.8207902D-02
 The Euclidean norm of the A-vectors is   3.4383865D-02
 The Euclidean norm of the A-vectors is   8.5857242D-02
 A(0)= 0.10000E+01      ANORM= 0.10081E+01      W(0)=-0.30907839E-01
 DE(Corr)= -0.37230507E-01 E(CORR)=     -1778.4136203     Delta=-6.08D-03
 NORM(A)=   0.10080926D+01
 Iteration Nr.   3
 **********************
 DD1Dir will call FoFMem   1 times, MxPair=         6
 NAB=     2 NAA=     1 NBB=     0.
 DD1Dir:  Pass   1 NRAB=     2 NRAA=     1 NRBB=     0 NR=     5.
 TestDE:  II= 99 I=2 DE=    0.108594511696D-01
 TestDE:  II= 99 I=1 DE=    0.253006805526D-03
 TestDE:  II= 99 I=3 DE=    0.000000000000D+00
 TestDE:  II= 19 I=1 DE=    0.246163747881D-03
 TestDE:  II= 19 I=2 DE=    0.109027826779D-01
 TestDE:  II= 19 I=3 DE=    0.000000000000D+00
 Contribution from DD1=    0.11148946D-01
 ExpSMa:  Full in-core algorithm.
[...]
 TestDE:  II= 99 I=1 DE=    0.562066741760D-03
 TestDE:  II= 99 I=3 DE=    0.000000000000D+00
 TestDE:  II= 99 I=1 DE=    0.572946957153D-03
 TestDE:  II= 11 I=2 DE=    0.320966255382D-01
 TestDE:  II= 99 I=2 DE=    0.323300508789D-01
 TestDE:  II= 98 I=2 DE=    0.327085999772D-01
 TestDE:  II= 98 I=3 DE=    0.000000000000D+00
 TestDE:  II= 89 I=1 DE=    0.621602289422D-03
 TestDE:  II= 89 I=2 DE=    0.337059995950D-01
 TestDE:  II= 88 I=3 DE=    0.000000000000D+00
 TestDE:  II= 88 I=2 DE=    0.349499309691D-01
 TestDE:  II=  5 I=1 DE=   -0.911858807801D-03
 TestDE:  II=  7 I=2 DE=    0.127520700861D-01
 TestDE:  II=  8 I=2 DE=   -0.288666769643D-01
 TestDE:  II=  9 I=3 DE=    0.000000000000D+00
 TestDE:  II= 50 I=1 DE=   -0.290256518379D-03
 TestDE:  II= 70 I=2 DE=   -0.161146068782D-01
 TestDE:  II= 90 I=3 DE=    0.000000000000D+00
 UMP4Q scratch file information:
   i      file        len
 ---     ------    ------
   1      19997     14476
   2      19998     14476
   3      19996     14476
   4      19995     14476
   5      19994     14476
   6      19993     12769
 total scratch length=       85149
 TestDE:  II= 71 I=2 DE=    0.148905407938D-03
 TestDE:  II= 70 I=2 DE=   -0.520552921117D-04
 TestDE:  II= 72 I=2 DE=    0.165796256873D-03
 TestDE:  II= 75 I=2 DE=   -0.163489414630D-01
 TestDE:  II= 75 I=1 DE=   -0.290428584511D-03
 TestDE:  II= 75 I=3 DE=    0.000000000000D+00
 GetDE: DE=      0.00000000D+00
 TestDE:  II= 65 I=1 DE=    0.104051846562D-02
 TestDE:  II= 65 I=2 DE=    0.357216840107D-01
 TestDE:  II= 65 I=3 DE=    0.000000000000D+00
 Singles A-vector converged to   6.1473660D-06
 Singles A-vector converged to   1.2691698D-05
 The Euclidean norm of the A-vectors is   1.5183207D-05
 The Euclidean norm of the A-vectors is   3.9753384D-05
 A(0)= 0.10000E+01      ANORM= 0.10223E+01      W(0)=-0.40756481E-01
 DE(Corr)= -0.42246785E-01 E(CORR)=     -1778.4183881     Delta=-6.42D-06
 NORM(A)=   0.10222694D+01
 Iteration Nr.  11
 **********************
 DD1Dir will call FoFMem   1 times, MxPair=         6
 NAB=     2 NAA=     1 NBB=     0.
 DD1Dir:  Pass   1 NRAB=     2 NRAA=     1 NRBB=     0 NR=     5.
 TestDE:  II= 99 I=2 DE=    0.191071898373D-01
 TestDE:  II= 99 I=1 DE=    0.334238609879D-03
 TestDE:  II= 99 I=3 DE=    0.000000000000D+00
 TestDE:  II= 19 I=1 DE=    0.337119057633D-03
 TestDE:  II= 19 I=2 DE=    0.188687449677D-01
 TestDE:  II= 19 I=3 DE=    0.000000000000D+00
 Contribution from DD1=    0.19205864D-01
 ExpSMa:  Full in-core algorithm.
 TestDE:  II=419 I=1 DE=    0.562096787859D-03
 TestDE:  II=419 I=2 DE=    0.320950265577D-01
 TestDE:  II=419 I=3 DE=    0.000000000000D+00
 Contribution from DD2=    0.13451259D-01
 Contribution from DD3=    0.00000000D+00
 Singles added:  Sum=    0.29031839D-01
 Entering DoROCS
 TestDE:  II= 99 I=2 DE=    0.320950265577D-01
 TestDE:  II= 99 I=1 DE=    0.562096787859D-03
 TestDE:  II= 99 I=3 DE=    0.000000000000D+00
 TestDE:  II= 99 I=1 DE=    0.572977064184D-03
 TestDE:  II= 11 I=2 DE=    0.320950265577D-01
 TestDE:  II= 99 I=2 DE=    0.323284472203D-01
 TestDE:  II= 98 I=2 DE=    0.327069745369D-01
 TestDE:  II= 98 I=3 DE=    0.000000000000D+00
 TestDE:  II= 89 I=1 DE=    0.621633397143D-03
 TestDE:  II= 89 I=2 DE=    0.337043566609D-01
 TestDE:  II= 88 I=3 DE=    0.000000000000D+00
 TestDE:  II= 88 I=2 DE=    0.349481627508D-01
 TestDE:  II=  5 I=1 DE=   -0.911933232730D-03
 TestDE:  II=  7 I=2 DE=    0.127519996708D-01
 TestDE:  II=  8 I=2 DE=   -0.288648452995D-01
 TestDE:  II=  9 I=3 DE=    0.000000000000D+00
 TestDE:  II= 50 I=1 DE=   -0.290299835587D-03
 TestDE:  II= 70 I=2 DE=   -0.161128456287D-01
 TestDE:  II= 90 I=3 DE=    0.000000000000D+00
 UMP4Q scratch file information:
   i      file        len
 ---     ------    ------
   1      19997     14476
   2      19998     14476
   3      19996     14476
   4      19995     14476
   5      19994     14476
   6      19993     12769
 total scratch length=       85149
 TestDE:  II= 71 I=2 DE=    0.148846564367D-03
 TestDE:  II= 70 I=2 DE=   -0.520302799054D-04
 TestDE:  II= 72 I=2 DE=    0.165734595776D-03
 TestDE:  II= 75 I=2 DE=   -0.163470929484D-01
 TestDE:  II= 75 I=1 DE=   -0.290471429260D-03
 TestDE:  II= 75 I=3 DE=    0.000000000000D+00
 GetDE: DE=      0.00000000D+00
 TestDE:  II= 65 I=1 DE=    0.104057063964D-02
 TestDE:  II= 65 I=2 DE=    0.357185773957D-01
 TestDE:  II= 65 I=3 DE=    0.000000000000D+00
 Singles A-vector converged to   2.8567962D-06
 Singles A-vector converged to   4.4397195D-06
 The Euclidean norm of the A-vectors is   5.4677907D-06
 The Euclidean norm of the A-vectors is   1.2086167D-05
 A(0)= 0.10000E+01      ANORM= 0.10223E+01      W(0)=-0.40756596E-01
 DE(Corr)= -0.42246283E-01 E(CORR)=     -1778.4183876     Delta= 5.02D-07
 NORM(A)=   0.10222696D+01
 Iteration Nr.  12
 **********************
 DD1Dir will call FoFMem   1 times, MxPair=         6
 NAB=     2 NAA=     1 NBB=     0.
 DD1Dir:  Pass   1 NRAB=     2 NRAA=     1 NRBB=     0 NR=     5.
 TestDE:  II= 99 I=2 DE=    0.191073187830D-01
 TestDE:  II= 99 I=1 DE=    0.334237915734D-03
 TestDE:  II= 99 I=3 DE=    0.000000000000D+00
 TestDE:  II= 19 I=1 DE=    0.337119268102D-03
 TestDE:  II= 19 I=2 DE=    0.188687992192D-01
 TestDE:  II= 19 I=3 DE=    0.000000000000D+00
 Contribution from DD1=    0.19205918D-01
 ExpSMa:  Full in-core algorithm.
 TestDE:  II=419 I=1 DE=    0.562098184278D-03
 TestDE:  II=419 I=2 DE=    0.320952150500D-01
 TestDE:  II=419 I=3 DE=    0.000000000000D+00
 Contribution from DD2=    0.13451395D-01
 Contribution from DD3=    0.00000000D+00
 Singles added:  Sum=    0.29031924D-01
 Entering DoROCS
 TestDE:  II= 99 I=2 DE=    0.320952150500D-01
 TestDE:  II= 99 I=1 DE=    0.562098184278D-03
 TestDE:  II= 99 I=3 DE=    0.000000000000D+00
 TestDE:  II= 99 I=1 DE=    0.572978432166D-03
 TestDE:  II= 11 I=2 DE=    0.320952150500D-01
 TestDE:  II= 99 I=2 DE=    0.323286409955D-01
 TestDE:  II= 98 I=2 DE=    0.327071740657D-01
 TestDE:  II= 98 I=3 DE=    0.000000000000D+00
 TestDE:  II= 89 I=1 DE=    0.621634959702D-03
 TestDE:  II= 89 I=2 DE=    0.337045721318D-01
 TestDE:  II= 88 I=3 DE=    0.000000000000D+00
 TestDE:  II= 88 I=2 DE=    0.349483953354D-01
 TestDE:  II=  5 I=1 DE=   -0.911944711430D-03
 TestDE:  II=  7 I=2 DE=    0.127520846528D-01
 TestDE:  II=  8 I=2 DE=   -0.288652534264D-01
 TestDE:  II=  9 I=3 DE=    0.000000000000D+00
 TestDE:  II= 50 I=1 DE=   -0.290309751728D-03
 TestDE:  II= 70 I=2 DE=   -0.161131687736D-01
 TestDE:  II= 90 I=3 DE=    0.000000000000D+00
 UMP4Q scratch file information:
   i      file        len
 ---     ------    ------
   1      19997     14476
   2      19998     14476
   3      19996     14476
   4      19995     14476
   5      19994     14476
   6      19993     12769
 total scratch length=       85149
 TestDE:  II= 71 I=2 DE=    0.148848817130D-03
 TestDE:  II= 70 I=2 DE=   -0.520322622422D-04
 TestDE:  II= 72 I=2 DE=    0.165739538535D-03
 TestDE:  II= 75 I=2 DE=   -0.163474225213D-01
 TestDE:  II= 75 I=1 DE=   -0.290481193549D-03
 TestDE:  II= 75 I=3 DE=    0.000000000000D+00
 GetDE: DE=      0.00000000D+00
 TestDE:  II= 65 I=1 DE=    0.104057725966D-02
 TestDE:  II= 65 I=2 DE=    0.357188902273D-01
 TestDE:  II= 65 I=3 DE=    0.000000000000D+00
 Singles A-vector converged to   9.4724275D-07
 Singles A-vector converged to   1.4782953D-06
 The Euclidean norm of the A-vectors is   1.6267877D-06
 The Euclidean norm of the A-vectors is   3.1452801D-06
 A(0)= 0.10000E+01      ANORM= 0.10223E+01      W(0)=-0.40756654E-01
 DE(Corr)= -0.42246324E-01 E(CORR)=     -1778.4183876     Delta=-4.15D-08
 NORM(A)=   0.10222696D+01
 Largest amplitude= 5.16D-02
    T4(aaa)=  0.00000000D+00
    T5(aaa)=  0.00000000D+00
    T4(aab)= -0.51727751D-03
    T5(aab)= -0.35557137D-04
 Time for triples=       12.54 seconds.
 T4(CCSD)= -0.51727751D-03
 T5(CCSD)= -0.35557137D-04
 CCSD(T)= -0.17784189404D+04

 NEF-NEF-NEF-NEF-NEF-NEF-NEF-NEF-NEF-NEF-NEF-NEF-NEF-NEF-NEF-NEF-NEF-NEF-
 NUMERICAL EIGENVECTOR FOLLOWING MINIMUM SEARCH
 GRADIENT ESTIMATION COMPLETE
 Hessian updated using Powell update
 ITERATION   4
 HESSIAN EIGENVECTORS AND EIGENVALUES
                           1
     Eigenvalues --     0.09117
   1         R          1.00000
 MINIMUM SEARCH. TAKING SIMPLE RFO STEP
 SEARCHING FOR LAMDA THAT MINIMIZES ALONG ALL MODES
 VALUE TAKEN    LAMDA=   0.00000000
 STEP TAKEN. STEPSIZE IS  0.000017
 CURRENT PARAMETER VALUES (INTERNAL COORDINATES)
    I        X         GRADIENT    DISPLACEMENT       NEWX
    1    3.130695     -0.000002      0.000017      3.130712
         ITEM               VALUE     THRESHOLD  CONVERGED?
 MAXIMUM FORCE            0.000002     0.000015     YES
 RMS     FORCE            0.000002     0.000010     YES
 MAXIMUM DISPLACEMENT     0.000017     0.000060     YES
 RMS     DISPLACEMENT     0.000017     0.000040     YES


 *************************************************
 **  CONVERGENCE CRITERIA APPARENTLY SATISFIED  **
 *************************************************


                       ----------------------------
                       !   Optimized Parameters   !
                       ! (Angstroms and Degrees)  !
 ----------------------                            ----------------------
 !      Name          Value   Derivative information (Atomic Units)     !
 ------------------------------------------------------------------------
 !        R          1.6567   -DE/DX =    0.0                           !
 ------------------------------------------------------------------------
 PREDICTED CHANGE IN ENERGY   0.000000

 NEF-NEF-NEF-NEF-NEF-NEF-NEF-NEF-NEF-NEF-NEF-NEF-NEF-NEF-NEF-NEF-NEF-NEF-
 ---------------------------------------------------------------------------------------------------
                            Z-MATRIX (ANGSTROMS AND DEGREES)
   CD    Cent   Atom    N1       Length/X        N2       Alpha/Y        N3        Beta/Z          J
 ---------------------------------------------------------------------------------------------------
      1      1  Zn
      2      2  H        1   1.656693(     1)
 ---------------------------------------------------------------------------------------------------
                         Z-Matrix orientation:                         
 ---------------------------------------------------------------------
 Center     Atomic      Atomic             Coordinates (Angstroms)
 Number     Number       Type             X           Y           Z
 ---------------------------------------------------------------------
      1         30           0        0.000000    0.000000    0.000000
      2          1           0        0.000000    0.000000    1.656693
 ---------------------------------------------------------------------
 Stoichiometry    HZn(2)
 Framework group  C*V[C*(HZn)]
 Deg. of freedom     1
 Full point group                 C*V     NOp   4
 Largest Abelian subgroup         C2V     NOp   4
 Largest concise Abelian subgroup C1      NOp   1
                         Standard orientation:                         
 ---------------------------------------------------------------------
 Center     Atomic      Atomic             Coordinates (Angstroms)
 Number     Number       Type             X           Y           Z
 ---------------------------------------------------------------------
      1         30           0        0.000000    0.000000    0.053442
      2          1           0        0.000000    0.000000   -1.603251
 ---------------------------------------------------------------------
 Rotational constants (GHZ):      0.0000000    185.5843130    185.5843130

 **********************************************************************

            Population analysis using the SCF density.

 **********************************************************************

 Orbital symmetries:
       Occupied  (SG) (SG) (PI) (PI) (SG) (SG) (PI) (PI) (SG) (DLTA)
                 (DLTA) (PI) (PI) (SG) (SG) (SG)
       Virtual   (SG) (SG) (PI) (PI) (SG) (SG) (SG) (PI) (PI) (SG)
                 (PI) (PI) (SG) (DLTA) (DLTA) (SG) (PI) (PI) (SG)
                 (SG) (DLTA) (DLTA) (SG) (PI) (PI) (PI) (PI) (SG)
                 (PI) (PI) (PHI) (PHI) (DLTA) (DLTA) (SG) (PI)
                 (PI) (SG) (DLTA) (DLTA) (PI) (PI) (SG) (SG) (PHI)
                 (PHI) (DLTA) (DLTA) (PI) (PI) (SG) (SG) (DLTA)
                 (DLTA) (PI) (PI) (PHI) (PHI) (DLTA) (DLTA) (PI)
                 (PI) (SG) (SG) (?A) (?A) (PHI) (PHI) (DLTA) (DLTA)
                 (PI) (PI) (SG) (PI) (PI) (SG) (PI) (PI) (SG) (DLTA)
                 (DLTA) (PI) (PI) (SG) (?B) (?B) (?A) (?A) (PHI)
                 (PHI) (DLTA) (DLTA) (PI) (PI) (SG) (PHI) (PHI)
                 (DLTA) (DLTA) (PI) (PI) (SG) (?A) (?A) (PHI) (PHI)
                 (DLTA) (DLTA) (PI) (PI) (SG) (SG)
 The electronic state is 2-SG.
 Alpha  occ. eigenvalues -- -353.33462 -44.39215 -38.95618 -38.95618 -38.95493
 Alpha  occ. eigenvalues --   -5.67038  -3.87369  -3.87369  -3.87192  -0.81927
 Alpha  occ. eigenvalues --   -0.81927  -0.81691  -0.81411  -0.81411  -0.44614
 Alpha  occ. eigenvalues --   -0.27726
 Alpha virt. eigenvalues --    0.02173   0.06150   0.06150   0.06158   0.11358
 Alpha virt. eigenvalues --    0.18742   0.45076   0.51025   0.51025   0.55059
 Alpha virt. eigenvalues --    0.61049   0.61049   0.61164   0.80742   0.80742
 Alpha virt. eigenvalues --    0.92337   0.97639   0.97639   1.27679   1.78493
 Alpha virt. eigenvalues --    2.14104   2.14104   2.14969   2.15425   2.15425
 Alpha virt. eigenvalues --    2.44113   2.44113   2.64291   2.65273   2.65273
 Alpha virt. eigenvalues --    2.71744   2.71744   2.77258   2.77258   3.07544
 Alpha virt. eigenvalues --    3.18464   3.18464   3.43295   3.47429   3.47429
 Alpha virt. eigenvalues --    3.52157   3.52157   3.97210   4.88512   6.00401
 Alpha virt. eigenvalues --    6.00401   6.00787   6.00787   6.16066   6.16066
 Alpha virt. eigenvalues --    6.50885   7.70352   8.16209   8.16209   8.27418
 Alpha virt. eigenvalues --    8.27418   8.59801   8.59801   8.64095   8.64095
 Alpha virt. eigenvalues --    8.77046   8.77046   8.78009   8.86083   8.90077
 Alpha virt. eigenvalues --    8.90077   8.90659   8.90659   8.92585   8.92585
 Alpha virt. eigenvalues --    9.02038   9.02038   9.09478   9.25273   9.25273
 Alpha virt. eigenvalues --    9.87801  11.11929  11.11929  11.54618  12.90022
 Alpha virt. eigenvalues --   12.90022  12.94743  12.94743  13.42415  23.72384
 Alpha virt. eigenvalues --   23.72384  23.72746  23.72746  23.73010  23.73010
 Alpha virt. eigenvalues --   23.73205  23.73205  23.73497  23.73497  23.73878
 Alpha virt. eigenvalues --   26.68678  26.68678  26.69979  26.69979  26.80210
 Alpha virt. eigenvalues --   26.80210  26.97006  29.82208  29.82208  29.82650
 Alpha virt. eigenvalues --   29.82650  29.83100  29.83100  29.85582  29.85582
 Alpha virt. eigenvalues --   29.90043  32.21772
          Condensed to atoms (all electrons):
              1          2
     1  Zn  29.404429   0.244234
     2  H    0.244234   1.107104
 Mulliken atomic charges:
              1
     1  Zn   0.351337
     2  H   -0.351337
 Sum of Mulliken atomic charges =   0.00000
 Mulliken charges with hydrogens summed into heavy atoms:
              1
     1  Zn   0.000000
 Sum of Mulliken charges with hydrogens summed into heavy atoms =   0.00000
          Atomic-Atomic Spin Densities.
              1          2
     1  Zn   1.054109  -0.108703
     2  H   -0.108703   0.163297
 Mulliken atomic spin densities:
              1
     1  Zn   0.945406
     2  H    0.054594
 Sum of Mulliken atomic spin densities =   1.00000
 Electronic spatial extent (au):  <R**2>=             48.1262
 Charge=              0.0000 electrons
 Dipole moment (field-independent basis, Debye):
    X=              0.0000    Y=              0.0000    Z=              1.0460  Tot=              1.0460
 Quadrupole moment (field-independent basis, Debye-Ang):
   XX=            -15.0531   YY=            -15.0531   ZZ=            -21.8675
   XY=              0.0000   XZ=              0.0000   YZ=              0.0000
 Traceless Quadrupole moment (field-independent basis, Debye-Ang):
   XX=              2.2715   YY=              2.2715   ZZ=             -4.5429
   XY=              0.0000   XZ=              0.0000   YZ=              0.0000
 Octapole moment (field-independent basis, Debye-Ang**2):
  XXX=              0.0000  YYY=              0.0000  ZZZ=              6.2500  XYY=              0.0000
  XXY=              0.0000  XXZ=              0.7066  XZZ=              0.0000  YZZ=              0.0000
  YYZ=              0.7066  XYZ=              0.0000
 Hexadecapole moment (field-independent basis, Debye-Ang**3):
 XXXX=            -21.8958 YYYY=            -21.8958 ZZZZ=            -74.2928 XXXY=              0.0000
 XXXZ=              0.0000 YYYX=              0.0000 YYYZ=              0.0000 ZZZX=              0.0000
 ZZZY=              0.0000 XXYY=             -7.2986 XXZZ=            -15.3676 YYZZ=            -15.3676
 XXYZ=              0.0000 YYXZ=              0.0000 ZZXY=              0.0000
 N-N= 9.582535324978D+00 E-N=-6.415733467844D+03  KE= 2.667068353825D+03
                          Isotropic Fermi Contact Couplings
        Atom                 a.u.       MegaHertz       Gauss      10(-4) cm-1
     1  Zn(67)             2.16606     607.00851     216.59572     202.47625
     2  H(1)               0.03199     143.00300      51.02703      47.70067
 --------------------------------------------------------
       Center         ----  Spin Dipole Couplings  ----
                      3XX-RR        3YY-RR        3ZZ-RR
 --------------------------------------------------------
     1   Atom       -0.483800     -0.483800      0.967600
     2   Atom       -0.004151     -0.004151      0.008303
 --------------------------------------------------------
                        XY            XZ            YZ
 --------------------------------------------------------
     1   Atom        0.000000      0.000000      0.000000
     2   Atom        0.000000      0.000000      0.000000
 --------------------------------------------------------


 ---------------------------------------------------------------------------------
              Anisotropic Spin Dipole Couplings in Principal Axis System
 ---------------------------------------------------------------------------------

       Atom             a.u.   MegaHertz   Gauss  10(-4) cm-1        Axes

              Baa    -0.4838   -16.183    -5.775    -5.398  1.0000  0.0000  0.0000
     1 Zn(67) Bbb    -0.4838   -16.183    -5.775    -5.398  0.0000  1.0000  0.0000
              Bcc     0.9676    32.367    11.549    10.796  0.0000  0.0000  1.0000
 
              Baa    -0.0042    -2.215    -0.790    -0.739  0.0000  1.0000  0.0000
     2 H(1)   Bbb    -0.0042    -2.215    -0.790    -0.739  1.0000  0.0000  0.0000
              Bcc     0.0083     4.430     1.581     1.478  0.0000  0.0000  1.0000
 

 ---------------------------------------------------------------------------------


 Test job not archived.
 1\1\GINC-C26\FOpt\ROCCSD(T)-RW\Gen\H1Zn1(2)\GPETERSSON\26-Aug-2012\1\\
 # ROCCSD(T,RW) Gen GFinput Int=NoBasisTransform Int(Grid=Ultrafine) IO
 p(3/32=2,5/6=10,8/11=1,9/33=1) Maxdisk=128GB Opt=(Tight,Z-Matrix)\\ZnH
  2Sg+\\0,2\Zn\H,1,R\\R=1.65669269\\Version=EM64L-G09RevA.02\State=2-SG
 \HF=-1778.37614\MP2=-1778.4082113\MP3=-1778.4145897\PUHF=-1778.37614\P
 MP2-0=-1778.4082113\MP4SDQ=-1778.4166807\CCSD=-1778.4183876\CCSD(T)=-1
 778.4189404\RMSD=3.730e-11\RMSF=1.552e-06\PG=C*V [C*(H1Zn1)]\\@


 IT IS IMPOSSIBLE TO MEDITATE ON TIME AND THE MYSTERY 
 OF NATURE WITHOUT AN OVERWHELMING EMOTION AT THE
 LIMITATIONS OF HUMAN INTELLIGENCE.

                                         -- ALFRED NORTH WHITEHEAD
 Job cpu time:  0 days  3 hours 50 minutes 31.0 seconds.
 File lengths (MBytes):  RWF=     87 Int=      0 D2E=      0 Chk=      3 Scr=      1
 Normal termination of Gaussian 09 at Sun Aug 26 00:04:48 2012.
