 Entering Gaussian System, Link 0=g09
 AtFile(1): 4ZaP-NR.gbs
 Initial command:
 /share/apps/gaussian/g09root/g09/l1.exe /localscratch/738797/Gau-29405.inp -scrdir=/localscratch/738797/
 Entering Link 1 = /share/apps/gaussian/g09root/g09/l1.exe PID=     29406.
  
 Copyright (c) 1988,1990,1992,1993,1995,1998,2003,2009, Gaussian, Inc.
                  All Rights Reserved.
  
 This is part of the Gaussian(R) 09 program.  It is based on
 the Gaussian(R) 03 system (copyright 2003, Gaussian, Inc.),
 the Gaussian(R) 98 system (copyright 1998, Gaussian, Inc.),
 the Gaussian(R) 94 system (copyright 1995, Gaussian, Inc.),
 the Gaussian 92(TM) system (copyright 1992, Gaussian, Inc.),
 the Gaussian 90(TM) system (copyright 1990, Gaussian, Inc.),
 the Gaussian 88(TM) system (copyright 1988, Gaussian, Inc.),
 the Gaussian 86(TM) system (copyright 1986, Carnegie Mellon
 University), and the Gaussian 82(TM) system (copyright 1983,
 Carnegie Mellon University). Gaussian is a federally registered
 trademark of Gaussian, Inc.
  
 This software contains proprietary and confidential information,
 including trade secrets, belonging to Gaussian, Inc.
  
 This software is provided under written license and may be
 used, copied, transmitted, or stored only in accord with that
 written license.
  
 The following legend is applicable only to US Government
 contracts under FAR:
  
                    RESTRICTED RIGHTS LEGEND
  
 Use, reproduction and disclosure by the US Government is
 subject to restrictions as set forth in subparagraphs (a)
 and (c) of the Commercial Computer Software - Restricted
 Rights clause in FAR 52.227-19.
  
 Gaussian, Inc.
 340 Quinnipiac St., Bldg. 40, Wallingford CT 06492
  
  
 ---------------------------------------------------------------
 Warning -- This program may not be used in any manner that
 competes with the business of Gaussian, Inc. or will provide
 assistance to any competitor of Gaussian, Inc.  The licensee
 of this program is prohibited from giving any competitor of
 Gaussian, Inc. access to this program.  By using this program,
 the user acknowledges that Gaussian, Inc. is engaged in the
 business of creating and licensing software in the field of
 computational chemistry and represents and warrants to the
 licensee that it is not a competitor of Gaussian, Inc. and that
 it will not use this program in any manner prohibited above.
 ---------------------------------------------------------------
  

 Cite this work as:
 Gaussian 09, Revision A.02,
 M. J. Frisch, G. W. Trucks, H. B. Schlegel, G. E. Scuseria, 
 M. A. Robb, J. R. Cheeseman, G. Scalmani, V. Barone, B. Mennucci, 
 G. A. Petersson, H. Nakatsuji, M. Caricato, X. Li, H. P. Hratchian, 
 A. F. Izmaylov, J. Bloino, G. Zheng, J. L. Sonnenberg, M. Hada, 
 M. Ehara, K. Toyota, R. Fukuda, J. Hasegawa, M. Ishida, T. Nakajima, 
 Y. Honda, O. Kitao, H. Nakai, T. Vreven, J. A. Montgomery, Jr., 
 J. E. Peralta, F. Ogliaro, M. Bearpark, J. J. Heyd, E. Brothers, 
 K. N. Kudin, V. N. Staroverov, R. Kobayashi, J. Normand, 
 K. Raghavachari, A. Rendell, J. C. Burant, S. S. Iyengar, J. Tomasi, 
 M. Cossi, N. Rega, J. M. Millam, M. Klene, J. E. Knox, J. B. Cross, 
 V. Bakken, C. Adamo, J. Jaramillo, R. Gomperts, R. E. Stratmann, 
 O. Yazyev, A. J. Austin, R. Cammi, C. Pomelli, J. W. Ochterski, 
 R. L. Martin, K. Morokuma, V. G. Zakrzewski, G. A. Voth, 
 P. Salvador, J. J. Dannenberg, S. Dapprich, A. D. Daniels, 
 O. Farkas, J. B. Foresman, J. V. Ortiz, J. Cioslowski, 
 and D. J. Fox, Gaussian, Inc., Wallingford CT, 2009.
 
 ******************************************
 Gaussian 09:  EM64L-G09RevA.02 11-Jun-2009
                29-Aug-2012 
 ******************************************
 % Mem=6GB
 % Nproc=8
 Will use up to    8 processors via shared memory.
 ----------------------------------------------------------------------
 # ROCCSD(T,RW) Gen GFinput Int=NoBasisTransform Int(Grid=Ultrafine) IO
 p(3/32=2,5/6=10,8/11=1,9/33=1) Maxdisk=128GB Opt=(Tight,Z-Matrix)
 ----------------------------------------------------------------------

 Warning:  this job cannot use analytic gradients
           and so will do many energy evaluations.

 1/7=10,18=40,29=20000,38=1/1,14;
 2/12=2,17=6,18=5,29=3,40=1/2;
 3/5=7,11=2,16=1,24=10,25=1,30=1,32=2,60=-1,75=-5,116=101/1,2,3;
 4//1;
 5/5=2,6=10,38=5/2;
 8/5=-1,6=4,9=120000,10=91,11=1/1,4;
 9/5=7,14=2,33=1/13;
 6/7=2,8=2,9=2,10=2/1;
 1/7=10,18=40/14(2);
 2/29=3/2;
 99//99;
 2/29=3/2;
 3/5=7,6=1,11=2,16=1,25=1,30=1,32=2,60=-1,75=-5,82=7,116=101/1,2,3;
 4/5=5,16=3/1;
 5/5=2,6=10,23=1,38=5/2;
 8/5=-1,6=4,9=120000,10=93,11=1/1,4;
 9/5=7,14=2,33=1/13;
 1/7=10,18=40/14(-6);
 2/29=3/2;
 6/7=2,8=2,9=2,10=2/1;
 99//99;
 --------
 ZnH 2Sg+
 --------
 Symbolic Z-matrix:
 Charge =  0 Multiplicity = 2
 Zn
 H                    1    R
       Variables:
  R                     1.5949                   
 

 NEF-NEF-NEF-NEF-NEF-NEF-NEF-NEF-NEF-NEF-NEF-NEF-NEF-NEF-NEF-NEF-NEF-NEF-
 NUMERICAL EIGENVECTOR FOLLOWING MINIMUM SEARCH
 INITIALIZATION PASS
                       ----------------------------
                       !    Initial Parameters    !
                       ! (Angstroms and Degrees)  !
 ----------------------                            ----------------------
 !      Name          Value   Derivative information (Atomic Units)     !
 ------------------------------------------------------------------------
 !        R          1.5949   estimate D2E/DX2                          !
 ------------------------------------------------------------------------


 ***************************************************
 ** O P T I M I Z A T I O N   P A R A M E T E R S **
 **  MAXIMUM NO. OF ITERATIONS      :          21 **
 **  MAXIMUM ALLOWED STEP LENGTH    :    0.300000 **
 ***************************************************



 NEF-NEF-NEF-NEF-NEF-NEF-NEF-NEF-NEF-NEF-NEF-NEF-NEF-NEF-NEF-NEF-NEF-NEF-
 ---------------------------------------------------------------------------------------------------
                            Z-MATRIX (ANGSTROMS AND DEGREES)
   CD    Cent   Atom    N1       Length/X        N2       Alpha/Y        N3        Beta/Z          J
 ---------------------------------------------------------------------------------------------------
      1      1  Zn
      2      2  H        1   1.594900(     1)
 ---------------------------------------------------------------------------------------------------
                         Z-Matrix orientation:                         
 ---------------------------------------------------------------------
 Center     Atomic      Atomic             Coordinates (Angstroms)
 Number     Number       Type             X           Y           Z
 ---------------------------------------------------------------------
      1         30           0        0.000000    0.000000    0.000000
      2          1           0        0.000000    0.000000    1.594900
 ---------------------------------------------------------------------
 Stoichiometry    HZn(2)
 Framework group  C*V[C*(HZn)]
 Deg. of freedom     1
 Full point group                 C*V     NOp   4
 Largest Abelian subgroup         C2V     NOp   4
 Largest concise Abelian subgroup C1      NOp   1
                         Standard orientation:                         
 ---------------------------------------------------------------------
 Center     Atomic      Atomic             Coordinates (Angstroms)
 Number     Number       Type             X           Y           Z
 ---------------------------------------------------------------------
      1         30           0        0.000000    0.000000    0.051448
      2          1           0        0.000000    0.000000   -1.543452
 ---------------------------------------------------------------------
 Rotational constants (GHZ):      0.0000000    200.2434233    200.2434233
 General basis read from cards:  (5D, 7F)
 AO basis set in the form of general basis input (Overlap normalization):
      1 0
 S  14 1.00       0.000000000000
      0.3569285380D+07  0.1497123928D-04
      0.6158103200D+06  0.1038556761D-03
      0.1366285090D+06  0.5954929671D-03
      0.3701475300D+05  0.2642474205D-02
      0.1172518090D+05  0.9747767258D-02
      0.4189706630D+04  0.3076465352D-01
      0.1639782040D+04  0.8403511730D-01
      0.6863280030D+03  0.1927906567D+00
      0.3012903750D+03  0.3415528066D+00
      0.1365357930D+03  0.3760910604D+00
      0.6302674300D+02  0.1651338328D+00
      0.2928963300D+02 -0.3694290587D-01
      0.1355084200D+02 -0.8585099494D-01
      0.6169758000D+01 -0.2849459657D-01
 S  11 1.00       0.000000000000
      0.4189706630D+04 -0.1740418966D-03
      0.1639782040D+04 -0.1373658684D-02
      0.6863280030D+03 -0.7894570495D-02
      0.3012903750D+03 -0.3522891612D-01
      0.1365357930D+03 -0.9185663027D-01
      0.6302674300D+02 -0.5906471483D-01
      0.2928963300D+02  0.3332915745D+00
      0.1355084200D+02  0.6018454284D+00
      0.6169758000D+01  0.1927368655D+00
      0.2729066000D+01  0.1087440350D-01
      0.1154998000D+01  0.7373844493D-02
 P  11 1.00       0.000000000000
      0.1595364250D+05  0.8234729414D-04
      0.3878280790D+04  0.7299253187D-03
      0.1232388000D+04  0.4347348759D-02
      0.4677585620D+03  0.1851633171D-01
      0.1989826110D+03  0.6166814101D-01
      0.9090725100D+02  0.1601566831D+00
      0.4340731400D+02  0.3038951886D+00
      0.2129224300D+02  0.3733092658D+00
      0.1059281600D+02  0.2208685450D+00
      0.5271047000D+01  0.4285009703D-01
      0.2570219000D+01  0.2573948037D-02
 S   9 1.00       0.000000000000
      0.1365357930D+03  0.1659893128D-02
      0.6302674300D+02  0.3199662313D-02
      0.2928963300D+02 -0.3147976144D-01
      0.1355084200D+02 -0.2162527595D+00
      0.6169758000D+01 -0.3346692023D-01
      0.2729066000D+01  0.6347604654D+00
      0.1154998000D+01  0.4999231310D+00
      0.4590980000D+00  0.3972738270D-01
      0.1675150000D+00  0.1515647544D-02
 P  10 1.00       0.000000000000
      0.4677585620D+03 -0.8750550890D-04
      0.1989826110D+03 -0.6797604453D-03
      0.9090725100D+02 -0.4182567646D-02
      0.4340731400D+02 -0.1321720093D-01
      0.2129224300D+02 -0.2566858358D-01
      0.1059281600D+02  0.4491550609D-01
      0.5271047000D+01  0.2700460586D+00
      0.2570219000D+01  0.4399319941D+00
      0.1188651000D+01  0.3198808833D+00
      0.4957990000D+00  0.6462619791D-01
 D  10 1.00       0.000000000000
      0.4438304440D+03  0.4485908522D-03
      0.1342962270D+03  0.4158610931D-02
      0.5137618700D+02  0.2123273401D-01
      0.2238791400D+02  0.6905485412D-01
      0.1038341800D+02  0.1663540171D+00
      0.4915606000D+01  0.2748808381D+00
      0.2314025000D+01  0.3201974391D+00
      0.1060868000D+01  0.2842397171D+00
      0.4615360000D+00  0.1765543361D+00
      0.1828270000D+00  0.5204473932D-01
 S   8 1.00       0.000000000000
      0.2928963300D+02  0.1564539026D-03
      0.1355084200D+02  0.3194012425D-02
      0.6169758000D+01 -0.8399647809D-03
      0.2729066000D+01 -0.3014411782D-01
      0.1154998000D+01 -0.1216726294D+00
      0.4590980000D+00 -0.5363279536D-01
      0.1675150000D+00  0.5341914447D+00
      0.5455100000D-01  0.6043701530D+00
 S   1 1.00       0.000000000000
      0.1776444900D-01  0.1000000000D+01
 P   7 1.00       0.000000000000
      0.2129224300D+02 -0.5009147315D-02
      0.1059281600D+02  0.1398373731D-01
      0.5271047000D+01 -0.6074113202D-02
      0.2570219000D+01  0.7525489841D-01
      0.1188651000D+01 -0.7360227994D-01
      0.4957990000D+00  0.1943588584D+00
      0.7932546880D-01  0.9171952792D+00
 S   1 1.00       0.000000000000
      0.3741940000D+01  0.1000000000D+01
 S   1 1.00       0.000000000000
      0.9668210000D+00  0.1000000000D+01
 S   1 1.00       0.000000000000
      0.2498010000D+00  0.1000000000D+01
 P   1 1.00       0.000000000000
      0.1906290000D+01  0.1000000000D+01
 P   1 1.00       0.000000000000
      0.6802290000D+00  0.1000000000D+01
 P   1 1.00       0.000000000000
      0.2427290000D+00  0.1000000000D+01
 D   1 1.00       0.000000000000
      0.2589064000D+01  0.1000000000D+01
 D   1 1.00       0.000000000000
      0.8713320000D+00  0.1000000000D+01
 D   1 1.00       0.000000000000
      0.2932410000D+00  0.1000000000D+01
 F   1 1.00       0.000000000000
      0.8777634000D+01  0.1000000000D+01
 F   1 1.00       0.000000000000
      0.2721037000D+01  0.1000000000D+01
 F   1 1.00       0.000000000000
      0.8435130000D+00  0.1000000000D+01
 G   1 1.00       0.000000000000
      0.6891673000D+01  0.1000000000D+01
 G   1 1.00       0.000000000000
      0.2042202000D+01  0.1000000000D+01
 H   1 1.00       0.000000000000
      0.4365211788D+01  0.1000000000D+01
 ****
      2 0
 S   7 1.00       0.000000000000
      0.1907996280D+03  0.7061124941D-03
      0.2864425700D+02  0.5475336771D-02
      0.6499666000D+01  0.2797731080D-01
      0.1843654000D+01  0.1074041990D+00
      0.5987830000D+00  0.2991562050D+00
      0.2139610000D+00  0.4740174051D+00
      0.8032200000D-01  0.2294115550D+00
 S   1 1.00       0.000000000000
      0.2905840000D-01  0.1000000000D+01
 S   1 1.00       0.000000000000
      0.1158000000D-01  0.1000000000D+01
 S   1 1.00       0.000000000000
      0.8017240000D+00  0.1000000000D+01
 S   1 1.00       0.000000000000
      0.2597140000D+00  0.1000000000D+01
 S   1 1.00       0.000000000000
      0.9337500000D-01  0.1000000000D+01
 P   1 1.00       0.000000000000
      0.2791527000D+01  0.1000000000D+01
 P   1 1.00       0.000000000000
      0.8745530000D+00  0.1000000000D+01
 P   1 1.00       0.000000000000
      0.3003000000D+00  0.1000000000D+01
 D   1 1.00       0.000000000000
      0.2023425000D+01  0.1000000000D+01
 D   1 1.00       0.000000000000
      0.6748480000D+00  0.1000000000D+01
 F   1 1.00       0.000000000000
      0.1367042037D+01  0.1000000000D+01
 ****

 There are    52 symmetry adapted basis functions of A1  symmetry.
 There are    16 symmetry adapted basis functions of A2  symmetry.
 There are    30 symmetry adapted basis functions of B1  symmetry.
 There are    30 symmetry adapted basis functions of B2  symmetry.
 Integral buffers will be    131072 words long.
 Raffenetti 2 integral format.
 Two-electron integral symmetry is turned on.
   128 basis functions,   341 primitive gaussians,   168 cartesian basis functions
    16 alpha electrons       15 beta electrons
       nuclear repulsion energy         9.9538003998 Hartrees.
 NAtoms=    2 NActive=    2 NUniq=    2 SFac= 7.50D-01 NAtFMM=   80 NAOKFM=F Big=F
 One-electron integrals computed using PRISM.
 NBasis=   128 RedAO= F  NBF=    52    16    30    30
 NBsUse=   128 1.00D-04 NBFU=    52    16    30    30
 Harris functional with IExCor=  205 diagonalized for initial guess.
 ExpMin= 1.16D-02 ExpMax= 3.57D+06 ExpMxC= 4.19D+03 IAcc=3 IRadAn=         5 AccDes= 0.00D+00
 HarFok:  IExCor=  205 AccDes= 0.00D+00 IRadAn=         5 IDoV= 1
 ScaDFX=  1.000000  1.000000  1.000000  1.000000
 FoFCou: FMM=F IPFlag=           0 FMFlag=      100000 FMFlg1=           0
         NFxFlg=           0 DoJE=T BraDBF=F KetDBF=T FulRan=T
         Omega=  0.000000  0.000000  1.000000  0.000000  0.000000 ICntrl=     500 IOpCl=  0
         NMat0=    1 NMatS0=    1 NMatT0=    0 NMatD0=    1 NMtDS0=    0 NMtDT0=    0
         I1Cent=           4 NGrid=           0.
 Petite list used in FoFCou.
 Initial guess orbital symmetries:
       Occupied  (SG) (SG) (SG) (PI) (PI) (SG) (SG) (PI) (PI) (SG)
                 (PI) (PI) (DLTA) (DLTA) (SG) (SG)
       Virtual   (PI) (PI) (SG) (SG) (SG) (SG) (SG) (PI) (PI) (SG)
                 (PI) (PI) (SG) (DLTA) (DLTA) (SG) (PI) (PI) (SG)
                 (SG) (SG) (DLTA) (DLTA) (PI) (PI) (PI) (PI) (SG)
                 (PI) (PI) (PHI) (PHI) (DLTA) (DLTA) (SG) (PI)
                 (PI) (DLTA) (DLTA) (SG) (PI) (PI) (SG) (SG) (PHI)
                 (PHI) (DLTA) (DLTA) (PI) (PI) (SG) (SG) (DLTA)
                 (DLTA) (PI) (PI) (PHI) (PHI) (DLTA) (DLTA) (PI)
                 (PI) (SG) (PHI) (PHI) (?A) (?A) (DLTA) (DLTA)
                 (SG) (PI) (PI) (SG) (PI) (PI) (SG) (PI) (PI) (SG)
                 (DLTA) (DLTA) (PI) (PI) (SG) (DLTA) (DLTA) (?B)
                 (?B) (?A) (?A) (?B) (?B) (PI) (PI) (SG) (PHI)
                 (PHI) (DLTA) (DLTA) (PI) (PI) (SG) (PHI) (PHI)
                 (?A) (?A) (DLTA) (DLTA) (PI) (PI) (SG) (SG)
 The electronic state of the initial guess is 2-SG.
 Requested convergence on RMS density matrix=1.00D-10 within 128 cycles.
 Requested convergence on MAX density matrix=1.00D-08.
 Requested convergence on             energy=1.00D-08.
 No special actions if energy rises.
 Keep R1 and R2 ints in memory in canonical form, NReq=218095161.
 EnCoef did   100 forward-backward iterations
 EnCoef did     3 forward-backward iterations
 SCF Done:  E(ROHF) =  -1778.37638918     A.U. after   18 cycles
             Convg  =    0.4756D-10             -V/T =  2.0000
 <Sx>= 0.0000 <Sy>= 0.0000 <Sz>= 0.5000 <S**2>= 0.7500 S= 0.5000
 <L.S>= 0.000000000000E+00
 Annihilation of the first spin contaminant:
 S**2 before annihilation     0.7500,   after     0.7500
 GenMOA:  NOpAll=  4 NOp2=4 NOpUse=  4 JSym2X=1
 <Sx>= 0.0000 <Sy>= 0.0000 <Sz>= 0.5000 <S**2>= 0.7500 S= 0.5000
 Range of M.O.s used for correlation:    10   128
 NBasis=   128 NAE=    16 NBE=    15 NFC=     9 NFV=     0
 NROrb=    119 NOA=     7 NOB=     6 NVA=   112 NVB=   113

 **** Warning!!: The largest alpha MO coefficient is  0.18685787D+02


 **** Warning!!: The largest beta MO coefficient is  0.18683019D+02

 Singles contribution to E2=   -0.9180591050D-03
 Semi-Direct transformation.
 ModeAB=           2 MOrb=             7 LenV=     804501095
 LASXX=      1426549 LTotXX=     1426549 LenRXX=     1426549
 LTotAB=     1474680 MaxLAS=    11825268 LenRXY=    11825268
 NonZer=    12422529 LenScr=    19404800 LnRSAI=           0
 LnScr1=           0 LExtra=      990125 Total=     33646742
 MaxDsk= 17179869184 SrtSym=           F ITran=            4
 GetIJB would need an additional    50143545 words of memory to use all   8 processors.
 JobTyp=1 Pass  1:  I=   1 to   7.
 (rs|ai) integrals will be sorted in core.
 ModeAB=           2 MOrb=             6 LenV=     804501095
 LASXX=      1225776 LTotXX=     1225776 LenRXX=    10135944
 LTotAB=     1120170 MaxLAS=    10135944 LenRXY=     1120170
 NonZer=    10647882 LenScr=    16727040 LnRSAI=           0
 LnScr1=           0 LExtra=    14241942 Total=     42225096
 MaxDsk= 17179869184 SrtSym=           F ITran=            4
 GetIJB would need an additional    48958137 words of memory to use all   8 processors.
 JobTyp=2 Pass  1:  I=   1 to   6.
 (rs|ai) integrals will be sorted in core.
 Spin components of T(2) and E(2):
     alpha-alpha T2 =       0.1347117078D-01 E2=     -0.1005061314D+00
     alpha-beta  T2 =       0.5577804294D-01 E2=     -0.3611154646D+00
     beta-beta   T2 =       0.1121403043D-01 E2=     -0.9250859383D-01
 ANorm=    0.1039931711D+01
 E2 =    -0.5550482489D+00 EUMP2 =    -0.17789314374251D+04
 (S**2,0)=  0.75000D+00           (S**2,1)=  0.75000D+00
 E(PUHF)=      -0.17783763892D+04        E(PMP2)=      -0.17789314374D+04
 R2 and R3 integrals will be kept in memory, NReq=   217989694.
 Symmetry not used in FoFDir.
 MinBra= 0 MaxBra= 5 Meth= 1.
 IRaf=       0 NMat=   1 IRICut=       1 DoRegI=T DoRafI=F ISym2E= 0 JSym2E=0.
 PrsmSu:  NPrtUS=   8 ThrOK=T IAlg=1
 PRISM was handed    75398823 working-precision words and   666 shell-pairs
 PRISM was handed    75398823 working-precision words and   666 shell-pairs
 PRISM was handed    75398823 working-precision words and   666 shell-pairs
 PRISM was handed    75398823 working-precision words and   666 shell-pairs
 PRISM was handed    75398823 working-precision words and   666 shell-pairs
 PRISM was handed    75398823 working-precision words and   666 shell-pairs
 PRISM was handed    75398823 working-precision words and   666 shell-pairs
 PRISM was handed    75398823 working-precision words and   666 shell-pairs
 IPart=  5 NShTot=       26240 NBatch=        3749 AvBLen=         7.0
 IPart=  7 NShTot=       25245 NBatch=        3331 AvBLen=         7.6
 IPart=  6 NShTot=       25518 NBatch=        3331 AvBLen=         7.7
 IPart=  4 NShTot=       27084 NBatch=        4264 AvBLen=         6.4
 IPart=  2 NShTot=       28504 NBatch=        4945 AvBLen=         5.8
 IPart=  3 NShTot=       28220 NBatch=        4823 AvBLen=         5.9
 IPart=  1 NShTot=       29488 NBatch=        5504 AvBLen=         5.4
 IPart=  0 NShTot=       31792 NBatch=        7170 AvBLen=         4.4
 Iterations=  50 Convergence= 0.100D-06
 A(0)= 0.10000E+01      ANORM= 0.10395E+01      W(0)=-0.55413019E+00
 Singles contributions to ROMP2 energy
Alpha= -0.4632922660160E-03
Beta=  -0.4547668389579E-03
 Iteration Nr.   1
 **********************
 DD1Dir will call FoFMem   1 times, MxPair=       120
 NAB=    42 NAA=    21 NBB=    15.
 DD1Dir:  Pass   1 NRAB=    42 NRAA=    21 NRBB=    15 NR=   120.
 DD1Dir will call FoFMem   1 times, MxPair=       120
 NAB=    42 NAA=    21 NBB=    15.
 DD1Dir:  Pass   1 NRAB=    42 NRAA=    21 NRBB=    15 NR=   120.
 TestDE:  II= 99 I=2 DE=    0.565294775455D-01
 TestDE:  II= 99 I=1 DE=    0.118321705472D-01
 TestDE:  II= 99 I=3 DE=    0.102799069936D-01
 TestDE:  II= 19 I=1 DE=    0.650649984050D-05
 TestDE:  II= 19 I=2 DE=    0.102521840472D-04
 TestDE:  II= 19 I=3 DE=   -0.683690383422D-05
 Contribution from DD1=    0.99217801D-05
 ExpSMa:  Full in-core algorithm.
 ExpSMa:  Full in-core algorithm.
 ExpSMa:  Full in-core algorithm.
 ExpSMa:  Full in-core algorithm.
 ExpSMa:  Full in-core algorithm.
 ExpSMa:  Full in-core algorithm.
 ExpSMa:  Full in-core algorithm.
 ExpSMa:  Full in-core algorithm.
 TestDE:  II= 70 I=2 DE=    0.217278753991D-04
 TestDE:  II= 50 I=1 DE=   -0.580676345847D-05
 TestDE:  II= 90 I=3 DE=    0.261411561111D-05
 Contribution from DD2=    0.86134475D-05
 TestDE:  II=  5 I=1 DE=   -0.670520428479D-02
 TestDE:  II=  5 I=1 DE=    0.385271514997D-04
 TestDE:  II=  7 I=2 DE=    0.217278753991D-04
 TestDE:  II=  7 I=2 DE=    0.114403464811D-04
 TestDE:  II=  8 I=2 DE=   -0.825754642493D-01
 TestDE:  II=  8 I=2 DE=   -0.667362580610D-05
 TestDE:  II=  9 I=3 DE=   -0.533068091979D-02
 TestDE:  II=  9 I=3 DE=   -0.383506816799D-04
 Contribution from DD3=   -0.16784685D-04
 Singles added:  Sum=    0.18366983D-05
 Entering DoROCS
 GetDE: DE=      0.00000000D+00
 MP3 Singles =       -0.27052167201D-03 Doubles=        0.63752367578D-01
 Linear MP4 energy terms:
 Singles =       -0.74909708001D-02
 Doubles =       -0.21056873551D-01
 Mixed  =        0.27808439319D-04
 Total MP4L =       -0.28520035912D-01
 TestDE:  II= 99 I=2 DE=   -0.903403876563D-03
 TestDE:  II= 99 I=1 DE=   -0.673594982420D-04
 TestDE:  II= 99 I=3 DE=   -0.132406623808D-03
 TestDE:  II= 99 I=1 DE=    0.834462305150D-03
 TestDE:  II= 11 I=2 DE=   -0.903403876563D-03
 TestDE:  II= 99 I=2 DE=    0.655261144866D-03
 TestDE:  II= 98 I=2 DE=    0.217966073954D-02
 TestDE:  II= 98 I=3 DE=    0.669543681709D-03
 TestDE:  II= 89 I=1 DE=    0.321121913129D-02
 TestDE:  II= 89 I=2 DE=    0.646265229082D-02
 TestDE:  II= 88 I=3 DE=    0.285549258379D-02
 TestDE:  II= 88 I=2 DE=    0.111213783588D-01
 TestDE:  II= 85 I=1 DE=   -0.355452861084D-03
 TestDE:  II= 85 I=2 DE=    0.130914976506D-02
 TestDE:  II= 85 I=3 DE=   -0.436710919159D-03
 UMP4Q scratch file information:
   i      file        len
 ---     ------    ------
   1      19997    160261
   2      19998    160261
   3      19996    160261
   4      19995    160261
   5      19994    160261
   6      19993     12769
 total scratch length=      814074
 UMP4(Q)= -0.629648599D-01
 MP4(R+Q)= -0.62964860D-01
 TestDE:  II= 71 I=2 DE=    0.119348280579D-04
 TestDE:  II= 70 I=2 DE=   -0.269329602327D-05
 TestDE:  II= 72 I=2 DE=    0.105021177200D-04
 TestDE:  II= 75 I=2 DE=    0.129206347067D-02
 TestDE:  II= 75 I=1 DE=   -0.353131424654D-03
 TestDE:  II= 75 I=3 DE=   -0.434608698608D-03
 MP4 NL singles =        0.60916518570D-04
 MP4 NL doubles =        0.50432334741D-03
 MP4 L =       -0.28520035912D-01
 MP4 NL =        0.56523986598D-03
 MP4 Mixed =       -0.60867441839D-04
 RO-SDQ-MP4 Energy =       -0.28015663487D-01
 GetDE: DE=      0.00000000D+00
 TestDE:  II= 65 I=1 DE=    0.135269225175D-01
 TestDE:  II= 65 I=2 DE=    0.551012320024D-01
 TestDE:  II= 65 I=3 DE=    0.113117260833D-01
 Singles A-vector converged to   1.6272611D-03
 Singles A-vector converged to   3.2967828D-03
 The Euclidean norm of the A-vectors is   1.5876760D-02
 The Euclidean norm of the A-vectors is   2.5820731D-02
 The Euclidean norm of the A-vectors is   6.6215440D-02
 A(0)= 0.10000E+01      ANORM= 0.10394E+01      W(0)=-0.55362638E+00
 E3=        0.63481846D-01        EROMP3=      -0.17788679556D+04
 E4(SDQ)=  -0.28015663D-01        ROMP4(SDQ)=  -0.17788959712D+04
 DE(Corr)= -0.55451368     E(Corr)=     -1778.9309029    
 NORM(A)=   0.10393977D+01
 Iteration Nr.   2
 **********************
 DD1Dir will call FoFMem   1 times, MxPair=       120
 NAB=    42 NAA=    21 NBB=    15.
 DD1Dir:  Pass   1 NRAB=    42 NRAA=    21 NRBB=    15 NR=   120.
 TestDE:  II= 99 I=2 DE=    0.555475118762D-01
 TestDE:  II= 99 I=1 DE=    0.119085658170D-01
 TestDE:  II= 99 I=3 DE=    0.103998281174D-01
 TestDE:  II= 19 I=1 DE=    0.115933134466D-01
 TestDE:  II= 19 I=2 DE=    0.556057450251D-01
 TestDE:  II= 19 I=3 DE=    0.106805802843D-01
 Contribution from DD1=    0.77879639D-01
 ExpSMa:  Full in-core algorithm.
 ExpSMa:  Full in-core algorithm.
 ExpSMa:  Full in-core algorithm.
 ExpSMa:  Full in-core algorithm.
 ExpSMa:  Full in-core algorithm.
 ExpSMa:  Full in-core algorithm.
 ExpSMa:  Full in-core algorithm.
 ExpSMa:  Full in-core algorithm.
 TestDE:  II=419 I=1 DE=    0.229771166096D-01
 TestDE:  II=419 I=2 DE=    0.101215406885D+00
 TestDE:  II=419 I=3 DE=    0.213717543450D-01
 Contribution from DD2=    0.67684639D-01
 Contribution from DD3=    0.00000000D+00
 Singles added:  Sum=    0.14537493D+00
 Entering DoROCS
 TestDE:  II= 99 I=2 DE=    0.101215406885D+00
 TestDE:  II= 99 I=1 DE=    0.229771166096D-01
 TestDE:  II= 99 I=3 DE=    0.213717543450D-01
 TestDE:  II= 99 I=1 DE=    0.239104230515D-01
 TestDE:  II= 11 I=2 DE=    0.101215406885D+00
 TestDE:  II= 99 I=2 DE=    0.102789343352D+00
 TestDE:  II= 98 I=2 DE=    0.104331679883D+00
 TestDE:  II= 98 I=3 DE=    0.222092249624D-01
 TestDE:  II= 89 I=1 DE=    0.263199713552D-01
 TestDE:  II= 89 I=2 DE=    0.108564813858D+00
 TestDE:  II= 88 I=3 DE=    0.244380252814D-01
 TestDE:  II= 88 I=2 DE=    0.113149710450D+00
 TestDE:  II=  5 I=1 DE=   -0.101805185509D-01
 TestDE:  II=  7 I=2 DE=    0.116482110238D+00
 TestDE:  II=  8 I=2 DE=   -0.819244848997D-01
 TestDE:  II=  9 I=3 DE=   -0.870248232472D-02
 TestDE:  II= 50 I=1 DE=    0.161394528042D-01
 TestDE:  II= 70 I=2 DE=    0.345576253380D-01
 TestDE:  II= 90 I=3 DE=    0.157355429567D-01
 UMP4Q scratch file information:
   i      file        len
 ---     ------    ------
   1      19997    160261
   2      19998    160261
   3      19996    160261
   4      19995    160261
   5      19994    160261
   6      19993     12769
 total scratch length=      814074
 TestDE:  II= 71 I=2 DE=    0.101609066455D-04
 TestDE:  II= 70 I=2 DE=   -0.226666053924D-05
 TestDE:  II= 72 I=2 DE=    0.896270110310D-05
 TestDE:  II= 75 I=2 DE=    0.345430468991D-01
 TestDE:  II= 75 I=1 DE=    0.161415203404D-01
 TestDE:  II= 75 I=3 DE=    0.157374301637D-01
 GetDE: DE=      0.00000000D+00
 TestDE:  II= 65 I=1 DE=    0.109579737936D-01
 TestDE:  II= 65 I=2 DE=    0.516052722979D-01
 TestDE:  II= 65 I=3 DE=    0.874521762926D-02
 Singles A-vector converged to   5.3801623D-02
 Singles A-vector converged to   1.0993806D-01
 The Euclidean norm of the A-vectors is   2.3072065D-01
 The Euclidean norm of the A-vectors is   3.3767374D-01
 The Euclidean norm of the A-vectors is   6.6639149D-01
 A(0)= 0.10000E+01      ANORM= 0.10386E+01      W(0)=-0.54563244E+00
 DE(Corr)= -0.48962409     E(CORR)=     -1778.8660133     Delta= 6.49D-02
 NORM(A)=   0.10385501D+01
 Iteration Nr.   3
 **********************
 DD1Dir will call FoFMem   1 times, MxPair=       120
 NAB=    42 NAA=    21 NBB=    15.
 DD1Dir:  Pass   1 NRAB=    42 NRAA=    21 NRBB=    15 NR=   120.
 TestDE:  II= 99 I=2 DE=    0.549039196728D-01
 TestDE:  II= 99 I=1 DE=    0.114774797210D-01
 TestDE:  II= 99 I=3 DE=    0.998993529483D-02
 TestDE:  II= 19 I=1 DE=    0.109258922789D-01
 TestDE:  II= 19 I=2 DE=    0.542654260410D-01
 TestDE:  II= 19 I=3 DE=    0.100314987094D-01
 Contribution from DD1=    0.75222817D-01
 ExpSMa:  Full in-core algorithm.
 ExpSMa:  Full in-core algorithm.
 ExpSMa:  Full in-core algorithm.
 ExpSMa:  Full in-core algorithm.
 ExpSMa:  Full in-core algorithm.
 ExpSMa:  Full in-core algorithm.
 ExpSMa:  Full in-core algorithm.
 ExpSMa:  Full in-core algorithm.
 TestDE:  II=419 I=1 DE=    0.216807913966D-01
 TestDE:  II=419 I=2 DE=    0.985908262151D-01
 TestDE:  II=419 I=3 DE=    0.200812224208D-01
 Contribution from DD2=    0.65130023D-01
 Contribution from DD3=    0.00000000D+00
 Singles added:  Sum=    0.13921923D+00
 Entering DoROCS
 TestDE:  II= 99 I=2 DE=    0.985908262151D-01
 TestDE:  II= 99 I=1 DE=    0.216807913966D-01
 TestDE:  II= 99 I=3 DE=    0.200812224208D-01
 TestDE:  II= 99 I=1 DE=    0.224955869192D-01
 TestDE:  II= 11 I=2 DE=    0.985908262151D-01
 TestDE:  II= 99 I=2 DE=    0.100003351634D+00
 TestDE:  II= 98 I=2 DE=    0.101388756963D+00
 TestDE:  II= 98 I=3 DE=    0.208057656867D-01
 TestDE:  II= 89 I=1 DE=    0.247945389507D-01
 TestDE:  II= 89 I=2 DE=    0.105534668156D+00
 TestDE:  II= 88 I=3 DE=    0.229175633280D-01
 TestDE:  II= 88 I=2 DE=    0.110037556762D+00
 TestDE:  II=  5 I=1 DE=   -0.969844730761D-02
 TestDE:  II=  7 I=2 DE=    0.111568267101D+00
 TestDE:  II=  8 I=2 DE=   -0.802360818243D-01
 TestDE:  II=  9 I=3 DE=   -0.817907201393D-02
 TestDE:  II= 50 I=1 DE=    0.150960916430D-01
 TestDE:  II= 70 I=2 DE=    0.313321852771D-01
 TestDE:  II= 90 I=3 DE=    0.147384913141D-01
 UMP4Q scratch file information:
   i      file        len
 ---     ------    ------
   1      19997    160261
   2      19998    160261
   3      19996    160261
   4      19995    160261
   5      19994    160261
   6      19993     12769
 total scratch length=      814074
 TestDE:  II= 71 I=2 DE=    0.112467011813D-04
 TestDE:  II= 70 I=2 DE=   -0.297009154439D-05
 TestDE:  II= 72 I=2 DE=    0.958011861774D-05
 TestDE:  II= 75 I=2 DE=    0.313176986850D-01
 TestDE:  II= 75 I=1 DE=    0.151008830949D-01
 TestDE:  II= 75 I=3 DE=    0.147383950740D-01
 GetDE: DE=      0.00000000D+00
 TestDE:  II= 65 I=1 DE=    0.108568158005D-01
 TestDE:  II= 65 I=2 DE=    0.522054446322D-01
 TestDE:  II= 65 I=3 DE=    0.862716255022D-02
 Singles A-vector converged to   4.6918504D-02
 Singles A-vector converged to   9.6466920D-02
 The Euclidean norm of the A-vectors is   1.9791772D-01
 The Euclidean norm of the A-vectors is   2.8760935D-01
 The Euclidean norm of the A-vectors is   5.6972575D-01
 A(0)= 0.10000E+01      ANORM= 0.10400E+01      W(0)=-0.52483015E+00
 DE(Corr)= -0.49258072     E(CORR)=     -1778.8689699     Delta=-2.96D-03
 NORM(A)=   0.10399981D+01
 Iteration Nr.   4
 **********************
 DD1Dir will call FoFMem   1 times, MxPair=       120
 NAB=    42 NAA=    21 NBB=    15.
 DD1Dir:  Pass   1 NRAB=    42 NRAA=    21 NRBB=    15 NR=   120.
 TestDE:  II= 99 I=2 DE=    0.546299273710D-01
 TestDE:  II= 99 I=1 DE=    0.100749424057D-01
 TestDE:  II= 99 I=3 DE=    0.861790909154D-02
 TestDE:  II= 19 I=1 DE=    0.908370953785D-02
 TestDE:  II= 19 I=2 DE=    0.525626231755D-01
 TestDE:  II= 19 I=3 DE=    0.820922063782D-02
 Contribution from DD1=    0.69855553D-01
 ExpSMa:  Full in-core algorithm.
 ExpSMa:  Full in-core algorithm.
 ExpSMa:  Full in-core algorithm.
 ExpSMa:  Full in-core algorithm.
 ExpSMa:  Full in-core algorithm.
 ExpSMa:  Full in-core algorithm.
 ExpSMa:  Full in-core algorithm.
 ExpSMa:  Full in-core algorithm.
 TestDE:  II=419 I=1 DE=    0.182811868019D-01
 TestDE:  II=419 I=2 DE=    0.957775558766D-01
 TestDE:  II=419 I=3 DE=    0.166090034145D-01
 Contribution from DD2=    0.60812193D-01
 Contribution from DD3=    0.00000000D+00
 Singles added:  Sum=    0.12571534D+00
 Entering DoROCS
 TestDE:  II= 99 I=2 DE=    0.957775558766D-01
 TestDE:  II= 99 I=1 DE=    0.182811868019D-01
 TestDE:  II= 99 I=3 DE=    0.166090034145D-01
 TestDE:  II= 99 I=1 DE=    0.189045426119D-01
 TestDE:  II= 11 I=2 DE=    0.957775558766D-01
 TestDE:  II= 99 I=2 DE=    0.970197121952D-01
 TestDE:  II= 98 I=2 DE=    0.982697079700D-01
 TestDE:  II= 98 I=3 DE=    0.171426272074D-01
 TestDE:  II= 89 I=1 DE=    0.208348945269D-01
 TestDE:  II= 89 I=2 DE=    0.102271995660D+00
 TestDE:  II= 88 I=3 DE=    0.188635888617D-01
 TestDE:  II= 88 I=2 DE=    0.106675419682D+00
 TestDE:  II=  5 I=1 DE=   -0.858337728915D-02
 TestDE:  II=  7 I=2 DE=    0.100411618591D+00
 TestDE:  II=  8 I=2 DE=   -0.800150754352D-01
 TestDE:  II=  9 I=3 DE=   -0.685067129503D-02
 TestDE:  II= 50 I=1 DE=    0.122515172378D-01
 TestDE:  II= 70 I=2 DE=    0.203965431560D-01
 TestDE:  II= 90 I=3 DE=    0.120129175667D-01
 UMP4Q scratch file information:
   i      file        len
 ---     ------    ------
   1      19997    160261
   2      19998    160261
   3      19996    160261
   4      19995    160261
   5      19994    160261
   6      19993     12769
 total scratch length=      814074
 TestDE:  II= 71 I=2 DE=    0.239884798672D-04
 TestDE:  II= 70 I=2 DE=   -0.172188796368D-04
 TestDE:  II= 72 I=2 DE=    0.233722429227D-04
 TestDE:  II= 75 I=2 DE=    0.203773918999D-01
 TestDE:  II= 75 I=1 DE=    0.122583885369D-01
 TestDE:  II= 75 I=3 DE=    0.120082842283D-01
 GetDE: DE=      0.00000000D+00
 TestDE:  II= 65 I=1 DE=    0.106150547410D-01
 TestDE:  II= 65 I=2 DE=    0.570611745517D-01
 TestDE:  II= 65 I=3 DE=    0.827979347442D-02
 Singles A-vector converged to   2.6347651D-02
 Singles A-vector converged to   5.7256787D-02
 The Euclidean norm of the A-vectors is   1.0474516D-01
 The Euclidean norm of the A-vectors is   1.4712783D-01
 The Euclidean norm of the A-vectors is   2.8879286D-01
 A(0)= 0.10000E+01      ANORM= 0.13479E+01      W(0)=-0.29838970E+00
 DE(Corr)= -0.50225843     E(CORR)=     -1778.8786476     Delta=-9.68D-03
 NORM(A)=   0.13479448D+01
 Iteration Nr.   5
 **********************
 DD1Dir will call FoFMem   1 times, MxPair=       120
 NAB=    42 NAA=    21 NBB=    15.
 DD1Dir:  Pass   1 NRAB=    42 NRAA=    21 NRBB=    15 NR=   120.
 TestDE:  II= 99 I=2 DE=    0.121006530628D+00
 TestDE:  II= 99 I=1 DE=    0.277674058495D-02
 TestDE:  II= 99 I=3 DE=    0.256913685058D-02
 TestDE:  II= 19 I=1 DE=    0.745600067458D-02
 TestDE:  II= 19 I=2 DE=    0.112766402718D+00
 TestDE:  II= 19 I=3 DE=    0.648474566587D-02
 Contribution from DD1=    0.12670715D+00
 ExpSMa:  Full in-core algorithm.
 ExpSMa:  Full in-core algorithm.
 ExpSMa:  Full in-core algorithm.
 ExpSMa:  Full in-core algorithm.
 ExpSMa:  Full in-core algorithm.
 ExpSMa:  Full in-core algorithm.
 ExpSMa:  Full in-core algorithm.
 ExpSMa:  Full in-core algorithm.
 TestDE:  II=419 I=1 DE=    0.156492333971D-01
 TestDE:  II=419 I=2 DE=    0.236004692679D+00
 TestDE:  II=419 I=3 DE=    0.145831631314D-01
 Contribution from DD2=    0.13952994D+00
 Contribution from DD3=    0.00000000D+00
 Singles added:  Sum=    0.83965014D-01
 Entering DoROCS
 TestDE:  II= 99 I=2 DE=    0.236004692679D+00
 TestDE:  II= 99 I=1 DE=    0.156492333971D-01
 TestDE:  II= 99 I=3 DE=    0.145831631314D-01
 TestDE:  II= 99 I=1 DE=    0.157192372919D-01
 TestDE:  II= 11 I=2 DE=    0.236004692679D+00
 TestDE:  II= 99 I=2 DE=    0.240978103823D+00
 TestDE:  II= 98 I=2 DE=    0.251017981431D+00
 TestDE:  II= 98 I=3 DE=    0.145838741476D-01
 TestDE:  II= 89 I=1 DE=    0.174979016598D-01
 TestDE:  II= 89 I=2 DE=    0.273495963902D+00
 TestDE:  II= 88 I=3 DE=    0.159855832218D-01
 TestDE:  II= 88 I=2 DE=    0.297574322537D+00
 TestDE:  II=  5 I=1 DE=   -0.145185006844D-01
 TestDE:  II=  7 I=2 DE=    0.113279724432D+00
 TestDE:  II=  8 I=2 DE=   -0.266993065974D+00
 TestDE:  II=  9 I=3 DE=   -0.116859047485D-01
 TestDE:  II= 50 I=1 DE=    0.297940097544D-02
 TestDE:  II= 70 I=2 DE=   -0.153713341542D+00
 TestDE:  II= 90 I=3 DE=    0.429967847332D-02
 UMP4Q scratch file information:
   i      file        len
 ---     ------    ------
   1      19997    160261
   2      19998    160261
   3      19996    160261
   4      19995    160261
   5      19994    160261
   6      19993     12769
 total scratch length=      814074
 TestDE:  II= 71 I=2 DE=    0.799863815878D-02
 TestDE:  II= 70 I=2 DE=   -0.571535157557D-02
 TestDE:  II= 72 I=2 DE=    0.102762146654D-01
 TestDE:  II= 75 I=2 DE=   -0.165498084023D+00
 TestDE:  II= 75 I=1 DE=    0.697099006718D-03
 TestDE:  II= 75 I=3 DE=    0.937165620895D-03
 GetDE: DE=      0.00000000D+00
 TestDE:  II= 65 I=1 DE=    0.328914121132D-02
 TestDE:  II= 65 I=2 DE=    0.183813996337D+00
 TestDE:  II= 65 I=3 DE=    0.765608947049D-04
 Singles A-vector converged to   2.8492960D-01
 Singles A-vector converged to   5.7893630D-01
 The Euclidean norm of the A-vectors is   1.2568425D+00
 The Euclidean norm of the A-vectors is   1.8623193D+00
 The Euclidean norm of the A-vectors is   3.7056299D+00
 A(0)= 0.10000E+01      ANORM= 0.10526E+01      W(0)=-0.50701724E+00
 DE(Corr)= -0.64380958     E(CORR)=     -1779.0201988     Delta=-1.42D-01
 NORM(A)=   0.10526141D+01
 Iteration Nr.   6
 **********************
 DD1Dir will call FoFMem   1 times, MxPair=       120
 NAB=    42 NAA=    21 NBB=    15.
 DD1Dir:  Pass   1 NRAB=    42 NRAA=    21 NRBB=    15 NR=   120.
 TestDE:  II= 99 I=2 DE=    0.571196289003D-01
 TestDE:  II= 99 I=1 DE=    0.879668662206D-02
 TestDE:  II= 99 I=3 DE=    0.735286291953D-02
 TestDE:  II= 19 I=1 DE=    0.714560516366D-02
 TestDE:  II= 19 I=2 DE=    0.522976630414D-01
 TestDE:  II= 19 I=3 DE=    0.621312897337D-02
 Contribution from DD1=    0.65656397D-01
 ExpSMa:  Full in-core algorithm.
 ExpSMa:  Full in-core algorithm.
 ExpSMa:  Full in-core algorithm.
 ExpSMa:  Full in-core algorithm.
 ExpSMa:  Full in-core algorithm.
 ExpSMa:  Full in-core algorithm.
 ExpSMa:  Full in-core algorithm.
 ExpSMa:  Full in-core algorithm.
 TestDE:  II=419 I=1 DE=    0.150199182889D-01
 TestDE:  II=419 I=2 DE=    0.976870122026D-01
 TestDE:  II=419 I=3 DE=    0.132700870216D-01
 Contribution from DD2=    0.60320620D-01
 Contribution from DD3=    0.00000000D+00
 Singles added:  Sum=    0.11005118D+00
 Entering DoROCS
 TestDE:  II= 99 I=2 DE=    0.976870122026D-01
 TestDE:  II= 99 I=1 DE=    0.150199182889D-01
 TestDE:  II= 99 I=3 DE=    0.132700870216D-01
 TestDE:  II= 99 I=1 DE=    0.154893403462D-01
 TestDE:  II= 11 I=2 DE=    0.976870122026D-01
 TestDE:  II= 99 I=2 DE=    0.989032264773D-01
 TestDE:  II= 98 I=2 DE=    0.100235111586D+00
 TestDE:  II= 98 I=3 DE=    0.136526208158D-01
 TestDE:  II= 89 I=1 DE=    0.171573580632D-01
 TestDE:  II= 89 I=2 DE=    0.104645990529D+00
 TestDE:  II= 88 I=3 DE=    0.151029689363D-01
 TestDE:  II= 88 I=2 DE=    0.109561121188D+00
 TestDE:  II=  5 I=1 DE=   -0.768121225704D-02
 TestDE:  II=  7 I=2 DE=    0.915863365794D-01
 TestDE:  II=  8 I=2 DE=   -0.869411828632D-01
 TestDE:  II=  9 I=3 DE=   -0.589056301950D-02
 TestDE:  II= 50 I=1 DE=    0.947614580619D-02
 TestDE:  II= 70 I=2 DE=    0.464515371617D-02
 TestDE:  II= 90 I=3 DE=    0.921240591681D-02
 UMP4Q scratch file information:
   i      file        len
 ---     ------    ------
   1      19997    160261
   2      19998    160261
   3      19996    160261
   4      19995    160261
   5      19994    160261
   6      19993     12769
 total scratch length=      814074
 TestDE:  II= 71 I=2 DE=    0.120914100537D-03
 TestDE:  II= 70 I=2 DE=   -0.110526340923D-03
 TestDE:  II= 72 I=2 DE=    0.147807703232D-03
 TestDE:  II= 75 I=2 DE=    0.452831153477D-02
 TestDE:  II= 75 I=1 DE=    0.948194313502D-02
 TestDE:  II= 75 I=3 DE=    0.918389176098D-02
 GetDE: DE=      0.00000000D+00
 TestDE:  II= 65 I=1 DE=    0.103864180869D-01
 TestDE:  II= 65 I=2 DE=    0.675906624346D-01
 TestDE:  II= 65 I=3 DE=    0.806617848423D-02
 Singles A-vector converged to   5.7720455D-03
 Singles A-vector converged to   1.1624793D-02
 The Euclidean norm of the A-vectors is   2.4471103D-02
 The Euclidean norm of the A-vectors is   3.6790792D-02
 The Euclidean norm of the A-vectors is   7.5628301D-02
 A(0)= 0.10000E+01      ANORM= 0.10505E+01      W(0)=-0.51181821E+00
 DE(Corr)= -0.51452732     E(CORR)=     -1778.8909165     Delta= 1.29D-01
 NORM(A)=   0.10505052D+01
 Iteration Nr.   7
 **********************
 DD1Dir will call FoFMem   1 times, MxPair=       120
 NAB=    42 NAA=    21 NBB=    15.
 DD1Dir:  Pass   1 NRAB=    42 NRAA=    21 NRBB=    15 NR=   120.
 TestDE:  II= 99 I=2 DE=    0.566303421124D-01
 TestDE:  II= 99 I=1 DE=    0.911658358853D-02
 TestDE:  II= 99 I=3 DE=    0.765811514950D-02
 TestDE:  II= 19 I=1 DE=    0.758090308742D-02
 TestDE:  II= 19 I=2 DE=    0.522059185515D-01
 TestDE:  II= 19 I=3 DE=    0.661130885503D-02
 Contribution from DD1=    0.66398130D-01
 ExpSMa:  Full in-core algorithm.
 ExpSMa:  Full in-core algorithm.
 ExpSMa:  Full in-core algorithm.
 ExpSMa:  Full in-core algorithm.
 ExpSMa:  Full in-core algorithm.
 ExpSMa:  Full in-core algorithm.
 ExpSMa:  Full in-core algorithm.
 ExpSMa:  Full in-core algorithm.
 TestDE:  II=419 I=1 DE=    0.157265080045D-01
 TestDE:  II=419 I=2 DE=    0.970329148842D-01
 TestDE:  II=419 I=3 DE=    0.139583510132D-01
 Contribution from DD2=    0.60319643D-01
 Contribution from DD3=    0.00000000D+00
 Singles added:  Sum=    0.11252396D+00
 Entering DoROCS
 TestDE:  II= 99 I=2 DE=    0.970329148842D-01
 TestDE:  II= 99 I=1 DE=    0.157265080045D-01
 TestDE:  II= 99 I=3 DE=    0.139583510132D-01
 TestDE:  II= 99 I=1 DE=    0.162257147456D-01
 TestDE:  II= 11 I=2 DE=    0.970329148842D-01
 TestDE:  II= 99 I=2 DE=    0.982405423279D-01
 TestDE:  II= 98 I=2 DE=    0.995415888107D-01
 TestDE:  II= 98 I=3 DE=    0.143702479250D-01
 TestDE:  II= 89 I=1 DE=    0.179522281333D-01
 TestDE:  II= 89 I=2 DE=    0.103872347221D+00
 TestDE:  II= 88 I=3 DE=    0.158836688553D-01
 TestDE:  II= 88 I=2 DE=    0.108679891057D+00
 TestDE:  II=  5 I=1 DE=   -0.782237801236D-02
 TestDE:  II=  7 I=2 DE=    0.934733131780D-01
 TestDE:  II=  8 I=2 DE=   -0.854468764089D-01
 TestDE:  II=  9 I=3 DE=   -0.608347920131D-02
 TestDE:  II= 50 I=1 DE=    0.101298501210D-01
 TestDE:  II= 70 I=2 DE=    0.802643676907D-02
 TestDE:  II= 90 I=3 DE=    0.980018965400D-02
 UMP4Q scratch file information:
   i      file        len
 ---     ------    ------
   1      19997    160261
   2      19998    160261
   3      19996    160261
   4      19995    160261
   5      19994    160261
   6      19993     12769
 total scratch length=      814074
 TestDE:  II= 71 I=2 DE=    0.112483040175D-03
 TestDE:  II= 70 I=2 DE=   -0.970426670530D-04
 TestDE:  II= 72 I=2 DE=    0.134610329095D-03
 TestDE:  II= 75 I=2 DE=    0.791179631662D-02
 TestDE:  II= 75 I=1 DE=    0.101369861233D-01
 TestDE:  II= 75 I=3 DE=    0.977635232331D-02
 GetDE: DE=      0.00000000D+00
 TestDE:  II= 65 I=1 DE=    0.104288092583D-01
 TestDE:  II= 65 I=2 DE=    0.656831174555D-01
 TestDE:  II= 65 I=3 DE=    0.815074670485D-02
 Singles A-vector converged to   1.7682579D-03
 Singles A-vector converged to   6.7341099D-03
 The Euclidean norm of the A-vectors is   1.3360593D-02
 The Euclidean norm of the A-vectors is   1.9201333D-02
 The Euclidean norm of the A-vectors is   3.8499981D-02
 A(0)= 0.10000E+01      ANORM= 0.10523E+01      W(0)=-0.51073360E+00
 DE(Corr)= -0.51197378     E(CORR)=     -1778.8883630     Delta= 2.55D-03
 NORM(A)=   0.10522615D+01
 Iteration Nr.   8
 **********************
 DD1Dir will call FoFMem   1 times, MxPair=       120
 NAB=    42 NAA=    21 NBB=    15.
 DD1Dir:  Pass   1 NRAB=    42 NRAA=    21 NRBB=    15 NR=   120.
 TestDE:  II= 99 I=2 DE=    0.567399833948D-01
 TestDE:  II= 99 I=1 DE=    0.906466714935D-02
 TestDE:  II= 99 I=3 DE=    0.759745981329D-02
 TestDE:  II= 19 I=1 DE=    0.753825904861D-02
 TestDE:  II= 19 I=2 DE=    0.521072435924D-01
 TestDE:  II= 19 I=3 DE=    0.649777731401D-02
 Contribution from DD1=    0.66143280D-01
 ExpSMa:  Full in-core algorithm.
 ExpSMa:  Full in-core algorithm.
 ExpSMa:  Full in-core algorithm.
 ExpSMa:  Full in-core algorithm.
 ExpSMa:  Full in-core algorithm.
 ExpSMa:  Full in-core algorithm.
 ExpSMa:  Full in-core algorithm.
 ExpSMa:  Full in-core algorithm.
 TestDE:  II=419 I=1 DE=    0.155639979840D-01
 TestDE:  II=419 I=2 DE=    0.969241228360D-01
 TestDE:  II=419 I=3 DE=    0.137584982366D-01
 Contribution from DD2=    0.60103339D-01
 Contribution from DD3=    0.00000000D+00
 Singles added:  Sum=    0.11078485D+00
 Entering DoROCS
 TestDE:  II= 99 I=2 DE=    0.969241228360D-01
 TestDE:  II= 99 I=1 DE=    0.155639979840D-01
 TestDE:  II= 99 I=3 DE=    0.137584982366D-01
 TestDE:  II= 99 I=1 DE=    0.160502922558D-01
 TestDE:  II= 11 I=2 DE=    0.969241228360D-01
 TestDE:  II= 99 I=2 DE=    0.981173598807D-01
 TestDE:  II= 98 I=2 DE=    0.994190740739D-01
 TestDE:  II= 98 I=3 DE=    0.141599459884D-01
 TestDE:  II= 89 I=1 DE=    0.177533188516D-01
 TestDE:  II= 89 I=2 DE=    0.103777056404D+00
 TestDE:  II= 88 I=3 DE=    0.156573142283D-01
 TestDE:  II= 88 I=2 DE=    0.108611970069D+00
 TestDE:  II=  5 I=1 DE=   -0.775635453549D-02
 TestDE:  II=  7 I=2 DE=    0.926786546545D-01
 TestDE:  II=  8 I=2 DE=   -0.857844876087D-01
 TestDE:  II=  9 I=3 DE=   -0.606506281019D-02
 TestDE:  II= 50 I=1 DE=    0.999696431613D-02
 TestDE:  II= 70 I=2 DE=    0.689416704583D-02
 TestDE:  II= 90 I=3 DE=    0.959225141807D-02
 UMP4Q scratch file information:
   i      file        len
 ---     ------    ------
   1      19997    160261
   2      19998    160261
   3      19996    160261
   4      19995    160261
   5      19994    160261
   6      19993     12769
 total scratch length=      814074
 TestDE:  II= 71 I=2 DE=    0.147480956399D-03
 TestDE:  II= 70 I=2 DE=   -0.119271831044D-03
 TestDE:  II= 72 I=2 DE=    0.176650168412D-03
 TestDE:  II= 75 I=2 DE=    0.672829373319D-02
 TestDE:  II= 75 I=1 DE=    0.100047530079D-01
 TestDE:  II= 75 I=3 DE=    0.956535410686D-02
 GetDE: DE=      0.00000000D+00
 TestDE:  II= 65 I=1 DE=    0.103755971428D-01
 TestDE:  II= 65 I=2 DE=    0.666199247317D-01
 TestDE:  II= 65 I=3 DE=    0.815050382004D-02
 Singles A-vector converged to   9.2840763D-04
 Singles A-vector converged to   2.1485842D-03
 The Euclidean norm of the A-vectors is   3.1550746D-03
 The Euclidean norm of the A-vectors is   4.3057510D-03
 The Euclidean norm of the A-vectors is   8.4038383D-03
 A(0)= 0.10000E+01      ANORM= 0.10525E+01      W(0)=-0.51082216E+00
 DE(Corr)= -0.51277469     E(CORR)=     -1778.8891639     Delta=-8.01D-04
 NORM(A)=   0.10525092D+01
 Iteration Nr.   9
 **********************
 DD1Dir will call FoFMem   1 times, MxPair=       120
 NAB=    42 NAA=    21 NBB=    15.
 DD1Dir:  Pass   1 NRAB=    42 NRAA=    21 NRBB=    15 NR=   120.
 TestDE:  II= 99 I=2 DE=    0.567338638589D-01
 TestDE:  II= 99 I=1 DE=    0.906167246044D-02
 TestDE:  II= 99 I=3 DE=    0.759024860617D-02
 TestDE:  II= 19 I=1 DE=    0.755848042288D-02
 TestDE:  II= 19 I=2 DE=    0.521301159399D-01
 TestDE:  II= 19 I=3 DE=    0.649936077267D-02
 Contribution from DD1=    0.66187957D-01
 ExpSMa:  Full in-core algorithm.
 ExpSMa:  Full in-core algorithm.
 ExpSMa:  Full in-core algorithm.
 ExpSMa:  Full in-core algorithm.
 ExpSMa:  Full in-core algorithm.
 ExpSMa:  Full in-core algorithm.
 ExpSMa:  Full in-core algorithm.
 ExpSMa:  Full in-core algorithm.
 TestDE:  II=419 I=1 DE=    0.155886322011D-01
 TestDE:  II=419 I=2 DE=    0.969856011084D-01
 TestDE:  II=419 I=3 DE=    0.137693737285D-01
 Contribution from DD2=    0.60155650D-01
 Contribution from DD3=    0.00000000D+00
 Singles added:  Sum=    0.11075032D+00
 Entering DoROCS
 TestDE:  II= 99 I=2 DE=    0.969856011084D-01
 TestDE:  II= 99 I=1 DE=    0.155886322011D-01
 TestDE:  II= 99 I=3 DE=    0.137693737285D-01
 TestDE:  II= 99 I=1 DE=    0.160785565332D-01
 TestDE:  II= 11 I=2 DE=    0.969856011084D-01
 TestDE:  II= 99 I=2 DE=    0.981846578031D-01
 TestDE:  II= 98 I=2 DE=    0.994930595771D-01
 TestDE:  II= 98 I=3 DE=    0.141742617765D-01
 TestDE:  II= 89 I=1 DE=    0.177779403183D-01
 TestDE:  II= 89 I=2 DE=    0.103849906952D+00
 TestDE:  II= 88 I=3 DE=    0.156697221020D-01
 TestDE:  II= 88 I=2 DE=    0.108681034102D+00
 TestDE:  II=  5 I=1 DE=   -0.775466162146D-02
 TestDE:  II=  7 I=2 DE=    0.927260555446D-01
 TestDE:  II=  8 I=2 DE=   -0.858570245957D-01
 TestDE:  II=  9 I=3 DE=   -0.607495703473D-02
 TestDE:  II= 50 I=1 DE=    0.100232786968D-01
 TestDE:  II= 70 I=2 DE=    0.686903094885D-02
 TestDE:  II= 90 I=3 DE=    0.959476506724D-02
 UMP4Q scratch file information:
   i      file        len
 ---     ------    ------
   1      19997    160261
   2      19998    160261
   3      19996    160261
   4      19995    160261
   5      19994    160261
   6      19993     12769
 total scratch length=      814074
 TestDE:  II= 71 I=2 DE=    0.154984631985D-03
 TestDE:  II= 70 I=2 DE=   -0.122635651220D-03
 TestDE:  II= 72 I=2 DE=    0.185328201278D-03
 TestDE:  II= 75 I=2 DE=    0.669038907976D-02
 TestDE:  II= 75 I=1 DE=    0.100309053604D-01
 TestDE:  II= 75 I=3 DE=    0.956765394114D-02
 GetDE: DE=      0.00000000D+00
 TestDE:  II= 65 I=1 DE=    0.103679065821D-01
 TestDE:  II= 65 I=2 DE=    0.667337432348D-01
 TestDE:  II= 65 I=3 DE=    0.815670083558D-02
 Singles A-vector converged to   4.7996498D-04
 Singles A-vector converged to   9.4801691D-04
 The Euclidean norm of the A-vectors is   1.2581559D-03
 The Euclidean norm of the A-vectors is   1.7638493D-03
 The Euclidean norm of the A-vectors is   3.3785662D-03
 A(0)= 0.10000E+01      ANORM= 0.10526E+01      W(0)=-0.51083614E+00
 DE(Corr)= -0.51273641     E(CORR)=     -1778.8891256     Delta= 3.83D-05
 NORM(A)=   0.10526214D+01
 Iteration Nr.  10
 **********************
 DD1Dir will call FoFMem   1 times, MxPair=       120
 NAB=    42 NAA=    21 NBB=    15.
 DD1Dir:  Pass   1 NRAB=    42 NRAA=    21 NRBB=    15 NR=   120.
 TestDE:  II= 99 I=2 DE=    0.567649767104D-01
 TestDE:  II= 99 I=1 DE=    0.906438142087D-02
 TestDE:  II= 99 I=3 DE=    0.759062851962D-02
 TestDE:  II= 19 I=1 DE=    0.756035857233D-02
 TestDE:  II= 19 I=2 DE=    0.521414548083D-01
 TestDE:  II= 19 I=3 DE=    0.649422014798D-02
 Contribution from DD1=    0.66196034D-01
 ExpSMa:  Full in-core algorithm.
 ExpSMa:  Full in-core algorithm.
 ExpSMa:  Full in-core algorithm.
 ExpSMa:  Full in-core algorithm.
 ExpSMa:  Full in-core algorithm.
 ExpSMa:  Full in-core algorithm.
 ExpSMa:  Full in-core algorithm.
 ExpSMa:  Full in-core algorithm.
 TestDE:  II=419 I=1 DE=    0.155846862235D-01
 TestDE:  II=419 I=2 DE=    0.970157785145D-01
 TestDE:  II=419 I=3 DE=    0.137641408211D-01
 Contribution from DD2=    0.60168572D-01
 Contribution from DD3=    0.00000000D+00
 Singles added:  Sum=    0.11070360D+00
 Entering DoROCS
 TestDE:  II= 99 I=2 DE=    0.970157785145D-01
 TestDE:  II= 99 I=1 DE=    0.155846862235D-01
 TestDE:  II= 99 I=3 DE=    0.137641408211D-01
 TestDE:  II= 99 I=1 DE=    0.160728870893D-01
 TestDE:  II= 11 I=2 DE=    0.970157785145D-01
 TestDE:  II= 99 I=2 DE=    0.982119032610D-01
 TestDE:  II= 98 I=2 DE=    0.995183444908D-01
 TestDE:  II= 98 I=3 DE=    0.141677890665D-01
 TestDE:  II= 89 I=1 DE=    0.177726769520D-01
 TestDE:  II= 89 I=2 DE=    0.103882282086D+00
 TestDE:  II= 88 I=3 DE=    0.156648070616D-01
 TestDE:  II= 88 I=2 DE=    0.108720594847D+00
 TestDE:  II=  5 I=1 DE=   -0.774893767462D-02
 TestDE:  II=  7 I=2 DE=    0.927216560721D-01
 TestDE:  II=  8 I=2 DE=   -0.859102541621D-01
 TestDE:  II=  9 I=3 DE=   -0.607653136351D-02
 TestDE:  II= 50 I=1 DE=    0.100237392774D-01
 TestDE:  II= 70 I=2 DE=    0.681140191005D-02
 TestDE:  II= 90 I=3 DE=    0.958827569811D-02
 UMP4Q scratch file information:
   i      file        len
 ---     ------    ------
   1      19997    160261
   2      19998    160261
   3      19996    160261
   4      19995    160261
   5      19994    160261
   6      19993     12769
 total scratch length=      814074
 TestDE:  II= 71 I=2 DE=    0.157786801815D-03
 TestDE:  II= 70 I=2 DE=   -0.124313992385D-03
 TestDE:  II= 72 I=2 DE=    0.188617239586D-03
 TestDE:  II= 75 I=2 DE=    0.662860682182D-02
 TestDE:  II= 75 I=1 DE=    0.100318016399D-01
 TestDE:  II= 75 I=3 DE=    0.956118300167D-02
 GetDE: DE=      0.00000000D+00
 TestDE:  II= 65 I=1 DE=    0.103635115906D-01
 TestDE:  II= 65 I=2 DE=    0.668072142916D-01
 TestDE:  II= 65 I=3 DE=    0.815839854025D-02
 Singles A-vector converged to   2.3639239D-04
 Singles A-vector converged to   3.8648329D-04
 The Euclidean norm of the A-vectors is   6.5036395D-04
 The Euclidean norm of the A-vectors is   8.7529269D-04
 The Euclidean norm of the A-vectors is   1.7167142D-03
 A(0)= 0.10000E+01      ANORM= 0.10526E+01      W(0)=-0.51085385E+00
 DE(Corr)= -0.51276019     E(CORR)=     -1778.8891494     Delta=-2.38D-05
 NORM(A)=   0.10525773D+01
 Iteration Nr.  11
 **********************
 DD1Dir will call FoFMem   1 times, MxPair=       120
 NAB=    42 NAA=    21 NBB=    15.
 DD1Dir:  Pass   1 NRAB=    42 NRAA=    21 NRBB=    15 NR=   120.
 TestDE:  II= 99 I=2 DE=    0.567627700216D-01
 TestDE:  II= 99 I=1 DE=    0.906543769260D-02
 TestDE:  II= 99 I=3 DE=    0.759078048580D-02
 TestDE:  II= 19 I=1 DE=    0.756327494123D-02
 TestDE:  II= 19 I=2 DE=    0.521474721289D-01
 TestDE:  II= 19 I=3 DE=    0.649667792325D-02
 Contribution from DD1=    0.66207425D-01
 ExpSMa:  Full in-core algorithm.
 ExpSMa:  Full in-core algorithm.
 ExpSMa:  Full in-core algorithm.
 ExpSMa:  Full in-core algorithm.
 ExpSMa:  Full in-core algorithm.
 ExpSMa:  Full in-core algorithm.
 ExpSMa:  Full in-core algorithm.
 ExpSMa:  Full in-core algorithm.
 TestDE:  II=419 I=1 DE=    0.155893519516D-01
 TestDE:  II=419 I=2 DE=    0.970240083757D-01
 TestDE:  II=419 I=3 DE=    0.137685361720D-01
 Contribution from DD2=    0.60174472D-01
 Contribution from DD3=    0.00000000D+00
 Singles added:  Sum=    0.11075982D+00
 Entering DoROCS
 TestDE:  II= 99 I=2 DE=    0.970240083757D-01
 TestDE:  II= 99 I=1 DE=    0.155893519516D-01
 TestDE:  II= 99 I=3 DE=    0.137685361720D-01
 TestDE:  II= 99 I=1 DE=    0.160776424209D-01
 TestDE:  II= 11 I=2 DE=    0.970240083757D-01
 TestDE:  II= 99 I=2 DE=    0.982198692402D-01
 TestDE:  II= 98 I=2 DE=    0.995256530150D-01
 TestDE:  II= 98 I=3 DE=    0.141722728825D-01
 TestDE:  II= 89 I=1 DE=    0.177777769926D-01
 TestDE:  II= 89 I=2 DE=    0.103889648779D+00
 TestDE:  II= 88 I=3 DE=    0.156696934351D-01
 TestDE:  II= 88 I=2 DE=    0.108727629584D+00
 TestDE:  II=  5 I=1 DE=   -0.774899560696D-02
 TestDE:  II=  7 I=2 DE=    0.927419420942D-01
 TestDE:  II=  8 I=2 DE=   -0.859047556650D-01
 TestDE:  II=  9 I=3 DE=   -0.607699240279D-02
 TestDE:  II= 50 I=1 DE=    0.100287813857D-01
 TestDE:  II= 70 I=2 DE=    0.683718642916D-02
 TestDE:  II= 90 I=3 DE=    0.959270103234D-02
 UMP4Q scratch file information:
   i      file        len
 ---     ------    ------
   1      19997    160261
   2      19998    160261
   3      19996    160261
   4      19995    160261
   5      19994    160261
   6      19993     12769
 total scratch length=      814074
 TestDE:  II= 71 I=2 DE=    0.157401983412D-03
 TestDE:  II= 70 I=2 DE=   -0.123987605292D-03
 TestDE:  II= 72 I=2 DE=    0.188076847808D-03
 TestDE:  II= 75 I=2 DE=    0.665487642212D-02
 TestDE:  II= 75 I=1 DE=    0.100369422192D-01
 TestDE:  II= 75 I=3 DE=    0.956574042501D-02
 GetDE: DE=      0.00000000D+00
 TestDE:  II= 65 I=1 DE=    0.103632107258D-01
 TestDE:  II= 65 I=2 DE=    0.667920594071D-01
 TestDE:  II= 65 I=3 DE=    0.815829829145D-02
 Singles A-vector converged to   7.0901217D-05
 Singles A-vector converged to   1.3254246D-04
 The Euclidean norm of the A-vectors is   1.8699245D-04
 The Euclidean norm of the A-vectors is   2.4348118D-04
 The Euclidean norm of the A-vectors is   4.5080135D-04
 A(0)= 0.10000E+01      ANORM= 0.10526E+01      W(0)=-0.51085676E+00
 DE(Corr)= -0.51273756     E(CORR)=     -1778.8891267     Delta= 2.26D-05
 NORM(A)=   0.10525628D+01
 Iteration Nr.  12
 **********************
 DD1Dir will call FoFMem   1 times, MxPair=       120
 NAB=    42 NAA=    21 NBB=    15.
 DD1Dir:  Pass   1 NRAB=    42 NRAA=    21 NRBB=    15 NR=   120.
 TestDE:  II= 99 I=2 DE=    0.567628420854D-01
 TestDE:  II= 99 I=1 DE=    0.906575634197D-02
 TestDE:  II= 99 I=3 DE=    0.759065017362D-02
 TestDE:  II= 19 I=1 DE=    0.756395499522D-02
 TestDE:  II= 19 I=2 DE=    0.521498205574D-01
 TestDE:  II= 19 I=3 DE=    0.649738464551D-02
 Contribution from DD1=    0.66211160D-01
 ExpSMa:  Full in-core algorithm.
 ExpSMa:  Full in-core algorithm.
 ExpSMa:  Full in-core algorithm.
 ExpSMa:  Full in-core algorithm.
 ExpSMa:  Full in-core algorithm.
 ExpSMa:  Full in-core algorithm.
 ExpSMa:  Full in-core algorithm.
 ExpSMa:  Full in-core algorithm.
 TestDE:  II=419 I=1 DE=    0.155901788158D-01
 TestDE:  II=419 I=2 DE=    0.970263312525D-01
 TestDE:  II=419 I=3 DE=    0.137692521135D-01
 Contribution from DD2=    0.60174602D-01
 Contribution from DD3=    0.00000000D+00
 Singles added:  Sum=    0.11077686D+00
 Entering DoROCS
 TestDE:  II= 99 I=2 DE=    0.970263312525D-01
 TestDE:  II= 99 I=1 DE=    0.155901788158D-01
 TestDE:  II= 99 I=3 DE=    0.137692521135D-01
 TestDE:  II= 99 I=1 DE=    0.160784511812D-01
 TestDE:  II= 11 I=2 DE=    0.970263312525D-01
 TestDE:  II= 99 I=2 DE=    0.982220514068D-01
 TestDE:  II= 98 I=2 DE=    0.995275966293D-01
 TestDE:  II= 98 I=3 DE=    0.141729538343D-01
 TestDE:  II= 89 I=1 DE=    0.177786428442D-01
 TestDE:  II= 89 I=2 DE=    0.103891625265D+00
 TestDE:  II= 88 I=3 DE=    0.156703942001D-01
 TestDE:  II= 88 I=2 DE=    0.108729568308D+00
 TestDE:  II=  5 I=1 DE=   -0.774910981426D-02
 TestDE:  II=  7 I=2 DE=    0.927457177450D-01
 TestDE:  II=  8 I=2 DE=   -0.859033431636D-01
 TestDE:  II=  9 I=3 DE=   -0.607677273256D-02
 TestDE:  II= 50 I=1 DE=    0.100295330300D-01
 TestDE:  II= 70 I=2 DE=    0.684237458142D-02
 TestDE:  II= 90 I=3 DE=    0.959362146751D-02
 UMP4Q scratch file information:
   i      file        len
 ---     ------    ------
   1      19997    160261
   2      19998    160261
   3      19996    160261
   4      19995    160261
   5      19994    160261
   6      19993     12769
 total scratch length=      814074
 TestDE:  II= 71 I=2 DE=    0.157219600203D-03
 TestDE:  II= 70 I=2 DE=   -0.123904105621D-03
 TestDE:  II= 72 I=2 DE=    0.187840130289D-03
 TestDE:  II= 75 I=2 DE=    0.666036218890D-02
 TestDE:  II= 75 I=1 DE=    0.100377274049D-01
 TestDE:  II= 75 I=3 DE=    0.956669019786D-02
 GetDE: DE=      0.00000000D+00
 TestDE:  II= 65 I=1 DE=    0.103632321885D-01
 TestDE:  II= 65 I=2 DE=    0.667882146004D-01
 TestDE:  II= 65 I=3 DE=    0.815801443232D-02
 Singles A-vector converged to   2.1030135D-05
 Singles A-vector converged to   5.3686325D-05
 The Euclidean norm of the A-vectors is   7.6867661D-05
 The Euclidean norm of the A-vectors is   1.0822765D-04
 The Euclidean norm of the A-vectors is   2.0277888D-04
 A(0)= 0.10000E+01      ANORM= 0.10526E+01      W(0)=-0.51085601E+00
 DE(Corr)= -0.51273341     E(CORR)=     -1778.8891226     Delta= 4.15D-06
 NORM(A)=   0.10525558D+01
 Iteration Nr.  13
 **********************
 DD1Dir will call FoFMem   1 times, MxPair=       120
 NAB=    42 NAA=    21 NBB=    15.
 DD1Dir:  Pass   1 NRAB=    42 NRAA=    21 NRBB=    15 NR=   120.
 TestDE:  II= 99 I=2 DE=    0.567626043464D-01
 TestDE:  II= 99 I=1 DE=    0.906587831715D-02
 TestDE:  II= 99 I=3 DE=    0.759068686988D-02
 TestDE:  II= 19 I=1 DE=    0.756403370104D-02
 TestDE:  II= 19 I=2 DE=    0.521501151809D-01
 TestDE:  II= 19 I=3 DE=    0.649763824300D-02
 Contribution from DD1=    0.66211787D-01
 ExpSMa:  Full in-core algorithm.
 ExpSMa:  Full in-core algorithm.
 ExpSMa:  Full in-core algorithm.
 ExpSMa:  Full in-core algorithm.
 ExpSMa:  Full in-core algorithm.
 ExpSMa:  Full in-core algorithm.
 ExpSMa:  Full in-core algorithm.
 ExpSMa:  Full in-core algorithm.
 TestDE:  II=419 I=1 DE=    0.155902381900D-01
 TestDE:  II=419 I=2 DE=    0.970258715746D-01
 TestDE:  II=419 I=3 DE=    0.137693888071D-01
 Contribution from DD2=    0.60173711D-01
 Contribution from DD3=    0.00000000D+00
 Singles added:  Sum=    0.11078231D+00
 Entering DoROCS
 TestDE:  II= 99 I=2 DE=    0.970258715746D-01
 TestDE:  II= 99 I=1 DE=    0.155902381900D-01
 TestDE:  II= 99 I=3 DE=    0.137693888071D-01
 TestDE:  II= 99 I=1 DE=    0.160784760209D-01
 TestDE:  II= 11 I=2 DE=    0.970258715746D-01
 TestDE:  II= 99 I=2 DE=    0.982215037429D-01
 TestDE:  II= 98 I=2 DE=    0.995269251474D-01
 TestDE:  II= 98 I=3 DE=    0.141730508383D-01
 TestDE:  II= 89 I=1 DE=    0.177787034550D-01
 TestDE:  II= 89 I=2 DE=    0.103890915931D+00
 TestDE:  II= 88 I=3 DE=    0.156704996050D-01
 TestDE:  II= 88 I=2 DE=    0.108728821191D+00
 TestDE:  II=  5 I=1 DE=   -0.774918902285D-02
 TestDE:  II=  7 I=2 DE=    0.927457409672D-01
 TestDE:  II=  8 I=2 DE=   -0.859016179665D-01
 TestDE:  II=  9 I=3 DE=   -0.607665267680D-02
 TestDE:  II= 50 I=1 DE=    0.100295144321D-01
 TestDE:  II= 70 I=2 DE=    0.684412300076D-02
 TestDE:  II= 90 I=3 DE=    0.959384692822D-02
 UMP4Q scratch file information:
   i      file        len
 ---     ------    ------
   1      19997    160261
   2      19998    160261
   3      19996    160261
   4      19995    160261
   5      19994    160261
   6      19993     12769
 total scratch length=      814074
 TestDE:  II= 71 I=2 DE=    0.157098915980D-03
 TestDE:  II= 70 I=2 DE=   -0.123852922710D-03
 TestDE:  II= 72 I=2 DE=    0.187698176530D-03
 TestDE:  II= 75 I=2 DE=    0.666230982269D-02
 TestDE:  II= 75 I=1 DE=    0.100377235173D-01
 TestDE:  II= 75 I=3 DE=    0.956693285949D-02
 GetDE: DE=      0.00000000D+00
 TestDE:  II= 65 I=1 DE=    0.103632770022D-01
 TestDE:  II= 65 I=2 DE=    0.667858986745D-01
 TestDE:  II= 65 I=3 DE=    0.815784414065D-02
 Singles A-vector converged to   8.6497971D-06
 Singles A-vector converged to   2.0592131D-05
 The Euclidean norm of the A-vectors is   2.8204733D-05
 The Euclidean norm of the A-vectors is   3.8990463D-05
 The Euclidean norm of the A-vectors is   7.6691746D-05
 A(0)= 0.10000E+01      ANORM= 0.10526E+01      W(0)=-0.51085685E+00
 DE(Corr)= -0.51273244     E(CORR)=     -1778.8891216     Delta= 9.75D-07
 NORM(A)=   0.10525543D+01
 Iteration Nr.  14
 **********************
 DD1Dir will call FoFMem   1 times, MxPair=       120
 NAB=    42 NAA=    21 NBB=    15.
 DD1Dir:  Pass   1 NRAB=    42 NRAA=    21 NRBB=    15 NR=   120.
 TestDE:  II= 99 I=2 DE=    0.567626195350D-01
 TestDE:  II= 99 I=1 DE=    0.906587962719D-02
 TestDE:  II= 99 I=3 DE=    0.759062935897D-02
 TestDE:  II= 19 I=1 DE=    0.756412477542D-02
 TestDE:  II= 19 I=2 DE=    0.521506392066D-01
 TestDE:  II= 19 I=3 DE=    0.649779795752D-02
 Contribution from DD1=    0.66212562D-01
 ExpSMa:  Full in-core algorithm.
 ExpSMa:  Full in-core algorithm.
 ExpSMa:  Full in-core algorithm.
 ExpSMa:  Full in-core algorithm.
 ExpSMa:  Full in-core algorithm.
 ExpSMa:  Full in-core algorithm.
 ExpSMa:  Full in-core algorithm.
 ExpSMa:  Full in-core algorithm.
 TestDE:  II=419 I=1 DE=    0.155904246802D-01
 TestDE:  II=419 I=2 DE=    0.970266410785D-01
 TestDE:  II=419 I=3 DE=    0.137695647374D-01
 Contribution from DD2=    0.60174069D-01
 Contribution from DD3=    0.00000000D+00
 Singles added:  Sum=    0.11078529D+00
 Entering DoROCS
 TestDE:  II= 99 I=2 DE=    0.970266410785D-01
 TestDE:  II= 99 I=1 DE=    0.155904246802D-01
 TestDE:  II= 99 I=3 DE=    0.137695647374D-01
 TestDE:  II= 99 I=1 DE=    0.160787036533D-01
 TestDE:  II= 11 I=2 DE=    0.970266410785D-01
 TestDE:  II= 99 I=2 DE=    0.982223583579D-01
 TestDE:  II= 98 I=2 DE=    0.995278577184D-01
 TestDE:  II= 98 I=3 DE=    0.141732564807D-01
 TestDE:  II= 89 I=1 DE=    0.177789130353D-01
 TestDE:  II= 89 I=2 DE=    0.103891792909D+00
 TestDE:  II= 88 I=3 DE=    0.156706738705D-01
 TestDE:  II= 88 I=2 DE=    0.108729644794D+00
 TestDE:  II=  5 I=1 DE=   -0.774930205788D-02
 TestDE:  II=  7 I=2 DE=    0.927464590631D-01
 TestDE:  II=  8 I=2 DE=   -0.859019378552D-01
 TestDE:  II=  9 I=3 DE=   -0.607663960683D-02
 TestDE:  II= 50 I=1 DE=    0.100296109774D-01
 TestDE:  II= 70 I=2 DE=    0.684452120793D-02
 TestDE:  II= 90 I=3 DE=    0.959403426369D-02
 UMP4Q scratch file information:
   i      file        len
 ---     ------    ------
   1      19997    160261
   2      19998    160261
   3      19996    160261
   4      19995    160261
   5      19994    160261
   6      19993     12769
 total scratch length=      814074
 TestDE:  II= 71 I=2 DE=    0.157071627191D-03
 TestDE:  II= 70 I=2 DE=   -0.123844644991D-03
 TestDE:  II= 72 I=2 DE=    0.187667559050D-03
 TestDE:  II= 75 I=2 DE=    0.666275198784D-02
 TestDE:  II= 75 I=1 DE=    0.100378212875D-01
 TestDE:  II= 75 I=3 DE=    0.956712449318D-02
 GetDE: DE=      0.00000000D+00
 TestDE:  II= 65 I=1 DE=    0.103633335502D-01
 TestDE:  II= 65 I=2 DE=    0.667857702708D-01
 TestDE:  II= 65 I=3 DE=    0.815778932542D-02
 Singles A-vector converged to   3.3877242D-06
 Singles A-vector converged to   7.7109103D-06
 The Euclidean norm of the A-vectors is   1.1051516D-05
 The Euclidean norm of the A-vectors is   1.4525571D-05
 The Euclidean norm of the A-vectors is   2.9783488D-05
 A(0)= 0.10000E+01      ANORM= 0.10526E+01      W(0)=-0.51085673E+00
 DE(Corr)= -0.51273180     E(CORR)=     -1778.8891210     Delta= 6.31D-07
 NORM(A)=   0.10525546D+01
 Iteration Nr.  15
 **********************
 DD1Dir will call FoFMem   1 times, MxPair=       120
 NAB=    42 NAA=    21 NBB=    15.
 DD1Dir:  Pass   1 NRAB=    42 NRAA=    21 NRBB=    15 NR=   120.
 TestDE:  II= 99 I=2 DE=    0.567627158520D-01
 TestDE:  II= 99 I=1 DE=    0.906588196047D-02
 TestDE:  II= 99 I=3 DE=    0.759061647027D-02
 TestDE:  II= 19 I=1 DE=    0.756409485081D-02
 TestDE:  II= 19 I=2 DE=    0.521506567747D-01
 TestDE:  II= 19 I=3 DE=    0.649779219193D-02
 Contribution from DD1=    0.66212544D-01
 ExpSMa:  Full in-core algorithm.
 ExpSMa:  Full in-core algorithm.
 ExpSMa:  Full in-core algorithm.
 ExpSMa:  Full in-core algorithm.
 ExpSMa:  Full in-core algorithm.
 ExpSMa:  Full in-core algorithm.
 ExpSMa:  Full in-core algorithm.
 ExpSMa:  Full in-core algorithm.
 TestDE:  II=419 I=1 DE=    0.155903695974D-01
 TestDE:  II=419 I=2 DE=    0.970266470997D-01
 TestDE:  II=419 I=3 DE=    0.137695153379D-01
 Contribution from DD2=    0.60173988D-01
 Contribution from DD3=    0.00000000D+00
 Singles added:  Sum=    0.11078506D+00
 Entering DoROCS
 TestDE:  II= 99 I=2 DE=    0.970266470997D-01
 TestDE:  II= 99 I=1 DE=    0.155903695974D-01
 TestDE:  II= 99 I=3 DE=    0.137695153379D-01
 TestDE:  II= 99 I=1 DE=    0.160786460541D-01
 TestDE:  II= 11 I=2 DE=    0.970266470997D-01
 TestDE:  II= 99 I=2 DE=    0.982223657746D-01
 TestDE:  II= 98 I=2 DE=    0.995278682654D-01
 TestDE:  II= 98 I=3 DE=    0.141732021940D-01
 TestDE:  II= 89 I=1 DE=    0.177788525074D-01
 TestDE:  II= 89 I=2 DE=    0.103891811196D+00
 TestDE:  II= 88 I=3 DE=    0.156706121174D-01
 TestDE:  II= 88 I=2 DE=    0.108729678614D+00
 TestDE:  II=  5 I=1 DE=   -0.774929961560D-02
 TestDE:  II=  7 I=2 DE=    0.927462112823D-01
 TestDE:  II=  8 I=2 DE=   -0.859021116620D-01
 TestDE:  II=  9 I=3 DE=   -0.607660916780D-02
 TestDE:  II= 50 I=1 DE=    0.100295528918D-01
 TestDE:  II= 70 I=2 DE=    0.684409962032D-02
 TestDE:  II= 90 I=3 DE=    0.959400294962D-02
 UMP4Q scratch file information:
   i      file        len
 ---     ------    ------
   1      19997    160261
   2      19998    160261
   3      19996    160261
   4      19995    160261
   5      19994    160261
   6      19993     12769
 total scratch length=      814074
 TestDE:  II= 71 I=2 DE=    0.157074711534D-03
 TestDE:  II= 70 I=2 DE=   -0.123850555514D-03
 TestDE:  II= 72 I=2 DE=    0.187673236236D-03
 TestDE:  II= 75 I=2 DE=    0.666232831459D-02
 TestDE:  II= 75 I=1 DE=    0.100377650518D-01
 TestDE:  II= 75 I=3 DE=    0.956709309371D-02
 GetDE: DE=      0.00000000D+00
 TestDE:  II= 65 I=1 DE=    0.103633381006D-01
 TestDE:  II= 65 I=2 DE=    0.667860764030D-01
 TestDE:  II= 65 I=3 DE=    0.815776785487D-02
 Singles A-vector converged to   1.3841634D-06
 Singles A-vector converged to   3.9343808D-06
 The Euclidean norm of the A-vectors is   5.4932790D-06
 The Euclidean norm of the A-vectors is   7.0913214D-06
 The Euclidean norm of the A-vectors is   1.3930925D-05
 A(0)= 0.10000E+01      ANORM= 0.10526E+01      W(0)=-0.51085690E+00
 DE(Corr)= -0.51273208     E(CORR)=     -1778.8891213     Delta=-2.76D-07
 NORM(A)=   0.10525550D+01
 Iteration Nr.  16
 **********************
 DD1Dir will call FoFMem   1 times, MxPair=       120
 NAB=    42 NAA=    21 NBB=    15.
 DD1Dir:  Pass   1 NRAB=    42 NRAA=    21 NRBB=    15 NR=   120.
 TestDE:  II= 99 I=2 DE=    0.567627758458D-01
 TestDE:  II= 99 I=1 DE=    0.906587621954D-02
 TestDE:  II= 99 I=3 DE=    0.759059986581D-02
 TestDE:  II= 19 I=1 DE=    0.756409818669D-02
 TestDE:  II= 19 I=2 DE=    0.521507232251D-01
 TestDE:  II= 19 I=3 DE=    0.649779339600D-02
 Contribution from DD1=    0.66212615D-01
 ExpSMa:  Full in-core algorithm.
 ExpSMa:  Full in-core algorithm.
 ExpSMa:  Full in-core algorithm.
 ExpSMa:  Full in-core algorithm.
 ExpSMa:  Full in-core algorithm.
 ExpSMa:  Full in-core algorithm.
 ExpSMa:  Full in-core algorithm.
 ExpSMa:  Full in-core algorithm.
 TestDE:  II=419 I=1 DE=    0.155903828701D-01
 TestDE:  II=419 I=2 DE=    0.970268488174D-01
 TestDE:  II=419 I=3 DE=    0.137695260562D-01
 Contribution from DD2=    0.60174143D-01
 Contribution from DD3=    0.00000000D+00
 Singles added:  Sum=    0.11078510D+00
 Entering DoROCS
 TestDE:  II= 99 I=2 DE=    0.970268488174D-01
 TestDE:  II= 99 I=1 DE=    0.155903828701D-01
 TestDE:  II= 99 I=3 DE=    0.137695260562D-01
 TestDE:  II= 99 I=1 DE=    0.160786661887D-01
 TestDE:  II= 11 I=2 DE=    0.970268488174D-01
 TestDE:  II= 99 I=2 DE=    0.982225853536D-01
 TestDE:  II= 98 I=2 DE=    0.995281078172D-01
 TestDE:  II= 98 I=3 DE=    0.141732185822D-01
 TestDE:  II= 89 I=1 DE=    0.177788682528D-01
 TestDE:  II= 89 I=2 DE=    0.103892055661D+00
 TestDE:  II= 88 I=3 DE=    0.156706250171D-01
 TestDE:  II= 88 I=2 DE=    0.108729929861D+00
 TestDE:  II=  5 I=1 DE=   -0.774929975043D-02
 TestDE:  II=  7 I=2 DE=    0.927463157382D-01
 TestDE:  II=  8 I=2 DE=   -0.859023887697D-01
 TestDE:  II=  9 I=3 DE=   -0.607661221512D-02
 TestDE:  II= 50 I=1 DE=    0.100295685024D-01
 TestDE:  II= 70 I=2 DE=    0.684392696848D-02
 TestDE:  II= 90 I=3 DE=    0.959401280200D-02
 UMP4Q scratch file information:
   i      file        len
 ---     ------    ------
   1      19997    160261
   2      19998    160261
   3      19996    160261
   4      19995    160261
   5      19994    160261
   6      19993     12769
 total scratch length=      814074
 TestDE:  II= 71 I=2 DE=    0.157084105415D-03
 TestDE:  II= 70 I=2 DE=   -0.123855458871D-03
 TestDE:  II= 72 I=2 DE=    0.187684524720D-03
 TestDE:  II= 75 I=2 DE=    0.666214045641D-02
 TestDE:  II= 75 I=1 DE=    0.100377809160D-01
 TestDE:  II= 75 I=3 DE=    0.956710298667D-02
 GetDE: DE=      0.00000000D+00
 TestDE:  II= 65 I=1 DE=    0.103633390183D-01
 TestDE:  II= 65 I=2 DE=    0.667863639008D-01
 TestDE:  II= 65 I=3 DE=    0.815776929857D-02
 Singles A-vector converged to   8.4560507D-07
 Singles A-vector converged to   2.2691676D-06
 The Euclidean norm of the A-vectors is   3.0240858D-06
 The Euclidean norm of the A-vectors is   3.7374927D-06
 The Euclidean norm of the A-vectors is   7.2213003D-06
 A(0)= 0.10000E+01      ANORM= 0.10526E+01      W(0)=-0.51085696E+00
 DE(Corr)= -0.51273208     E(CORR)=     -1778.8891213     Delta=-1.68D-09
 NORM(A)=   0.10525555D+01
 Largest amplitude= 7.01D-02
    T4(aaa)= -0.94955865D-03
    T5(aaa)=  0.10367523D-03
    T4(aab)= -0.90110785D-02
    T5(aab)=  0.69457415D-03
    T4(abb)= -0.79167462D-02
    T5(abb)=  0.54897571D-03
    T4(bbb)= -0.75847932D-03
    T5(bbb)=  0.53176398D-04
 Time for triples=      186.66 seconds.
 T4(CCSD)= -0.18635863D-01
 T5(CCSD)=  0.14004015D-02
 CCSD(T)= -0.17789063567D+04

 **********************************************************************

            Population analysis using the SCF density.

 **********************************************************************

 Orbital symmetries:
       Occupied  (SG) (SG) (PI) (PI) (SG) (SG) (PI) (PI) (SG) (DLTA)
                 (DLTA) (SG) (PI) (PI) (SG) (SG)
       Virtual   (SG) (SG) (PI) (PI) (SG) (SG) (SG) (PI) (PI) (SG)
                 (PI) (PI) (SG) (DLTA) (DLTA) (SG) (PI) (PI) (SG)
                 (SG) (DLTA) (DLTA) (PI) (PI) (SG) (PI) (PI) (PI)
                 (PI) (SG) (PHI) (PHI) (DLTA) (DLTA) (SG) (PI)
                 (PI) (SG) (DLTA) (DLTA) (PI) (PI) (SG) (SG) (PHI)
                 (PHI) (DLTA) (DLTA) (PI) (PI) (SG) (SG) (DLTA)
                 (DLTA) (PI) (PI) (PHI) (PHI) (DLTA) (DLTA) (PI)
                 (PI) (SG) (SG) (?A) (?A) (PHI) (PHI) (DLTA) (DLTA)
                 (PI) (PI) (SG) (PI) (PI) (SG) (PI) (PI) (SG) (DLTA)
                 (DLTA) (PI) (PI) (SG) (?B) (?B) (?A) (?A) (PHI)
                 (PHI) (DLTA) (DLTA) (PI) (PI) (SG) (PHI) (PHI)
                 (DLTA) (DLTA) (PI) (PI) (SG) (?A) (?A) (PHI) (PHI)
                 (DLTA) (DLTA) (PI) (PI) (SG) (SG)
 The electronic state is 2-SG.
 Alpha  occ. eigenvalues -- -353.33292 -44.39100 -38.95498 -38.95498 -38.95375
 Alpha  occ. eigenvalues --   -5.66919  -3.87230  -3.87230  -3.87104  -0.81789
 Alpha  occ. eigenvalues --   -0.81789  -0.81679  -0.81284  -0.81284  -0.45238
 Alpha  occ. eigenvalues --   -0.27538
 Alpha virt. eigenvalues --    0.02142   0.06222   0.06231   0.06231   0.11252
 Alpha virt. eigenvalues --    0.19318   0.44700   0.51027   0.51027   0.54873
 Alpha virt. eigenvalues --    0.61512   0.61512   0.62616   0.80888   0.80888
 Alpha virt. eigenvalues --    0.93984   0.98576   0.98576   1.28759   1.76855
 Alpha virt. eigenvalues --    2.13125   2.13125   2.15744   2.15744   2.16451
 Alpha virt. eigenvalues --    2.44395   2.44395   2.65998   2.65998   2.66093
 Alpha virt. eigenvalues --    2.71930   2.71930   2.78987   2.78987   3.11491
 Alpha virt. eigenvalues --    3.25241   3.25241   3.42564   3.47549   3.47549
 Alpha virt. eigenvalues --    3.52076   3.52076   4.09760   4.89616   5.99837
 Alpha virt. eigenvalues --    5.99837   6.00909   6.00909   6.21704   6.21704
 Alpha virt. eigenvalues --    6.62956   7.69869   8.16020   8.16020   8.31487
 Alpha virt. eigenvalues --    8.31487   8.59969   8.59969   8.65327   8.65327
 Alpha virt. eigenvalues --    8.76580   8.76580   8.81163   8.89870   8.90256
 Alpha virt. eigenvalues --    8.90256   8.90848   8.90848   8.93982   8.93982
 Alpha virt. eigenvalues --    9.01011   9.01011   9.12952   9.37370   9.37370
 Alpha virt. eigenvalues --    9.95895  11.12723  11.12723  11.64201  12.90145
 Alpha virt. eigenvalues --   12.90145  12.96742  12.96742  13.61012  23.72525
 Alpha virt. eigenvalues --   23.72525  23.72890  23.72890  23.73151  23.73151
 Alpha virt. eigenvalues --   23.73359  23.73359  23.73802  23.73802  23.74428
 Alpha virt. eigenvalues --   26.68789  26.68789  26.70505  26.70505  26.82755
 Alpha virt. eigenvalues --   26.82755  26.98937  29.82319  29.82319  29.82772
 Alpha virt. eigenvalues --   29.82772  29.83367  29.83367  29.87221  29.87221
 Alpha virt. eigenvalues --   29.93653  32.29821
          Condensed to atoms (all electrons):
              1          2
     1  Zn  29.402840   0.244588
     2  H    0.244588   1.107983
 Mulliken atomic charges:
              1
     1  Zn   0.352571
     2  H   -0.352571
 Sum of Mulliken atomic charges =   0.00000
 Mulliken charges with hydrogens summed into heavy atoms:
              1
     1  Zn   0.000000
 Sum of Mulliken charges with hydrogens summed into heavy atoms =   0.00000
          Atomic-Atomic Spin Densities.
              1          2
     1  Zn   1.065846  -0.110985
     2  H   -0.110985   0.156124
 Mulliken atomic spin densities:
              1
     1  Zn   0.954861
     2  H    0.045139
 Sum of Mulliken atomic spin densities =   1.00000
 Electronic spatial extent (au):  <R**2>=             47.2019
 Charge=              0.0000 electrons
 Dipole moment (field-independent basis, Debye):
    X=              0.0000    Y=              0.0000    Z=              0.8601  Tot=              0.8601
 Quadrupole moment (field-independent basis, Debye-Ang):
   XX=            -15.0020   YY=            -15.0020   ZZ=            -21.6605
   XY=              0.0000   XZ=              0.0000   YZ=              0.0000
 Traceless Quadrupole moment (field-independent basis, Debye-Ang):
   XX=              2.2195   YY=              2.2195   ZZ=             -4.4390
   XY=              0.0000   XZ=              0.0000   YZ=              0.0000
 Octapole moment (field-independent basis, Debye-Ang**2):
  XXX=              0.0000  YYY=              0.0000  ZZZ=              4.9020  XYY=              0.0000
  XXY=              0.0000  XXZ=              0.4072  XZZ=              0.0000  YZZ=              0.0000
  YYZ=              0.4072  XYZ=              0.0000
 Hexadecapole moment (field-independent basis, Debye-Ang**3):
 XXXX=            -21.8257 YYYY=            -21.8257 ZZZZ=            -71.1058 XXXY=              0.0000
 XXXZ=              0.0000 YYYX=              0.0000 YYYZ=              0.0000 ZZZX=              0.0000
 ZZZY=              0.0000 XXYY=             -7.2752 XXZZ=            -14.9206 YYZZ=            -14.9206
 XXYZ=              0.0000 YYXZ=              0.0000 ZZXY=              0.0000
 N-N= 9.953800399837D+00 E-N=-6.416939086426D+03  KE= 2.667131106161D+03
                          Isotropic Fermi Contact Couplings
        Atom                 a.u.       MegaHertz       Gauss      10(-4) cm-1
     1  Zn(67)             2.07267     580.83822     207.25751     193.74678
     2  H(1)               0.03114     139.18621      49.66510      46.42752
 --------------------------------------------------------
       Center         ----  Spin Dipole Couplings  ----
                      3XX-RR        3YY-RR        3ZZ-RR
 --------------------------------------------------------
     1   Atom       -0.511753     -0.511753      1.023506
     2   Atom       -0.004362     -0.004362      0.008724
 --------------------------------------------------------
                        XY            XZ            YZ
 --------------------------------------------------------
     1   Atom        0.000000      0.000000      0.000000
     2   Atom        0.000000      0.000000      0.000000
 --------------------------------------------------------


 ---------------------------------------------------------------------------------
              Anisotropic Spin Dipole Couplings in Principal Axis System
 ---------------------------------------------------------------------------------

       Atom             a.u.   MegaHertz   Gauss  10(-4) cm-1        Axes

              Baa    -0.5118   -17.119    -6.108    -5.710  0.0000  1.0000  0.0000
     1 Zn(67) Bbb    -0.5118   -17.119    -6.108    -5.710  1.0000  0.0000  0.0000
              Bcc     1.0235    34.237    12.217    11.420  0.0000  0.0000  1.0000
 
              Baa    -0.0044    -2.327    -0.830    -0.776  1.0000  0.0000  0.0000
     2 H(1)   Bbb    -0.0044    -2.327    -0.830    -0.776  0.0000  1.0000  0.0000
              Bcc     0.0087     4.655     1.661     1.553  0.0000  0.0000  1.0000
 

 ---------------------------------------------------------------------------------


 NEF-NEF-NEF-NEF-NEF-NEF-NEF-NEF-NEF-NEF-NEF-NEF-NEF-NEF-NEF-NEF-NEF-NEF-
 NUMERICAL EIGENVECTOR FOLLOWING MINIMUM SEARCH
 NUMERICALLY ESTIMATING GRADIENTS
 ITERATION   0 VARIABLE  1 STEP  1

 NEF-NEF-NEF-NEF-NEF-NEF-NEF-NEF-NEF-NEF-NEF-NEF-NEF-NEF-NEF-NEF-NEF-NEF-
[...]
 TestDE:  II= 50 I=1 DE=    0.100291635399D-01
 TestDE:  II= 70 I=2 DE=    0.683434178540D-02
 TestDE:  II= 90 I=3 DE=    0.959290762108D-02
 UMP4Q scratch file information:
   i      file        len
 ---     ------    ------
   1      19997    160261
   2      19998    160261
   3      19996    160261
   4      19995    160261
   5      19994    160261
   6      19993     12769
 total scratch length=      814074
 TestDE:  II= 71 I=2 DE=    0.157549690262D-03
 TestDE:  II= 70 I=2 DE=   -0.124110490270D-03
 TestDE:  II= 72 I=2 DE=    0.188193997937D-03
 TestDE:  II= 75 I=2 DE=    0.665188588583D-02
 TestDE:  II= 75 I=1 DE=    0.100373783526D-01
 TestDE:  II= 75 I=3 DE=    0.956596134360D-02
 GetDE: DE=      0.00000000D+00
 TestDE:  II= 65 I=1 DE=    0.103627745578D-01
 TestDE:  II= 65 I=2 DE=    0.668034208034D-01
 TestDE:  II= 65 I=3 DE=    0.815747512633D-02
 Singles A-vector converged to   3.3961292D-06
 Singles A-vector converged to   7.7343906D-06
 The Euclidean norm of the A-vectors is   1.1085126D-05
 The Euclidean norm of the A-vectors is   1.4572542D-05
 The Euclidean norm of the A-vectors is   2.9881866D-05
 A(0)= 0.10000E+01      ANORM= 0.10526E+01      W(0)=-0.51084972E+00
 DE(Corr)= -0.51272715     E(CORR)=     -1778.8891214     Delta= 6.34D-07
 NORM(A)=   0.10525744D+01
 Iteration Nr.  15
 **********************
 DD1Dir will call FoFMem   1 times, MxPair=       120
 NAB=    42 NAA=    21 NBB=    15.
 DD1Dir:  Pass   1 NRAB=    42 NRAA=    21 NRBB=    15 NR=   120.
 TestDE:  II= 99 I=2 DE=    0.567673964786D-01
 TestDE:  II= 99 I=1 DE=    0.906571104310D-02
 TestDE:  II= 99 I=3 DE=    0.758964965272D-02
 TestDE:  II= 19 I=1 DE=    0.756396480605D-02
 TestDE:  II= 19 I=2 DE=    0.521548713178D-01
 TestDE:  II= 19 I=3 DE=    0.649706588432D-02
 Contribution from DD1=    0.66215902D-01
 ExpSMa:  Full in-core algorithm.
 ExpSMa:  Full in-core algorithm.
 ExpSMa:  Full in-core algorithm.
 ExpSMa:  Full in-core algorithm.
 ExpSMa:  Full in-core algorithm.
 ExpSMa:  Full in-core algorithm.
 ExpSMa:  Full in-core algorithm.
 ExpSMa:  Full in-core algorithm.
 TestDE:  II=419 I=1 DE=    0.155899628662D-01
 TestDE:  II=419 I=2 DE=    0.970351439624D-01
 TestDE:  II=419 I=3 DE=    0.137685123912D-01
 Contribution from DD2=    0.60177717D-01
 Contribution from DD3=    0.00000000D+00
 Singles added:  Sum=    0.11078178D+00
 Entering DoROCS
 TestDE:  II= 99 I=2 DE=    0.970351439624D-01
 TestDE:  II= 99 I=1 DE=    0.155899628662D-01
 TestDE:  II= 99 I=3 DE=    0.137685123912D-01
 TestDE:  II= 99 I=1 DE=    0.160783347281D-01
 TestDE:  II= 11 I=2 DE=    0.970351439624D-01
 TestDE:  II= 99 I=2 DE=    0.982311993632D-01
 TestDE:  II= 98 I=2 DE=    0.995372038474D-01
 TestDE:  II= 98 I=3 DE=    0.141722576693D-01
 TestDE:  II= 89 I=1 DE=    0.177782960986D-01
 TestDE:  II= 89 I=2 DE=    0.103901580155D+00
 TestDE:  II= 88 I=3 DE=    0.156694712890D-01
 TestDE:  II= 88 I=2 DE=    0.108739819634D+00
 TestDE:  II=  5 I=1 DE=   -0.774919099360D-02
 TestDE:  II=  7 I=2 DE=    0.927468353113D-01
 TestDE:  II=  8 I=2 DE=   -0.859129179002D-01
 TestDE:  II=  9 I=3 DE=   -0.607659523493D-02
 TestDE:  II= 50 I=1 DE=    0.100291051050D-01
 TestDE:  II= 70 I=2 DE=    0.683391741116D-02
 TestDE:  II= 90 I=3 DE=    0.959287605410D-02
 UMP4Q scratch file information:
   i      file        len
 ---     ------    ------
   1      19997    160261
   2      19998    160261
   3      19996    160261
   4      19995    160261
   5      19994    160261
   6      19993     12769
 total scratch length=      814074
 TestDE:  II= 71 I=2 DE=    0.157552824642D-03
 TestDE:  II= 70 I=2 DE=   -0.124116448065D-03
 TestDE:  II= 72 I=2 DE=    0.188199744069D-03
 TestDE:  II= 75 I=2 DE=    0.665145936349D-02
 TestDE:  II= 75 I=1 DE=    0.100373217713D-01
 TestDE:  II= 75 I=3 DE=    0.956592968135D-02
 GetDE: DE=      0.00000000D+00
 TestDE:  II= 65 I=1 DE=    0.103627791400D-01
 TestDE:  II= 65 I=2 DE=    0.668037292185D-01
 TestDE:  II= 65 I=3 DE=    0.815745358845D-02
 Singles A-vector converged to   1.3871931D-06
 Singles A-vector converged to   3.9456656D-06
 The Euclidean norm of the A-vectors is   5.5054376D-06
 The Euclidean norm of the A-vectors is   7.1064804D-06
 The Euclidean norm of the A-vectors is   1.3957391D-05
 A(0)= 0.10000E+01      ANORM= 0.10526E+01      W(0)=-0.51084989E+00
 DE(Corr)= -0.51272743     E(CORR)=     -1778.8891217     Delta=-2.78D-07
 NORM(A)=   0.10525748D+01
 Iteration Nr.  16
 **********************
 DD1Dir will call FoFMem   1 times, MxPair=       120
 NAB=    42 NAA=    21 NBB=    15.
 DD1Dir:  Pass   1 NRAB=    42 NRAA=    21 NRBB=    15 NR=   120.
 TestDE:  II= 99 I=2 DE=    0.567674566125D-01
 TestDE:  II= 99 I=1 DE=    0.906570529448D-02
 TestDE:  II= 99 I=3 DE=    0.758963297342D-02
 TestDE:  II= 19 I=1 DE=    0.756396812713D-02
 TestDE:  II= 19 I=2 DE=    0.521549380048D-01
 TestDE:  II= 19 I=3 DE=    0.649706712506D-02
 Contribution from DD1=    0.66215973D-01
 ExpSMa:  Full in-core algorithm.
 ExpSMa:  Full in-core algorithm.
 ExpSMa:  Full in-core algorithm.
 ExpSMa:  Full in-core algorithm.
 ExpSMa:  Full in-core algorithm.
 ExpSMa:  Full in-core algorithm.
 ExpSMa:  Full in-core algorithm.
 ExpSMa:  Full in-core algorithm.
 TestDE:  II=419 I=1 DE=    0.155899761574D-01
 TestDE:  II=419 I=2 DE=    0.970353462817D-01
 TestDE:  II=419 I=3 DE=    0.137685231731D-01
 Contribution from DD2=    0.60177872D-01
 Contribution from DD3=    0.00000000D+00
 Singles added:  Sum=    0.11078182D+00
 Entering DoROCS
 TestDE:  II= 99 I=2 DE=    0.970353462817D-01
 TestDE:  II= 99 I=1 DE=    0.155899761574D-01
 TestDE:  II= 99 I=3 DE=    0.137685231731D-01
 TestDE:  II= 99 I=1 DE=    0.160783548997D-01
 TestDE:  II= 11 I=2 DE=    0.970353462817D-01
 TestDE:  II= 99 I=2 DE=    0.982314195934D-01
 TestDE:  II= 98 I=2 DE=    0.995374441059D-01
 TestDE:  II= 98 I=3 DE=    0.141722741352D-01
 TestDE:  II= 89 I=1 DE=    0.177783118692D-01
 TestDE:  II= 89 I=2 DE=    0.103901825331D+00
 TestDE:  II= 88 I=3 DE=    0.156694842571D-01
 TestDE:  II= 88 I=2 DE=    0.108740071597D+00
 TestDE:  II=  5 I=1 DE=   -0.774919113074D-02
 TestDE:  II=  7 I=2 DE=    0.927469401731D-01
 TestDE:  II=  8 I=2 DE=   -0.859131956773D-01
 TestDE:  II=  9 I=3 DE=   -0.607659828103D-02
 TestDE:  II= 50 I=1 DE=    0.100291207385D-01
 TestDE:  II= 70 I=2 DE=    0.683374449586D-02
 TestDE:  II= 90 I=3 DE=    0.959288597608D-02
 UMP4Q scratch file information:
   i      file        len
 ---     ------    ------
   1      19997    160261
   2      19998    160261
   3      19996    160261
   4      19995    160261
   5      19994    160261
   6      19993     12769
 total scratch length=      814074
 TestDE:  II= 71 I=2 DE=    0.157562256282D-03
 TestDE:  II= 70 I=2 DE=   -0.124121366805D-03
 TestDE:  II= 72 I=2 DE=    0.188211075971D-03
 TestDE:  II= 75 I=2 DE=    0.665127117920D-02
 TestDE:  II= 75 I=1 DE=    0.100373376590D-01
 TestDE:  II= 75 I=3 DE=    0.956593964397D-02
 GetDE: DE=      0.00000000D+00
 TestDE:  II= 65 I=1 DE=    0.103627800717D-01
 TestDE:  II= 65 I=2 DE=    0.668040173443D-01
 TestDE:  II= 65 I=3 DE=    0.815745501363D-02
 Singles A-vector converged to   8.4712434D-07
 Singles A-vector converged to   2.2737410D-06
 The Euclidean norm of the A-vectors is   3.0310417D-06
 The Euclidean norm of the A-vectors is   3.7476554D-06
 The Euclidean norm of the A-vectors is   7.2440047D-06
 A(0)= 0.10000E+01      ANORM= 0.10526E+01      W(0)=-0.51084995E+00
 DE(Corr)= -0.51272743     E(CORR)=     -1778.8891217     Delta=-1.60D-09
 NORM(A)=   0.10525753D+01
 Largest amplitude= 7.02D-02
    T4(aaa)= -0.94947308D-03
    T5(aaa)=  0.10367063D-03
    T4(aab)= -0.90110231D-02
    T5(aab)=  0.69450618D-03
    T4(abb)= -0.79164065D-02
    T5(abb)=  0.54884650D-03
    T4(bbb)= -0.75840634D-03
    T5(bbb)=  0.53139742D-04
 Time for triples=      183.15 seconds.
 T4(CCSD)= -0.18635309D-01
 T5(CCSD)=  0.14001630D-02
 CCSD(T)= -0.17789063568D+04

 NEF-NEF-NEF-NEF-NEF-NEF-NEF-NEF-NEF-NEF-NEF-NEF-NEF-NEF-NEF-NEF-NEF-NEF-
 NUMERICAL EIGENVECTOR FOLLOWING MINIMUM SEARCH
 GRADIENT ESTIMATION COMPLETE
 Hessian updated using Powell update
 ITERATION   3
 HESSIAN EIGENVECTORS AND EIGENVALUES
                           1
     Eigenvalues --     0.10224
   1         R          1.00000
 MINIMUM SEARCH. TAKING SIMPLE RFO STEP
 SEARCHING FOR LAMDA THAT MINIMIZES ALONG ALL MODES
 VALUE TAKEN    LAMDA=   0.00000000
 STEP TAKEN. STEPSIZE IS  0.000001
 CURRENT PARAMETER VALUES (INTERNAL COORDINATES)
    I        X         GRADIENT    DISPLACEMENT       NEWX
    1    3.015233      0.000000     -0.000001      3.015232
         ITEM               VALUE     THRESHOLD  CONVERGED?
 MAXIMUM FORCE            0.000000     0.000015     YES
 RMS     FORCE            0.000000     0.000010     YES
 MAXIMUM DISPLACEMENT     0.000001     0.000060     YES
 RMS     DISPLACEMENT     0.000001     0.000040     YES


 *************************************************
 **  CONVERGENCE CRITERIA APPARENTLY SATISFIED  **
 *************************************************


                       ----------------------------
                       !   Optimized Parameters   !
                       ! (Angstroms and Degrees)  !
 ----------------------                            ----------------------
 !      Name          Value   Derivative information (Atomic Units)     !
 ------------------------------------------------------------------------
 !        R          1.5956   -DE/DX =    0.0                           !
 ------------------------------------------------------------------------
 PREDICTED CHANGE IN ENERGY   0.000000

 NEF-NEF-NEF-NEF-NEF-NEF-NEF-NEF-NEF-NEF-NEF-NEF-NEF-NEF-NEF-NEF-NEF-NEF-
 ---------------------------------------------------------------------------------------------------
                            Z-MATRIX (ANGSTROMS AND DEGREES)
   CD    Cent   Atom    N1       Length/X        N2       Alpha/Y        N3        Beta/Z          J
 ---------------------------------------------------------------------------------------------------
      1      1  Zn
      2      2  H        1   1.595593(     1)
 ---------------------------------------------------------------------------------------------------
                         Z-Matrix orientation:                         
 ---------------------------------------------------------------------
 Center     Atomic      Atomic             Coordinates (Angstroms)
 Number     Number       Type             X           Y           Z
 ---------------------------------------------------------------------
      1         30           0        0.000000    0.000000    0.000000
      2          1           0        0.000000    0.000000    1.595593
 ---------------------------------------------------------------------
 Stoichiometry    HZn(2)
 Framework group  C*V[C*(HZn)]
 Deg. of freedom     1
 Full point group                 C*V     NOp   4
 Largest Abelian subgroup         C2V     NOp   4
 Largest concise Abelian subgroup C1      NOp   1
                         Standard orientation:                         
 ---------------------------------------------------------------------
 Center     Atomic      Atomic             Coordinates (Angstroms)
 Number     Number       Type             X           Y           Z
 ---------------------------------------------------------------------
      1         30           0        0.000000    0.000000    0.051471
      2          1           0        0.000000    0.000000   -1.544122
 ---------------------------------------------------------------------
 Rotational constants (GHZ):      0.0000000    200.0695663    200.0695663

 **********************************************************************

            Population analysis using the SCF density.

 **********************************************************************

 Orbital symmetries:
       Occupied  (SG) (SG) (PI) (PI) (SG) (SG) (PI) (PI) (SG) (DLTA)
                 (DLTA) (SG) (PI) (PI) (SG) (SG)
       Virtual   (SG) (SG) (PI) (PI) (SG) (SG) (SG) (PI) (PI) (SG)
                 (PI) (PI) (SG) (DLTA) (DLTA) (SG) (PI) (PI) (SG)
                 (SG) (DLTA) (DLTA) (PI) (PI) (SG) (PI) (PI) (PI)
                 (PI) (SG) (PHI) (PHI) (DLTA) (DLTA) (SG) (PI)
                 (PI) (SG) (DLTA) (DLTA) (PI) (PI) (SG) (SG) (PHI)
                 (PHI) (DLTA) (DLTA) (PI) (PI) (SG) (SG) (DLTA)
                 (DLTA) (PI) (PI) (PHI) (PHI) (DLTA) (DLTA) (PI)
                 (PI) (SG) (SG) (?A) (?A) (PHI) (PHI) (DLTA) (DLTA)
                 (PI) (PI) (SG) (PI) (PI) (SG) (PI) (PI) (SG) (DLTA)
                 (DLTA) (PI) (PI) (SG) (?B) (?B) (?A) (?A) (PHI)
                 (PHI) (DLTA) (DLTA) (PI) (PI) (SG) (PHI) (PHI)
                 (DLTA) (DLTA) (PI) (PI) (SG) (?A) (?A) (PHI) (PHI)
                 (DLTA) (DLTA) (PI) (PI) (SG) (SG)
 The electronic state is 2-SG.
 Alpha  occ. eigenvalues -- -353.33293 -44.39101 -38.95499 -38.95499 -38.95376
 Alpha  occ. eigenvalues --   -5.66920  -3.87231  -3.87231  -3.87105  -0.81790
 Alpha  occ. eigenvalues --   -0.81790  -0.81679  -0.81285  -0.81285  -0.45231
 Alpha  occ. eigenvalues --   -0.27540
 Alpha virt. eigenvalues --    0.02142   0.06222   0.06230   0.06230   0.11253
 Alpha virt. eigenvalues --    0.19313   0.44704   0.51027   0.51027   0.54875
 Alpha virt. eigenvalues --    0.61507   0.61507   0.62602   0.80887   0.80887
 Alpha virt. eigenvalues --    0.93968   0.98567   0.98567   1.28749   1.76873
 Alpha virt. eigenvalues --    2.13135   2.13135   2.15739   2.15739   2.16432
 Alpha virt. eigenvalues --    2.44391   2.44391   2.65991   2.65991   2.66077
 Alpha virt. eigenvalues --    2.71929   2.71929   2.78968   2.78968   3.11450
 Alpha virt. eigenvalues --    3.25174   3.25174   3.42571   3.47548   3.47548
 Alpha virt. eigenvalues --    3.52073   3.52073   4.09627   4.89613   5.99843
 Alpha virt. eigenvalues --    5.99843   6.00907   6.00907   6.21640   6.21640
 Alpha virt. eigenvalues --    6.62836   7.69871   8.16022   8.16022   8.31441
 Alpha virt. eigenvalues --    8.31441   8.59967   8.59967   8.65315   8.65315
 Alpha virt. eigenvalues --    8.76585   8.76585   8.81142   8.89888   8.90255
 Alpha virt. eigenvalues --    8.90255   8.90846   8.90846   8.93965   8.93965
 Alpha virt. eigenvalues --    9.01023   9.01023   9.12841   9.37242   9.37242
 Alpha virt. eigenvalues --    9.95814  11.12714  11.12714  11.64109  12.90144
 Alpha virt. eigenvalues --   12.90144  12.96718  12.96718  13.60813  23.72524
 Alpha virt. eigenvalues --   23.72524  23.72888  23.72888  23.73150  23.73150
 Alpha virt. eigenvalues --   23.73358  23.73358  23.73799  23.73799  23.74421
 Alpha virt. eigenvalues --   26.68788  26.68788  26.70499  26.70499  26.82730
 Alpha virt. eigenvalues --   26.82730  26.98921  29.82318  29.82318  29.82771
 Alpha virt. eigenvalues --   29.82771  29.83364  29.83364  29.87202  29.87202
 Alpha virt. eigenvalues --   29.93611  32.29725
          Condensed to atoms (all electrons):
              1          2
     1  Zn  29.402858   0.244586
     2  H    0.244586   1.107969
 Mulliken atomic charges:
              1
     1  Zn   0.352555
     2  H   -0.352555
 Sum of Mulliken atomic charges =   0.00000
 Mulliken charges with hydrogens summed into heavy atoms:
              1
     1  Zn   0.000000
 Sum of Mulliken charges with hydrogens summed into heavy atoms =   0.00000
          Atomic-Atomic Spin Densities.
              1          2
     1  Zn   1.065735  -0.110965
     2  H   -0.110965   0.156195
 Mulliken atomic spin densities:
              1
     1  Zn   0.954770
     2  H    0.045230
 Sum of Mulliken atomic spin densities =   1.00000
 Electronic spatial extent (au):  <R**2>=             47.2109
 Charge=              0.0000 electrons
 Dipole moment (field-independent basis, Debye):
    X=              0.0000    Y=              0.0000    Z=              0.8620  Tot=              0.8620
 Quadrupole moment (field-independent basis, Debye-Ang):
   XX=            -15.0024   YY=            -15.0024   ZZ=            -21.6613
   XY=              0.0000   XZ=              0.0000   YZ=              0.0000
 Traceless Quadrupole moment (field-independent basis, Debye-Ang):
   XX=              2.2196   YY=              2.2196   ZZ=             -4.4392
   XY=              0.0000   XZ=              0.0000   YZ=              0.0000
 Octapole moment (field-independent basis, Debye-Ang**2):
  XXX=              0.0000  YYY=              0.0000  ZZZ=              4.9124  XYY=              0.0000
  XXY=              0.0000  XXZ=              0.4102  XZZ=              0.0000  YZZ=              0.0000
  YYZ=              0.4102  XYZ=              0.0000
 Hexadecapole moment (field-independent basis, Debye-Ang**3):
 XXXX=            -21.8263 YYYY=            -21.8263 ZZZZ=            -71.1304 XXXY=              0.0000
 XXXZ=              0.0000 YYYX=              0.0000 YYYZ=              0.0000 ZZZX=              0.0000
 ZZZY=              0.0000 XXYY=             -7.2754 XXZZ=            -14.9248 YYZZ=            -14.9248
 XXYZ=              0.0000 YYXZ=              0.0000 ZZXY=              0.0000
 N-N= 9.949478377046D+00 E-N=-6.416926748557D+03  KE= 2.667130442003D+03
                          Isotropic Fermi Contact Couplings
        Atom                 a.u.       MegaHertz       Gauss      10(-4) cm-1
     1  Zn(67)             2.07363     581.10638     207.35320     193.83622
     2  H(1)               0.03115     139.21976      49.67707      46.43871
 --------------------------------------------------------
       Center         ----  Spin Dipole Couplings  ----
                      3XX-RR        3YY-RR        3ZZ-RR
 --------------------------------------------------------
     1   Atom       -0.511842     -0.511842      1.023684
     2   Atom       -0.004359     -0.004359      0.008719
 --------------------------------------------------------
                        XY            XZ            YZ
 --------------------------------------------------------
     1   Atom        0.000000      0.000000      0.000000
     2   Atom        0.000000      0.000000      0.000000
 --------------------------------------------------------


 ---------------------------------------------------------------------------------
              Anisotropic Spin Dipole Couplings in Principal Axis System
 ---------------------------------------------------------------------------------

       Atom             a.u.   MegaHertz   Gauss  10(-4) cm-1        Axes

              Baa    -0.5118   -17.122    -6.109    -5.711  0.0000  1.0000  0.0000
     1 Zn(67) Bbb    -0.5118   -17.122    -6.109    -5.711  1.0000  0.0000  0.0000
              Bcc     1.0237    34.243    12.219    11.422  0.0000  0.0000  1.0000
 
              Baa    -0.0044    -2.326    -0.830    -0.776  0.0000  1.0000  0.0000
     2 H(1)   Bbb    -0.0044    -2.326    -0.830    -0.776  1.0000  0.0000  0.0000
              Bcc     0.0087     4.652     1.660     1.552  0.0000  0.0000  1.0000
 

 ---------------------------------------------------------------------------------


 Test job not archived.
 1\1\GINC-C26\FOpt\ROCCSD(T)-RW\Gen\H1Zn1(2)\GPETERSSON\29-Aug-2012\1\\
 # ROCCSD(T,RW) Gen GFinput Int=NoBasisTransform Int(Grid=Ultrafine) IO
 p(3/32=2,5/6=10,8/11=1,9/33=1) Maxdisk=128GB Opt=(Tight,Z-Matrix)\\ZnH
  2Sg+\\0,2\Zn\H,1,R\\R=1.59559282\\Version=EM64L-G09RevA.02\State=2-SG
 \HF=-1778.3763949\MP2=-1778.9314273\MP3=-1778.8679538\PUHF=-1778.37639
 49\PMP2-0=-1778.9314273\MP4SDQ=-1778.8959668\CCSD=-1778.8891217\CCSD(T
 )=-1778.9063568\RMSD=8.285e-11\RMSF=9.931e-08\PG=C*V [C*(H1Zn1)]\\@


 TRUTH, IN SCIENCE, CAN BE DEFINED AS THE WORKING HYPOTHESIS 
 BEST FITTED TO OPEN THE WAY TO THE NEXT BETTER ONE.

                              -- KONRAD LORENZ
 Job cpu time:  0 days  4 hours 24 minutes 24.3 seconds.
 File lengths (MBytes):  RWF=    339 Int=      0 D2E=      0 Chk=      3 Scr=      1
 Normal termination of Gaussian 09 at Wed Aug 29 10:42:58 2012.
