 Entering Gaussian System, Link 0=g09
 AtFile(1): 7ZaPa-NR.gbs
 Initial command:
 /share/apps/gaussian/g09root/g09/l1.exe /localscratch/Gau-9722.inp -scrdir=/localscratch/
 Entering Link 1 = /share/apps/gaussian/g09root/g09/l1.exe PID=      9723.
  
 Copyright (c) 1988,1990,1992,1993,1995,1998,2003,2009, Gaussian, Inc.
                  All Rights Reserved.
  
 This is part of the Gaussian(R) 09 program.  It is based on
 the Gaussian(R) 03 system (copyright 2003, Gaussian, Inc.),
 the Gaussian(R) 98 system (copyright 1998, Gaussian, Inc.),
 the Gaussian(R) 94 system (copyright 1995, Gaussian, Inc.),
 the Gaussian 92(TM) system (copyright 1992, Gaussian, Inc.),
 the Gaussian 90(TM) system (copyright 1990, Gaussian, Inc.),
 the Gaussian 88(TM) system (copyright 1988, Gaussian, Inc.),
 the Gaussian 86(TM) system (copyright 1986, Carnegie Mellon
 University), and the Gaussian 82(TM) system (copyright 1983,
 Carnegie Mellon University). Gaussian is a federally registered
 trademark of Gaussian, Inc.
  
 This software contains proprietary and confidential information,
 including trade secrets, belonging to Gaussian, Inc.
  
 This software is provided under written license and may be
 used, copied, transmitted, or stored only in accord with that
 written license.
  
 The following legend is applicable only to US Government
 contracts under FAR:
  
                    RESTRICTED RIGHTS LEGEND
  
 Use, reproduction and disclosure by the US Government is
 subject to restrictions as set forth in subparagraphs (a)
 and (c) of the Commercial Computer Software - Restricted
 Rights clause in FAR 52.227-19.
  
 Gaussian, Inc.
 340 Quinnipiac St., Bldg. 40, Wallingford CT 06492
  
  
 ---------------------------------------------------------------
 Warning -- This program may not be used in any manner that
 competes with the business of Gaussian, Inc. or will provide
 assistance to any competitor of Gaussian, Inc.  The licensee
 of this program is prohibited from giving any competitor of
 Gaussian, Inc. access to this program.  By using this program,
 the user acknowledges that Gaussian, Inc. is engaged in the
 business of creating and licensing software in the field of
 computational chemistry and represents and warrants to the
 licensee that it is not a competitor of Gaussian, Inc. and that
 it will not use this program in any manner prohibited above.
 ---------------------------------------------------------------
  

 Cite this work as:
 Gaussian 09, Revision A.02,
 M. J. Frisch, G. W. Trucks, H. B. Schlegel, G. E. Scuseria, 
 M. A. Robb, J. R. Cheeseman, G. Scalmani, V. Barone, B. Mennucci, 
 G. A. Petersson, H. Nakatsuji, M. Caricato, X. Li, H. P. Hratchian, 
 A. F. Izmaylov, J. Bloino, G. Zheng, J. L. Sonnenberg, M. Hada, 
 M. Ehara, K. Toyota, R. Fukuda, J. Hasegawa, M. Ishida, T. Nakajima, 
 Y. Honda, O. Kitao, H. Nakai, T. Vreven, J. A. Montgomery, Jr., 
 J. E. Peralta, F. Ogliaro, M. Bearpark, J. J. Heyd, E. Brothers, 
 K. N. Kudin, V. N. Staroverov, R. Kobayashi, J. Normand, 
 K. Raghavachari, A. Rendell, J. C. Burant, S. S. Iyengar, J. Tomasi, 
 M. Cossi, N. Rega, J. M. Millam, M. Klene, J. E. Knox, J. B. Cross, 
 V. Bakken, C. Adamo, J. Jaramillo, R. Gomperts, R. E. Stratmann, 
 O. Yazyev, A. J. Austin, R. Cammi, C. Pomelli, J. W. Ochterski, 
 R. L. Martin, K. Morokuma, V. G. Zakrzewski, G. A. Voth, 
 P. Salvador, J. J. Dannenberg, S. Dapprich, A. D. Daniels, 
 O. Farkas, J. B. Foresman, J. V. Ortiz, J. Cioslowski, 
 and D. J. Fox, Gaussian, Inc., Wallingford CT, 2009.
 
 ******************************************
 Gaussian 09:  EM64L-G09RevA.02 11-Jun-2009
                25-Jul-2013 
 ******************************************
 % Mem=128GB
 % Nproc=16
 Will use up to   16 processors via shared memory.
 % Chk=ZnO+.chk
 ----------------------------------------------------------------------
 #P ROMP2(RW) Gen GFinput Int=NoBasisTransform Int(Grid=Ultrafine) IOp(
 3/32=2,5/6=10,8/11=1,9/33=1) Maxdisk=128GB CBSextrapolate(Nmin=25,MinP
 op) Guess=Read SCF(Symm,MaxCycle=512)
 ----------------------------------------------------------------------
 1/38=1/1;
 2/12=2,17=6,18=5,40=1/2;
 3/5=7,11=2,16=1,24=10,25=1,30=1,32=2,60=-1,75=-5,116=101/1,2,3;
 4/5=1,9=4/1;
 5/5=2,6=10,7=512,15=2,38=6/2;
 8/5=-1,10=91,11=1/1;
 9/16=-3,33=1,75=2,81=25,83=4/6,4;
 6/7=2,8=2,9=2,10=2/1;
 99/5=1,9=1/99;
 Leave Link    1 at Thu Jul 25 12:56:04 2013, MaxMem=17179869184 cpu:       1.4
 (Enter /share/apps/gaussian/g09root/g09/l101.exe)
 --------
 ZnO+ 2Pi
 --------
 Symbolic Z-matrix:
 Charge =  1 Multiplicity = 2
 Zn
 O                    1     1.799 
 
 NAtoms=      2 NQM=      2 NQMF=      0 NMic=      0 NMicF=      0 NTot=      2.
                    Isotopes and Nuclear Properties:
 (Nuclear quadrupole moments (NQMom) in fm**2, nuclear magnetic moments (NMagM)
  in nuclear magnetons)

  Atom         1           2
 IAtWgt=          64          16
 AtmWgt=  63.9291454  15.9949146
 NucSpn=           0           0
 AtZEff=   0.0000000   0.0000000
 NQMom=    0.0000000   0.0000000
 NMagM=    0.0000000   0.0000000
 Leave Link  101 at Thu Jul 25 12:56:04 2013, MaxMem=17179869184 cpu:       0.9
 (Enter /share/apps/gaussian/g09root/g09/l202.exe)
                          Input orientation:                          
 ---------------------------------------------------------------------
 Center     Atomic      Atomic             Coordinates (Angstroms)
 Number     Number       Type             X           Y           Z
 ---------------------------------------------------------------------
      1         30           0        0.000000    0.000000    0.000000
      2          8           0        0.000000    0.000000    1.799000
 ---------------------------------------------------------------------
 Stoichiometry    OZn(1+,2)
 Framework group  C*V[C*(OZn)]
 Deg. of freedom     1
 Full point group                 C*V     NOp   4
 Largest Abelian subgroup         C2V     NOp   4
 Largest concise Abelian subgroup C1      NOp   1
                         Standard orientation:                         
 ---------------------------------------------------------------------
 Center     Atomic      Atomic             Coordinates (Angstroms)
 Number     Number       Type             X           Y           Z
 ---------------------------------------------------------------------
      1         30           0        0.000000    0.000000    0.378737
      2          8           0        0.000000    0.000000   -1.420263
 ---------------------------------------------------------------------
 Rotational constants (GHZ):      0.0000000     12.2053878     12.2053878
 Leave Link  202 at Thu Jul 25 12:56:04 2013, MaxMem=17179869184 cpu:       0.1
 (Enter /share/apps/gaussian/g09root/g09/l301.exe)
 General basis read from cards:  (5D, 7F)
 Centers:   2
 S 16 1.00 0.000000000000
     Exponent=  1.4112464100D+06 Coefficients=  1.6274298220D-06
     Exponent=  2.4991022400D+05 Coefficients=  1.0926219960D-05
     Exponent=  5.6034105800D+04 Coefficients=  6.2387418670D-05
     Exponent=  1.5211536400D+04 Coefficients=  2.7833034910D-04
     Exponent=  4.8122877500D+03 Coefficients=  1.0405418720D-03
     Exponent=  1.7177554600D+03 Coefficients=  3.3803927930D-03
     Exponent=  6.7339582400D+02 Coefficients=  9.8284847640D-03
     Exponent=  2.8351018400D+02 Coefficients=  2.6053101290D-02
     Exponent=  1.2586200700D+02 Coefficients=  6.2808180570D-02
     Exponent=  5.8044722000D+01 Coefficients=  1.3482020750D-01
     Exponent=  2.7471985000D+01 Coefficients=  2.4355634600D-01
     Exponent=  1.3210629000D+01 Coefficients=  3.3232873780D-01
     Exponent=  6.3998060000D+00 Coefficients=  2.6079304830D-01
     Exponent=  3.0996140000D+00 Coefficients=  7.4308343260D-02
     Exponent=  1.4898560000D+00 Coefficients=  4.1895380740D-03
     Exponent=  7.0520100000D-01 Coefficients=  8.7064557240D-04
 S 11 1.00 0.000000000000
     Exponent=  2.8351018400D+02 Coefficients= -1.1225880940D-04
     Exponent=  1.2586200700D+02 Coefficients= -5.5593356170D-04
     Exponent=  5.8044722000D+01 Coefficients= -2.8516879040D-03
     Exponent=  2.7471985000D+01 Coefficients= -1.1334949950D-02
     Exponent=  1.3210629000D+01 Coefficients= -3.6579777040D-02
     Exponent=  6.3998060000D+00 Coefficients= -7.2889941970D-02
     Exponent=  3.0996140000D+00 Coefficients= -1.0620323560D-02
     Exponent=  1.4898560000D+00 Coefficients=  2.1967055720D-01
     Exponent=  7.0520100000D-01 Coefficients=  4.2948320720D-01
     Exponent=  3.2584800000D-01 Coefficients=  3.7758328490D-01
     Exponent=  1.4546000000D-01 Coefficients=  9.6402612550D-02
 S 1 1.00 0.000000000000
     Exponent=  5.8142978700D-02 Coefficients=  1.0000000000D+00
 P 13 1.00 0.000000000000
     Exponent=  2.0852792000D+03 Coefficients=  1.4479117400D-05
     Exponent=  5.1014708300D+02 Coefficients=  1.2832335880D-04
     Exponent=  1.6168115100D+02 Coefficients=  7.7927900070D-04
     Exponent=  6.1149452000D+01 Coefficients=  3.4005060490D-03
     Exponent=  2.5976602000D+01 Coefficients=  1.1576852140D-02
     Exponent=  1.1875426000D+01 Coefficients=  3.2697403390D-02
     Exponent=  5.6771330000D+00 Coefficients=  8.0114042420D-02
     Exponent=  2.7864750000D+00 Coefficients=  1.6052650570D-01
     Exponent=  1.3878440000D+00 Coefficients=  2.4604950260D-01
     Exponent=  6.9528100000D-01 Coefficients=  2.8989829260D-01
     Exponent=  3.4700200000D-01 Coefficients=  2.6067993820D-01
     Exponent=  1.7009900000D-01 Coefficients=  1.4793631120D-01
     Exponent=  8.0080000000D-02 Coefficients=  2.9802614530D-02
 P 1 1.00 0.000000000000
     Exponent=  4.2614360330D-02 Coefficients=  1.0000000000D+00
 S 1 1.00 0.000000000000
     Exponent=  4.2498660000D+00 Coefficients=  1.0000000000D+00
 S 1 1.00 0.000000000000
     Exponent=  2.1674700000D+00 Coefficients=  1.0000000000D+00
 S 1 1.00 0.000000000000
     Exponent=  1.1054290000D+00 Coefficients=  1.0000000000D+00
 S 1 1.00 0.000000000000
     Exponent=  5.6377900000D-01 Coefficients=  1.0000000000D+00
 S 1 1.00 0.000000000000
     Exponent=  2.8753200000D-01 Coefficients=  1.0000000000D+00
 S 1 1.00 0.000000000000
     Exponent=  1.4664400000D-01 Coefficients=  1.0000000000D+00
 P 1 1.00 0.000000000000
     Exponent=  5.6597240000D+00 Coefficients=  1.0000000000D+00
 P 1 1.00 0.000000000000
     Exponent=  2.5758780000D+00 Coefficients=  1.0000000000D+00
 P 1 1.00 0.000000000000
     Exponent=  1.1723440000D+00 Coefficients=  1.0000000000D+00
 P 1 1.00 0.000000000000
     Exponent=  5.3356200000D-01 Coefficients=  1.0000000000D+00
 P 1 1.00 0.000000000000
     Exponent=  2.4283700000D-01 Coefficients=  1.0000000000D+00
 P 1 1.00 0.000000000000
     Exponent=  1.1052100000D-01 Coefficients=  1.0000000000D+00
 D 1 1.00 0.000000000000
     Exponent=  9.4642110000D+00 Coefficients=  1.0000000000D+00
 D 1 1.00 0.000000000000
     Exponent=  4.7522860000D+00 Coefficients=  1.0000000000D+00
 D 1 1.00 0.000000000000
     Exponent=  2.3862760000D+00 Coefficients=  1.0000000000D+00
 D 1 1.00 0.000000000000
     Exponent=  1.1982260000D+00 Coefficients=  1.0000000000D+00
 D 1 1.00 0.000000000000
     Exponent=  6.0166800000D-01 Coefficients=  1.0000000000D+00
 D 1 1.00 0.000000000000
     Exponent=  3.0211700000D-01 Coefficients=  1.0000000000D+00
 D 1 1.00 0.000000000000
     Exponent=  1.5170200000D-01 Coefficients=  1.0000000000D+00
 F 1 1.00 0.000000000000
     Exponent=  7.0018360000D+00 Coefficients=  1.0000000000D+00
 F 1 1.00 0.000000000000
     Exponent=  3.5525090000D+00 Coefficients=  1.0000000000D+00
 F 1 1.00 0.000000000000
     Exponent=  1.8024300000D+00 Coefficients=  1.0000000000D+00
 F 1 1.00 0.000000000000
     Exponent=  9.1449600000D-01 Coefficients=  1.0000000000D+00
 F 1 1.00 0.000000000000
     Exponent=  4.6398600000D-01 Coefficients=  1.0000000000D+00
 F 1 1.00 0.000000000000
     Exponent=  2.3541100000D-01 Coefficients=  1.0000000000D+00
 G 1 1.00 0.000000000000
     Exponent=  6.4724810000D+00 Coefficients=  1.0000000000D+00
 G 1 1.00 0.000000000000
     Exponent=  3.1190710000D+00 Coefficients=  1.0000000000D+00
 G 1 1.00 0.000000000000
     Exponent=  1.5030720000D+00 Coefficients=  1.0000000000D+00
 G 1 1.00 0.000000000000
     Exponent=  7.2432600000D-01 Coefficients=  1.0000000000D+00
 G 1 1.00 0.000000000000
     Exponent=  3.4905000000D-01 Coefficients=  1.0000000000D+00
 H 1 1.00 0.000000000000
     Exponent=  5.3550830000D+00 Coefficients=  1.0000000000D+00
 H 1 1.00 0.000000000000
     Exponent=  2.4146960000D+00 Coefficients=  1.0000000000D+00
 H 1 1.00 0.000000000000
     Exponent=  1.0888270000D+00 Coefficients=  1.0000000000D+00
 H 1 1.00 0.000000000000
     Exponent=  4.9097030000D-01 Coefficients=  1.0000000000D+00
 I 1 1.00 0.000000000000
     Exponent=  4.3221130000D+00 Coefficients=  1.0000000000D+00
 I 1 1.00 0.000000000000
     Exponent=  1.7162630000D+00 Coefficients=  1.0000000000D+00
 I 1 1.00 0.000000000000
     Exponent=  6.8150890000D-01 Coefficients=  1.0000000000D+00
 J 1 1.00 0.000000000000
     Exponent=  3.0609737230D+00 Coefficients=  1.0000000000D+00
 ****
 Centers:   1
 S 18 1.00 0.000000000000
     Exponent=  4.3482903900D+07 Coefficients=  6.0687003210D-07
     Exponent=  8.3971257200D+06 Coefficients=  3.6405486570D-06
     Exponent=  1.9442341200D+06 Coefficients=  2.0663230990D-05
     Exponent=  5.2599322000D+05 Coefficients=  9.4465344850D-05
     Exponent=  1.6247448800D+05 Coefficients=  3.6986800590D-04
     Exponent=  5.6130462700D+04 Coefficients=  1.2644411610D-03
     Exponent=  2.1293839700D+04 Coefficients=  3.8648248270D-03
     Exponent=  8.7278369000D+03 Coefficients=  1.0726420410D-02
     Exponent=  3.8102819200D+03 Coefficients=  2.7285074610D-02
     Exponent=  1.7497441100D+03 Coefficients=  6.3386084880D-02
     Exponent=  8.3602615200D+02 Coefficients=  1.3171087550D-01
     Exponent=  4.1168896600D+02 Coefficients=  2.3249820210D-01
     Exponent=  2.0722268700D+02 Coefficients=  3.1351051050D-01
     Exponent=  1.0585237500D+02 Coefficients=  2.6122870210D-01
     Exponent=  5.4528161000D+01 Coefficients=  9.4649223670D-02
     Exponent=  2.8168795000D+01 Coefficients=  8.1772463010D-03
     Exponent=  1.4519274000D+01 Coefficients=  6.5247837350D-04
     Exponent=  7.4320400000D+00 Coefficients= -2.2200706910D-04
 S 15 1.00 0.000000000000
     Exponent=  2.1293839700D+04 Coefficients= -5.2154440560D-06
     Exponent=  8.7278369000D+03 Coefficients= -3.1262389780D-05
     Exponent=  3.8102819200D+03 Coefficients= -2.1311348520D-04
     Exponent=  1.7497441100D+03 Coefficients= -1.0572299940D-03
     Exponent=  8.3602615200D+02 Coefficients= -4.8334461420D-03
     Exponent=  4.1168896600D+02 Coefficients= -1.7785419590D-02
     Exponent=  2.0722268700D+02 Coefficients= -5.2418851990D-02
     Exponent=  1.0585237500D+02 Coefficients= -9.0482811420D-02
     Exponent=  5.4528161000D+01 Coefficients= -1.3245821940D-02
     Exponent=  2.8168795000D+01 Coefficients=  3.0854034020D-01
     Exponent=  1.4519274000D+01 Coefficients=  5.3303964270D-01
     Exponent=  7.4320400000D+00 Coefficients=  2.5359632060D-01
     Exponent=  3.7609150000D+00 Coefficients=  2.5666731510D-02
     Exponent=  1.8730040000D+00 Coefficients=  3.6369243470D-03
     Exponent=  9.1370600000D-01 Coefficients= -3.2965528180D-04
 P 17 1.00 0.000000000000
     Exponent=  1.2057654200D+05 Coefficients=  2.2935108110D-06
     Exponent=  3.0977867500D+04 Coefficients=  1.9220277430D-05
     Exponent=  9.8162655800D+03 Coefficients=  1.2308593560D-04
     Exponent=  3.6522657000D+03 Coefficients=  5.9511771280D-04
     Exponent=  1.5331986400D+03 Coefficients=  2.3497019740D-03
     Exponent=  7.0363027400D+02 Coefficients=  7.8624737880D-03
     Exponent=  3.4450044800D+02 Coefficients=  2.2884409740D-02
     Exponent=  1.7665678800D+02 Coefficients=  5.8321311390D-02
     Exponent=  9.3600235000D+01 Coefficients=  1.2734308400D-01
     Exponent=  5.0741460000D+01 Coefficients=  2.2568848330D-01
     Exponent=  2.7941651000D+01 Coefficients=  3.0712314440D-01
     Exponent=  1.5539822000D+01 Coefficients=  2.7612719890D-01
     Exponent=  8.6814570000D+00 Coefficients=  1.3133110230D-01
     Exponent=  4.8416490000D+00 Coefficients=  2.6894223660D-02
     Exponent=  2.6736900000D+00 Coefficients=  2.0142488420D-03
     Exponent=  1.4457010000D+00 Coefficients= -1.2138684030D-05
     Exponent=  7.5371100000D-01 Coefficients= -1.1792019280D-04
 S 14 1.00 0.000000000000
     Exponent=  4.1168896600D+02 Coefficients=  1.2068744980D-04
     Exponent=  2.0722268700D+02 Coefficients=  5.9860081380D-04
     Exponent=  1.0585237500D+02 Coefficients=  2.8523850550D-03
     Exponent=  5.4528161000D+01 Coefficients=  1.9015195700D-03
     Exponent=  2.8168795000D+01 Coefficients= -3.2886744240D-02
     Exponent=  1.4519274000D+01 Coefficients= -1.7837985030D-01
     Exponent=  7.4320400000D+00 Coefficients= -1.2718782330D-01
     Exponent=  3.7609150000D+00 Coefficients=  3.3710542540D-01
     Exponent=  1.8730040000D+00 Coefficients=  5.8776693320D-01
     Exponent=  9.1370600000D-01 Coefficients=  2.8163990630D-01
     Exponent=  4.3441900000D-01 Coefficients=  1.9875985050D-02
     Exponent=  2.0018300000D-01 Coefficients=  2.3369901640D-03
     Exponent=  8.8847000000D-02 Coefficients= -8.8273659130D-04
     Exponent=  3.7709000000D-02 Coefficients=  2.3423531130D-04
 P 16 1.00 0.000000000000
     Exponent=  3.6522657000D+03 Coefficients= -2.6437559350D-07
     Exponent=  1.5331986400D+03 Coefficients= -3.6400246120D-06
     Exponent=  7.0363027400D+02 Coefficients= -2.6904801560D-05
     Exponent=  3.4450044800D+02 Coefficients= -1.6962418720D-04
     Exponent=  1.7665678800D+02 Coefficients= -8.4017975370D-04
     Exponent=  9.3600235000D+01 Coefficients= -3.3270071440D-03
     Exponent=  5.0741460000D+01 Coefficients= -9.2097147490D-03
     Exponent=  2.7941651000D+01 Coefficients= -1.9027173660D-02
     Exponent=  1.5539822000D+01 Coefficients= -1.2024193350D-02
     Exponent=  8.6814570000D+00 Coefficients=  8.1626654790D-02
     Exponent=  4.8416490000D+00 Coefficients=  2.4989401190D-01
     Exponent=  2.6736900000D+00 Coefficients=  3.5637585570D-01
     Exponent=  1.4457010000D+00 Coefficients=  3.0316112130D-01
     Exponent=  7.5371100000D-01 Coefficients=  1.2950464440D-01
     Exponent=  3.7109400000D-01 Coefficients=  1.7470160480D-02
     Exponent=  1.6792100000D-01 Coefficients=  1.6050273360D-03
 D 16 1.00 0.000000000000
     Exponent=  3.2989684500D+03 Coefficients=  5.1050216490D-06
     Exponent=  1.0572065000D+03 Coefficients=  5.0065528590D-05
     Exponent=  4.0837745700D+02 Coefficients=  3.3722215790D-04
     Exponent=  1.8060017900D+02 Coefficients=  1.6370842900D-03
     Exponent=  8.7819345000D+01 Coefficients=  6.2351246090D-03
     Exponent=  4.5528498000D+01 Coefficients=  1.8702836000D-02
     Exponent=  2.4596028000D+01 Coefficients=  4.5889543090D-02
     Exponent=  1.3620152000D+01 Coefficients=  9.6575104480D-02
     Exponent=  7.6414860000D+00 Coefficients=  1.6480402200D-01
     Exponent=  4.3073540000D+00 Coefficients=  2.2105302790D-01
     Exponent=  2.4230930000D+00 Coefficients=  2.4301732390D-01
     Exponent=  1.3514360000D+00 Coefficients=  2.2790264890D-01
     Exponent=  7.4129700000D-01 Coefficients=  1.8062990400D-01
     Exponent=  3.9550400000D-01 Coefficients=  1.1203298900D-01
     Exponent=  2.0205200000D-01 Coefficients=  4.4319395790D-02
     Exponent=  9.6703000000D-02 Coefficients=  6.6510809980D-03
 S 11 1.00 0.000000000000
     Exponent=  5.4528161000D+01 Coefficients= -3.2661064380D-05
     Exponent=  2.8168795000D+01 Coefficients=  2.8752254110D-04
     Exponent=  1.4519274000D+01 Coefficients=  2.4661872680D-03
     Exponent=  7.4320400000D+00 Coefficients=  1.9757676730D-03
     Exponent=  3.7609150000D+00 Coefficients= -1.2749875190D-02
     Exponent=  1.8730040000D+00 Coefficients= -5.0557781150D-02
     Exponent=  9.1370600000D-01 Coefficients= -1.2036064580D-01
     Exponent=  4.3441900000D-01 Coefficients= -1.3196236140D-02
     Exponent=  2.0018300000D-01 Coefficients=  3.0022744220D-01
     Exponent=  8.8847000000D-02 Coefficients=  5.6711579430D-01
     Exponent=  3.7709000000D-02 Coefficients=  2.6423720530D-01
 S 1 1.00 0.000000000000
     Exponent=  1.6004690000D-02 Coefficients=  1.0000000000D+00
 P 11 1.00 0.000000000000
     Exponent=  5.0741460000D+01 Coefficients= -6.3326854890D-04
     Exponent=  2.7941651000D+01 Coefficients=  7.8867661710D-04
     Exponent=  1.5539822000D+01 Coefficients= -3.4394535930D-03
     Exponent=  8.6814570000D+00 Coefficients=  8.1179312710D-03
     Exponent=  4.8416490000D+00 Coefficients= -6.3628278120D-03
     Exponent=  2.6736900000D+00 Coefficients=  2.6327812960D-02
     Exponent=  1.4457010000D+00 Coefficients= -3.2000376840D-02
     Exponent=  7.5371100000D-01 Coefficients=  4.5457346960D-02
     Exponent=  3.7109400000D-01 Coefficients=  1.0945410750D-03
     Exponent=  1.6792100000D-01 Coefficients=  4.5070128220D-01
     Exponent=  5.0232974900D-02 Coefficients=  6.3226232190D-01
 S 1 1.00 0.000000000000
     Exponent=  8.1897510000D+00 Coefficients=  1.0000000000D+00
 S 1 1.00 0.000000000000
     Exponent=  3.9742370000D+00 Coefficients=  1.0000000000D+00
 S 1 1.00 0.000000000000
     Exponent=  1.9285760000D+00 Coefficients=  1.0000000000D+00
 S 1 1.00 0.000000000000
     Exponent=  9.3587900000D-01 Coefficients=  1.0000000000D+00
 S 1 1.00 0.000000000000
     Exponent=  4.5415400000D-01 Coefficients=  1.0000000000D+00
 S 1 1.00 0.000000000000
     Exponent=  2.2038700000D-01 Coefficients=  1.0000000000D+00
 P 1 1.00 0.000000000000
     Exponent=  4.4112850000D+00 Coefficients=  1.0000000000D+00
 P 1 1.00 0.000000000000
     Exponent=  2.2071420000D+00 Coefficients=  1.0000000000D+00
 P 1 1.00 0.000000000000
     Exponent=  1.1043220000D+00 Coefficients=  1.0000000000D+00
 P 1 1.00 0.000000000000
     Exponent=  5.5253600000D-01 Coefficients=  1.0000000000D+00
 P 1 1.00 0.000000000000
     Exponent=  2.7645600000D-01 Coefficients=  1.0000000000D+00
 P 1 1.00 0.000000000000
     Exponent=  1.3832200000D-01 Coefficients=  1.0000000000D+00
 P 1 1.00 0.000000000000
     Exponent=  6.9208000000D-02 Coefficients=  1.0000000000D+00
 D 1 1.00 0.000000000000
     Exponent=  8.9154630000D+00 Coefficients=  1.0000000000D+00
 D 1 1.00 0.000000000000
     Exponent=  4.0274500000D+00 Coefficients=  1.0000000000D+00
 D 1 1.00 0.000000000000
     Exponent=  1.8193510000D+00 Coefficients=  1.0000000000D+00
 D 1 1.00 0.000000000000
     Exponent=  8.2186900000D-01 Coefficients=  1.0000000000D+00
 D 1 1.00 0.000000000000
     Exponent=  3.7126900000D-01 Coefficients=  1.0000000000D+00
 D 1 1.00 0.000000000000
     Exponent=  1.6771600000D-01 Coefficients=  1.0000000000D+00
 D 1 1.00 0.000000000000
     Exponent=  7.5763000000D-02 Coefficients=  1.0000000000D+00
 F 1 1.00 0.000000000000
     Exponent=  1.9025832000D+01 Coefficients=  1.0000000000D+00
 F 1 1.00 0.000000000000
     Exponent=  8.3358560000D+00 Coefficients=  1.0000000000D+00
 F 1 1.00 0.000000000000
     Exponent=  3.6522190000D+00 Coefficients=  1.0000000000D+00
 F 1 1.00 0.000000000000
     Exponent=  1.6001600000D+00 Coefficients=  1.0000000000D+00
 F 1 1.00 0.000000000000
     Exponent=  7.0108400000D-01 Coefficients=  1.0000000000D+00
 F 1 1.00 0.000000000000
     Exponent=  3.0716800000D-01 Coefficients=  1.0000000000D+00
 F 1 1.00 0.000000000000
     Exponent=  1.3458000000D-01 Coefficients=  1.0000000000D+00
 G 1 1.00 0.000000000000
     Exponent=  1.4931445000D+01 Coefficients=  1.0000000000D+00
 G 1 1.00 0.000000000000
     Exponent=  6.5411240000D+00 Coefficients=  1.0000000000D+00
 G 1 1.00 0.000000000000
     Exponent=  2.8655170000D+00 Coefficients=  1.0000000000D+00
 G 1 1.00 0.000000000000
     Exponent=  1.2553170000D+00 Coefficients=  1.0000000000D+00
 G 1 1.00 0.000000000000
     Exponent=  5.4992600000D-01 Coefficients=  1.0000000000D+00
 G 1 1.00 0.000000000000
     Exponent=  2.4091000000D-01 Coefficients=  1.0000000000D+00
 H 1 1.00 0.000000000000
     Exponent=  1.2873733000D+01 Coefficients=  1.0000000000D+00
 H 1 1.00 0.000000000000
     Exponent=  5.5056450000D+00 Coefficients=  1.0000000000D+00
 H 1 1.00 0.000000000000
     Exponent=  2.3545710000D+00 Coefficients=  1.0000000000D+00
 H 1 1.00 0.000000000000
     Exponent=  1.0069680000D+00 Coefficients=  1.0000000000D+00
 H 1 1.00 0.000000000000
     Exponent=  4.3064500000D-01 Coefficients=  1.0000000000D+00
 I 1 1.00 0.000000000000
     Exponent=  1.2469555000D+01 Coefficients=  1.0000000000D+00
 I 1 1.00 0.000000000000
     Exponent=  5.0338700000D+00 Coefficients=  1.0000000000D+00
 I 1 1.00 0.000000000000
     Exponent=  2.0321370000D+00 Coefficients=  1.0000000000D+00
 I 1 1.00 0.000000000000
     Exponent=  8.2035900000D-01 Coefficients=  1.0000000000D+00
 J 1 1.00 0.000000000000
     Exponent=  9.8003540000D+00 Coefficients=  1.0000000000D+00
 J 1 1.00 0.000000000000
     Exponent=  3.5786390000D+00 Coefficients=  1.0000000000D+00
 J 1 1.00 0.000000000000
     Exponent=  1.3067540000D+00 Coefficients=  1.0000000000D+00
 K 1 1.00 0.000000000000
     Exponent=  6.9786081700D+00 Coefficients=  1.0000000000D+00
 ****
 AO basis set in the form of general basis input (Overlap normalization):
      1 0
 S  18 1.00       0.000000000000
      0.4348290390D+08  0.6068700320D-06
      0.8397125720D+07  0.3640548657D-05
      0.1944234120D+07  0.2066323099D-04
      0.5259932200D+06  0.9446534484D-04
      0.1624744880D+06  0.3698680059D-03
      0.5613046270D+05  0.1264441161D-02
      0.2129383970D+05  0.3864824827D-02
      0.8727836900D+04  0.1072642041D-01
      0.3810281920D+04  0.2728507461D-01
      0.1749744110D+04  0.6338608487D-01
      0.8360261520D+03  0.1317108755D+00
      0.4116889660D+03  0.2324982021D+00
      0.2072226870D+03  0.3135105105D+00
      0.1058523750D+03  0.2612287021D+00
      0.5452816100D+02  0.9464922366D-01
      0.2816879500D+02  0.8177246300D-02
      0.1451927400D+02  0.6524783734D-03
      0.7432040000D+01 -0.2220070691D-03
 S  15 1.00       0.000000000000
      0.2129383970D+05 -0.5215444056D-05
      0.8727836900D+04 -0.3126238978D-04
      0.3810281920D+04 -0.2131134852D-03
      0.1749744110D+04 -0.1057229994D-02
      0.8360261520D+03 -0.4833446142D-02
      0.4116889660D+03 -0.1778541959D-01
      0.2072226870D+03 -0.5241885199D-01
      0.1058523750D+03 -0.9048281142D-01
      0.5452816100D+02 -0.1324582194D-01
      0.2816879500D+02  0.3085403402D+00
      0.1451927400D+02  0.5330396427D+00
      0.7432040000D+01  0.2535963206D+00
      0.3760915000D+01  0.2566673151D-01
      0.1873004000D+01  0.3636924347D-02
      0.9137060000D+00 -0.3296552818D-03
 P  17 1.00       0.000000000000
      0.1205765420D+06  0.2293510811D-05
      0.3097786750D+05  0.1922027743D-04
      0.9816265580D+04  0.1230859356D-03
      0.3652265700D+04  0.5951177128D-03
      0.1533198640D+04  0.2349701974D-02
      0.7036302740D+03  0.7862473788D-02
      0.3445004480D+03  0.2288440974D-01
      0.1766567880D+03  0.5832131139D-01
      0.9360023500D+02  0.1273430840D+00
      0.5074146000D+02  0.2256884833D+00
      0.2794165100D+02  0.3071231444D+00
      0.1553982200D+02  0.2761271989D+00
      0.8681457000D+01  0.1313311023D+00
      0.4841649000D+01  0.2689422366D-01
      0.2673690000D+01  0.2014248842D-02
      0.1445701000D+01 -0.1213868403D-04
      0.7537110000D+00 -0.1179201928D-03
 S  14 1.00       0.000000000000
      0.4116889660D+03  0.1206874498D-03
      0.2072226870D+03  0.5986008138D-03
      0.1058523750D+03  0.2852385055D-02
      0.5452816100D+02  0.1901519570D-02
      0.2816879500D+02 -0.3288674424D-01
      0.1451927400D+02 -0.1783798503D+00
      0.7432040000D+01 -0.1271878233D+00
      0.3760915000D+01  0.3371054254D+00
      0.1873004000D+01  0.5877669332D+00
      0.9137060000D+00  0.2816399063D+00
      0.4344190000D+00  0.1987598505D-01
      0.2001830000D+00  0.2336990164D-02
      0.8884700000D-01 -0.8827365913D-03
      0.3770900000D-01  0.2342353113D-03
 P  16 1.00       0.000000000000
      0.3652265700D+04 -0.2643755935D-06
      0.1533198640D+04 -0.3640024612D-05
      0.7036302740D+03 -0.2690480156D-04
      0.3445004480D+03 -0.1696241872D-03
      0.1766567880D+03 -0.8401797537D-03
      0.9360023500D+02 -0.3327007144D-02
      0.5074146000D+02 -0.9209714749D-02
      0.2794165100D+02 -0.1902717366D-01
      0.1553982200D+02 -0.1202419335D-01
      0.8681457000D+01  0.8162665479D-01
      0.4841649000D+01  0.2498940119D+00
      0.2673690000D+01  0.3563758557D+00
      0.1445701000D+01  0.3031611213D+00
      0.7537110000D+00  0.1295046444D+00
      0.3710940000D+00  0.1747016048D-01
      0.1679210000D+00  0.1605027336D-02
 D  16 1.00       0.000000000000
      0.3298968450D+04  0.5105021649D-05
      0.1057206500D+04  0.5006552859D-04
      0.4083774570D+03  0.3372221579D-03
      0.1806001790D+03  0.1637084290D-02
      0.8781934500D+02  0.6235124609D-02
      0.4552849800D+02  0.1870283600D-01
      0.2459602800D+02  0.4588954309D-01
      0.1362015200D+02  0.9657510448D-01
      0.7641486000D+01  0.1648040220D+00
      0.4307354000D+01  0.2210530279D+00
      0.2423093000D+01  0.2430173239D+00
      0.1351436000D+01  0.2279026489D+00
      0.7412970000D+00  0.1806299040D+00
      0.3955040000D+00  0.1120329890D+00
      0.2020520000D+00  0.4431939579D-01
      0.9670300000D-01  0.6651080998D-02
 S  11 1.00       0.000000000000
      0.5452816100D+02 -0.3266106438D-04
      0.2816879500D+02  0.2875225411D-03
      0.1451927400D+02  0.2466187268D-02
      0.7432040000D+01  0.1975767673D-02
      0.3760915000D+01 -0.1274987519D-01
      0.1873004000D+01 -0.5055778115D-01
      0.9137060000D+00 -0.1203606458D+00
      0.4344190000D+00 -0.1319623614D-01
      0.2001830000D+00  0.3002274422D+00
      0.8884700000D-01  0.5671157943D+00
      0.3770900000D-01  0.2642372053D+00
 S   1 1.00       0.000000000000
      0.1600469000D-01  0.1000000000D+01
 P  11 1.00       0.000000000000
      0.5074146000D+02 -0.6332685489D-03
      0.2794165100D+02  0.7886766171D-03
      0.1553982200D+02 -0.3439453593D-02
      0.8681457000D+01  0.8117931271D-02
      0.4841649000D+01 -0.6362827812D-02
      0.2673690000D+01  0.2632781296D-01
      0.1445701000D+01 -0.3200037684D-01
      0.7537110000D+00  0.4545734696D-01
      0.3710940000D+00  0.1094541075D-02
      0.1679210000D+00  0.4507012822D+00
      0.5023297490D-01  0.6322623219D+00
 S   1 1.00       0.000000000000
      0.8189751000D+01  0.1000000000D+01
 S   1 1.00       0.000000000000
      0.3974237000D+01  0.1000000000D+01
 S   1 1.00       0.000000000000
      0.1928576000D+01  0.1000000000D+01
 S   1 1.00       0.000000000000
      0.9358790000D+00  0.1000000000D+01
 S   1 1.00       0.000000000000
      0.4541540000D+00  0.1000000000D+01
 S   1 1.00       0.000000000000
      0.2203870000D+00  0.1000000000D+01
 P   1 1.00       0.000000000000
      0.4411285000D+01  0.1000000000D+01
 P   1 1.00       0.000000000000
      0.2207142000D+01  0.1000000000D+01
 P   1 1.00       0.000000000000
      0.1104322000D+01  0.1000000000D+01
 P   1 1.00       0.000000000000
      0.5525360000D+00  0.1000000000D+01
 P   1 1.00       0.000000000000
      0.2764560000D+00  0.1000000000D+01
 P   1 1.00       0.000000000000
      0.1383220000D+00  0.1000000000D+01
 P   1 1.00       0.000000000000
      0.6920800000D-01  0.1000000000D+01
 D   1 1.00       0.000000000000
      0.8915463000D+01  0.1000000000D+01
 D   1 1.00       0.000000000000
      0.4027450000D+01  0.1000000000D+01
 D   1 1.00       0.000000000000
      0.1819351000D+01  0.1000000000D+01
 D   1 1.00       0.000000000000
      0.8218690000D+00  0.1000000000D+01
 D   1 1.00       0.000000000000
      0.3712690000D+00  0.1000000000D+01
 D   1 1.00       0.000000000000
      0.1677160000D+00  0.1000000000D+01
 D   1 1.00       0.000000000000
      0.7576300000D-01  0.1000000000D+01
 F   1 1.00       0.000000000000
      0.1902583200D+02  0.1000000000D+01
 F   1 1.00       0.000000000000
      0.8335856000D+01  0.1000000000D+01
 F   1 1.00       0.000000000000
      0.3652219000D+01  0.1000000000D+01
 F   1 1.00       0.000000000000
      0.1600160000D+01  0.1000000000D+01
 F   1 1.00       0.000000000000
      0.7010840000D+00  0.1000000000D+01
 F   1 1.00       0.000000000000
      0.3071680000D+00  0.1000000000D+01
 F   1 1.00       0.000000000000
      0.1345800000D+00  0.1000000000D+01
 G   1 1.00       0.000000000000
      0.1493144500D+02  0.1000000000D+01
 G   1 1.00       0.000000000000
      0.6541124000D+01  0.1000000000D+01
 G   1 1.00       0.000000000000
      0.2865517000D+01  0.1000000000D+01
 G   1 1.00       0.000000000000
      0.1255317000D+01  0.1000000000D+01
 G   1 1.00       0.000000000000
      0.5499260000D+00  0.1000000000D+01
 G   1 1.00       0.000000000000
      0.2409100000D+00  0.1000000000D+01
 H   1 1.00       0.000000000000
      0.1287373300D+02  0.1000000000D+01
 H   1 1.00       0.000000000000
      0.5505645000D+01  0.1000000000D+01
 H   1 1.00       0.000000000000
      0.2354571000D+01  0.1000000000D+01
 H   1 1.00       0.000000000000
      0.1006968000D+01  0.1000000000D+01
 H   1 1.00       0.000000000000
      0.4306450000D+00  0.1000000000D+01
 I   1 1.00       0.000000000000
      0.1246955500D+02  0.1000000000D+01
 I   1 1.00       0.000000000000
      0.5033870000D+01  0.1000000000D+01
 I   1 1.00       0.000000000000
      0.2032137000D+01  0.1000000000D+01
 I   1 1.00       0.000000000000
      0.8203590000D+00  0.1000000000D+01
 J   1 1.00       0.000000000000
      0.9800354000D+01  0.1000000000D+01
 J   1 1.00       0.000000000000
      0.3578639000D+01  0.1000000000D+01
 J   1 1.00       0.000000000000
      0.1306754000D+01  0.1000000000D+01
 K   1 1.00       0.000000000000
      0.6978608170D+01  0.1000000000D+01
 ****
      2 0
 S  16 1.00       0.000000000000
      0.1411246410D+07  0.1627429822D-05
      0.2499102240D+06  0.1092621996D-04
      0.5603410580D+05  0.6238741867D-04
      0.1521153640D+05  0.2783303491D-03
      0.4812287750D+04  0.1040541872D-02
      0.1717755460D+04  0.3380392793D-02
      0.6733958240D+03  0.9828484765D-02
      0.2835101840D+03  0.2605310129D-01
      0.1258620070D+03  0.6280818057D-01
      0.5804472200D+02  0.1348202075D+00
      0.2747198500D+02  0.2435563460D+00
      0.1321062900D+02  0.3323287378D+00
      0.6399806000D+01  0.2607930483D+00
      0.3099614000D+01  0.7430834326D-01
      0.1489856000D+01  0.4189538074D-02
      0.7052010000D+00  0.8706455725D-03
 S  11 1.00       0.000000000000
      0.2835101840D+03 -0.1122588094D-03
      0.1258620070D+03 -0.5559335617D-03
      0.5804472200D+02 -0.2851687904D-02
      0.2747198500D+02 -0.1133494995D-01
      0.1321062900D+02 -0.3657977704D-01
      0.6399806000D+01 -0.7288994197D-01
      0.3099614000D+01 -0.1062032356D-01
      0.1489856000D+01  0.2196705572D+00
      0.7052010000D+00  0.4294832072D+00
      0.3258480000D+00  0.3775832849D+00
      0.1454600000D+00  0.9640261255D-01
 S   1 1.00       0.000000000000
      0.5814297870D-01  0.1000000000D+01
 P  13 1.00       0.000000000000
      0.2085279200D+04  0.1447911740D-04
      0.5101470830D+03  0.1283233588D-03
      0.1616811510D+03  0.7792790007D-03
      0.6114945200D+02  0.3400506049D-02
      0.2597660200D+02  0.1157685214D-01
      0.1187542600D+02  0.3269740339D-01
      0.5677133000D+01  0.8011404242D-01
      0.2786475000D+01  0.1605265057D+00
      0.1387844000D+01  0.2460495026D+00
      0.6952810000D+00  0.2898982926D+00
      0.3470020000D+00  0.2606799382D+00
      0.1700990000D+00  0.1479363112D+00
      0.8008000000D-01  0.2980261453D-01
 P   1 1.00       0.000000000000
      0.4261436033D-01  0.1000000000D+01
 S   1 1.00       0.000000000000
      0.4249866000D+01  0.1000000000D+01
 S   1 1.00       0.000000000000
      0.2167470000D+01  0.1000000000D+01
 S   1 1.00       0.000000000000
      0.1105429000D+01  0.1000000000D+01
 S   1 1.00       0.000000000000
      0.5637790000D+00  0.1000000000D+01
 S   1 1.00       0.000000000000
      0.2875320000D+00  0.1000000000D+01
 S   1 1.00       0.000000000000
      0.1466440000D+00  0.1000000000D+01
 P   1 1.00       0.000000000000
      0.5659724000D+01  0.1000000000D+01
 P   1 1.00       0.000000000000
      0.2575878000D+01  0.1000000000D+01
 P   1 1.00       0.000000000000
      0.1172344000D+01  0.1000000000D+01
 P   1 1.00       0.000000000000
      0.5335620000D+00  0.1000000000D+01
 P   1 1.00       0.000000000000
      0.2428370000D+00  0.1000000000D+01
 P   1 1.00       0.000000000000
      0.1105210000D+00  0.1000000000D+01
 D   1 1.00       0.000000000000
      0.9464211000D+01  0.1000000000D+01
 D   1 1.00       0.000000000000
      0.4752286000D+01  0.1000000000D+01
 D   1 1.00       0.000000000000
      0.2386276000D+01  0.1000000000D+01
 D   1 1.00       0.000000000000
      0.1198226000D+01  0.1000000000D+01
 D   1 1.00       0.000000000000
      0.6016680000D+00  0.1000000000D+01
 D   1 1.00       0.000000000000
      0.3021170000D+00  0.1000000000D+01
 D   1 1.00       0.000000000000
      0.1517020000D+00  0.1000000000D+01
 F   1 1.00       0.000000000000
      0.7001836000D+01  0.1000000000D+01
 F   1 1.00       0.000000000000
      0.3552509000D+01  0.1000000000D+01
 F   1 1.00       0.000000000000
      0.1802430000D+01  0.1000000000D+01
 F   1 1.00       0.000000000000
      0.9144960000D+00  0.1000000000D+01
 F   1 1.00       0.000000000000
      0.4639860000D+00  0.1000000000D+01
 F   1 1.00       0.000000000000
      0.2354110000D+00  0.1000000000D+01
 G   1 1.00       0.000000000000
      0.6472481000D+01  0.1000000000D+01
 G   1 1.00       0.000000000000
      0.3119071000D+01  0.1000000000D+01
 G   1 1.00       0.000000000000
      0.1503072000D+01  0.1000000000D+01
 G   1 1.00       0.000000000000
      0.7243260000D+00  0.1000000000D+01
 G   1 1.00       0.000000000000
      0.3490500000D+00  0.1000000000D+01
 H   1 1.00       0.000000000000
      0.5355083000D+01  0.1000000000D+01
 H   1 1.00       0.000000000000
      0.2414696000D+01  0.1000000000D+01
 H   1 1.00       0.000000000000
      0.1088827000D+01  0.1000000000D+01
 H   1 1.00       0.000000000000
      0.4909703000D+00  0.1000000000D+01
 I   1 1.00       0.000000000000
      0.4322113000D+01  0.1000000000D+01
 I   1 1.00       0.000000000000
      0.1716263000D+01  0.1000000000D+01
 I   1 1.00       0.000000000000
      0.6815089000D+00  0.1000000000D+01
 J   1 1.00       0.000000000000
      0.3060973723D+01  0.1000000000D+01
 ****

 There are   203 symmetry adapted basis functions of A1  symmetry.
 There are   105 symmetry adapted basis functions of A2  symmetry.
 There are   149 symmetry adapted basis functions of B1  symmetry.
 There are   149 symmetry adapted basis functions of B2  symmetry.
 Integral buffers will be    131072 words long.
 Raffenetti 2 integral format.
 Two-electron integral symmetry is turned on.
   606 basis functions,  1361 primitive gaussians,  1033 cartesian basis functions
    19 alpha electrons       18 beta electrons
       nuclear repulsion energy        70.5961812460 Hartrees.
 IExCor=    0 DFT=F Ex=HF Corr=None ExCW=0 ScaHFX=  1.000000
 ScaDFX=  1.000000  1.000000  1.000000  1.000000 ScalE2=  1.000000  1.000000
 IRadAn=      5 IRanWt=     -1 IRanGd=            0 ICorTp=0
 NAtoms=    2 NActive=    2 NUniq=    2 SFac= 7.50D-01 NAtFMM=   80 NAOKFM=F Big=F
 Leave Link  301 at Thu Jul 25 12:56:05 2013, MaxMem=17179869184 cpu:      11.2
 (Enter /share/apps/gaussian/g09root/g09/l302.exe)
 NPDir=0 NMtPBC=     1 NCelOv=     1 NCel=       1 NClECP=     1 NCelD=      1
         NCelK=      1 NCelE2=     1 NClLst=     1 CellRange=     0.0.
 One-electron integrals computed using PRISM.
 NBasis=   606 RedAO= F  NBF=   203   105   149   149
 NBsUse=   606 1.00D-04 NBFU=   203   105   149   149
 Leave Link  302 at Thu Jul 25 12:56:06 2013, MaxMem=17179869184 cpu:      12.5
 (Enter /share/apps/gaussian/g09root/g09/l303.exe)
 DipDrv:  MaxL=1.
 Leave Link  303 at Thu Jul 25 12:56:06 2013, MaxMem=17179869184 cpu:       4.2
 (Enter /share/apps/gaussian/g09root/g09/l401.exe)
 Initial guess read from the checkpoint file:  ZnO+.chk
 B after Tr=     0.000000    0.000000    0.000000
         Rot=    1.000000    0.000000    0.000000    0.000000 Ang=   0.00 deg.
 Guess basis will be translated and rotated to current coordinates.
 Initial guess orbital symmetries:
       Occupied  (SG) (SG) (PI) (PI) (SG) (SG) (SG) (PI) (PI) (SG)
                 (SG) (DLTA) (DLTA) (PI) (PI) (SG) (SG) (PI) (PI)
       Virtual   (SG) (PI) (PI) (SG) (SG) (PI) (PI) (?A) (?A) (?A)
                 (PI) (PI) (SG) (SG) (PI) (PI) (SG) (?B) (?B) (?B)
                 (?C) (?C) (?C) (?C) (?C) (?C) (SG) (SG) (?D) (?D)
                 (PI) (PI) (PI) (?D) (PI) (?D) (?D) (?D) (SG) (PI)
                 (PI) (SG) (PHI) (PHI) (?E) (?E) (?E) (?F) (?E)
                 (?E) (?F) (?F) (?F) (?G) (?G) (?E) (?H) (?H) (?E)
                 (?H) (?H) (PI) (DLTA) (DLTA) (PI) (PHI) (PHI)
                 (SG) (PI) (PI) (SG) (DLTA) (DLTA) (DLTA) (DLTA)
                 (PI) (PI) (SG) (SG) (?G) (?G) (?H) (?H) (?H) (?H)
                 (SG) (?H) (?H) (?I) (?I) (?I) (?H) (?H) (?J) (?J)
                 (?J) (PI) (PI) (?K) (?K) (?G) (?G) (?L) (?L) (?H)
                 (?H) (?L) (?H) (?H) (SG) (?L) (?L) (?L) (?L) (?L)
                 (?L) (?L) (?L) (?L) (?H) (?H) (?H) (?H) (?L) (?L)
                 (?L) (?G) (?G) (?H) (?H) (?H) (?H) (SG) (DLTA)
                 (DLTA) (?L) (?L) (?L) (?L) (?L) (?L) (SG) (DLTA)
                 (DLTA) (SG) (PI) (PI) (SG) (DLTA) (DLTA) (?G)
                 (?G) (?L) (?L) (?L) (?L) (?L) (?L) (?L) (?L) (?L)
                 (?L) (?L) (?L) (?L) (?L) (SG) (?L) (PI) (?L) (?L)
                 (PI) (PI) (PI) (SG) (SG) (?K) (?K) (?G) (?G) (PHI)
                 (PHI) (SG) (?L) (?L) (?L) (PI) (PI) (SG) (?K)
                 (?K) (?G) (?G) (?H) (?H) (?H) (?H) (DLTA) (DLTA)
                 (PHI) (PHI) (SG) (DLTA) (DLTA) (?G) (?G) (PI)
                 (PI) (?L) (?L) (?L) (?L) (?L) (?L) (?L) (?H) (?H)
                 (?L) (?L) (?H) (?H) (?L) (?L) (?L) (?F) (?F) (?L)
                 (?F) (?F) (PI) (PI) (SG) (?L) (PHI) (PHI) (?L)
                 (?L) (?L) (?L) (?L) (?L) (?L) (?L) (?L) (?L) (?L)
                 (?L) (?L) (?L) (DLTA) (DLTA) (PI) (PI) (SG) (?L)
                 (?L) (PI) (PI) (?L) (SG) (?L) (?L) (?L) (?L) (?L)
                 (?L) (?L) (?L) (?L) (?L) (?L) (?L) (?L) (SG) (SG)
                 (?K) (?K) (?G) (?G) (PHI) (PHI) (PHI) (PHI) (DLTA)
                 (DLTA) (DLTA) (DLTA) (PI) (PI) (SG) (PI) (PI)
                 (SG) (?K) (?K) (?G) (?G) (PHI) (PHI) (DLTA) (DLTA)
                 (PI) (?G) (?G) (PI) (PHI) (PHI) (SG) (DLTA) (DLTA)
                 (PI) (PI) (SG) (?L) (?L) (?L) (?L) (?L) (?L) (?L)
                 (?L) (?L) (?L) (?L) (SG) (?H) (?H) (?L) (?L) (?H)
                 (?H) (?L) (?L) (?L) (?H) (?H) (?L) (?L) (?L) (?H)
                 (?H) (PI) (PI) (PI) (PI) (SG) (SG) (DLTA) (DLTA)
                 (?L) (?L) (?F) (?F) (?F) (?F) (?L) (SG) (?L) (?L)
                 (?L) (?L) (?L) (?L) (?L) (?L) (?L) (?L) (?L) (?L)
                 (?L) (?L) (?L) (PHI) (PHI) (DLTA) (DLTA) (PI)
                 (PI) (SG) (?G) (?G) (PHI) (PHI) (DLTA) (DLTA)
                 (SG) (PI) (PI) (SG) (SG) (?K) (?K) (?G) (?G) (PHI)
                 (PHI) (DLTA) (DLTA) (PI) (PI) (SG) (?K) (?K) (?G)
                 (?G) (PHI) (PHI) (DLTA) (DLTA) (PI) (PI) (SG)
                 (SG) (SG) (SG) (PI) (PI) (SG) (SG) (PI) (PI) (DLTA)
                 (DLTA) (SG) (SG) (SG) (SG) (SG) (PI) (PI) (PI)
                 (PI) (SG) (PI) (PI) (PI) (PI) (DLTA) (DLTA) (SG)
                 (DLTA) (DLTA) (PI) (PI) (DLTA) (DLTA) (PHI) (PHI)
                 (SG) (DLTA) (DLTA) (SG) (PI) (PI) (PHI) (PHI)
                 (SG) (DLTA) (DLTA) (PHI) (PHI) (?G) (?G) (PI)
                 (PI) (PI) (PI) (DLTA) (DLTA) (PHI) (PHI) (?G)
                 (?G) (?K) (?K) (SG) (DLTA) (DLTA) (?G) (?G) (SG)
                 (PI) (PI) (DLTA) (DLTA) (PHI) (PHI) (?G) (?G)
                 (?K) (?K) (SG) (SG) (SG) (PI) (PI) (DLTA) (DLTA)
                 (PHI) (PHI) (?G) (?G) (?K) (?K) (SG) (SG) (?L)
                 (?L) (SG) (PI) (PI) (DLTA) (DLTA) (PHI) (PHI)
                 (?G) (?G) (?K) (?K) (SG) (SG) (?L) (?L) (SG) (PI)
                 (PI) (DLTA) (DLTA) (PHI) (PHI) (?G) (?G) (?K)
                 (?K) (SG) (SG) (?L) (?L) (?L) (?L) (PI) (PI) (DLTA)
                 (DLTA) (PI) (PI) (DLTA) (DLTA) (PHI) (PHI) (PHI)
                 (PHI) (?G) (?G) (PHI) (PHI) (?G) (?G) (?K) (?K)
                 (SG) (PI) (PI) (DLTA) (DLTA) (PHI) (PHI) (?G)
                 (?G) (?K) (?K) (SG) (SG) (?K) (?K) (SG) (SG) (PHI)
                 (PHI) (?G) (?G) (?K) (?K) (SG) (SG) (?L) (?L)
 Leave Link  401 at Thu Jul 25 12:56:17 2013, MaxMem=17179869184 cpu:     177.1
 (Enter /share/apps/gaussian/g09root/g09/l502.exe)
 Restricted open shell SCF:
 Requested convergence on RMS density matrix=1.00D-10 within 512 cycles.
 Requested convergence on MAX density matrix=1.00D-08.
 Requested convergence on             energy=1.00D-08.
 No special actions if energy rises.
 Using DIIS extrapolation, IDIIS=  1040.
 Integral symmetry usage will be decided dynamically.
 IEnd=     3490821 IEndB=     3490821 NGot= 17179869184 MDV= 17177709654
 LenX= 17177709654 LenY= 17176641532
 Fock matrices will be formed incrementally for  20 cycles.

 Cycle   1  Pass 1  IDiag  1:
 FoFCou: FMM=F IPFlag=           0 FMFlag=      100000 FMFlg1=           0
         NFxFlg=           0 DoJE=F BraDBF=F KetDBF=F FulRan=T
         Omega=  0.000000  0.000000  1.000000  0.000000  0.000000 ICntrl=       0 IOpCl=  1
         NMat0=    1 NMatS0=    1 NMatT0=    0 NMatD0=    1 NMtDS0=    0 NMtDT0=    0
         I1Cent=           0 NGrid=           0.
 Petite list used in FoFCou.
 E= -1852.37285394749    
 DIIS: error= 1.49D-03 at cycle   1 NSaved=   1.
 NSaved= 1 IEnMin= 1 EnMin= -1852.37285394749     IErMin= 1 ErrMin= 1.49D-03
 ErrMax= 1.49D-03 EMaxC= 1.00D-01 BMatC= 2.08D-04 BMatP= 2.08D-04
 IDIUse=3 WtCom= 9.85D-01 WtEn= 1.49D-02
 Coeff-Com:  0.100D+01
 Coeff-En:   0.100D+01
 Coeff:      0.100D+01
 Gap=    -0.009 Goal=   None    Shift=    0.000
 GapD=   -0.009 DampG=0.250 DampE=1.000 DampFc=0.2500 IDamp=-1.
 Damping current iteration by 2.50D-01
 RMSDP=4.17D-04 MaxDP=7.31D-02              OVMax= 1.89D-03

 Cycle   2  Pass 1  IDiag  1:
 RMSU=  7.40D-05    CP:  1.00D+00
 E= -1852.37285902635     Delta-E=       -0.000005078854 Rises=F Damp=T
 DIIS: error= 1.12D-03 at cycle   2 NSaved=   2.
 NSaved= 2 IEnMin= 2 EnMin= -1852.37285902635     IErMin= 2 ErrMin= 1.12D-03
 ErrMax= 1.12D-03 EMaxC= 1.00D-01 BMatC= 1.18D-04 BMatP= 2.08D-04
 IDIUse=3 WtCom= 9.89D-01 WtEn= 1.12D-02
 Coeff-Com: -0.302D+01 0.402D+01
 Coeff-En:   0.000D+00 0.100D+01
 Coeff:     -0.299D+01 0.399D+01
 Gap=    -0.009 Goal=   None    Shift=    0.000
 RMSDP=3.40D-04 MaxDP=5.88D-02 DE=-5.08D-06 OVMax= 1.44D-03

 Cycle   3  Pass 1  IDiag  1:
 RMSU=  9.93D-05    CP:  9.99D-01  3.00D+00
 E= -1852.37287411221     Delta-E=       -0.000015085863 Rises=F Damp=F
 DIIS: error= 1.63D-04 at cycle   3 NSaved=   3.
 NSaved= 3 IEnMin= 3 EnMin= -1852.37287411221     IErMin= 3 ErrMin= 1.63D-04
 ErrMax= 1.63D-04 EMaxC= 1.00D-01 BMatC= 1.19D-06 BMatP= 1.18D-04
 IDIUse=3 WtCom= 9.98D-01 WtEn= 1.63D-03
 Coeff-Com: -0.175D+01 0.233D+01 0.425D+00
 Coeff-En:   0.000D+00 0.000D+00 0.100D+01
 Coeff:     -0.175D+01 0.233D+01 0.426D+00
 Gap=    -0.009 Goal=   None    Shift=    0.000
 RMSDP=2.58D-05 MaxDP=8.41D-03 DE=-1.51D-05 OVMax= 1.29D-03

 Cycle   4  Pass 1  IDiag  1:
 RMSU=  2.51D-05    CP:  9.99D-01  3.00D+00  9.73D-01
 E= -1852.37287533283     Delta-E=       -0.000001220626 Rises=F Damp=F
 DIIS: error= 3.64D-05 at cycle   4 NSaved=   4.
 NSaved= 4 IEnMin= 4 EnMin= -1852.37287533283     IErMin= 4 ErrMin= 3.64D-05
 ErrMax= 3.64D-05 EMaxC= 1.00D-01 BMatC= 1.14D-07 BMatP= 1.19D-06
 IDIUse=1 WtCom= 1.00D+00 WtEn= 0.00D+00
 Coeff-Com: -0.106D+01 0.141D+01 0.144D+00 0.510D+00
 Coeff:     -0.106D+01 0.141D+01 0.144D+00 0.510D+00
 Gap=    -0.009 Goal=   None    Shift=    0.000
 RMSDP=5.13D-06 MaxDP=1.18D-03 DE=-1.22D-06 OVMax= 5.02D-04

 Cycle   5  Pass 1  IDiag  1:
 RMSU=  2.57D-06    CP:  9.99D-01  3.00D+00  9.76D-01  1.17D+00
 E= -1852.37287534657     Delta-E=       -0.000000013732 Rises=F Damp=F
 DIIS: error= 3.20D-05 at cycle   5 NSaved=   5.
 NSaved= 5 IEnMin= 5 EnMin= -1852.37287534657     IErMin= 5 ErrMin= 3.20D-05
 ErrMax= 3.20D-05 EMaxC= 1.00D-01 BMatC= 6.29D-08 BMatP= 1.14D-07
 IDIUse=1 WtCom= 1.00D+00 WtEn= 0.00D+00
 Coeff-Com: -0.533D+00 0.707D+00-0.564D-01 0.268D+00 0.615D+00
 Coeff:     -0.533D+00 0.707D+00-0.564D-01 0.268D+00 0.615D+00
 Gap=    -0.009 Goal=   None    Shift=    0.000
 RMSDP=3.68D-06 MaxDP=8.65D-04 DE=-1.37D-08 OVMax= 4.29D-04

 Cycle   6  Pass 1  IDiag  1:
 RMSU=  1.58D-06    CP:  9.99D-01  3.00D+00  9.80D-01  1.30D+00  7.03D-01
 E= -1852.37287538570     Delta-E=       -0.000000039139 Rises=F Damp=F
 DIIS: error= 1.41D-05 at cycle   6 NSaved=   6.
 NSaved= 6 IEnMin= 6 EnMin= -1852.37287538570     IErMin= 6 ErrMin= 1.41D-05
 ErrMax= 1.41D-05 EMaxC= 1.00D-01 BMatC= 2.45D-08 BMatP= 6.29D-08
 IDIUse=1 WtCom= 1.00D+00 WtEn= 0.00D+00
 Coeff-Com: -0.481D-01 0.635D-01-0.152D+00-0.102D+00 0.549D+00 0.691D+00
 Coeff:     -0.481D-01 0.635D-01-0.152D+00-0.102D+00 0.549D+00 0.691D+00
 Gap=    -0.009 Goal=   None    Shift=    0.000
 RMSDP=4.34D-06 MaxDP=1.17D-03 DE=-3.91D-08 OVMax= 2.47D-04

 Cycle   7  Pass 1  IDiag  1:
 RMSU=  3.66D-07    CP:  9.99D-01  3.00D+00  9.81D-01  1.46D+00  1.15D+00
                    CP:  8.79D-01
 E= -1852.37287541653     Delta-E=       -0.000000030829 Rises=F Damp=F
 DIIS: error= 2.71D-06 at cycle   7 NSaved=   7.
 NSaved= 7 IEnMin= 7 EnMin= -1852.37287541653     IErMin= 7 ErrMin= 2.71D-06
 ErrMax= 2.71D-06 EMaxC= 1.00D-01 BMatC= 6.10D-10 BMatP= 2.45D-08
 IDIUse=1 WtCom= 1.00D+00 WtEn= 0.00D+00
 Coeff-Com:  0.118D-01-0.157D-01-0.525D-01-0.747D-01 0.137D+00 0.290D+00
 Coeff-Com:  0.704D+00
 Coeff:      0.118D-01-0.157D-01-0.525D-01-0.747D-01 0.137D+00 0.290D+00
 Coeff:      0.704D+00
 Gap=    -0.009 Goal=   None    Shift=    0.000
 RMSDP=6.43D-07 MaxDP=1.87D-04 DE=-3.08D-08 OVMax= 4.12D-05

 Cycle   8  Pass 1  IDiag  1:
 RMSU=  7.84D-08    CP:  9.99D-01  3.00D+00  9.82D-01  1.48D+00  1.15D+00
                    CP:  9.63D-01  1.03D+00
 E= -1852.37287541731     Delta-E=       -0.000000000776 Rises=F Damp=F
 DIIS: error= 5.41D-07 at cycle   8 NSaved=   8.
 NSaved= 8 IEnMin= 8 EnMin= -1852.37287541731     IErMin= 8 ErrMin= 5.41D-07
 ErrMax= 5.41D-07 EMaxC= 1.00D-01 BMatC= 2.99D-11 BMatP= 6.10D-10
 IDIUse=1 WtCom= 1.00D+00 WtEn= 0.00D+00
 Coeff-Com:  0.473D-02-0.628D-02-0.881D-02-0.200D-01 0.275D-01 0.561D-01
 Coeff-Com:  0.221D+00 0.725D+00
 Coeff:      0.473D-02-0.628D-02-0.881D-02-0.200D-01 0.275D-01 0.561D-01
 Coeff:      0.221D+00 0.725D+00
 Gap=    -0.009 Goal=   None    Shift=    0.000
 RMSDP=5.21D-08 MaxDP=1.76D-05 DE=-7.76D-10 OVMax= 7.58D-06

 Cycle   9  Pass 1  IDiag  1:
 RMSU=  1.32D-08    CP:  9.99D-01  3.00D+00  9.82D-01  1.48D+00  1.16D+00
                    CP:  9.56D-01  1.07D+00  1.06D+00
 E= -1852.37287541735     Delta-E=       -0.000000000036 Rises=F Damp=F
 DIIS: error= 1.19D-07 at cycle   9 NSaved=   9.
 NSaved= 9 IEnMin= 9 EnMin= -1852.37287541735     IErMin= 9 ErrMin= 1.19D-07
 ErrMax= 1.19D-07 EMaxC= 1.00D-01 BMatC= 3.61D-12 BMatP= 2.99D-11
 IDIUse=1 WtCom= 1.00D+00 WtEn= 0.00D+00
 Coeff-Com:  0.489D-03-0.644D-03 0.315D-02 0.479D-02-0.508D-02-0.167D-01
 Coeff-Com: -0.407D-01 0.107D+00 0.947D+00
 Coeff:      0.489D-03-0.644D-03 0.315D-02 0.479D-02-0.508D-02-0.167D-01
 Coeff:     -0.407D-01 0.107D+00 0.947D+00
 Gap=    -0.009 Goal=   None    Shift=    0.000
 RMSDP=4.19D-08 MaxDP=1.17D-05 DE=-3.59D-11 OVMax= 1.79D-06

 Cycle  10  Pass 1  IDiag  1:
 RMSU=  5.95D-09    CP:  9.99D-01  3.00D+00  9.82D-01  1.48D+00  1.16D+00
                    CP:  9.62D-01  1.08D+00  1.10D+00  1.17D+00
 E= -1852.37287541736     Delta-E=       -0.000000000010 Rises=F Damp=F
 DIIS: error= 6.15D-08 at cycle  10 NSaved=  10.
 NSaved=10 IEnMin=10 EnMin= -1852.37287541736     IErMin=10 ErrMin= 6.15D-08
 ErrMax= 6.15D-08 EMaxC= 1.00D-01 BMatC= 1.23D-12 BMatP= 3.61D-12
 IDIUse=1 WtCom= 1.00D+00 WtEn= 0.00D+00
 Coeff-Com: -0.178D-02 0.236D-02 0.559D-02 0.115D-01-0.145D-01-0.340D-01
 Coeff-Com: -0.124D+00-0.240D+00 0.427D+00 0.967D+00
 Coeff:     -0.178D-02 0.236D-02 0.559D-02 0.115D-01-0.145D-01-0.340D-01
 Coeff:     -0.124D+00-0.240D+00 0.427D+00 0.967D+00
 Gap=    -0.009 Goal=   None    Shift=    0.000
 RMSDP=1.98D-08 MaxDP=6.18D-06 DE=-1.00D-11 OVMax= 1.52D-06

 Cycle  11  Pass 1  IDiag  1:
 RMSU=  5.40D-09    CP:  9.99D-01  3.00D+00  9.82D-01  1.48D+00  1.16D+00
                    CP:  9.56D-01  1.09D+00  1.15D+00  1.27D+00  8.41D-01
 E= -1852.37287541736     Delta-E=       -0.000000000007 Rises=F Damp=F
 DIIS: error= 5.26D-08 at cycle  11 NSaved=  11.
 NSaved=11 IEnMin=11 EnMin= -1852.37287541736     IErMin=11 ErrMin= 5.26D-08
 ErrMax= 5.26D-08 EMaxC= 1.00D-01 BMatC= 2.70D-13 BMatP= 1.23D-12
 IDIUse=1 WtCom= 1.00D+00 WtEn= 0.00D+00
 Coeff-Com: -0.730D-03 0.969D-03 0.819D-03 0.181D-02-0.291D-02-0.671D-02
 Coeff-Com: -0.293D-01-0.778D-01-0.979D-01 0.251D+00 0.961D+00
 Coeff:     -0.730D-03 0.969D-03 0.819D-03 0.181D-02-0.291D-02-0.671D-02
 Coeff:     -0.293D-01-0.778D-01-0.979D-01 0.251D+00 0.961D+00
 Gap=    -0.009 Goal=   None    Shift=    0.000
 RMSDP=1.07D-08 MaxDP=4.08D-06 DE=-6.82D-12 OVMax= 5.98D-07

 Cycle  12  Pass 1  IDiag  1:
 RMSU=  1.93D-09    CP:  9.99D-01  3.00D+00  9.82D-01  1.48D+00  1.16D+00
                    CP:  9.60D-01  1.08D+00  1.13D+00  1.31D+00  1.28D+00
                    CP:  8.43D-01
 E= -1852.37287541736     Delta-E=        0.000000000000 Rises=F Damp=F
 DIIS: error= 2.00D-08 at cycle  12 NSaved=  12.
 NSaved=12 IEnMin=11 EnMin= -1852.37287541736     IErMin=12 ErrMin= 2.00D-08
 ErrMax= 2.00D-08 EMaxC= 1.00D-01 BMatC= 4.08D-14 BMatP= 2.70D-13
 IDIUse=1 WtCom= 1.00D+00 WtEn= 0.00D+00
 Coeff-Com: -0.171D-03 0.227D-03-0.221D-03-0.477D-03 0.138D-03 0.433D-03
 Coeff-Com:  0.700D-06-0.646D-02-0.770D-01 0.162D-01 0.366D+00 0.702D+00
 Coeff:     -0.171D-03 0.227D-03-0.221D-03-0.477D-03 0.138D-03 0.433D-03
 Coeff:      0.700D-06-0.646D-02-0.770D-01 0.162D-01 0.366D+00 0.702D+00
 Gap=    -0.009 Goal=   None    Shift=    0.000
 RMSDP=7.57D-09 MaxDP=2.31D-06 DE= 4.55D-13 OVMax= 2.26D-07

 Cycle  13  Pass 1  IDiag  1:
 RMSU=  5.04D-10    CP:  9.99D-01  3.00D+00  9.82D-01  1.48D+00  1.16D+00
                    CP:  9.58D-01  1.08D+00  1.12D+00  1.29D+00  1.15D+00
                    CP:  1.02D+00  9.80D-01
 E= -1852.37287541737     Delta-E=       -0.000000000003 Rises=F Damp=F
 DIIS: error= 5.38D-09 at cycle  13 NSaved=  13.
 NSaved=13 IEnMin=13 EnMin= -1852.37287541737     IErMin=13 ErrMin= 5.38D-09
 ErrMax= 5.38D-09 EMaxC= 1.00D-01 BMatC= 3.78D-15 BMatP= 4.08D-14
 IDIUse=1 WtCom= 1.00D+00 WtEn= 0.00D+00
 Coeff-Com:  0.130D-04-0.174D-04-0.196D-03-0.459D-03 0.435D-03 0.104D-02
 Coeff-Com:  0.416D-02 0.963D-02-0.175D-01-0.293D-01-0.575D-02 0.269D+00
 Coeff-Com:  0.769D+00
 Coeff:      0.130D-04-0.174D-04-0.196D-03-0.459D-03 0.435D-03 0.104D-02
 Coeff:      0.416D-02 0.963D-02-0.175D-01-0.293D-01-0.575D-02 0.269D+00
 Coeff:      0.769D+00
 Gap=    -0.009 Goal=   None    Shift=    0.000
 RMSDP=1.48D-09 MaxDP=4.37D-07 DE=-3.41D-12 OVMax= 8.08D-08

 Cycle  14  Pass 1  IDiag  1:
 RMSU=  1.70D-10    CP:  9.99D-01  3.00D+00  9.82D-01  1.48D+00  1.16D+00
                    CP:  9.58D-01  1.08D+00  1.12D+00  1.28D+00  1.18D+00
                    CP:  1.01D+00  1.04D+00  9.24D-01
 E= -1852.37287541737     Delta-E=       -0.000000000002 Rises=F Damp=F
 DIIS: error= 1.09D-09 at cycle  14 NSaved=  14.
 NSaved=14 IEnMin=14 EnMin= -1852.37287541737     IErMin=14 ErrMin= 1.09D-09
 ErrMax= 1.09D-09 EMaxC= 1.00D-01 BMatC= 1.36D-16 BMatP= 3.78D-15
 IDIUse=1 WtCom= 1.00D+00 WtEn= 0.00D+00
 Coeff-Com:  0.156D-04-0.208D-04-0.255D-04-0.587D-04 0.735D-04 0.207D-03
 Coeff-Com:  0.939D-03 0.224D-02 0.216D-02-0.695D-02-0.301D-01 0.192D-02
 Coeff-Com:  0.198D+00 0.832D+00
 Coeff:      0.156D-04-0.208D-04-0.255D-04-0.587D-04 0.735D-04 0.207D-03
 Coeff:      0.939D-03 0.224D-02 0.216D-02-0.695D-02-0.301D-01 0.192D-02
 Coeff:      0.198D+00 0.832D+00
 Gap=    -0.009 Goal=   None    Shift=    0.000
 RMSDP=1.32D-10 MaxDP=4.59D-08 DE=-1.59D-12 OVMax= 1.50D-08

 Cycle  15  Pass 1  IDiag  1:
 RMSU=  3.38D-11    CP:  9.99D-01  3.00D+00  9.82D-01  1.48D+00  1.16D+00
                    CP:  9.58D-01  1.08D+00  1.12D+00  1.28D+00  1.18D+00
                    CP:  1.01D+00  1.06D+00  9.25D-01  8.81D-01
 E= -1852.37287541737     Delta-E=        0.000000000000 Rises=F Damp=F
 DIIS: error= 4.42D-10 at cycle  15 NSaved=  15.
 NSaved=15 IEnMin=14 EnMin= -1852.37287541737     IErMin=15 ErrMin= 4.42D-10
 ErrMax= 4.42D-10 EMaxC= 1.00D-01 BMatC= 1.57D-17 BMatP= 1.36D-16
 IDIUse=1 WtCom= 1.00D+00 WtEn= 0.00D+00
 Coeff-Com:  0.225D-05-0.298D-05 0.847D-05 0.211D-04-0.111D-04-0.329D-04
 Coeff-Com: -0.125D-03-0.322D-03 0.101D-02 0.127D-02-0.348D-02-0.146D-01
 Coeff-Com: -0.134D-01 0.104D+00 0.926D+00
 Coeff:      0.225D-05-0.298D-05 0.847D-05 0.211D-04-0.111D-04-0.329D-04
 Coeff:     -0.125D-03-0.322D-03 0.101D-02 0.127D-02-0.348D-02-0.146D-01
 Coeff:     -0.134D-01 0.104D+00 0.926D+00
 Gap=    -0.009 Goal=   None    Shift=    0.000
 RMSDP=6.63D-11 MaxDP=1.64D-08 DE= 2.27D-13 OVMax= 3.66D-09

 Cycle  16  Pass 1  IDiag  1:
 RMSU=  9.72D-12    CP:  9.99D-01  3.00D+00  9.82D-01  1.48D+00  1.16D+00
                    CP:  9.58D-01  1.08D+00  1.12D+00  1.28D+00  1.18D+00
                    CP:  1.01D+00  1.06D+00  9.46D-01  8.60D-01  8.79D-01
 E= -1852.37287541736     Delta-E=        0.000000000004 Rises=F Damp=F
 DIIS: error= 1.05D-10 at cycle  16 NSaved=  16.
 NSaved=16 IEnMin=14 EnMin= -1852.37287541737     IErMin=16 ErrMin= 1.05D-10
 ErrMax= 1.05D-10 EMaxC= 1.00D-01 BMatC= 1.13D-18 BMatP= 1.57D-17
 IDIUse=1 WtCom= 1.00D+00 WtEn= 0.00D+00
 Large coefficients: NSaved= 16 BigCof=    0.00 CofMax=   10.00 Det=-4.14D-18
 Inversion failed.  Reducing to 15 matrices.
 Coeff-Com:  0.623D-09 0.349D-05 0.872D-05-0.712D-05-0.231D-04-0.106D-03
 Coeff-Com: -0.271D-03-0.942D-04 0.104D-02 0.226D-02-0.305D-02-0.208D-01
 Coeff-Com: -0.634D-01 0.166D+00 0.919D+00
 Coeff:      0.623D-09 0.349D-05 0.872D-05-0.712D-05-0.231D-04-0.106D-03
 Coeff:     -0.271D-03-0.942D-04 0.104D-02 0.226D-02-0.305D-02-0.208D-01
 Coeff:     -0.634D-01 0.166D+00 0.919D+00
 Gap=    -0.009 Goal=   None    Shift=    0.000
 RMSDP=2.76D-11 MaxDP=7.25D-09 DE= 4.09D-12 OVMax= 1.24D-09

 SCF Done:  E(ROHF) =  -1852.37287542     A.U. after   16 cycles
             Convg  =    0.2764D-10             -V/T =  2.0000
 <Sx>= 0.0000 <Sy>= 0.0000 <Sz>= 0.5000 <S**2>= 0.7500 S= 0.5000
 <L.S>= 0.000000000000E+00
 KE= 1.852344319469D+03 PE=-4.568642286183D+03 EE= 7.933289100507D+02
 Annihilation of the first spin contaminant:
 S**2 before annihilation     0.7500,   after     0.7500
 DiagDN has N=   606 LTot=  1850 but NE2=     3 cannot use DSYEVD.
 Leave Link  502 at Thu Jul 25 17:56:09 2013, MaxMem=17179869184 cpu:  287004.9
 (Enter /share/apps/gaussian/g09root/g09/l801.exe)
 GenMOA:  NOpAll=  4 NOp2=4 NOpUse=  4 JSym2X=1
 FoFCou: FMM=F IPFlag=           0 FMFlag=           0 FMFlg1=           0
         NFxFlg=           0 DoJE=F BraDBF=F KetDBF=F FulRan=T
         Omega=  0.000000  0.000000  1.000000  0.000000  0.000000 ICntrl=       0 IOpCl=  1
         NMat0=    1 NMatS0=    1 NMatT0=    0 NMatD0=    1 NMtDS0=    0 NMtDT0=    0
         I1Cent=           0 NGrid=           0.
 Petite list used in FoFCou.
 <Sx>= 0.0000 <Sy>= 0.0000 <Sz>= 0.5000 <S**2>= 0.7500 S= 0.5000
 Range of M.O.s used for correlation:    11   606
 NBasis=   606 NAE=    19 NBE=    18 NFC=    10 NFV=     0
 NROrb=    596 NOA=     9 NOB=     8 NVA=   587 NVB=   588

 **** Warning!!: The largest alpha MO coefficient is  0.21061149D+03


 **** Warning!!: The largest beta MO coefficient is  0.21061149D+03

 Singles contribution to E2=   -0.3369135447D-02
 Leave Link  801 at Thu Jul 25 18:13:25 2013, MaxMem=17179869184 cpu:   16553.1
 (Enter /share/apps/gaussian/g09root/g09/l906.exe)
 FulOut=F Deriv=F AODrv=F NAtomX=     2
   MMem=           0  MDisk=           9 MDiskD=           9
  W3Min=    10933272 MinDsk=    12232469 NBas6D=        1033
 NBas2D=      544126    NTT=      534061    LW2=   251210375
    MDV= 17175460857 MDiskM=        4104 NBas2p=      543374
 Disk-based method using OVN memory for  9 occupieds at a time.
 Permanent disk used for amplitudes and <ij||ab> integrals=    71750184 words.
 Estimated scratch disk usage=  8649164648 words.
 IUseRI=2 ITolRI= 6 IR12RI=0
 IMap=   1   2   3   4   5   6   7   8   9
 Actual    scratch disk usage=  8634449514 words.
 JobTyp=2 Pass  1:  I=   1 to   9 NPSUse= 16 ParTrn=T ParDer=T DoDerP=F.
 (rs|ai) integrals will be sorted in core.
 T,EIJ(AA): I=   1 J=   2      0.5010314E-04     -0.3770777E-03
 T,EIJ(AA): I=   1 J=   3      0.2692798E-04     -0.2045192E-03
 T,EIJ(AA): I=   1 J=   4      0.2687509E-04     -0.2043187E-03
 T,EIJ(AA): I=   1 J=   5      0.4847802E-04     -0.3693321E-03
 T,EIJ(AA): I=   1 J=   6      0.4845475E-04     -0.2768151E-03
 T,EIJ(AA): I=   1 J=   7      0.5152477E-03     -0.2898160E-02
 T,EIJ(AA): I=   1 J=   8      0.6524118E-03     -0.2962385E-02
 T,EIJ(AA): I=   1 J=   9      0.5761024E-03     -0.2992717E-02
 T,EIJ(AA): I=   2 J=   3      0.8706737E-03     -0.8157310E-02
 T,EIJ(AA): I=   2 J=   4      0.8483154E-03     -0.7914418E-02
 T,EIJ(AA): I=   2 J=   5      0.8299191E-03     -0.7797477E-02
 T,EIJ(AA): I=   2 J=   6      0.1084893E-02     -0.1026314E-01
 T,EIJ(AA): I=   2 J=   7      0.3096427E-04     -0.1493604E-03
 T,EIJ(AA): I=   2 J=   8      0.2015585E-03     -0.1129001E-02
 T,EIJ(AA): I=   2 J=   9      0.5663569E-04     -0.3163773E-03
 T,EIJ(AA): I=   3 J=   4      0.1270696E-02     -0.1249696E-01
 T,EIJ(AA): I=   3 J=   5      0.8273020E-03     -0.7704937E-02
 T,EIJ(AA): I=   3 J=   6      0.7414408E-03     -0.6412564E-02
 T,EIJ(AA): I=   3 J=   7      0.3888479E-04     -0.2401143E-03
 T,EIJ(AA): I=   3 J=   8      0.1677634E-03     -0.8988512E-03
 T,EIJ(AA): I=   3 J=   9      0.4383257E-04     -0.2391798E-03
 T,EIJ(AA): I=   4 J=   5      0.8482433E-03     -0.7935894E-02
 T,EIJ(AA): I=   4 J=   6      0.7424961E-03     -0.6425772E-02
 T,EIJ(AA): I=   4 J=   7      0.3811450E-04     -0.2349516E-03
 T,EIJ(AA): I=   4 J=   8      0.1675113E-03     -0.8980189E-03
 T,EIJ(AA): I=   4 J=   9      0.4448261E-04     -0.2428676E-03
 T,EIJ(AA): I=   5 J=   6      0.1127537E-02     -0.1076297E-01
 T,EIJ(AA): I=   5 J=   7      0.4789399E-04     -0.2926585E-03
 T,EIJ(AA): I=   5 J=   8      0.1979692E-03     -0.1113301E-02
 T,EIJ(AA): I=   5 J=   9      0.4047206E-04     -0.1875825E-03
 T,EIJ(AA): I=   6 J=   7      0.1052393E-03     -0.5615242E-03
 T,EIJ(AA): I=   6 J=   8      0.2415543E-03     -0.1125700E-02
 T,EIJ(AA): I=   6 J=   9      0.1186355E-03     -0.5732305E-03
 T,EIJ(AA): I=   7 J=   8      0.2739367E-02     -0.9296715E-02
 T,EIJ(AA): I=   7 J=   9      0.2213086E-02     -0.9181041E-02
 T,EIJ(AA): I=   8 J=   9      0.3217064E-02     -0.9770517E-02
 T,EIJ(AB): I=   1 J=   1      0.1886972E-02     -0.1238557E-01
 T,EIJ(AB): I=   1 J=   2      0.3232996E-04     -0.2849851E-03
 T,EIJ(AB): I=   1 J=   3      0.3220671E-04     -0.2841509E-03
 T,EIJ(AB): I=   1 J=   4      0.5987447E-04     -0.4632105E-03
 T,EIJ(AB): I=   1 J=   5      0.5989114E-04     -0.4406492E-03
 T,EIJ(AB): I=   1 J=   6      0.1962346E-03     -0.1442269E-02
 T,EIJ(AB): I=   1 J=   7      0.1980417E-02     -0.1076285E-01
 T,EIJ(AB): I=   1 J=   8      0.1915618E-02     -0.1157107E-01
 T,EIJ(AB): I=   2 J=   1      0.1330778E-03     -0.1036828E-02
 T,EIJ(AB): I=   2 J=   2      0.1128713E-02     -0.1089207E-01
 T,EIJ(AB): I=   2 J=   3      0.1123650E-02     -0.1085730E-01
 T,EIJ(AB): I=   2 J=   4      0.1102451E-02     -0.1071756E-01
 T,EIJ(AB): I=   2 J=   5      0.1985533E-02     -0.1985487E-01
 T,EIJ(AB): I=   2 J=   6      0.1163553E-02     -0.1110139E-01
 T,EIJ(AB): I=   2 J=   7      0.2856379E-03     -0.1495381E-02
 T,EIJ(AB): I=   2 J=   8      0.6559940E-04     -0.3749575E-03
 T,EIJ(AB): I=   3 J=   1      0.7935087E-04     -0.7103640E-03
 T,EIJ(AB): I=   3 J=   2      0.2014365E-02     -0.2017927E-01
 T,EIJ(AB): I=   3 J=   3      0.1313858E-02     -0.1273112E-01
 T,EIJ(AB): I=   3 J=   4      0.1113634E-02     -0.1080422E-01
 T,EIJ(AB): I=   3 J=   5      0.1177714E-02     -0.1118125E-01
 T,EIJ(AB): I=   3 J=   6      0.1106767E-02     -0.9996940E-02
 T,EIJ(AB): I=   3 J=   7      0.2661698E-03     -0.1237469E-02
 T,EIJ(AB): I=   3 J=   8      0.4948168E-04     -0.2788531E-03
 T,EIJ(AB): I=   4 J=   1      0.7900828E-04     -0.7071407E-03
 T,EIJ(AB): I=   4 J=   2      0.1314023E-02     -0.1273477E-01
 T,EIJ(AB): I=   4 J=   3      0.2014513E-02     -0.2018906E-01
 T,EIJ(AB): I=   4 J=   4      0.1125241E-02     -0.1090195E-01
 T,EIJ(AB): I=   4 J=   5      0.1165010E-02     -0.1107777E-01
 T,EIJ(AB): I=   4 J=   6      0.1106180E-02     -0.9990669E-02
 T,EIJ(AB): I=   4 J=   7      0.2652440E-03     -0.1234391E-02
 T,EIJ(AB): I=   4 J=   8      0.5026024E-04     -0.2814989E-03
 T,EIJ(AB): I=   5 J=   1      0.1202535E-03     -0.9721846E-03
 T,EIJ(AB): I=   5 J=   2      0.1118984E-02     -0.1085315E-01
 T,EIJ(AB): I=   5 J=   3      0.1123972E-02     -0.1088847E-01
 T,EIJ(AB): I=   5 J=   4      0.1931316E-02     -0.1965725E-01
 T,EIJ(AB): I=   5 J=   5      0.1140925E-02     -0.1092030E-01
 T,EIJ(AB): I=   5 J=   6      0.1170000E-02     -0.1119301E-01
 T,EIJ(AB): I=   5 J=   7      0.2721276E-03     -0.1444865E-02
 T,EIJ(AB): I=   5 J=   8      0.9911079E-04     -0.5779796E-03
 T,EIJ(AB): I=   6 J=   1      0.2241606E-03     -0.1819744E-02
 T,EIJ(AB): I=   6 J=   2      0.1137826E-02     -0.1034035E-01
 T,EIJ(AB): I=   6 J=   3      0.1137719E-02     -0.1033637E-01
 T,EIJ(AB): I=   6 J=   4      0.1220571E-02     -0.1167212E-01
 T,EIJ(AB): I=   6 J=   5      0.1249165E-02     -0.1168016E-01
 T,EIJ(AB): I=   6 J=   6      0.1866917E-02     -0.1803260E-01
 T,EIJ(AB): I=   6 J=   7      0.4711485E-03     -0.2378814E-02
 T,EIJ(AB): I=   6 J=   8      0.1700303E-03     -0.8995147E-03
 T,EIJ(AB): I=   7 J=   1      0.2701686E-02     -0.1470310E-01
 T,EIJ(AB): I=   7 J=   2      0.4452998E-04     -0.2928063E-03
 T,EIJ(AB): I=   7 J=   3      0.4355136E-04     -0.2889603E-03
 T,EIJ(AB): I=   7 J=   4      0.5347027E-04     -0.3490857E-03
 T,EIJ(AB): I=   7 J=   5      0.8311596E-04     -0.5398382E-03
 T,EIJ(AB): I=   7 J=   6      0.3085510E-03     -0.1667017E-02
 T,EIJ(AB): I=   7 J=   7      0.3698702E-02     -0.1316614E-01
 T,EIJ(AB): I=   7 J=   8      0.3017297E-02     -0.1315331E-01
 T,EIJ(AB): I=   8 J=   1      0.2614413E-02     -0.1262133E-01
 T,EIJ(AB): I=   8 J=   2      0.2679955E-03     -0.1279321E-02
 T,EIJ(AB): I=   8 J=   3      0.2672657E-03     -0.1277340E-02
 T,EIJ(AB): I=   8 J=   4      0.2715740E-03     -0.1483447E-02
 T,EIJ(AB): I=   8 J=   5      0.3040454E-03     -0.1529515E-02
 T,EIJ(AB): I=   8 J=   6      0.5557127E-03     -0.2847353E-02
 T,EIJ(AB): I=   8 J=   7      0.1099313E-01     -0.2765958E-01
 T,EIJ(AB): I=   8 J=   8      0.4382696E-02     -0.1365579E-01
 T,EIJ(AB): I=   9 J=   1      0.2486505E-02     -0.1344526E-01
 T,EIJ(AB): I=   9 J=   2      0.5068877E-04     -0.2937537E-03
 T,EIJ(AB): I=   9 J=   3      0.5104523E-04     -0.2946463E-03
 T,EIJ(AB): I=   9 J=   4      0.9607349E-04     -0.5798891E-03
 T,EIJ(AB): I=   9 J=   5      0.6417567E-04     -0.3379506E-03
 T,EIJ(AB): I=   9 J=   6      0.2967464E-03     -0.1555443E-02
 T,EIJ(AB): I=   9 J=   7      0.4354723E-02     -0.1370106E-01
 T,EIJ(AB): I=   9 J=   8      0.6070564E-02     -0.2555264E-01
 IMap=   1   2   3   4   5   6   7   8
 Actual    scratch disk usage=  8649159016 words.
 JobTyp=3 Pass  1:  I=   1 to   8 NPSUse= 16 ParTrn=T ParDer=T DoDerP=F.
 (rs|ai) integrals will be sorted in core.
 T,EIJ(BB): I=   1 J=   2      0.6170783E-04     -0.4770322E-03
 T,EIJ(BB): I=   1 J=   3      0.6169002E-04     -0.4772296E-03
 T,EIJ(BB): I=   1 J=   4      0.9858917E-04     -0.8091200E-03
 T,EIJ(BB): I=   1 J=   5      0.1193858E-03     -0.8747794E-03
 T,EIJ(BB): I=   1 J=   6      0.5965717E-04     -0.3230012E-03
 T,EIJ(BB): I=   1 J=   7      0.8825479E-03     -0.3676176E-02
 T,EIJ(BB): I=   1 J=   8      0.8212723E-03     -0.3827039E-02
 T,EIJ(BB): I=   2 J=   3      0.1271832E-02     -0.1250947E-01
 T,EIJ(BB): I=   2 J=   4      0.8423379E-03     -0.7872482E-02
 T,EIJ(BB): I=   2 J=   5      0.8896508E-03     -0.8165355E-02
 T,EIJ(BB): I=   2 J=   6      0.7169162E-03     -0.6197224E-02
 T,EIJ(BB): I=   2 J=   7      0.1670329E-03     -0.8742385E-03
 T,EIJ(BB): I=   2 J=   8      0.4375864E-04     -0.2325187E-03
 T,EIJ(BB): I=   3 J=   4      0.8493941E-03     -0.7947290E-02
 T,EIJ(BB): I=   3 J=   5      0.8823825E-03     -0.8089482E-02
 T,EIJ(BB): I=   3 J=   6      0.7170483E-03     -0.6199033E-02
 T,EIJ(BB): I=   3 J=   7      0.1668934E-03     -0.8736944E-03
 T,EIJ(BB): I=   3 J=   8      0.4405336E-04     -0.2337296E-03
 T,EIJ(BB): I=   4 J=   5      0.8640767E-03     -0.7980366E-02
 T,EIJ(BB): I=   4 J=   6      0.1076383E-02     -0.1025464E-01
 T,EIJ(BB): I=   4 J=   7      0.1945507E-03     -0.1066751E-02
 T,EIJ(BB): I=   4 J=   8      0.4112941E-04     -0.1889548E-03
 T,EIJ(BB): I=   5 J=   6      0.1105358E-02     -0.1027325E-01
 T,EIJ(BB): I=   5 J=   7      0.2472751E-03     -0.1169332E-02
 T,EIJ(BB): I=   5 J=   8      0.5929851E-04     -0.2839142E-03
 T,EIJ(BB): I=   6 J=   7      0.2988760E-03     -0.1317581E-02
 T,EIJ(BB): I=   6 J=   8      0.1444724E-03     -0.6867171E-03
 T,EIJ(BB): I=   7 J=   8      0.3353042E-02     -0.9908220E-02
 Spin components of T(2) and E(2):
     alpha-alpha T2 =       0.2084714690D-01 E2=     -0.1326077604D+00
     alpha-beta  T2 =       0.8492505838D-01 E2=     -0.5341433011D+00
     beta-beta   T2 =       0.1608061228D-01 E2=     -0.1127886325D+00
 The integrals were generated   2 times.
 ANorm=    0.1059842552D+01
 E2 =    -0.7829088295D+00 EUMP2 =    -0.18531557842468D+04
 Leave Link  906 at Thu Jul 25 19:04:53 2013, MaxMem=17179869184 cpu:   48227.8
 (Enter /share/apps/gaussian/g09root/g09/l904.exe)

 Complete Basis Set (CBS) Extrapolation:
 M. R. Nyden and G. A. Petersson, JCP 75, 1843 (1981)
 G. A. Petersson and M. A. Al-Laham, JCP 94, 6081 (1991)
 G. A. Petersson, T. Tensfeldt, and J. A. Montgomery, JCP 94, 6091 (1991)
 J. A. Montgomery, J. W. Ochterski, and G. A. Petersson, JCP 101, 5900 (1994)
 
 Available Memory in CBS = **********
 Minimum Number of PNO for Extrapolation =  25
 Absolute Overlaps: IRadAn =         5
 LocTrn: ILocal=3 LocCor=F DoCore=F.
 Entering OneElI...
 Overlap between basis sets.
 Requested accuracy = 0.1000D-12
 PrsmSu:  NPrtUS=   1 ThrOK=F IAlg=1
 PRISM was handed 17178055384 working-precision words and    45 shell-pairs
 IPart=  0 NShTot=          45 NBatch=          10 AvBLen=         4.5
 CnvPC2: ToCart=F DoDens=F IPureD=0 IPureF=0.
 Transformed matrix in CnvPC2: 
                 1             2             3             4             5 
      1   0.100000D+01  0.397781D+00  0.000000D+00  0.000000D+00  0.000000D+00
      2   0.397781D+00  0.100000D+01  0.000000D+00  0.000000D+00  0.000000D+00
      3   0.000000D+00  0.000000D+00  0.100000D+01  0.000000D+00  0.000000D+00
      4   0.000000D+00  0.000000D+00  0.000000D+00  0.100000D+01  0.000000D+00
      5   0.000000D+00  0.000000D+00  0.000000D+00  0.000000D+00  0.100000D+01
      6   0.273329D-01  0.326933D+00  0.000000D+00  0.000000D+00  0.000000D+00
      7   0.000000D+00  0.000000D+00  0.339871D+00  0.000000D+00  0.000000D+00
      8   0.000000D+00  0.000000D+00  0.000000D+00  0.339871D+00  0.000000D+00
      9   0.000000D+00  0.000000D+00  0.000000D+00  0.000000D+00  0.339871D+00
     10   0.000000D+00  0.000000D+00  0.000000D+00  0.000000D+00  0.000000D+00
     11   0.000000D+00  0.000000D+00  0.000000D+00  0.000000D+00  0.000000D+00
     12   0.000000D+00  0.000000D+00  0.000000D+00  0.000000D+00  0.000000D+00
     13   0.000000D+00  0.000000D+00  0.000000D+00  0.000000D+00  0.000000D+00
     14   0.000000D+00  0.000000D+00  0.000000D+00  0.000000D+00  0.000000D+00
     15  -0.379176D-03  0.483794D-02  0.000000D+00  0.000000D+00  0.000000D+00
     16   0.000000D+00  0.000000D+00  0.130039D-01  0.000000D+00  0.000000D+00
     17   0.000000D+00  0.000000D+00  0.000000D+00  0.130039D-01  0.000000D+00
     18   0.000000D+00  0.000000D+00  0.000000D+00  0.000000D+00  0.130039D-01
     19   0.000000D+00  0.000000D+00  0.000000D+00  0.000000D+00  0.000000D+00
     20   0.259053D-03  0.172718D-02  0.000000D+00  0.000000D+00 -0.804698D-03
     21   0.000000D+00  0.000000D+00  0.214977D-03  0.000000D+00  0.000000D+00
     22   0.000000D+00  0.000000D+00  0.000000D+00  0.214977D-03  0.000000D+00
     23   0.606709D-03  0.394730D-02  0.000000D+00  0.000000D+00 -0.163249D-02
                 6             7             8             9            10 
      1   0.273329D-01  0.000000D+00  0.000000D+00  0.000000D+00  0.000000D+00
      2   0.326933D+00  0.000000D+00  0.000000D+00  0.000000D+00  0.000000D+00
      3   0.000000D+00  0.339871D+00  0.000000D+00  0.000000D+00  0.000000D+00
      4   0.000000D+00  0.000000D+00  0.339871D+00  0.000000D+00  0.000000D+00
      5   0.000000D+00  0.000000D+00  0.000000D+00  0.339871D+00  0.000000D+00
      6   0.100000D+01  0.000000D+00  0.000000D+00  0.000000D+00  0.000000D+00
      7   0.000000D+00  0.100000D+01  0.000000D+00  0.000000D+00  0.000000D+00
      8   0.000000D+00  0.000000D+00  0.100000D+01  0.000000D+00  0.000000D+00
      9   0.000000D+00  0.000000D+00  0.000000D+00  0.100000D+01  0.000000D+00
     10   0.000000D+00  0.000000D+00  0.000000D+00  0.000000D+00  0.100000D+01
     11   0.000000D+00  0.000000D+00  0.000000D+00  0.000000D+00  0.000000D+00
     12   0.000000D+00  0.000000D+00  0.000000D+00  0.000000D+00  0.000000D+00
     13   0.000000D+00  0.000000D+00  0.000000D+00  0.000000D+00  0.000000D+00
     14   0.000000D+00  0.000000D+00  0.000000D+00  0.000000D+00  0.000000D+00
     15   0.204897D+00  0.000000D+00  0.000000D+00  0.000000D+00  0.000000D+00
     16   0.000000D+00  0.221280D+00  0.000000D+00  0.000000D+00  0.000000D+00
     17   0.000000D+00  0.000000D+00  0.221280D+00  0.000000D+00  0.000000D+00
     18   0.000000D+00  0.000000D+00  0.000000D+00  0.221280D+00  0.000000D+00
     19   0.000000D+00  0.000000D+00  0.000000D+00 -0.125704D-05  0.906105D-05
     20   0.154677D-01  0.000000D+00  0.000000D+00 -0.174424D-01  0.141030D-01
     21   0.000000D+00  0.471892D-02  0.000000D+00  0.000000D+00  0.000000D+00
     22   0.000000D+00  0.000000D+00  0.471892D-02  0.000000D+00  0.000000D+00
     23   0.298071D-01  0.000000D+00  0.000000D+00 -0.306485D-01  0.224320D-01
                11            12            13            14            15 
      1   0.000000D+00  0.000000D+00  0.000000D+00  0.000000D+00 -0.379176D-03
      2   0.000000D+00  0.000000D+00  0.000000D+00  0.000000D+00  0.483794D-02
      3   0.000000D+00  0.000000D+00  0.000000D+00  0.000000D+00  0.000000D+00
      4   0.000000D+00  0.000000D+00  0.000000D+00  0.000000D+00  0.000000D+00
      5   0.000000D+00  0.000000D+00  0.000000D+00  0.000000D+00  0.000000D+00
      6   0.000000D+00  0.000000D+00  0.000000D+00  0.000000D+00  0.204897D+00
      7   0.000000D+00  0.000000D+00  0.000000D+00  0.000000D+00  0.000000D+00
      8   0.000000D+00  0.000000D+00  0.000000D+00  0.000000D+00  0.000000D+00
      9   0.000000D+00  0.000000D+00  0.000000D+00  0.000000D+00  0.000000D+00
     10   0.000000D+00  0.000000D+00  0.000000D+00  0.000000D+00  0.000000D+00
     11   0.100000D+01  0.000000D+00  0.000000D+00  0.000000D+00  0.000000D+00
     12   0.000000D+00  0.100000D+01  0.000000D+00  0.000000D+00  0.000000D+00
     13   0.000000D+00  0.000000D+00  0.100000D+01  0.000000D+00  0.000000D+00
     14   0.000000D+00  0.000000D+00  0.000000D+00  0.100000D+01  0.000000D+00
     15   0.000000D+00  0.000000D+00  0.000000D+00  0.000000D+00  0.100000D+01
     16   0.000000D+00  0.000000D+00  0.000000D+00  0.000000D+00  0.000000D+00
     17   0.000000D+00  0.000000D+00  0.000000D+00  0.000000D+00  0.000000D+00
     18   0.000000D+00  0.000000D+00  0.000000D+00  0.000000D+00  0.000000D+00
     19   0.000000D+00  0.000000D+00  0.000000D+00  0.000000D+00  0.231620D-01
     20   0.000000D+00  0.000000D+00  0.000000D+00  0.000000D+00  0.238188D+00
     21  -0.672901D-02  0.000000D+00  0.000000D+00  0.000000D+00  0.000000D+00
     22   0.000000D+00 -0.672901D-02  0.000000D+00  0.000000D+00  0.000000D+00
     23   0.000000D+00  0.000000D+00  0.000000D+00  0.000000D+00  0.180605D+00
                16            17            18            19            20 
      1   0.000000D+00  0.000000D+00  0.000000D+00  0.000000D+00  0.259053D-03
      2   0.000000D+00  0.000000D+00  0.000000D+00  0.000000D+00  0.172718D-02
      3   0.130039D-01  0.000000D+00  0.000000D+00  0.000000D+00  0.000000D+00
      4   0.000000D+00  0.130039D-01  0.000000D+00  0.000000D+00  0.000000D+00
      5   0.000000D+00  0.000000D+00  0.130039D-01  0.000000D+00 -0.804698D-03
      6   0.000000D+00  0.000000D+00  0.000000D+00  0.000000D+00  0.154677D-01
      7   0.221280D+00  0.000000D+00  0.000000D+00  0.000000D+00  0.000000D+00
      8   0.000000D+00  0.221280D+00  0.000000D+00  0.000000D+00  0.000000D+00
      9   0.000000D+00  0.000000D+00  0.221280D+00 -0.125704D-05 -0.174424D-01
     10   0.000000D+00  0.000000D+00  0.000000D+00  0.906105D-05  0.141030D-01
     11   0.000000D+00  0.000000D+00  0.000000D+00  0.000000D+00  0.000000D+00
     12   0.000000D+00  0.000000D+00  0.000000D+00  0.000000D+00  0.000000D+00
     13   0.000000D+00  0.000000D+00  0.000000D+00  0.000000D+00  0.000000D+00
     14   0.000000D+00  0.000000D+00  0.000000D+00  0.000000D+00  0.000000D+00
     15   0.000000D+00  0.000000D+00  0.000000D+00  0.231620D-01  0.238188D+00
     16   0.100000D+01  0.000000D+00  0.000000D+00  0.000000D+00  0.000000D+00
     17   0.000000D+00  0.100000D+01  0.000000D+00  0.000000D+00  0.000000D+00
     18   0.000000D+00  0.000000D+00  0.100000D+01 -0.390596D-01 -0.359321D+00
     19   0.000000D+00  0.000000D+00 -0.390596D-01  0.100000D+01  0.236704D+00
     20   0.000000D+00  0.000000D+00 -0.359321D+00  0.236704D+00  0.100000D+01
     21   0.111468D+00  0.000000D+00  0.000000D+00  0.000000D+00  0.000000D+00
     22   0.000000D+00  0.111468D+00  0.000000D+00  0.000000D+00  0.000000D+00
     23   0.000000D+00  0.000000D+00 -0.253153D+00  0.000000D+00  0.000000D+00
                21            22            23 
      1   0.000000D+00  0.000000D+00  0.606709D-03
      2   0.000000D+00  0.000000D+00  0.394730D-02
      3   0.214977D-03  0.000000D+00  0.000000D+00
      4   0.000000D+00  0.214977D-03  0.000000D+00
      5   0.000000D+00  0.000000D+00 -0.163249D-02
      6   0.000000D+00  0.000000D+00  0.298071D-01
      7   0.471892D-02  0.000000D+00  0.000000D+00
      8   0.000000D+00  0.471892D-02  0.000000D+00
      9   0.000000D+00  0.000000D+00 -0.306485D-01
     10   0.000000D+00  0.000000D+00  0.224320D-01
     11  -0.672901D-02  0.000000D+00  0.000000D+00
     12   0.000000D+00 -0.672901D-02  0.000000D+00
     13   0.000000D+00  0.000000D+00  0.000000D+00
     14   0.000000D+00  0.000000D+00  0.000000D+00
     15   0.000000D+00  0.000000D+00  0.180605D+00
     16   0.111468D+00  0.000000D+00  0.000000D+00
     17   0.000000D+00  0.111468D+00  0.000000D+00
     18   0.000000D+00  0.000000D+00 -0.253153D+00
     19   0.000000D+00  0.000000D+00  0.000000D+00
     20   0.000000D+00  0.000000D+00  0.000000D+00
     21   0.100000D+01  0.000000D+00  0.000000D+00
     22   0.000000D+00  0.100000D+01  0.000000D+00
     23   0.000000D+00  0.000000D+00  0.100000D+01
 Entering OneElI...
[...]
                         Total pair energies =    -0.784307 A.U.

                         Single Excitations  =    -0.003369 A.U.

                          Total second order =    -0.787676 A.U.

                         E2(CBS) - E2(Dir) =      -0.007308 A.U.

 E2(CBS)=      -0.790217 CBS-Int=       0.002541 OIii=       4.386085
 Leave Link  904 at Thu Jul 25 19:07:07 2013, MaxMem=17179869184 cpu:    2135.7
 (Enter /share/apps/gaussian/g09root/g09/l601.exe)
 Copying SCF densities to generalized density rwf, IOpCl= 0 IROHF=1.

 **********************************************************************

            Population analysis using the SCF density.

 **********************************************************************

 Orbital symmetries:
       Occupied  (SG) (SG) (PI) (PI) (SG) (SG) (SG) (PI) (PI) (SG)
                 (SG) (DLTA) (DLTA) (PI) (PI) (SG) (SG) (PI) (PI)
       Virtual   (SG) (PI) (PI) (SG) (SG) (PI) (PI) (?A) (?A) (?A)
                 (PI) (PI) (?A) (SG) (PI) (PI) (SG) (?B) (?C) (?B)
                 (?B) (?C) (SG) (?C) (?C) (PI) (PI) (?D) (?D) (?D)
                 (PI) (PI) (SG) (PI) (PI) (?E) (?E) (?E) (SG) (PI)
                 (PI) (SG) (PHI) (PHI) (SG) (PI) (?F) (?F) (PI)
                 (?F) (?F) (?F) (?G) (?G) (?G) (?G) (DLTA) (DLTA)
                 (?G) (?G) (?H) (?H) (?H) (PHI) (PHI) (PI) (PI)
                 (?H) (?H) (PI) (PI) (DLTA) (DLTA) (PI) (PI) (DLTA)
                 (DLTA) (SG) (?I) (?I) (SG) (?C) (?C) (?C) (SG)
                 (?C) (?J) (?J) (?J) (?C) (?C) (?C) (?C) (?A) (?K)
                 (?K) (?A) (?A) (?I) (?I) (?A) (?L) (?L) (?L) (?L)
                 (?L) (?L) (?L) (?C) (?C) (?C) (?C) (?L) (?L) (?L)
                 (PHI) (PHI) (?I) (?I) (PI) (PI) (DLTA) (DLTA)
                 (?L) (?L) (?L) (?L) (SG) (PI) (PI) (?I) (?I) (?L)
                 (PI) (PI) (?L) (?L) (SG) (PI) (PI) (PHI) (PHI)
                 (?L) (?L) (?L) (PI) (PI) (?L) (?I) (?I) (?L) (?L)
                 (?C) (?C) (?C) (?C) (?L) (?L) (?L) (?L) (?L) (?L)
                 (?L) (?L) (?L) (?L) (?L) (?L) (?L) (?L) (?L) (?L)
                 (?L) (?L) (?L) (?C) (?C) (?L) (?C) (SG) (SG) (?C)
                 (?K) (?K) (PI) (?A) (PI) (?A) (?A) (?A) (?I) (?I)
                 (PI) (PI) (?L) (?L) (PI) (PI) (?L) (?K) (?K) (?I)
                 (?I) (?C) (?C) (?C) (?C) (DLTA) (DLTA) (PHI) (PHI)
                 (SG) (?C) (?C) (?C) (?C) (?I) (?I) (SG) (SG) (PHI)
                 (PHI) (PI) (DLTA) (DLTA) (PI) (?K) (?K) (SG) (?I)
                 (?I) (?L) (?L) (?L) (?L) (DLTA) (DLTA) (?L) (?L)
                 (?L) (SG) (?L) (?L) (PI) (PI) (SG) (?I) (?I) (DLTA)
                 (DLTA) (PHI) (PHI) (?L) (?L) (?L) (?C) (?C) (?C)
                 (?C) (?L) (?L) (?L) (?L) (?L) (SG) (SG) (?K) (?K)
                 (PI) (PI) (?I) (?I) (PI) (PI) (?L) (?L) (?L) (PHI)
                 (PHI) (DLTA) (DLTA) (PI) (PI) (SG) (PI) (PI) (SG)
                 (SG) (?L) (?L) (?L) (?L) (?L) (?L) (?L) (?L) (?L)
                 (?L) (?L) (?L) (?L) (PHI) (PHI) (DLTA) (DLTA)
                 (SG) (SG) (SG) (?K) (?K) (PI) (PI) (?I) (?I) (?K)
                 (?K) (SG) (PHI) (PHI) (?I) (?I) (DLTA) (DLTA)
                 (?I) (?I) (?C) (?C) (?C) (?C) (PI) (SG) (PI) (PHI)
                 (PHI) (DLTA) (DLTA) (SG) (PI) (PI) (DLTA) (DLTA)
                 (SG) (PI) (PI) (?L) (?L) (?I) (?I) (SG) (?L) (?L)
                 (PI) (?L) (?L) (PI) (?L) (PI) (PI) (?L) (?L) (?L)
                 (?C) (?C) (?L) (?L) (PHI) (PHI) (?C) (?L) (?L)
                 (?C) (?L) (PI) (SG) (PI) (DLTA) (DLTA) (PI) (PI)
                 (SG) (DLTA) (DLTA) (PI) (PI) (SG) (?L) (?L) (?L)
                 (?L) (?L) (?L) (?L) (?L) (?L) (?L) (?L) (?L) (?L)
                 (?L) (?L) (SG) (?L) (?L) (SG) (SG) (?K) (?K) (?I)
                 (?I) (PHI) (PHI) (DLTA) (DLTA) (SG) (PI) (PI)
                 (PHI) (PHI) (DLTA) (DLTA) (PI) (PI) (SG) (?I)
                 (?I) (PHI) (PHI) (?L) (?L) (?L) (?L) (?L) (?L)
                 (?L) (?L) (?L) (?L) (?L) (?L) (?L) (?L) (?L) (?L)
                 (?L) (?K) (?K) (?I) (?I) (PHI) (PHI) (?L) (?L)
                 (?L) (SG) (PI) (PI) (SG) (SG) (?K) (?K) (?I) (?I)
                 (PHI) (PHI) (DLTA) (DLTA) (PI) (PI) (SG) (?L)
                 (?L) (?L) (?L) (?L) (?L) (?L) (?L) (?L) (?L) (?L)
                 (PHI) (PHI) (?L) (?L) (PI) (PI) (?L) (PI) (PI)
                 (SG) (?L) (?L) (PHI) (PHI) (?L) (?L) (PI) (PI)
                 (?L) (SG) (?L) (?L) (PI) (PI) (?L) (PI) (PI) (SG)
                 (?L) (?L) (?L) (?L) (?L) (?L) (?L) (?L) (?L) (?L)
                 (?L) (?L) (?L) (?L) (?L) (?L) (?L) (DLTA) (DLTA)
                 (PI) (PI) (SG) (PHI) (PHI) (DLTA) (DLTA) (?I)
                 (?I) (PHI) (PHI) (PI) (PI) (?L) (?L) (?L) (PI)
                 (PI) (SG) (?L) (?L) (SG) (SG) (?K) (?K) (?I) (?I)
                 (PHI) (PHI) (?L) (?L) (?L) (PI) (PI) (?K) (?K)
                 (?I) (?I) (PHI) (PHI) (DLTA) (DLTA) (PI) (PI)
                 (SG) (SG) (SG) (?K) (?K) (?I) (?I) (PHI) (PHI)
                 (DLTA) (DLTA) (PI) (PI) (SG) (SG) (SG)
 Unable to determine electronic state:  partially filled degenerate orbitals.
 Alpha  occ. eigenvalues -- -353.67877 -44.73118 -39.29777 -39.29720 -39.29403
 Alpha  occ. eigenvalues --  -20.81311  -6.01072  -4.21821  -4.21696  -4.21577
 Alpha  occ. eigenvalues --   -1.50858  -1.16351  -1.16289  -1.16286  -1.16193
 Alpha  occ. eigenvalues --   -1.15200  -0.81367  -0.73596  -0.72355
 Alpha virt. eigenvalues --   -0.29340  -0.15536  -0.15024  -0.09108  -0.08940
 Alpha virt. eigenvalues --   -0.01468  -0.01053  -0.00268   0.00277   0.00342
 Alpha virt. eigenvalues --    0.00342   0.00663   0.03514   0.07422   0.07890
 Alpha virt. eigenvalues --    0.08151   0.09273   0.23096   0.24495   0.25137
 Alpha virt. eigenvalues --    0.25147   0.25773   0.27193   0.27500   0.27503
 Alpha virt. eigenvalues --    0.28135   0.28620   0.33233   0.35733   0.35746
 Alpha virt. eigenvalues --    0.35821   0.36182   0.38708   0.41148   0.41994
 Alpha virt. eigenvalues --    0.42015   0.42149   0.43332   0.51942   0.58085
 Alpha virt. eigenvalues --    0.58856   0.67416   0.73934   0.73935   0.86358
 Alpha virt. eigenvalues --    0.86647   0.87020   0.87136   0.87674   0.88451
 Alpha virt. eigenvalues --    0.88451   0.92713   0.94979   0.97284   0.98535
 Alpha virt. eigenvalues --    0.99447   1.00695   1.00722   1.01213   1.01228
 Alpha virt. eigenvalues --    1.05043   1.05139   1.05749   1.07468   1.07468
 Alpha virt. eigenvalues --    1.12508   1.13471   1.13770   1.19847   1.25099
 Alpha virt. eigenvalues --    1.26432   1.27750   1.27755   1.30810   1.31841
 Alpha virt. eigenvalues --    1.34452   1.34462   1.47910   1.55674   1.55674
 Alpha virt. eigenvalues --    1.59257   1.75960   1.75966   1.83625   1.84933
 Alpha virt. eigenvalues --    1.85331   2.05094   2.07181   2.07643   2.08047
 Alpha virt. eigenvalues --    2.10274   2.15232   2.15262   2.17595   2.19350
 Alpha virt. eigenvalues --    2.19350   2.23462   2.23474   2.26040   2.26041
 Alpha virt. eigenvalues --    2.28304   2.33505   2.35773   2.38297   2.39196
 Alpha virt. eigenvalues --    2.42338   2.42639   2.53464   2.54070   2.54701
 Alpha virt. eigenvalues --    2.56637   2.56644   2.57625   2.57637   2.59400
 Alpha virt. eigenvalues --    2.67406   2.67407   2.69343   2.69343   2.71151
 Alpha virt. eigenvalues --    2.73332   2.76755   2.76759   2.80065   2.80065
 Alpha virt. eigenvalues --    2.80269   2.80269   2.95294   2.95600   2.97345
 Alpha virt. eigenvalues --    3.01437   3.01438   3.09069   3.09776   3.11458
 Alpha virt. eigenvalues --    3.21636   3.21682   3.42270   3.47916   3.50958
 Alpha virt. eigenvalues --    3.53067   3.53069   3.58951   3.59012   3.61434
 Alpha virt. eigenvalues --    4.08768   4.11002   4.11593   4.14313   4.14313
 Alpha virt. eigenvalues --    4.19858   4.19894   4.24214   4.24219   4.35938
 Alpha virt. eigenvalues --    4.37696   4.42334   4.42421   4.47332   4.62813
 Alpha virt. eigenvalues --    4.67024   4.67841   4.67841   4.70151   4.73505
 Alpha virt. eigenvalues --    4.73505   4.76685   4.76685   4.77662   4.77669
 Alpha virt. eigenvalues --    4.79161   4.96101   4.96199   5.09226   5.09271
 Alpha virt. eigenvalues --    5.18122   5.18126   5.19717   5.28201   5.29608
 Alpha virt. eigenvalues --    5.29608   5.30006   5.43366   5.43366   5.46615
 Alpha virt. eigenvalues --    5.49347   5.50361   5.63234   5.65326   5.65410
 Alpha virt. eigenvalues --    5.94096   5.94096   5.95656   5.96696   6.08757
 Alpha virt. eigenvalues --    6.08841   6.08851   6.10126   6.10561   6.14971
 Alpha virt. eigenvalues --    6.14971   6.19855   6.19855   6.21783   6.21784
 Alpha virt. eigenvalues --    6.25388   6.25867   6.28627   6.28631   6.31717
 Alpha virt. eigenvalues --    6.31717   6.37697   6.55911   6.55917   6.59404
 Alpha virt. eigenvalues --    6.60940   6.62767   6.62767   6.79788   7.01356
 Alpha virt. eigenvalues --    7.11844   7.11844   7.21301   7.23498   7.23505
 Alpha virt. eigenvalues --    7.25727   7.31301   7.31301   7.33480   7.38934
 Alpha virt. eigenvalues --    7.38934   7.57269   7.57328   7.60647   7.63131
 Alpha virt. eigenvalues --    7.63230   7.63241   7.77360   7.80161   8.09211
 Alpha virt. eigenvalues --    8.15600   8.19846   8.20089   8.87613   8.90819
 Alpha virt. eigenvalues --    9.05879   9.19829   9.19829   9.31787   9.31790
 Alpha virt. eigenvalues --    9.31939   9.31939   9.62771   9.71742   9.72429
 Alpha virt. eigenvalues --    9.77453   9.77976   9.78308   9.80046   9.84121
 Alpha virt. eigenvalues --   10.01583  10.01682  10.04793  10.04793  10.05343
 Alpha virt. eigenvalues --   10.05343  10.09106  10.09106  10.20775  10.24672
 Alpha virt. eigenvalues --   10.27088  10.27088  10.36748  10.38081  10.45097
 Alpha virt. eigenvalues --   10.50524  10.51335  10.57840  10.57840  10.92003
 Alpha virt. eigenvalues --   10.92020  11.17183  11.21445  11.28648  11.83433
 Alpha virt. eigenvalues --   11.86333  11.94878  12.51000  13.05954  13.05954
 Alpha virt. eigenvalues --   13.07205  13.07205  13.15736  13.15736  13.34654
 Alpha virt. eigenvalues --   13.34658  13.72936  13.75990  13.76006  13.76233
 Alpha virt. eigenvalues --   13.98146  14.01479  14.01479  14.24856  14.24861
 Alpha virt. eigenvalues --   14.52021  14.52021  14.53544  14.54560  14.54560
 Alpha virt. eigenvalues --   14.64382  14.64647  14.68677  14.68677  14.81326
 Alpha virt. eigenvalues --   14.81326  14.82355  14.83900  14.83900  14.84110
 Alpha virt. eigenvalues --   14.84110  14.87847  14.87849  14.96195  14.96195
 Alpha virt. eigenvalues --   14.96926  14.96932  14.97187  14.97535  15.00811
 Alpha virt. eigenvalues --   15.01111  15.01163  15.23227  15.23227  15.30307
 Alpha virt. eigenvalues --   15.30311  15.63233  15.75656  15.76636  15.95907
 Alpha virt. eigenvalues --   15.95910  16.11887  16.61549  16.63209  16.82005
 Alpha virt. eigenvalues --   16.82005  16.86934  16.86934  16.96376  17.05494
 Alpha virt. eigenvalues --   17.05498  17.49876  17.51412  17.51782  17.55138
 Alpha virt. eigenvalues --   17.72008  18.34437  18.40160  19.36722  19.55399
 Alpha virt. eigenvalues --   19.55400  19.64264  19.64274  19.83257  19.83446
 Alpha virt. eigenvalues --   19.84827  19.84829  20.10262  20.14510  20.14530
 Alpha virt. eigenvalues --   20.15642  20.23864  21.26206  21.27019  21.31092
 Alpha virt. eigenvalues --   21.86790  21.86820  22.26961  22.32151  22.91120
 Alpha virt. eigenvalues --   23.02800  23.02800  23.65952  23.66281  24.61060
 Alpha virt. eigenvalues --   25.02179  25.04964  25.04975  25.05086  25.05087
 Alpha virt. eigenvalues --   25.06917  25.06918  25.07676  25.07684  25.12389
 Alpha virt. eigenvalues --   25.12423  25.26581  25.26812  25.37271  25.42259
 Alpha virt. eigenvalues --   26.15496  28.90390  28.90390  28.90582  28.90582
 Alpha virt. eigenvalues --   28.91493  28.91493  28.95947  28.95947  29.06296
 Alpha virt. eigenvalues --   29.06296  29.22637  29.22640  29.31904  29.35700
 Alpha virt. eigenvalues --   29.35953  32.12995  32.12995  32.36151  32.36152
 Alpha virt. eigenvalues --   32.99188  32.99523  33.11206  33.35972  33.35972
 Alpha virt. eigenvalues --   33.42373  33.42373  33.66546  33.66547  33.67102
 Alpha virt. eigenvalues --   33.67117  33.67319  33.67322  33.70494  33.71409
 Alpha virt. eigenvalues --   33.71898  33.71919  33.72021  33.80218  33.80222
 Alpha virt. eigenvalues --   33.92628  33.92811  33.98936  34.02146  34.12056
 Alpha virt. eigenvalues --   34.12056  34.13925  34.13925  34.21701  34.21701
 Alpha virt. eigenvalues --   34.41012  34.53692  34.53735  35.00790  35.16843
 Alpha virt. eigenvalues --   35.17916  36.00536  36.00536  36.01603  36.01603
 Alpha virt. eigenvalues --   36.07695  36.07695  36.22185  36.22185  36.33060
 Alpha virt. eigenvalues --   36.33060  36.35120  36.35312  36.41885  38.63366
 Alpha virt. eigenvalues --   38.63366  38.66404  38.66405  38.76640  38.76661
 Alpha virt. eigenvalues --   38.97638  38.98701  39.10370  39.11569  39.15732
 Alpha virt. eigenvalues --   41.30829  41.30832  41.48433  41.48647  41.50780
 Alpha virt. eigenvalues --   41.51074  41.94425  41.97319  42.02363  42.13467
 Alpha virt. eigenvalues --   42.48822  42.48823  42.56038  42.56044  42.74247
 Alpha virt. eigenvalues --   42.74418  43.22322  43.27597  43.35309  44.51266
 Alpha virt. eigenvalues --   46.39866  46.39954  46.67140  46.71670  47.08479
 Alpha virt. eigenvalues --   51.98193  52.02697  53.69746  61.28315  61.28315
 Alpha virt. eigenvalues --   61.28517  61.28517  61.28674  61.28674  61.28793
 Alpha virt. eigenvalues --   61.28794  61.28882  61.28883  61.28948  61.28961
 Alpha virt. eigenvalues --   61.29032  61.29043  61.29090  61.29202  61.29678
 Alpha virt. eigenvalues --   62.99622  62.99622  63.49994  63.50104  64.70924
 Alpha virt. eigenvalues --   76.58857  76.58857  76.75738  76.75738  77.18681
 Alpha virt. eigenvalues --   77.18681  77.23575  77.23575  77.33588  77.33704
 Alpha virt. eigenvalues --   77.41621  77.41622  77.42464  77.48340  77.48462
 Alpha virt. eigenvalues --   77.69930  78.74434  78.74434  78.74784  78.74784
 Alpha virt. eigenvalues --   78.75255  78.75255  78.76618  78.76618  78.79549
 Alpha virt. eigenvalues --   78.79549  78.84558  78.84561  78.86738  78.87994
 Alpha virt. eigenvalues --   78.88125  80.00714  80.00714  80.02057  80.02057
 Alpha virt. eigenvalues --   80.06515  80.06515  80.20702  80.20702  80.42753
 Alpha virt. eigenvalues --   80.42889  80.43028  89.06978  89.06978  89.07735
 Alpha virt. eigenvalues --   89.07735  89.10561  89.10561  89.16992  89.16992
 Alpha virt. eigenvalues --   89.21028  89.21031  89.22370  89.22503  89.24274
 Alpha virt. eigenvalues --  106.78960 915.12775
          Condensed to atoms (all electrons):
              1          2
     1  Zn  28.148548   0.093065
     2  O    0.093065   8.665321
 Mulliken atomic charges:
              1
     1  Zn   1.758387
     2  O   -0.758387
 Sum of Mulliken atomic charges =   1.00000
 Mulliken charges with hydrogens summed into heavy atoms:
              1
     1  Zn   1.758387
     2  O   -0.758387
 Sum of Mulliken charges with hydrogens summed into heavy atoms =   1.00000
          Atomic-Atomic Spin Densities.
              1          2
     1  Zn   0.008254   0.015437
     2  O    0.015437   0.960872
 Mulliken atomic spin densities:
              1
     1  Zn   0.023691
     2  O    0.976309
 Sum of Mulliken atomic spin densities =   1.00000
 Electronic spatial extent (au):  <R**2>=            105.2418
 Charge=              1.0000 electrons
 Dipole moment (field-independent basis, Debye):
    X=              0.0000    Y=              0.0000    Z=              6.3032  Tot=              6.3032
 Quadrupole moment (field-independent basis, Debye-Ang):
   XX=            -14.6655   YY=            -13.2826   ZZ=            -15.4262
   XY=              0.0000   XZ=              0.0000   YZ=              0.0000
 Traceless Quadrupole moment (field-independent basis, Debye-Ang):
   XX=             -0.2074   YY=              1.1755   ZZ=             -0.9681
   XY=              0.0000   XZ=              0.0000   YZ=              0.0000
 Octapole moment (field-independent basis, Debye-Ang**2):
  XXX=              0.0000  YYY=              0.0000  ZZZ=             20.8742  XYY=              0.0000
  XXY=              0.0000  XXZ=              6.3329  XZZ=              0.0000  YZZ=              0.0000
  YYZ=              4.6171  XYZ=              0.0000
 Hexadecapole moment (field-independent basis, Debye-Ang**3):
 XXXX=            -10.3710 YYYY=             -8.0531 ZZZZ=            -86.4317 XXXY=              0.0000
 XXXZ=              0.0000 YYYX=              0.0000 YYYZ=              0.0000 ZZZX=              0.0000
 ZZZY=              0.0000 XXYY=             -3.0724 XXZZ=            -16.3531 YYZZ=            -13.6844
 XXYZ=              0.0000 YYXZ=              0.0000 ZZXY=              0.0000
 N-N= 7.059618124603D+01 E-N=-6.844192289487D+03  KE= 2.777262339585D+03
                          Isotropic Fermi Contact Couplings
        Atom                 a.u.       MegaHertz       Gauss      10(-4) cm-1
     1  Zn(67)             0.00000       0.00000       0.00000       0.00000
     2  O(17)              0.00000       0.00000       0.00000       0.00000
 --------------------------------------------------------
       Center         ----  Spin Dipole Couplings  ----
                      3XX-RR        3YY-RR        3ZZ-RR
 --------------------------------------------------------
     1   Atom       -0.089970      0.070499      0.019471
     2   Atom       -1.897081      3.784462     -1.887381
 --------------------------------------------------------
                        XY            XZ            YZ
 --------------------------------------------------------
     1   Atom        0.000000      0.000000      0.000000
     2   Atom        0.000000      0.000000      0.000000
 --------------------------------------------------------


 ---------------------------------------------------------------------------------
              Anisotropic Spin Dipole Couplings in Principal Axis System
 ---------------------------------------------------------------------------------

       Atom             a.u.   MegaHertz   Gauss  10(-4) cm-1        Axes

              Baa    -0.0900    -3.010    -1.074    -1.004  1.0000  0.0000  0.0000
     1 Zn(67) Bbb     0.0195     0.651     0.232     0.217  0.0000  0.0000  1.0000
              Bcc     0.0705     2.358     0.841     0.787  0.0000  1.0000  0.0000
 
              Baa    -1.8971   137.271    48.982    45.789  1.0000  0.0000  0.0000
     2 O(17)  Bbb    -1.8874   136.570    48.731    45.555  0.0000  0.0000  1.0000
              Bcc     3.7845  -273.841   -97.713   -91.344  0.0000  1.0000  0.0000
 

 ---------------------------------------------------------------------------------

 No NMR shielding tensors so no spin-rotation constants.
 Leave Link  601 at Thu Jul 25 19:07:14 2013, MaxMem=17179869184 cpu:     115.9
 (Enter /share/apps/gaussian/g09root/g09/l9999.exe)

 Test job not archived.
 1\1\GINC-N33\SP\ROMP2-RW\Gen\O1Zn1(1+,2)\GPETERSSON\25-Jul-2013\0\\#P 
 ROMP2(RW) Gen GFinput Int=NoBasisTransform Int(Grid=Ultrafine) IOp(3/3
 2=2,5/6=10,8/11=1,9/33=1) Maxdisk=128GB CBSextrapolate(Nmin=25,MinPop)
  Guess=Read SCF(Symm,MaxCycle=512)\\ZnO+ 2Pi\\1,2\Zn\O,1,1.799\\Versio
 n=EM64L-G09RevA.02\HF=-1852.3728754\MP2=-1853.1557842\E2(CBS)=-0.79021
 68\CBS-Int=-0.7876761\OIii=4.3860851\RMSD=2.764e-11\PG=C*V [C*(O1Zn1)]
 \\@


 THE 2ND LAW OF THERMODYNAMICS HAS THE SAME
 DEGREE OF TRUTH AS THE STATEMENT THAT IF YOU THROW
 A TUMBLERFULL OF WATER INTO THE SEA, YOU CANNOT GET
 THE SAME TUMBLERFULL OF WATER OUT AGAIN.
          - J.C. MAXWELL, LETTER TO LORD RAYLEIGH, DECEMBER 6,1870
 Job cpu time:  4 days  2 hours 24 minutes  6.3 seconds.
 File lengths (MBytes):  RWF=  66628 Int=      0 D2E=      0 Chk=     36 Scr=      1
 Normal termination of Gaussian 09 at Thu Jul 25 19:07:19 2013.
