 Entering Gaussian System, Link 0=g09
 AtFile(1): 7ZaPa-NR.gbs
 Initial command:
 /share/apps/gaussian/g09root/g09/l1.exe /localscratch/Gau-14108.inp -scrdir=/localscratch/
 Entering Link 1 = /share/apps/gaussian/g09root/g09/l1.exe PID=     14109.
  
 Copyright (c) 1988,1990,1992,1993,1995,1998,2003,2009, Gaussian, Inc.
                  All Rights Reserved.
  
 This is part of the Gaussian(R) 09 program.  It is based on
 the Gaussian(R) 03 system (copyright 2003, Gaussian, Inc.),
 the Gaussian(R) 98 system (copyright 1998, Gaussian, Inc.),
 the Gaussian(R) 94 system (copyright 1995, Gaussian, Inc.),
 the Gaussian 92(TM) system (copyright 1992, Gaussian, Inc.),
 the Gaussian 90(TM) system (copyright 1990, Gaussian, Inc.),
 the Gaussian 88(TM) system (copyright 1988, Gaussian, Inc.),
 the Gaussian 86(TM) system (copyright 1986, Carnegie Mellon
 University), and the Gaussian 82(TM) system (copyright 1983,
 Carnegie Mellon University). Gaussian is a federally registered
 trademark of Gaussian, Inc.
  
 This software contains proprietary and confidential information,
 including trade secrets, belonging to Gaussian, Inc.
  
 This software is provided under written license and may be
 used, copied, transmitted, or stored only in accord with that
 written license.
  
 The following legend is applicable only to US Government
 contracts under FAR:
  
                    RESTRICTED RIGHTS LEGEND
  
 Use, reproduction and disclosure by the US Government is
 subject to restrictions as set forth in subparagraphs (a)
 and (c) of the Commercial Computer Software - Restricted
 Rights clause in FAR 52.227-19.
  
 Gaussian, Inc.
 340 Quinnipiac St., Bldg. 40, Wallingford CT 06492
  
  
 ---------------------------------------------------------------
 Warning -- This program may not be used in any manner that
 competes with the business of Gaussian, Inc. or will provide
 assistance to any competitor of Gaussian, Inc.  The licensee
 of this program is prohibited from giving any competitor of
 Gaussian, Inc. access to this program.  By using this program,
 the user acknowledges that Gaussian, Inc. is engaged in the
 business of creating and licensing software in the field of
 computational chemistry and represents and warrants to the
 licensee that it is not a competitor of Gaussian, Inc. and that
 it will not use this program in any manner prohibited above.
 ---------------------------------------------------------------
  

 Cite this work as:
 Gaussian 09, Revision A.02,
 M. J. Frisch, G. W. Trucks, H. B. Schlegel, G. E. Scuseria, 
 M. A. Robb, J. R. Cheeseman, G. Scalmani, V. Barone, B. Mennucci, 
 G. A. Petersson, H. Nakatsuji, M. Caricato, X. Li, H. P. Hratchian, 
 A. F. Izmaylov, J. Bloino, G. Zheng, J. L. Sonnenberg, M. Hada, 
 M. Ehara, K. Toyota, R. Fukuda, J. Hasegawa, M. Ishida, T. Nakajima, 
 Y. Honda, O. Kitao, H. Nakai, T. Vreven, J. A. Montgomery, Jr., 
 J. E. Peralta, F. Ogliaro, M. Bearpark, J. J. Heyd, E. Brothers, 
 K. N. Kudin, V. N. Staroverov, R. Kobayashi, J. Normand, 
 K. Raghavachari, A. Rendell, J. C. Burant, S. S. Iyengar, J. Tomasi, 
 M. Cossi, N. Rega, J. M. Millam, M. Klene, J. E. Knox, J. B. Cross, 
 V. Bakken, C. Adamo, J. Jaramillo, R. Gomperts, R. E. Stratmann, 
 O. Yazyev, A. J. Austin, R. Cammi, C. Pomelli, J. W. Ochterski, 
 R. L. Martin, K. Morokuma, V. G. Zakrzewski, G. A. Voth, 
 P. Salvador, J. J. Dannenberg, S. Dapprich, A. D. Daniels, 
 O. Farkas, J. B. Foresman, J. V. Ortiz, J. Cioslowski, 
 and D. J. Fox, Gaussian, Inc., Wallingford CT, 2009.
 
 ******************************************
 Gaussian 09:  EM64L-G09RevA.02 11-Jun-2009
                24-Jul-2013 
 ******************************************
 % Mem=128GB
 % Nproc=16
 Will use up to   16 processors via shared memory.
 ----------------------------------------------------------------------
 # ROMP2(RW) Gen GFinput Int=NoBasisTransform Int(Grid=Ultrafine) IOp(3
 /32=2,5/6=10,8/11=1,9/33=1) Maxdisk=128GB CBSextrapolate(Nmin=25,MinPo
 p)
 ----------------------------------------------------------------------
 1/38=1/1;
 2/12=2,17=6,18=5,40=1/2;
 3/5=7,11=2,16=1,24=10,25=1,30=1,32=2,60=-1,75=-5,116=101/1,2,3;
 4//1;
 5/5=2,6=10,38=5/2;
 8/5=-1,10=91,11=1/1;
 9/16=-3,33=1,75=2,81=25,83=4/6,4;
 6/7=2,8=2,9=2,10=2/1;
 99/5=1,9=1/99;
 --------
 ZnO- 2Sg
 --------
 Symbolic Z-matrix:
 Charge = -1 Multiplicity = 2
 Zn
 O                    1     1.7755 
 
                          Input orientation:                          
 ---------------------------------------------------------------------
 Center     Atomic      Atomic             Coordinates (Angstroms)
 Number     Number       Type             X           Y           Z
 ---------------------------------------------------------------------
      1         30           0        0.000000    0.000000    0.000000
      2          8           0        0.000000    0.000000    1.775500
 ---------------------------------------------------------------------
 Stoichiometry    OZn(1-,2)
 Framework group  C*V[C*(OZn)]
 Deg. of freedom     1
 Full point group                 C*V     NOp   4
 Largest Abelian subgroup         C2V     NOp   4
 Largest concise Abelian subgroup C1      NOp   1
                         Standard orientation:                         
 ---------------------------------------------------------------------
 Center     Atomic      Atomic             Coordinates (Angstroms)
 Number     Number       Type             X           Y           Z
 ---------------------------------------------------------------------
      1         30           0        0.000000    0.000000    0.373789
      2          8           0        0.000000    0.000000   -1.401711
 ---------------------------------------------------------------------
 Rotational constants (GHZ):      0.0000000     12.5306198     12.5306198
 General basis read from cards:  (5D, 7F)
 AO basis set in the form of general basis input (Overlap normalization):
      1 0
 S  18 1.00       0.000000000000
      0.4348290390D+08  0.6068700320D-06
      0.8397125720D+07  0.3640548657D-05
      0.1944234120D+07  0.2066323099D-04
      0.5259932200D+06  0.9446534484D-04
      0.1624744880D+06  0.3698680059D-03
      0.5613046270D+05  0.1264441161D-02
      0.2129383970D+05  0.3864824827D-02
      0.8727836900D+04  0.1072642041D-01
      0.3810281920D+04  0.2728507461D-01
      0.1749744110D+04  0.6338608487D-01
      0.8360261520D+03  0.1317108755D+00
      0.4116889660D+03  0.2324982021D+00
      0.2072226870D+03  0.3135105105D+00
      0.1058523750D+03  0.2612287021D+00
      0.5452816100D+02  0.9464922366D-01
      0.2816879500D+02  0.8177246300D-02
      0.1451927400D+02  0.6524783734D-03
      0.7432040000D+01 -0.2220070691D-03
 S  15 1.00       0.000000000000
      0.2129383970D+05 -0.5215444056D-05
      0.8727836900D+04 -0.3126238978D-04
      0.3810281920D+04 -0.2131134852D-03
      0.1749744110D+04 -0.1057229994D-02
      0.8360261520D+03 -0.4833446142D-02
      0.4116889660D+03 -0.1778541959D-01
      0.2072226870D+03 -0.5241885199D-01
      0.1058523750D+03 -0.9048281142D-01
      0.5452816100D+02 -0.1324582194D-01
      0.2816879500D+02  0.3085403402D+00
      0.1451927400D+02  0.5330396427D+00
      0.7432040000D+01  0.2535963206D+00
      0.3760915000D+01  0.2566673151D-01
      0.1873004000D+01  0.3636924347D-02
      0.9137060000D+00 -0.3296552818D-03
 P  17 1.00       0.000000000000
      0.1205765420D+06  0.2293510811D-05
      0.3097786750D+05  0.1922027743D-04
      0.9816265580D+04  0.1230859356D-03
      0.3652265700D+04  0.5951177128D-03
      0.1533198640D+04  0.2349701974D-02
      0.7036302740D+03  0.7862473788D-02
      0.3445004480D+03  0.2288440974D-01
      0.1766567880D+03  0.5832131139D-01
      0.9360023500D+02  0.1273430840D+00
      0.5074146000D+02  0.2256884833D+00
      0.2794165100D+02  0.3071231444D+00
      0.1553982200D+02  0.2761271989D+00
      0.8681457000D+01  0.1313311023D+00
      0.4841649000D+01  0.2689422366D-01
      0.2673690000D+01  0.2014248842D-02
      0.1445701000D+01 -0.1213868403D-04
      0.7537110000D+00 -0.1179201928D-03
 S  14 1.00       0.000000000000
      0.4116889660D+03  0.1206874498D-03
      0.2072226870D+03  0.5986008138D-03
      0.1058523750D+03  0.2852385055D-02
      0.5452816100D+02  0.1901519570D-02
      0.2816879500D+02 -0.3288674424D-01
      0.1451927400D+02 -0.1783798503D+00
      0.7432040000D+01 -0.1271878233D+00
      0.3760915000D+01  0.3371054254D+00
      0.1873004000D+01  0.5877669332D+00
      0.9137060000D+00  0.2816399063D+00
      0.4344190000D+00  0.1987598505D-01
      0.2001830000D+00  0.2336990164D-02
      0.8884700000D-01 -0.8827365913D-03
      0.3770900000D-01  0.2342353113D-03
 P  16 1.00       0.000000000000
      0.3652265700D+04 -0.2643755935D-06
      0.1533198640D+04 -0.3640024612D-05
      0.7036302740D+03 -0.2690480156D-04
      0.3445004480D+03 -0.1696241872D-03
      0.1766567880D+03 -0.8401797537D-03
      0.9360023500D+02 -0.3327007144D-02
      0.5074146000D+02 -0.9209714749D-02
      0.2794165100D+02 -0.1902717366D-01
      0.1553982200D+02 -0.1202419335D-01
      0.8681457000D+01  0.8162665479D-01
      0.4841649000D+01  0.2498940119D+00
      0.2673690000D+01  0.3563758557D+00
      0.1445701000D+01  0.3031611213D+00
      0.7537110000D+00  0.1295046444D+00
      0.3710940000D+00  0.1747016048D-01
      0.1679210000D+00  0.1605027336D-02
 D  16 1.00       0.000000000000
      0.3298968450D+04  0.5105021649D-05
      0.1057206500D+04  0.5006552859D-04
      0.4083774570D+03  0.3372221579D-03
      0.1806001790D+03  0.1637084290D-02
      0.8781934500D+02  0.6235124609D-02
      0.4552849800D+02  0.1870283600D-01
      0.2459602800D+02  0.4588954309D-01
      0.1362015200D+02  0.9657510448D-01
      0.7641486000D+01  0.1648040220D+00
      0.4307354000D+01  0.2210530279D+00
      0.2423093000D+01  0.2430173239D+00
      0.1351436000D+01  0.2279026489D+00
      0.7412970000D+00  0.1806299040D+00
      0.3955040000D+00  0.1120329890D+00
      0.2020520000D+00  0.4431939579D-01
      0.9670300000D-01  0.6651080998D-02
 S  11 1.00       0.000000000000
      0.5452816100D+02 -0.3266106438D-04
      0.2816879500D+02  0.2875225411D-03
      0.1451927400D+02  0.2466187268D-02
      0.7432040000D+01  0.1975767673D-02
      0.3760915000D+01 -0.1274987519D-01
      0.1873004000D+01 -0.5055778115D-01
      0.9137060000D+00 -0.1203606458D+00
      0.4344190000D+00 -0.1319623614D-01
      0.2001830000D+00  0.3002274422D+00
      0.8884700000D-01  0.5671157943D+00
      0.3770900000D-01  0.2642372053D+00
 S   1 1.00       0.000000000000
      0.1600469000D-01  0.1000000000D+01
 P  11 1.00       0.000000000000
      0.5074146000D+02 -0.6332685489D-03
      0.2794165100D+02  0.7886766171D-03
      0.1553982200D+02 -0.3439453593D-02
      0.8681457000D+01  0.8117931271D-02
      0.4841649000D+01 -0.6362827812D-02
      0.2673690000D+01  0.2632781296D-01
      0.1445701000D+01 -0.3200037684D-01
      0.7537110000D+00  0.4545734696D-01
      0.3710940000D+00  0.1094541075D-02
      0.1679210000D+00  0.4507012822D+00
      0.5023297490D-01  0.6322623219D+00
 S   1 1.00       0.000000000000
      0.8189751000D+01  0.1000000000D+01
 S   1 1.00       0.000000000000
      0.3974237000D+01  0.1000000000D+01
 S   1 1.00       0.000000000000
      0.1928576000D+01  0.1000000000D+01
 S   1 1.00       0.000000000000
      0.9358790000D+00  0.1000000000D+01
 S   1 1.00       0.000000000000
      0.4541540000D+00  0.1000000000D+01
 S   1 1.00       0.000000000000
      0.2203870000D+00  0.1000000000D+01
 P   1 1.00       0.000000000000
      0.4411285000D+01  0.1000000000D+01
 P   1 1.00       0.000000000000
      0.2207142000D+01  0.1000000000D+01
 P   1 1.00       0.000000000000
      0.1104322000D+01  0.1000000000D+01
 P   1 1.00       0.000000000000
      0.5525360000D+00  0.1000000000D+01
 P   1 1.00       0.000000000000
      0.2764560000D+00  0.1000000000D+01
 P   1 1.00       0.000000000000
      0.1383220000D+00  0.1000000000D+01
 P   1 1.00       0.000000000000
      0.6920800000D-01  0.1000000000D+01
 D   1 1.00       0.000000000000
      0.8915463000D+01  0.1000000000D+01
 D   1 1.00       0.000000000000
      0.4027450000D+01  0.1000000000D+01
 D   1 1.00       0.000000000000
      0.1819351000D+01  0.1000000000D+01
 D   1 1.00       0.000000000000
      0.8218690000D+00  0.1000000000D+01
 D   1 1.00       0.000000000000
      0.3712690000D+00  0.1000000000D+01
 D   1 1.00       0.000000000000
      0.1677160000D+00  0.1000000000D+01
 D   1 1.00       0.000000000000
      0.7576300000D-01  0.1000000000D+01
 F   1 1.00       0.000000000000
      0.1902583200D+02  0.1000000000D+01
 F   1 1.00       0.000000000000
      0.8335856000D+01  0.1000000000D+01
 F   1 1.00       0.000000000000
      0.3652219000D+01  0.1000000000D+01
 F   1 1.00       0.000000000000
      0.1600160000D+01  0.1000000000D+01
 F   1 1.00       0.000000000000
      0.7010840000D+00  0.1000000000D+01
 F   1 1.00       0.000000000000
      0.3071680000D+00  0.1000000000D+01
 F   1 1.00       0.000000000000
      0.1345800000D+00  0.1000000000D+01
 G   1 1.00       0.000000000000
      0.1493144500D+02  0.1000000000D+01
 G   1 1.00       0.000000000000
      0.6541124000D+01  0.1000000000D+01
 G   1 1.00       0.000000000000
      0.2865517000D+01  0.1000000000D+01
 G   1 1.00       0.000000000000
      0.1255317000D+01  0.1000000000D+01
 G   1 1.00       0.000000000000
      0.5499260000D+00  0.1000000000D+01
 G   1 1.00       0.000000000000
      0.2409100000D+00  0.1000000000D+01
 H   1 1.00       0.000000000000
      0.1287373300D+02  0.1000000000D+01
 H   1 1.00       0.000000000000
      0.5505645000D+01  0.1000000000D+01
 H   1 1.00       0.000000000000
      0.2354571000D+01  0.1000000000D+01
 H   1 1.00       0.000000000000
      0.1006968000D+01  0.1000000000D+01
 H   1 1.00       0.000000000000
      0.4306450000D+00  0.1000000000D+01
 I   1 1.00       0.000000000000
      0.1246955500D+02  0.1000000000D+01
 I   1 1.00       0.000000000000
      0.5033870000D+01  0.1000000000D+01
 I   1 1.00       0.000000000000
      0.2032137000D+01  0.1000000000D+01
 I   1 1.00       0.000000000000
      0.8203590000D+00  0.1000000000D+01
 J   1 1.00       0.000000000000
      0.9800354000D+01  0.1000000000D+01
 J   1 1.00       0.000000000000
      0.3578639000D+01  0.1000000000D+01
 J   1 1.00       0.000000000000
      0.1306754000D+01  0.1000000000D+01
 K   1 1.00       0.000000000000
      0.6978608170D+01  0.1000000000D+01
 ****
      2 0
 S  16 1.00       0.000000000000
      0.1411246410D+07  0.1627429822D-05
      0.2499102240D+06  0.1092621996D-04
      0.5603410580D+05  0.6238741867D-04
      0.1521153640D+05  0.2783303491D-03
      0.4812287750D+04  0.1040541872D-02
      0.1717755460D+04  0.3380392793D-02
      0.6733958240D+03  0.9828484765D-02
      0.2835101840D+03  0.2605310129D-01
      0.1258620070D+03  0.6280818057D-01
      0.5804472200D+02  0.1348202075D+00
      0.2747198500D+02  0.2435563460D+00
      0.1321062900D+02  0.3323287378D+00
      0.6399806000D+01  0.2607930483D+00
      0.3099614000D+01  0.7430834326D-01
      0.1489856000D+01  0.4189538074D-02
      0.7052010000D+00  0.8706455725D-03
 S  11 1.00       0.000000000000
      0.2835101840D+03 -0.1122588094D-03
      0.1258620070D+03 -0.5559335617D-03
      0.5804472200D+02 -0.2851687904D-02
      0.2747198500D+02 -0.1133494995D-01
      0.1321062900D+02 -0.3657977704D-01
      0.6399806000D+01 -0.7288994197D-01
      0.3099614000D+01 -0.1062032356D-01
      0.1489856000D+01  0.2196705572D+00
      0.7052010000D+00  0.4294832072D+00
      0.3258480000D+00  0.3775832849D+00
      0.1454600000D+00  0.9640261255D-01
 S   1 1.00       0.000000000000
      0.5814297870D-01  0.1000000000D+01
 P  13 1.00       0.000000000000
      0.2085279200D+04  0.1447911740D-04
      0.5101470830D+03  0.1283233588D-03
      0.1616811510D+03  0.7792790007D-03
      0.6114945200D+02  0.3400506049D-02
      0.2597660200D+02  0.1157685214D-01
      0.1187542600D+02  0.3269740339D-01
      0.5677133000D+01  0.8011404242D-01
      0.2786475000D+01  0.1605265057D+00
      0.1387844000D+01  0.2460495026D+00
      0.6952810000D+00  0.2898982926D+00
      0.3470020000D+00  0.2606799382D+00
      0.1700990000D+00  0.1479363112D+00
      0.8008000000D-01  0.2980261453D-01
 P   1 1.00       0.000000000000
      0.4261436033D-01  0.1000000000D+01
 S   1 1.00       0.000000000000
      0.4249866000D+01  0.1000000000D+01
 S   1 1.00       0.000000000000
      0.2167470000D+01  0.1000000000D+01
 S   1 1.00       0.000000000000
      0.1105429000D+01  0.1000000000D+01
 S   1 1.00       0.000000000000
      0.5637790000D+00  0.1000000000D+01
 S   1 1.00       0.000000000000
      0.2875320000D+00  0.1000000000D+01
 S   1 1.00       0.000000000000
      0.1466440000D+00  0.1000000000D+01
 P   1 1.00       0.000000000000
      0.5659724000D+01  0.1000000000D+01
 P   1 1.00       0.000000000000
      0.2575878000D+01  0.1000000000D+01
 P   1 1.00       0.000000000000
      0.1172344000D+01  0.1000000000D+01
 P   1 1.00       0.000000000000
      0.5335620000D+00  0.1000000000D+01
 P   1 1.00       0.000000000000
      0.2428370000D+00  0.1000000000D+01
 P   1 1.00       0.000000000000
      0.1105210000D+00  0.1000000000D+01
 D   1 1.00       0.000000000000
      0.9464211000D+01  0.1000000000D+01
 D   1 1.00       0.000000000000
      0.4752286000D+01  0.1000000000D+01
 D   1 1.00       0.000000000000
      0.2386276000D+01  0.1000000000D+01
 D   1 1.00       0.000000000000
      0.1198226000D+01  0.1000000000D+01
 D   1 1.00       0.000000000000
      0.6016680000D+00  0.1000000000D+01
 D   1 1.00       0.000000000000
      0.3021170000D+00  0.1000000000D+01
 D   1 1.00       0.000000000000
      0.1517020000D+00  0.1000000000D+01
 F   1 1.00       0.000000000000
      0.7001836000D+01  0.1000000000D+01
 F   1 1.00       0.000000000000
      0.3552509000D+01  0.1000000000D+01
 F   1 1.00       0.000000000000
      0.1802430000D+01  0.1000000000D+01
 F   1 1.00       0.000000000000
      0.9144960000D+00  0.1000000000D+01
 F   1 1.00       0.000000000000
      0.4639860000D+00  0.1000000000D+01
 F   1 1.00       0.000000000000
      0.2354110000D+00  0.1000000000D+01
 G   1 1.00       0.000000000000
      0.6472481000D+01  0.1000000000D+01
 G   1 1.00       0.000000000000
      0.3119071000D+01  0.1000000000D+01
 G   1 1.00       0.000000000000
      0.1503072000D+01  0.1000000000D+01
 G   1 1.00       0.000000000000
      0.7243260000D+00  0.1000000000D+01
 G   1 1.00       0.000000000000
      0.3490500000D+00  0.1000000000D+01
 H   1 1.00       0.000000000000
      0.5355083000D+01  0.1000000000D+01
 H   1 1.00       0.000000000000
      0.2414696000D+01  0.1000000000D+01
 H   1 1.00       0.000000000000
      0.1088827000D+01  0.1000000000D+01
 H   1 1.00       0.000000000000
      0.4909703000D+00  0.1000000000D+01
 I   1 1.00       0.000000000000
      0.4322113000D+01  0.1000000000D+01
 I   1 1.00       0.000000000000
      0.1716263000D+01  0.1000000000D+01
 I   1 1.00       0.000000000000
      0.6815089000D+00  0.1000000000D+01
 J   1 1.00       0.000000000000
      0.3060973723D+01  0.1000000000D+01
 ****

 There are   203 symmetry adapted basis functions of A1  symmetry.
 There are   105 symmetry adapted basis functions of A2  symmetry.
 There are   149 symmetry adapted basis functions of B1  symmetry.
 There are   149 symmetry adapted basis functions of B2  symmetry.
 Integral buffers will be    131072 words long.
 Raffenetti 2 integral format.
 Two-electron integral symmetry is turned on.
   606 basis functions,  1361 primitive gaussians,  1033 cartesian basis functions
    20 alpha electrons       19 beta electrons
       nuclear repulsion energy        71.5305717046 Hartrees.
 NAtoms=    2 NActive=    2 NUniq=    2 SFac= 7.50D-01 NAtFMM=   80 NAOKFM=F Big=F
 One-electron integrals computed using PRISM.
 NBasis=   606 RedAO= F  NBF=   203   105   149   149
 NBsUse=   606 1.00D-04 NBFU=   203   105   149   149
 Harris functional with IExCor=  205 diagonalized for initial guess.
 ExpMin= 1.60D-02 ExpMax= 4.35D+07 ExpMxC= 8.73D+03 IAcc=3 IRadAn=         5 AccDes= 0.00D+00
 HarFok:  IExCor=  205 AccDes= 0.00D+00 IRadAn=         5 IDoV= 1
 ScaDFX=  1.000000  1.000000  1.000000  1.000000
 FoFCou: FMM=F IPFlag=           0 FMFlag=      100000 FMFlg1=           0
         NFxFlg=           0 DoJE=T BraDBF=F KetDBF=T FulRan=T
         Omega=  0.000000  0.000000  1.000000  0.000000  0.000000 ICntrl=     500 IOpCl=  0
         NMat0=    1 NMatS0=    1 NMatT0=    0 NMatD0=    1 NMtDS0=    0 NMtDT0=    0
         I1Cent=           4 NGrid=           0.
 Petite list used in FoFCou.
 Initial guess orbital symmetries:
       Occupied  (SG) (SG) (SG) (PI) (PI) (SG) (SG) (SG) (PI) (PI)
                 (SG) (SG) (PI) (PI) (DLTA) (DLTA) (PI) (PI) (SG)
                 (SG)
       Virtual   (PI) (PI) (SG) (SG) (SG) (PI) (PI) (DLTA) (DLTA)
                 (PI) (PI) (SG) (SG) (SG) (PI) (PI) (SG) (PI) (PI)
                 (DLTA) (DLTA) (SG) (PI) (PI) (PHI) (PHI) (SG)
                 (SG) (PI) (PI) (DLTA) (DLTA) (PI) (PI) (DLTA)
                 (DLTA) (SG) (SG) (PI) (PI) (SG) (PHI) (PHI) (SG)
                 (DLTA) (DLTA) (PI) (PI) (SG) (PI) (PI) (?A) (?A)
                 (DLTA) (DLTA) (PI) (PI) (PHI) (PHI) (SG) (DLTA)
                 (DLTA) (SG) (PHI) (PHI) (PI) (PI) (SG) (PI) (PI)
                 (DLTA) (DLTA) (PI) (PI) (DLTA) (DLTA) (SG) (?A)
                 (?A) (SG) (PHI) (PHI) (SG) (PI) (PI) (SG) (PI)
                 (PI) (DLTA) (DLTA) (PHI) (PHI) (SG) (DLTA) (DLTA)
                 (SG) (PI) (PI) (?B) (?B) (DLTA) (DLTA) (?A) (?A)
                 (PI) (PI) (SG) (PI) (PI) (PHI) (PHI) (PI) (PI)
                 (SG) (DLTA) (DLTA) (PHI) (PHI) (DLTA) (DLTA) (?B)
                 (?B) (?A) (?A) (PHI) (PHI) (SG) (PI) (PI) (?A)
                 (?A) (SG) (PI) (PI) (DLTA) (DLTA) (SG) (PI) (PI)
                 (SG) (DLTA) (DLTA) (PHI) (PHI) (PI) (PI) (?A)
                 (?A) (SG) (PHI) (PHI) (DLTA) (DLTA) (PI) (PI)
                 (DLTA) (DLTA) (SG) (SG) (PI) (PI) (PHI) (PHI)
                 (?B) (?B) (SG) (SG) (SG) (?A) (?A) (DLTA) (DLTA)
                 (DLTA) (DLTA) (SG) (PHI) (PHI) (PI) (PI) (PI)
                 (PI) (SG) (SG) (SG) (SG) (?B) (?B) (DLTA) (DLTA)
                 (PI) (PI) (PI) (PI) (?A) (?A) (DLTA) (DLTA) (SG)
                 (?B) (?B) (PHI) (PHI) (?A) (?A) (SG) (DLTA) (DLTA)
                 (PHI) (PHI) (PI) (PI) (PHI) (PHI) (?A) (?A) (PI)
                 (PI) (SG) (PI) (PI) (SG) (?B) (?B) (SG) (PHI)
                 (PHI) (DLTA) (DLTA) (?A) (?A) (PI) (PI) (PHI)
                 (PHI) (DLTA) (DLTA) (PI) (PI) (SG) (SG) (DLTA)
                 (DLTA) (SG) (PI) (PI) (?A) (?A) (DLTA) (DLTA)
                 (PHI) (PHI) (SG) (PHI) (PHI) (PI) (PI) (DLTA)
                 (DLTA) (SG) (DLTA) (DLTA) (PI) (PI) (DLTA) (DLTA)
                 (SG) (SG) (?C) (?C) (?B) (?B) (SG) (PI) (PI) (?A)
                 (?A) (PHI) (PHI) (PI) (PI) (DLTA) (DLTA) (SG)
                 (SG) (PI) (PI) (SG) (SG) (SG) (?B) (?B) (?A) (?A)
                 (PHI) (PHI) (PI) (PI) (DLTA) (DLTA) (PHI) (PHI)
                 (SG) (DLTA) (DLTA) (SG) (PI) (PI) (SG) (SG) (?B)
                 (?B) (SG) (?A) (?A) (?B) (?B) (PHI) (PHI) (?A)
                 (?A) (PI) (PI) (?A) (?A) (DLTA) (DLTA) (PHI) (PHI)
                 (PI) (PI) (SG) (PHI) (PHI) (DLTA) (DLTA) (SG)
                 (PI) (PI) (DLTA) (DLTA) (SG) (PI) (PI) (?B) (?B)
                 (?A) (?A) (SG) (PHI) (PHI) (PI) (PI) (DLTA) (DLTA)
                 (SG) (PI) (PI) (SG) (?A) (?A) (PHI) (PHI) (PHI)
                 (PHI) (DLTA) (DLTA) (DLTA) (DLTA) (PI) (PI) (SG)
                 (SG) (PI) (PI) (DLTA) (DLTA) (PI) (PI) (DLTA)
                 (DLTA) (SG) (PI) (PI) (SG) (SG) (PI) (PI) (?A)
                 (?A) (SG) (SG) (PI) (PI) (PHI) (PHI) (DLTA) (DLTA)
                 (PI) (PI) (SG) (SG) (PI) (PI) (SG) (PI) (PI) (?A)
                 (?A) (PHI) (PHI) (DLTA) (DLTA) (SG) (PI) (PI)
                 (PHI) (PHI) (DLTA) (DLTA) (PI) (PI) (SG) (?A)
                 (?A) (PHI) (PHI) (DLTA) (DLTA) (PI) (PI) (SG)
                 (SG) (SG) (?B) (?B) (?A) (?A) (PHI) (PHI) (DLTA)
                 (DLTA) (?B) (?B) (PI) (PI) (?A) (?A) (PHI) (PHI)
                 (SG) (DLTA) (DLTA) (SG) (PI) (PI) (SG) (SG) (?B)
                 (?B) (?A) (?A) (PHI) (PHI) (DLTA) (DLTA) (PI)
                 (PI) (SG) (?B) (?B) (?A) (?A) (PHI) (PHI) (DLTA)
                 (DLTA) (SG) (PI) (PI) (PI) (PI) (PHI) (PHI) (DLTA)
                 (DLTA) (SG) (PI) (PI) (SG) (?A) (?A) (PHI) (PHI)
                 (DLTA) (DLTA) (PI) (PI) (SG) (SG) (DLTA) (DLTA)
                 (PI) (PI) (SG) (PI) (PI) (SG) (?D) (?E) (?E) (?F)
                 (?E) (?E) (?F) (?D) (?F) (?E) (?E) (?D) (?F) (?E)
                 (?E) (?D) (?D) (DLTA) (DLTA) (PI) (PI) (SG) (PHI)
                 (PHI) (DLTA) (DLTA) (PI) (PI) (?A) (?A) (PHI)
                 (PHI) (SG) (DLTA) (DLTA) (PI) (PI) (SG) (SG) (SG)
                 (PI) (PI) (PI) (PI) (?A) (?A) (PHI) (PHI) (DLTA)
                 (DLTA) (SG) (PI) (PI) (?B) (?B) (?A) (?A) (PHI)
                 (PHI) (DLTA) (DLTA) (SG) (PI) (PI) (SG) (SG) (?B)
                 (?B) (?A) (?A) (PHI) (PHI) (DLTA) (DLTA) (PI)
                 (PI) (SG) (SG) (SG)
 The electronic state of the initial guess is 2-SG.
 Requested convergence on RMS density matrix=1.00D-10 within 128 cycles.
 Requested convergence on MAX density matrix=1.00D-08.
 Requested convergence on             energy=1.00D-08.
 No special actions if energy rises.
 EnCoef did   100 forward-backward iterations
 Rare condition: small coef for last iteration:  0.000D+00
 Initial convergence to 1.0D-05 achieved.  Increase integral accuracy.
 SCF Done:  E(ROHF) =  -1852.66572648     A.U. after   29 cycles
             Convg  =    0.4838D-11             -V/T =  2.0000
 <Sx>= 0.0000 <Sy>= 0.0000 <Sz>= 0.5000 <S**2>= 0.7500 S= 0.5000
 <L.S>= 0.000000000000E+00
 Annihilation of the first spin contaminant:
 S**2 before annihilation     0.7500,   after     0.7500
 DiagDN has N=   606 LTot=  1850 but NE2=     3 cannot use DSYEVD.
 GenMOA:  NOpAll=  4 NOp2=4 NOpUse=  4 JSym2X=1
 <Sx>= 0.0000 <Sy>= 0.0000 <Sz>= 0.5000 <S**2>= 0.7500 S= 0.5000
 Range of M.O.s used for correlation:    11   606
 NBasis=   606 NAE=    20 NBE=    19 NFC=    10 NFV=     0
 NROrb=    596 NOA=    10 NOB=     9 NVA=   586 NVB=   587

 **** Warning!!: The largest alpha MO coefficient is  0.21062015D+03


 **** Warning!!: The largest beta MO coefficient is  0.21062016D+03

 Singles contribution to E2=   -0.1395769613D-02
 Disk-based method using OVN memory for 10 occupieds at a time.
 Permanent disk used for amplitudes and <ij||ab> integrals=    89726562 words.
 Estimated scratch disk usage=  9597299772 words.
 IUseRI=2 ITolRI= 6 IR12RI=0
 Actual    scratch disk usage=  9580943624 words.
 JobTyp=2 Pass  1:  I=   1 to  10 NPSUse= 16 ParTrn=T ParDer=T DoDerP=F.
 (rs|ai) integrals will be sorted in core.
 T,EIJ(AA): I=   1 J=   2      0.3528449E-04     -0.2622595E-03
 T,EIJ(AA): I=   1 J=   3      0.3528449E-04     -0.2622595E-03
 T,EIJ(AA): I=   1 J=   4      0.6281409E-04     -0.4674671E-03
 T,EIJ(AA): I=   1 J=   5      0.6281409E-04     -0.4674671E-03
 T,EIJ(AA): I=   1 J=   6      0.5663800E-04     -0.3113709E-03
 T,EIJ(AA): I=   1 J=   7      0.5596037E-03     -0.2372267E-02
 T,EIJ(AA): I=   1 J=   8      0.8497621E-03     -0.3466972E-02
 T,EIJ(AA): I=   1 J=   9      0.8497621E-03     -0.3466972E-02
 T,EIJ(AA): I=   1 J=  10      0.2035694E-03     -0.8573266E-03
 T,EIJ(AA): I=   2 J=   3      0.1340266E-02     -0.1263936E-01
 T,EIJ(AA): I=   2 J=   4      0.8988250E-03     -0.8041275E-02
 T,EIJ(AA): I=   2 J=   5      0.8988250E-03     -0.8041275E-02
 T,EIJ(AA): I=   2 J=   6      0.8014325E-03     -0.6503358E-02
 T,EIJ(AA): I=   2 J=   7      0.2396728E-03     -0.1171032E-02
 T,EIJ(AA): I=   2 J=   8      0.6935429E-04     -0.3235515E-03
 T,EIJ(AA): I=   2 J=   9      0.6935429E-04     -0.3235515E-03
 T,EIJ(AA): I=   2 J=  10      0.2535888E-03     -0.9867556E-03
 T,EIJ(AA): I=   3 J=   4      0.8988250E-03     -0.8041275E-02
 T,EIJ(AA): I=   3 J=   5      0.8988250E-03     -0.8041275E-02
 T,EIJ(AA): I=   3 J=   6      0.8014325E-03     -0.6503358E-02
 T,EIJ(AA): I=   3 J=   7      0.2396728E-03     -0.1171032E-02
 T,EIJ(AA): I=   3 J=   8      0.6935429E-04     -0.3235515E-03
 T,EIJ(AA): I=   3 J=   9      0.6935429E-04     -0.3235515E-03
 T,EIJ(AA): I=   3 J=  10      0.2535888E-03     -0.9867556E-03
 T,EIJ(AA): I=   4 J=   5      0.8824672E-03     -0.7922257E-02
 T,EIJ(AA): I=   4 J=   6      0.1176618E-02     -0.1057651E-01
 T,EIJ(AA): I=   4 J=   7      0.2534105E-03     -0.1287337E-02
 T,EIJ(AA): I=   4 J=   8      0.6987848E-04     -0.2772564E-03
 T,EIJ(AA): I=   4 J=   9      0.8088748E-04     -0.3760923E-03
 T,EIJ(AA): I=   4 J=  10      0.3180590E-03     -0.1207509E-02
 T,EIJ(AA): I=   5 J=   6      0.1176618E-02     -0.1057651E-01
 T,EIJ(AA): I=   5 J=   7      0.2534105E-03     -0.1287337E-02
 T,EIJ(AA): I=   5 J=   8      0.8088748E-04     -0.3760923E-03
 T,EIJ(AA): I=   5 J=   9      0.6987848E-04     -0.2772564E-03
 T,EIJ(AA): I=   5 J=  10      0.3180590E-03     -0.1207509E-02
 T,EIJ(AA): I=   6 J=   7      0.2940646E-03     -0.1270355E-02
 T,EIJ(AA): I=   6 J=   8      0.1765618E-03     -0.7217934E-03
 T,EIJ(AA): I=   6 J=   9      0.1765618E-03     -0.7217934E-03
 T,EIJ(AA): I=   6 J=  10      0.3941064E-03     -0.1331251E-02
 T,EIJ(AA): I=   7 J=   8      0.2974400E-02     -0.7606957E-02
 T,EIJ(AA): I=   7 J=   9      0.2974400E-02     -0.7606957E-02
 T,EIJ(AA): I=   7 J=  10      0.5359093E-03     -0.8607954E-03
 T,EIJ(AA): I=   8 J=   9      0.4942976E-02     -0.1116162E-01
 T,EIJ(AA): I=   8 J=  10      0.1921033E-02     -0.3626835E-02
 T,EIJ(AA): I=   9 J=  10      0.1921033E-02     -0.3626835E-02
 T,EIJ(AB): I=   1 J=   1      0.2023332E-02     -0.1260532E-01
 T,EIJ(AB): I=   1 J=   2      0.4248862E-04     -0.3691835E-03
 T,EIJ(AB): I=   1 J=   3      0.4248862E-04     -0.3691835E-03
 T,EIJ(AB): I=   1 J=   4      0.7840449E-04     -0.5909633E-03
 T,EIJ(AB): I=   1 J=   5      0.7840449E-04     -0.5909633E-03
 T,EIJ(AB): I=   1 J=   6      0.1763720E-03     -0.1269838E-02
 T,EIJ(AB): I=   1 J=   7      0.2200894E-02     -0.1028758E-01
 T,EIJ(AB): I=   1 J=   8      0.2275156E-02     -0.1145233E-01
 T,EIJ(AB): I=   1 J=   9      0.2275156E-02     -0.1145233E-01
 T,EIJ(AB): I=   2 J=   1      0.4382499E-04     -0.3764429E-03
 T,EIJ(AB): I=   2 J=   2      0.2092882E-02     -0.2029858E-01
 T,EIJ(AB): I=   2 J=   3      0.1386421E-02     -0.1288142E-01
 T,EIJ(AB): I=   2 J=   4      0.1177588E-02     -0.1098524E-01
 T,EIJ(AB): I=   2 J=   5      0.1177588E-02     -0.1098524E-01
 T,EIJ(AB): I=   2 J=   6      0.1266169E-02     -0.1058513E-01
 T,EIJ(AB): I=   2 J=   7      0.3572630E-03     -0.1512437E-02
 T,EIJ(AB): I=   2 J=   8      0.8097947E-04     -0.4003290E-03
 T,EIJ(AB): I=   2 J=   9      0.8097947E-04     -0.4003290E-03
 T,EIJ(AB): I=   3 J=   1      0.4382499E-04     -0.3764429E-03
 T,EIJ(AB): I=   3 J=   2      0.1386421E-02     -0.1288142E-01
 T,EIJ(AB): I=   3 J=   3      0.2092882E-02     -0.2029858E-01
 T,EIJ(AB): I=   3 J=   4      0.1177588E-02     -0.1098524E-01
 T,EIJ(AB): I=   3 J=   5      0.1177588E-02     -0.1098524E-01
 T,EIJ(AB): I=   3 J=   6      0.1266169E-02     -0.1058513E-01
 T,EIJ(AB): I=   3 J=   7      0.3572630E-03     -0.1512437E-02
 T,EIJ(AB): I=   3 J=   8      0.8097947E-04     -0.4003290E-03
 T,EIJ(AB): I=   3 J=   9      0.8097947E-04     -0.4003290E-03
 T,EIJ(AB): I=   4 J=   1      0.8366652E-04     -0.6083906E-03
 T,EIJ(AB): I=   4 J=   2      0.1179378E-02     -0.1098794E-01
 T,EIJ(AB): I=   4 J=   3      0.1179378E-02     -0.1098794E-01
 T,EIJ(AB): I=   4 J=   4      0.1981493E-02     -0.1965971E-01
 T,EIJ(AB): I=   4 J=   5      0.1152704E-02     -0.1081520E-01
 T,EIJ(AB): I=   4 J=   6      0.1320937E-02     -0.1175390E-01
 T,EIJ(AB): I=   4 J=   7      0.3673108E-03     -0.1708905E-02
 T,EIJ(AB): I=   4 J=   8      0.1490957E-03     -0.7495928E-03
 T,EIJ(AB): I=   4 J=   9      0.9364617E-04     -0.4550529E-03
 T,EIJ(AB): I=   5 J=   1      0.8366652E-04     -0.6083906E-03
 T,EIJ(AB): I=   5 J=   2      0.1179378E-02     -0.1098794E-01
 T,EIJ(AB): I=   5 J=   3      0.1179378E-02     -0.1098794E-01
 T,EIJ(AB): I=   5 J=   4      0.1152704E-02     -0.1081520E-01
 T,EIJ(AB): I=   5 J=   5      0.1981493E-02     -0.1965971E-01
 T,EIJ(AB): I=   5 J=   6      0.1320937E-02     -0.1175390E-01
 T,EIJ(AB): I=   5 J=   7      0.3673108E-03     -0.1708905E-02
 T,EIJ(AB): I=   5 J=   8      0.9364617E-04     -0.4550529E-03
 T,EIJ(AB): I=   5 J=   9      0.1490957E-03     -0.7495928E-03
 T,EIJ(AB): I=   6 J=   1      0.1944716E-03     -0.1371286E-02
 T,EIJ(AB): I=   6 J=   2      0.1200653E-02     -0.1036389E-01
 T,EIJ(AB): I=   6 J=   3      0.1200653E-02     -0.1036389E-01
 T,EIJ(AB): I=   6 J=   4      0.1278625E-02     -0.1160089E-01
 T,EIJ(AB): I=   6 J=   5      0.1278625E-02     -0.1160089E-01
 T,EIJ(AB): I=   6 J=   6      0.2082168E-02     -0.1870436E-01
 T,EIJ(AB): I=   6 J=   7      0.6072085E-03     -0.2692983E-02
 T,EIJ(AB): I=   6 J=   8      0.2577458E-03     -0.1150653E-02
 T,EIJ(AB): I=   6 J=   9      0.2577458E-03     -0.1150653E-02
 T,EIJ(AB): I=   7 J=   1      0.1611415E-02     -0.8296998E-02
 T,EIJ(AB): I=   7 J=   2      0.4127130E-03     -0.1751674E-02
 T,EIJ(AB): I=   7 J=   3      0.4127130E-03     -0.1751674E-02
 T,EIJ(AB): I=   7 J=   4      0.3720523E-03     -0.1796058E-02
 T,EIJ(AB): I=   7 J=   5      0.3720523E-03     -0.1796058E-02
 T,EIJ(AB): I=   7 J=   6      0.5964533E-03     -0.2666230E-02
 T,EIJ(AB): I=   7 J=   7      0.9006155E-02     -0.2064189E-01
 T,EIJ(AB): I=   7 J=   8      0.4243714E-02     -0.1089480E-01
 T,EIJ(AB): I=   7 J=   9      0.4243714E-02     -0.1089480E-01
 T,EIJ(AB): I=   8 J=   1      0.2392780E-02     -0.1179267E-01
 T,EIJ(AB): I=   8 J=   2      0.7721371E-04     -0.3863040E-03
 T,EIJ(AB): I=   8 J=   3      0.7721371E-04     -0.3863040E-03
 T,EIJ(AB): I=   8 J=   4      0.1482721E-03     -0.7421837E-03
 T,EIJ(AB): I=   8 J=   5      0.9368301E-04     -0.4514319E-03
 T,EIJ(AB): I=   8 J=   6      0.2795004E-03     -0.1144929E-02
 T,EIJ(AB): I=   8 J=   7      0.8270567E-02     -0.1589682E-01
 T,EIJ(AB): I=   8 J=   8      0.1047056E-01     -0.2731959E-01
 T,EIJ(AB): I=   8 J=   9      0.6321442E-02     -0.1511928E-01
 T,EIJ(AB): I=   9 J=   1      0.2392780E-02     -0.1179267E-01
 T,EIJ(AB): I=   9 J=   2      0.7721371E-04     -0.3863040E-03
 T,EIJ(AB): I=   9 J=   3      0.7721371E-04     -0.3863040E-03
 T,EIJ(AB): I=   9 J=   4      0.9368301E-04     -0.4514319E-03
 T,EIJ(AB): I=   9 J=   5      0.1482721E-03     -0.7421837E-03
 T,EIJ(AB): I=   9 J=   6      0.2795005E-03     -0.1144929E-02
 T,EIJ(AB): I=   9 J=   7      0.8270567E-02     -0.1589682E-01
 T,EIJ(AB): I=   9 J=   8      0.6321442E-02     -0.1511928E-01
 T,EIJ(AB): I=   9 J=   9      0.1047056E-01     -0.2731959E-01
 T,EIJ(AB): I=  10 J=   1      0.7182648E-03     -0.3352673E-02
 T,EIJ(AB): I=  10 J=   2      0.3449593E-03     -0.1259651E-02
 T,EIJ(AB): I=  10 J=   3      0.3449593E-03     -0.1259651E-02
 T,EIJ(AB): I=  10 J=   4      0.4303974E-03     -0.1599466E-02
 T,EIJ(AB): I=  10 J=   5      0.4303974E-03     -0.1599466E-02
 T,EIJ(AB): I=  10 J=   6      0.5924339E-03     -0.2013222E-02
 T,EIJ(AB): I=  10 J=   7      0.5256968E-02     -0.9260507E-02
 T,EIJ(AB): I=  10 J=   8      0.2167009E-02     -0.4593472E-02
 T,EIJ(AB): I=  10 J=   9      0.2167009E-02     -0.4593473E-02
 Actual    scratch disk usage=  9597293628 words.
 JobTyp=3 Pass  1:  I=   1 to   9 NPSUse= 16 ParTrn=T ParDer=T DoDerP=F.
 (rs|ai) integrals will be sorted in core.
 T,EIJ(BB): I=   1 J=   2      0.3638627E-04     -0.2679325E-03
 T,EIJ(BB): I=   1 J=   3      0.3638627E-04     -0.2679325E-03
 T,EIJ(BB): I=   1 J=   4      0.6743329E-04     -0.4877927E-03
 T,EIJ(BB): I=   1 J=   5      0.6743329E-04     -0.4877927E-03
 T,EIJ(BB): I=   1 J=   6      0.7017049E-04     -0.3486447E-03
 T,EIJ(BB): I=   1 J=   7      0.9552262E-03     -0.3464771E-02
 T,EIJ(BB): I=   1 J=   8      0.8999588E-03     -0.3601933E-02
 T,EIJ(BB): I=   1 J=   9      0.8999588E-03     -0.3601933E-02
 T,EIJ(BB): I=   2 J=   3      0.1333716E-02     -0.1262916E-01
 T,EIJ(BB): I=   2 J=   4      0.8921025E-03     -0.8030642E-02
 T,EIJ(BB): I=   2 J=   5      0.8921025E-03     -0.8030642E-02
 T,EIJ(BB): I=   2 J=   6      0.8308639E-03     -0.6617649E-02
 T,EIJ(BB): I=   2 J=   7      0.2184165E-03     -0.1052115E-02
 T,EIJ(BB): I=   2 J=   8      0.7074515E-04     -0.3322387E-03
 T,EIJ(BB): I=   2 J=   9      0.7074515E-04     -0.3322387E-03
 T,EIJ(BB): I=   3 J=   4      0.8921025E-03     -0.8030642E-02
 T,EIJ(BB): I=   3 J=   5      0.8921025E-03     -0.8030642E-02
 T,EIJ(BB): I=   3 J=   6      0.8308639E-03     -0.6617649E-02
 T,EIJ(BB): I=   3 J=   7      0.2184165E-03     -0.1052115E-02
 T,EIJ(BB): I=   3 J=   8      0.7074515E-04     -0.3322387E-03
 T,EIJ(BB): I=   3 J=   9      0.7074515E-04     -0.3322387E-03
 T,EIJ(BB): I=   4 J=   5      0.8672717E-03     -0.7889464E-02
 T,EIJ(BB): I=   4 J=   6      0.1200954E-02     -0.1069604E-01
 T,EIJ(BB): I=   4 J=   7      0.2584130E-03     -0.1246642E-02
 T,EIJ(BB): I=   4 J=   8      0.7028789E-04     -0.2802367E-03
 T,EIJ(BB): I=   4 J=   9      0.8226093E-04     -0.3857927E-03
 T,EIJ(BB): I=   5 J=   6      0.1200954E-02     -0.1069604E-01
 T,EIJ(BB): I=   5 J=   7      0.2584130E-03     -0.1246642E-02
 T,EIJ(BB): I=   5 J=   8      0.8226093E-04     -0.3857927E-03
 T,EIJ(BB): I=   5 J=   9      0.7028789E-04     -0.2802367E-03
 T,EIJ(BB): I=   6 J=   7      0.3631671E-03     -0.1441272E-02
 T,EIJ(BB): I=   6 J=   8      0.2105245E-03     -0.7623405E-03
 T,EIJ(BB): I=   6 J=   9      0.2105245E-03     -0.7623405E-03
 T,EIJ(BB): I=   7 J=   8      0.6041229E-02     -0.1152004E-01
 T,EIJ(BB): I=   7 J=   9      0.6041229E-02     -0.1152004E-01
 T,EIJ(BB): I=   8 J=   9      0.4858085E-02     -0.1112392E-01
 Spin components of T(2) and E(2):
     alpha-alpha T2 =       0.3150912451D-01 E2=     -0.1492621853D+00
     alpha-beta  T2 =       0.1378790366D+00 E2=     -0.6267915493D+00
     beta-beta   T2 =       0.3213248299D-01 E2=     -0.1441857958D+00
 ANorm=    0.1096980554D+01
 E2 =    -0.9216353000D+00 EUMP2 =    -0.18535873617795D+04

 Complete Basis Set (CBS) Extrapolation:
 M. R. Nyden and G. A. Petersson, JCP 75, 1843 (1981)
 G. A. Petersson and M. A. Al-Laham, JCP 94, 6081 (1991)
 G. A. Petersson, T. Tensfeldt, and J. A. Montgomery, JCP 94, 6091 (1991)
 J. A. Montgomery, J. W. Ochterski, and G. A. Petersson, JCP 101, 5900 (1994)
 
 Minimum Number of PNO for Extrapolation =  25
 Absolute Overlaps: IRadAn =         5
 LocTrn: ILocal=3 LocCor=F DoCore=F.
 Entering OneElI...
 Overlap between basis sets.
 Requested accuracy = 0.1000D-12
 PrsmSu:  NPrtUS=   1 ThrOK=F IAlg=1
 PRISM was handed 17178055087 working-precision words and    45 shell-pairs
 IPart=  0 NShTot=          45 NBatch=           9 AvBLen=         5.0
 CnvPC2: ToCart=F DoDens=F IPureD=0 IPureF=0.
 Transformed matrix in CnvPC2: 
                 1             2             3             4             5 
      1   0.100000D+01  0.397781D+00  0.000000D+00  0.000000D+00  0.000000D+00
      2   0.397781D+00  0.100000D+01  0.000000D+00  0.000000D+00  0.000000D+00
      3   0.000000D+00  0.000000D+00  0.100000D+01  0.000000D+00  0.000000D+00
      4   0.000000D+00  0.000000D+00  0.000000D+00  0.100000D+01  0.000000D+00
      5   0.000000D+00  0.000000D+00  0.000000D+00  0.000000D+00  0.100000D+01
      6   0.273329D-01  0.326933D+00  0.000000D+00  0.000000D+00  0.000000D+00
      7   0.000000D+00  0.000000D+00  0.339871D+00  0.000000D+00  0.000000D+00
      8   0.000000D+00  0.000000D+00  0.000000D+00  0.339871D+00  0.000000D+00
      9   0.000000D+00  0.000000D+00  0.000000D+00  0.000000D+00  0.339871D+00
     10   0.000000D+00  0.000000D+00  0.000000D+00  0.000000D+00  0.000000D+00
     11   0.000000D+00  0.000000D+00  0.000000D+00  0.000000D+00  0.000000D+00
     12   0.000000D+00  0.000000D+00  0.000000D+00  0.000000D+00  0.000000D+00
     13   0.000000D+00  0.000000D+00  0.000000D+00  0.000000D+00  0.000000D+00
     14   0.000000D+00  0.000000D+00  0.000000D+00  0.000000D+00  0.000000D+00
     15  -0.379176D-03  0.483794D-02  0.000000D+00  0.000000D+00  0.000000D+00
     16   0.000000D+00  0.000000D+00  0.130039D-01  0.000000D+00  0.000000D+00
     17   0.000000D+00  0.000000D+00  0.000000D+00  0.130039D-01  0.000000D+00
     18   0.000000D+00  0.000000D+00  0.000000D+00  0.000000D+00  0.130039D-01
     19   0.000000D+00  0.000000D+00  0.000000D+00  0.000000D+00  0.000000D+00
     20   0.290277D-03  0.192999D-02  0.000000D+00  0.000000D+00 -0.887806D-03
     21   0.000000D+00  0.000000D+00  0.240350D-03  0.000000D+00  0.000000D+00
     22   0.000000D+00  0.000000D+00  0.000000D+00  0.240350D-03  0.000000D+00
     23   0.671062D-03  0.435448D-02  0.000000D+00  0.000000D+00 -0.177294D-02
                 6             7             8             9            10 
      1   0.273329D-01  0.000000D+00  0.000000D+00  0.000000D+00  0.000000D+00
      2   0.326933D+00  0.000000D+00  0.000000D+00  0.000000D+00  0.000000D+00
      3   0.000000D+00  0.339871D+00  0.000000D+00  0.000000D+00  0.000000D+00
      4   0.000000D+00  0.000000D+00  0.339871D+00  0.000000D+00  0.000000D+00
      5   0.000000D+00  0.000000D+00  0.000000D+00  0.339871D+00  0.000000D+00
      6   0.100000D+01  0.000000D+00  0.000000D+00  0.000000D+00  0.000000D+00
      7   0.000000D+00  0.100000D+01  0.000000D+00  0.000000D+00  0.000000D+00
      8   0.000000D+00  0.000000D+00  0.100000D+01  0.000000D+00  0.000000D+00
      9   0.000000D+00  0.000000D+00  0.000000D+00  0.100000D+01  0.000000D+00
     10   0.000000D+00  0.000000D+00  0.000000D+00  0.000000D+00  0.100000D+01
     11   0.000000D+00  0.000000D+00  0.000000D+00  0.000000D+00  0.000000D+00
     12   0.000000D+00  0.000000D+00  0.000000D+00  0.000000D+00  0.000000D+00
     13   0.000000D+00  0.000000D+00  0.000000D+00  0.000000D+00  0.000000D+00
     14   0.000000D+00  0.000000D+00  0.000000D+00  0.000000D+00  0.000000D+00
     15   0.204897D+00  0.000000D+00  0.000000D+00  0.000000D+00  0.000000D+00
     16   0.000000D+00  0.221280D+00  0.000000D+00  0.000000D+00  0.000000D+00
     17   0.000000D+00  0.000000D+00  0.221280D+00  0.000000D+00  0.000000D+00
     18   0.000000D+00  0.000000D+00  0.000000D+00  0.221280D+00  0.000000D+00
     19   0.000000D+00  0.000000D+00  0.000000D+00 -0.177548D-05  0.122466D-04
     20   0.169631D-01  0.000000D+00  0.000000D+00 -0.189506D-01  0.151562D-01
     21   0.000000D+00  0.520210D-02  0.000000D+00  0.000000D+00  0.000000D+00
     22   0.000000D+00  0.000000D+00  0.520210D-02  0.000000D+00  0.000000D+00
     23   0.323688D-01  0.000000D+00  0.000000D+00 -0.329473D-01  0.239153D-01
                11            12            13            14            15 
      1   0.000000D+00  0.000000D+00  0.000000D+00  0.000000D+00 -0.379176D-03
      2   0.000000D+00  0.000000D+00  0.000000D+00  0.000000D+00  0.483794D-02
      3   0.000000D+00  0.000000D+00  0.000000D+00  0.000000D+00  0.000000D+00
      4   0.000000D+00  0.000000D+00  0.000000D+00  0.000000D+00  0.000000D+00
      5   0.000000D+00  0.000000D+00  0.000000D+00  0.000000D+00  0.000000D+00
      6   0.000000D+00  0.000000D+00  0.000000D+00  0.000000D+00  0.204897D+00
      7   0.000000D+00  0.000000D+00  0.000000D+00  0.000000D+00  0.000000D+00
      8   0.000000D+00  0.000000D+00  0.000000D+00  0.000000D+00  0.000000D+00
      9   0.000000D+00  0.000000D+00  0.000000D+00  0.000000D+00  0.000000D+00
     10   0.000000D+00  0.000000D+00  0.000000D+00  0.000000D+00  0.000000D+00
     11   0.100000D+01  0.000000D+00  0.000000D+00  0.000000D+00  0.000000D+00
     12   0.000000D+00  0.100000D+01  0.000000D+00  0.000000D+00  0.000000D+00
     13   0.000000D+00  0.000000D+00  0.100000D+01  0.000000D+00  0.000000D+00
     14   0.000000D+00  0.000000D+00  0.000000D+00  0.100000D+01  0.000000D+00
     15   0.000000D+00  0.000000D+00  0.000000D+00  0.000000D+00  0.100000D+01
     16   0.000000D+00  0.000000D+00  0.000000D+00  0.000000D+00  0.000000D+00
     17   0.000000D+00  0.000000D+00  0.000000D+00  0.000000D+00  0.000000D+00
     18   0.000000D+00  0.000000D+00  0.000000D+00  0.000000D+00  0.000000D+00
     19   0.000000D+00  0.000000D+00  0.000000D+00  0.000000D+00  0.241772D-01
     20   0.000000D+00  0.000000D+00  0.000000D+00  0.000000D+00  0.245699D+00
     21  -0.734917D-02  0.000000D+00  0.000000D+00  0.000000D+00  0.000000D+00
     22   0.000000D+00 -0.734917D-02  0.000000D+00  0.000000D+00  0.000000D+00
     23   0.000000D+00  0.000000D+00  0.000000D+00  0.000000D+00  0.183568D+00
                16            17            18            19            20 
      1   0.000000D+00  0.000000D+00  0.000000D+00  0.000000D+00  0.290277D-03
      2   0.000000D+00  0.000000D+00  0.000000D+00  0.000000D+00  0.192999D-02
      3   0.130039D-01  0.000000D+00  0.000000D+00  0.000000D+00  0.000000D+00
      4   0.000000D+00  0.130039D-01  0.000000D+00  0.000000D+00  0.000000D+00
      5   0.000000D+00  0.000000D+00  0.130039D-01  0.000000D+00 -0.887806D-03
      6   0.000000D+00  0.000000D+00  0.000000D+00  0.000000D+00  0.169631D-01
      7   0.221280D+00  0.000000D+00  0.000000D+00  0.000000D+00  0.000000D+00
      8   0.000000D+00  0.221280D+00  0.000000D+00  0.000000D+00  0.000000D+00
      9   0.000000D+00  0.000000D+00  0.221280D+00 -0.177548D-05 -0.189506D-01
     10   0.000000D+00  0.000000D+00  0.000000D+00  0.122466D-04  0.151562D-01
     11   0.000000D+00  0.000000D+00  0.000000D+00  0.000000D+00  0.000000D+00
     12   0.000000D+00  0.000000D+00  0.000000D+00  0.000000D+00  0.000000D+00
     13   0.000000D+00  0.000000D+00  0.000000D+00  0.000000D+00  0.000000D+00
     14   0.000000D+00  0.000000D+00  0.000000D+00  0.000000D+00  0.000000D+00
     15   0.000000D+00  0.000000D+00  0.000000D+00  0.241772D-01  0.245699D+00
     16   0.100000D+01  0.000000D+00  0.000000D+00  0.000000D+00  0.000000D+00
     17   0.000000D+00  0.100000D+01  0.000000D+00  0.000000D+00  0.000000D+00
     18   0.000000D+00  0.000000D+00  0.100000D+01 -0.408079D-01 -0.369478D+00
     19   0.000000D+00  0.000000D+00 -0.408079D-01  0.100000D+01  0.236704D+00
     20   0.000000D+00  0.000000D+00 -0.369478D+00  0.236704D+00  0.100000D+01
     21   0.116312D+00  0.000000D+00  0.000000D+00  0.000000D+00  0.000000D+00
     22   0.000000D+00  0.116312D+00  0.000000D+00  0.000000D+00  0.000000D+00
     23   0.000000D+00  0.000000D+00 -0.255734D+00  0.000000D+00  0.000000D+00
                21            22            23 
      1   0.000000D+00  0.000000D+00  0.671062D-03
      2   0.000000D+00  0.000000D+00  0.435448D-02
      3   0.240350D-03  0.000000D+00  0.000000D+00
      4   0.000000D+00  0.240350D-03  0.000000D+00
      5   0.000000D+00  0.000000D+00 -0.177294D-02
      6   0.000000D+00  0.000000D+00  0.323688D-01
      7   0.520210D-02  0.000000D+00  0.000000D+00
      8   0.000000D+00  0.520210D-02  0.000000D+00
      9   0.000000D+00  0.000000D+00 -0.329473D-01
     10   0.000000D+00  0.000000D+00  0.239153D-01
     11  -0.734917D-02  0.000000D+00  0.000000D+00
     12   0.000000D+00 -0.734917D-02  0.000000D+00
     13   0.000000D+00  0.000000D+00  0.000000D+00
     14   0.000000D+00  0.000000D+00  0.000000D+00
     15   0.000000D+00  0.000000D+00  0.183568D+00
     16   0.116312D+00  0.000000D+00  0.000000D+00
     17   0.000000D+00  0.116312D+00  0.000000D+00
     18   0.000000D+00  0.000000D+00 -0.255734D+00
     19   0.000000D+00  0.000000D+00  0.000000D+00
     20   0.000000D+00  0.000000D+00  0.000000D+00
     21   0.100000D+01  0.000000D+00  0.000000D+00
     22   0.000000D+00  0.100000D+01  0.000000D+00
     23   0.000000D+00  0.000000D+00  0.100000D+01
 Entering OneElI...
 Overlap between basis sets.
 Requested accuracy = 0.1000D-12
 PrsmSu:  NPrtUS=   1 ThrOK=F IAlg=1
 PRISM was handed 17176729540 working-precision words and   680 shell-pairs
 IPart=  0 NShTot=         680 NBatch=          90 AvBLen=         7.6
 CnvPC2: ToCart=F DoDens=F IPureD=0 IPureF=0.
 Transformed matrix in CnvPC2: 
                 1             2             3             4             5 
      1   0.999795D+00  0.406169D+00  0.000000D+00  0.000000D+00  0.000000D+00
      2   0.286019D+00  0.988821D+00  0.000000D+00  0.000000D+00  0.000000D+00
      3   0.000000D+00  0.000000D+00  0.999216D+00  0.000000D+00  0.000000D+00
      4   0.000000D+00  0.000000D+00  0.000000D+00  0.999216D+00  0.000000D+00
      5   0.000000D+00  0.000000D+00  0.000000D+00  0.000000D+00  0.999216D+00
      6   0.111178D-01  0.311725D+00  0.000000D+00  0.000000D+00  0.000000D+00
      7   0.000000D+00  0.000000D+00  0.331870D+00  0.000000D+00  0.000000D+00
      8   0.000000D+00  0.000000D+00  0.000000D+00  0.331870D+00  0.000000D+00
      9   0.000000D+00  0.000000D+00  0.000000D+00  0.000000D+00  0.331870D+00
     10   0.000000D+00  0.000000D+00  0.000000D+00  0.000000D+00  0.000000D+00
     11   0.000000D+00  0.000000D+00  0.000000D+00  0.000000D+00  0.000000D+00
     12   0.000000D+00  0.000000D+00  0.000000D+00  0.000000D+00  0.000000D+00
     13   0.000000D+00  0.000000D+00  0.000000D+00  0.000000D+00  0.000000D+00
     14   0.000000D+00  0.000000D+00  0.000000D+00  0.000000D+00  0.000000D+00
     15   0.297813D-05  0.544323D-02  0.000000D+00  0.000000D+00  0.000000D+00
     16   0.276431D-02  0.171402D-01  0.000000D+00  0.000000D+00  0.000000D+00
     17   0.000000D+00  0.000000D+00  0.153976D-01  0.000000D+00  0.000000D+00
     18   0.000000D+00  0.000000D+00  0.000000D+00  0.153976D-01  0.000000D+00
     19   0.000000D+00  0.000000D+00  0.000000D+00  0.000000D+00  0.153976D-01
     20   0.271059D+00  0.927283D+00  0.000000D+00  0.000000D+00  0.000000D+00
     21   0.165139D+00  0.733744D+00  0.000000D+00  0.000000D+00  0.000000D+00
     22   0.982992D-01  0.511615D+00  0.000000D+00  0.000000D+00  0.000000D+00
     23   0.578208D-01  0.328304D+00  0.000000D+00  0.000000D+00  0.000000D+00
     24   0.338098D-01  0.200836D+00  0.000000D+00  0.000000D+00  0.000000D+00
     25   0.197122D-01  0.119777D+00  0.000000D+00  0.000000D+00  0.000000D+00
     26   0.000000D+00  0.000000D+00  0.488428D+00  0.000000D+00  0.000000D+00
     27   0.000000D+00  0.000000D+00  0.000000D+00  0.488428D+00  0.000000D+00
     28   0.000000D+00  0.000000D+00  0.000000D+00  0.000000D+00  0.488428D+00
     29   0.000000D+00  0.000000D+00  0.271886D+00  0.000000D+00  0.000000D+00
     30   0.000000D+00  0.000000D+00  0.000000D+00  0.271886D+00  0.000000D+00
     31   0.000000D+00  0.000000D+00  0.000000D+00  0.000000D+00  0.271886D+00
     32   0.000000D+00  0.000000D+00  0.134364D+00  0.000000D+00  0.000000D+00
     33   0.000000D+00  0.000000D+00  0.000000D+00  0.134364D+00  0.000000D+00
     34   0.000000D+00  0.000000D+00  0.000000D+00  0.000000D+00  0.134364D+00
     35   0.000000D+00  0.000000D+00  0.616716D-01  0.000000D+00  0.000000D+00
     36   0.000000D+00  0.000000D+00  0.000000D+00  0.616716D-01  0.000000D+00
     37   0.000000D+00  0.000000D+00  0.000000D+00  0.000000D+00  0.616716D-01
     38   0.000000D+00  0.000000D+00  0.271533D-01  0.000000D+00  0.000000D+00
     39   0.000000D+00  0.000000D+00  0.000000D+00  0.271533D-01  0.000000D+00
     40   0.000000D+00  0.000000D+00  0.000000D+00  0.000000D+00  0.271533D-01
     41   0.000000D+00  0.000000D+00  0.116935D-01  0.000000D+00  0.000000D+00
     42   0.000000D+00  0.000000D+00  0.000000D+00  0.116935D-01  0.000000D+00
     43   0.000000D+00  0.000000D+00  0.000000D+00  0.000000D+00  0.116935D-01
     44   0.000000D+00  0.000000D+00  0.497857D-02  0.000000D+00  0.000000D+00
     45   0.000000D+00  0.000000D+00  0.000000D+00  0.497857D-02  0.000000D+00
     46   0.000000D+00  0.000000D+00  0.000000D+00  0.000000D+00  0.497857D-02
     47   0.000000D+00  0.000000D+00  0.000000D+00  0.000000D+00  0.000000D+00
     48   0.000000D+00  0.000000D+00  0.000000D+00  0.000000D+00  0.000000D+00
     49   0.000000D+00  0.000000D+00  0.000000D+00  0.000000D+00  0.000000D+00
     50   0.000000D+00  0.000000D+00  0.000000D+00  0.000000D+00  0.000000D+00
     51   0.000000D+00  0.000000D+00  0.000000D+00  0.000000D+00  0.000000D+00
     52   0.000000D+00  0.000000D+00  0.000000D+00  0.000000D+00  0.000000D+00
     53   0.000000D+00  0.000000D+00  0.000000D+00  0.000000D+00  0.000000D+00
     54   0.000000D+00  0.000000D+00  0.000000D+00  0.000000D+00  0.000000D+00
     55   0.000000D+00  0.000000D+00  0.000000D+00  0.000000D+00  0.000000D+00
     56   0.000000D+00  0.000000D+00  0.000000D+00  0.000000D+00  0.000000D+00
     57   0.000000D+00  0.000000D+00  0.000000D+00  0.000000D+00  0.000000D+00
     58   0.000000D+00  0.000000D+00  0.000000D+00  0.000000D+00  0.000000D+00
     59   0.000000D+00  0.000000D+00  0.000000D+00  0.000000D+00  0.000000D+00
     60   0.000000D+00  0.000000D+00  0.000000D+00  0.000000D+00  0.000000D+00
     61   0.000000D+00  0.000000D+00  0.000000D+00  0.000000D+00  0.000000D+00
     62   0.000000D+00  0.000000D+00  0.000000D+00  0.000000D+00  0.000000D+00
     63   0.000000D+00  0.000000D+00  0.000000D+00  0.000000D+00  0.000000D+00
     64   0.000000D+00  0.000000D+00  0.000000D+00  0.000000D+00  0.000000D+00
     65   0.000000D+00  0.000000D+00  0.000000D+00  0.000000D+00  0.000000D+00
     66   0.000000D+00  0.000000D+00  0.000000D+00  0.000000D+00  0.000000D+00
     67   0.000000D+00  0.000000D+00  0.000000D+00  0.000000D+00  0.000000D+00
     68   0.000000D+00  0.000000D+00  0.000000D+00  0.000000D+00  0.000000D+00
     69   0.000000D+00  0.000000D+00  0.000000D+00  0.000000D+00  0.000000D+00
     70   0.000000D+00  0.000000D+00  0.000000D+00  0.000000D+00  0.000000D+00
     71   0.000000D+00  0.000000D+00  0.000000D+00  0.000000D+00  0.000000D+00
     72   0.000000D+00  0.000000D+00  0.000000D+00  0.000000D+00  0.000000D+00
     73   0.000000D+00  0.000000D+00  0.000000D+00  0.000000D+00  0.000000D+00
     74   0.000000D+00  0.000000D+00  0.000000D+00  0.000000D+00  0.000000D+00
     75   0.000000D+00  0.000000D+00  0.000000D+00  0.000000D+00  0.000000D+00
     76   0.000000D+00  0.000000D+00  0.000000D+00  0.000000D+00  0.000000D+00
     77   0.000000D+00  0.000000D+00  0.000000D+00  0.000000D+00  0.000000D+00
     78   0.000000D+00  0.000000D+00  0.000000D+00  0.000000D+00  0.000000D+00
     79   0.000000D+00  0.000000D+00  0.000000D+00  0.000000D+00  0.000000D+00
     80   0.000000D+00  0.000000D+00  0.000000D+00  0.000000D+00  0.000000D+00
     81   0.000000D+00  0.000000D+00  0.000000D+00  0.000000D+00  0.000000D+00
     82   0.000000D+00  0.000000D+00  0.000000D+00  0.000000D+00  0.000000D+00
     83   0.000000D+00  0.000000D+00  0.000000D+00  0.000000D+00  0.000000D+00
     84   0.000000D+00  0.000000D+00  0.000000D+00  0.000000D+00  0.000000D+00
     85   0.000000D+00  0.000000D+00  0.000000D+00  0.000000D+00  0.000000D+00
     86   0.000000D+00  0.000000D+00  0.000000D+00  0.000000D+00  0.000000D+00
     87   0.000000D+00  0.000000D+00  0.000000D+00  0.000000D+00  0.000000D+00
     88   0.000000D+00  0.000000D+00  0.000000D+00  0.000000D+00  0.000000D+00
     89   0.000000D+00  0.000000D+00  0.000000D+00  0.000000D+00  0.000000D+00
     90   0.000000D+00  0.000000D+00  0.000000D+00  0.000000D+00  0.000000D+00
     91   0.000000D+00  0.000000D+00  0.000000D+00  0.000000D+00  0.000000D+00
     92   0.000000D+00  0.000000D+00  0.000000D+00  0.000000D+00  0.000000D+00
     93   0.000000D+00  0.000000D+00  0.000000D+00  0.000000D+00  0.000000D+00
     94   0.000000D+00  0.000000D+00  0.000000D+00  0.000000D+00  0.000000D+00
     95   0.000000D+00  0.000000D+00  0.000000D+00  0.000000D+00  0.000000D+00
     96   0.000000D+00  0.000000D+00  0.000000D+00  0.000000D+00  0.000000D+00
     97   0.000000D+00  0.000000D+00  0.000000D+00  0.000000D+00  0.000000D+00
     98   0.000000D+00  0.000000D+00  0.000000D+00  0.000000D+00  0.000000D+00
     99   0.000000D+00  0.000000D+00  0.000000D+00  0.000000D+00  0.000000D+00
    100   0.000000D+00  0.000000D+00  0.000000D+00  0.000000D+00  0.000000D+00
    101   0.000000D+00  0.000000D+00  0.000000D+00  0.000000D+00  0.000000D+00
    102   0.000000D+00  0.000000D+00  0.000000D+00  0.000000D+00  0.000000D+00
    103   0.000000D+00  0.000000D+00  0.000000D+00  0.000000D+00  0.000000D+00
    104   0.000000D+00  0.000000D+00  0.000000D+00  0.000000D+00  0.000000D+00
    105   0.000000D+00  0.000000D+00  0.000000D+00  0.000000D+00  0.000000D+00
    106   0.000000D+00  0.000000D+00  0.000000D+00  0.000000D+00  0.000000D+00
    107   0.000000D+00  0.000000D+00  0.000000D+00  0.000000D+00  0.000000D+00
    108   0.000000D+00  0.000000D+00  0.000000D+00  0.000000D+00  0.000000D+00
    109   0.000000D+00  0.000000D+00  0.000000D+00  0.000000D+00  0.000000D+00
    110   0.000000D+00  0.000000D+00  0.000000D+00  0.000000D+00  0.000000D+00
    111   0.000000D+00  0.000000D+00  0.000000D+00  0.000000D+00  0.000000D+00
    112   0.000000D+00  0.000000D+00  0.000000D+00  0.000000D+00  0.000000D+00
    113   0.000000D+00  0.000000D+00  0.000000D+00  0.000000D+00  0.000000D+00
    114   0.000000D+00  0.000000D+00  0.000000D+00  0.000000D+00  0.000000D+00
    115   0.000000D+00  0.000000D+00  0.000000D+00  0.000000D+00  0.000000D+00
    116   0.000000D+00  0.000000D+00  0.000000D+00  0.000000D+00  0.000000D+00
    117   0.000000D+00  0.000000D+00  0.000000D+00  0.000000D+00  0.000000D+00
    118   0.000000D+00  0.000000D+00  0.000000D+00  0.000000D+00  0.000000D+00
    119   0.000000D+00  0.000000D+00  0.000000D+00  0.000000D+00  0.000000D+00
    120   0.000000D+00  0.000000D+00  0.000000D+00  0.000000D+00  0.000000D+00
    121   0.000000D+00  0.000000D+00  0.000000D+00  0.000000D+00  0.000000D+00
    122   0.000000D+00  0.000000D+00  0.000000D+00  0.000000D+00  0.000000D+00
    123   0.000000D+00  0.000000D+00  0.000000D+00  0.000000D+00  0.000000D+00
    124   0.000000D+00  0.000000D+00  0.000000D+00  0.000000D+00  0.000000D+00
    125   0.000000D+00  0.000000D+00  0.000000D+00  0.000000D+00  0.000000D+00
    126   0.000000D+00  0.000000D+00  0.000000D+00  0.000000D+00  0.000000D+00
    127   0.000000D+00  0.000000D+00  0.000000D+00  0.000000D+00  0.000000D+00
    128   0.000000D+00  0.000000D+00  0.000000D+00  0.000000D+00  0.000000D+00
    129   0.000000D+00  0.000000D+00  0.000000D+00  0.000000D+00  0.000000D+00
    130   0.000000D+00  0.000000D+00  0.000000D+00  0.000000D+00  0.000000D+00
    131   0.000000D+00  0.000000D+00  0.000000D+00  0.000000D+00  0.000000D+00
    132   0.000000D+00  0.000000D+00  0.000000D+00  0.000000D+00  0.000000D+00
    133   0.000000D+00  0.000000D+00  0.000000D+00  0.000000D+00  0.000000D+00
    134   0.000000D+00  0.000000D+00  0.000000D+00  0.000000D+00  0.000000D+00
    135   0.000000D+00  0.000000D+00  0.000000D+00  0.000000D+00  0.000000D+00
    136   0.000000D+00  0.000000D+00  0.000000D+00  0.000000D+00  0.000000D+00
    137   0.000000D+00  0.000000D+00  0.000000D+00  0.000000D+00  0.000000D+00
    138   0.000000D+00  0.000000D+00  0.000000D+00  0.000000D+00  0.000000D+00
    139   0.000000D+00  0.000000D+00  0.000000D+00  0.000000D+00  0.000000D+00
    140   0.000000D+00  0.000000D+00  0.000000D+00  0.000000D+00  0.000000D+00
    141   0.000000D+00  0.000000D+00  0.000000D+00  0.000000D+00  0.000000D+00
    142   0.000000D+00  0.000000D+00  0.000000D+00  0.000000D+00  0.000000D+00
    143   0.000000D+00  0.000000D+00  0.000000D+00  0.000000D+00  0.000000D+00
    144   0.000000D+00  0.000000D+00  0.000000D+00  0.000000D+00  0.000000D+00
    145   0.000000D+00  0.000000D+00  0.000000D+00  0.000000D+00  0.000000D+00
    146   0.000000D+00  0.000000D+00  0.000000D+00  0.000000D+00  0.000000D+00
    147   0.000000D+00  0.000000D+00  0.000000D+00  0.000000D+00  0.000000D+00
    148   0.000000D+00  0.000000D+00  0.000000D+00  0.000000D+00  0.000000D+00
    149   0.000000D+00  0.000000D+00  0.000000D+00  0.000000D+00  0.000000D+00
    150   0.000000D+00  0.000000D+00  0.000000D+00  0.000000D+00  0.000000D+00
    151   0.000000D+00  0.000000D+00  0.000000D+00  0.000000D+00  0.000000D+00
    152   0.000000D+00  0.000000D+00  0.000000D+00  0.000000D+00  0.000000D+00
    153   0.000000D+00  0.000000D+00  0.000000D+00  0.000000D+00  0.000000D+00
    154   0.000000D+00  0.000000D+00  0.000000D+00  0.000000D+00  0.000000D+00
    155   0.000000D+00  0.000000D+00  0.000000D+00  0.000000D+00  0.000000D+00
    156   0.000000D+00  0.000000D+00  0.000000D+00  0.000000D+00  0.000000D+00
    157   0.000000D+00  0.000000D+00  0.000000D+00  0.000000D+00  0.000000D+00
    158   0.000000D+00  0.000000D+00  0.000000D+00  0.000000D+00  0.000000D+00
    159   0.000000D+00  0.000000D+00  0.000000D+00  0.000000D+00  0.000000D+00
    160   0.000000D+00  0.000000D+00  0.000000D+00  0.000000D+00  0.000000D+00
    161   0.000000D+00  0.000000D+00  0.000000D+00  0.000000D+00  0.000000D+00
    162   0.000000D+00  0.000000D+00  0.000000D+00  0.000000D+00  0.000000D+00
    163   0.000000D+00  0.000000D+00  0.000000D+00  0.000000D+00  0.000000D+00
    164   0.000000D+00  0.000000D+00  0.000000D+00  0.000000D+00  0.000000D+00
    165   0.000000D+00  0.000000D+00  0.000000D+00  0.000000D+00  0.000000D+00
    166   0.000000D+00  0.000000D+00  0.000000D+00  0.000000D+00  0.000000D+00
    167   0.000000D+00  0.000000D+00  0.000000D+00  0.000000D+00  0.000000D+00
    168   0.000000D+00  0.000000D+00  0.000000D+00  0.000000D+00  0.000000D+00
    169   0.000000D+00  0.000000D+00  0.000000D+00  0.000000D+00  0.000000D+00
    170   0.000000D+00  0.000000D+00  0.000000D+00  0.000000D+00  0.000000D+00
    171   0.000000D+00  0.000000D+00  0.000000D+00  0.000000D+00  0.000000D+00
    172   0.000000D+00  0.000000D+00  0.000000D+00  0.000000D+00  0.000000D+00
    173   0.000000D+00  0.000000D+00  0.000000D+00  0.000000D+00  0.000000D+00
    174   0.000000D+00  0.000000D+00  0.000000D+00  0.000000D+00  0.000000D+00
    175   0.000000D+00  0.000000D+00  0.000000D+00  0.000000D+00  0.000000D+00
    176   0.000000D+00  0.000000D+00  0.000000D+00  0.000000D+00  0.000000D+00
    177   0.000000D+00  0.000000D+00  0.000000D+00  0.000000D+00  0.000000D+00
    178   0.000000D+00  0.000000D+00  0.000000D+00  0.000000D+00  0.000000D+00
    179   0.000000D+00  0.000000D+00  0.000000D+00  0.000000D+00  0.000000D+00
    180   0.000000D+00  0.000000D+00  0.000000D+00  0.000000D+00  0.000000D+00
    181   0.000000D+00  0.000000D+00  0.000000D+00  0.000000D+00  0.000000D+00
    182   0.000000D+00  0.000000D+00  0.000000D+00  0.000000D+00  0.000000D+00
    183   0.000000D+00  0.000000D+00  0.000000D+00  0.000000D+00  0.000000D+00
    184   0.000000D+00  0.000000D+00  0.000000D+00  0.000000D+00  0.000000D+00
    185   0.000000D+00  0.000000D+00  0.000000D+00  0.000000D+00  0.000000D+00
    186   0.000000D+00  0.000000D+00  0.000000D+00  0.000000D+00  0.000000D+00
    187   0.000000D+00  0.000000D+00  0.000000D+00  0.000000D+00  0.000000D+00
    188   0.000000D+00  0.000000D+00  0.000000D+00  0.000000D+00  0.000000D+00
    189   0.000000D+00  0.000000D+00  0.000000D+00  0.000000D+00  0.000000D+00
    190   0.000000D+00  0.000000D+00  0.000000D+00  0.000000D+00  0.000000D+00
    191   0.000000D+00  0.000000D+00  0.000000D+00  0.000000D+00  0.000000D+00
    192   0.000000D+00  0.000000D+00  0.000000D+00  0.000000D+00  0.000000D+00
    193   0.000000D+00  0.000000D+00  0.000000D+00  0.000000D+00  0.000000D+00
    194   0.000000D+00  0.000000D+00  0.000000D+00  0.000000D+00  0.000000D+00
    195   0.000000D+00  0.000000D+00  0.000000D+00  0.000000D+00  0.000000D+00
    196   0.000000D+00  0.000000D+00  0.000000D+00  0.000000D+00  0.000000D+00
    197   0.000000D+00  0.000000D+00  0.000000D+00  0.000000D+00  0.000000D+00
    198   0.000000D+00  0.000000D+00  0.000000D+00  0.000000D+00  0.000000D+00
    199   0.000000D+00  0.000000D+00  0.000000D+00  0.000000D+00  0.000000D+00
    200   0.000000D+00  0.000000D+00  0.000000D+00  0.000000D+00  0.000000D+00
    201   0.000000D+00  0.000000D+00  0.000000D+00  0.000000D+00  0.000000D+00
    202   0.000000D+00  0.000000D+00  0.000000D+00  0.000000D+00  0.000000D+00
    203   0.000000D+00  0.000000D+00  0.000000D+00  0.000000D+00  0.000000D+00
    204   0.000000D+00  0.000000D+00  0.000000D+00  0.000000D+00  0.000000D+00
    205   0.000000D+00  0.000000D+00  0.000000D+00  0.000000D+00  0.000000D+00
    206   0.000000D+00  0.000000D+00  0.000000D+00  0.000000D+00  0.000000D+00
    207   0.000000D+00  0.000000D+00  0.000000D+00  0.000000D+00  0.000000D+00
    208   0.000000D+00  0.000000D+00  0.000000D+00  0.000000D+00  0.000000D+00
    209   0.000000D+00  0.000000D+00  0.000000D+00  0.000000D+00  0.000000D+00
    210   0.000000D+00  0.000000D+00  0.000000D+00  0.000000D+00  0.000000D+00
    211   0.000000D+00  0.000000D+00  0.000000D+00  0.000000D+00  0.000000D+00
    212   0.000000D+00  0.000000D+00  0.000000D+00  0.000000D+00  0.000000D+00
    213   0.000000D+00  0.000000D+00  0.000000D+00  0.000000D+00  0.000000D+00
    214   0.000000D+00  0.000000D+00  0.000000D+00  0.000000D+00  0.000000D+00
    215   0.000000D+00  0.000000D+00  0.000000D+00  0.000000D+00  0.000000D+00
    216   0.000000D+00  0.000000D+00  0.000000D+00  0.000000D+00  0.000000D+00
    217   0.000000D+00  0.000000D+00  0.000000D+00  0.000000D+00  0.000000D+00
    218   0.000000D+00  0.000000D+00  0.000000D+00  0.000000D+00  0.000000D+00
    219   0.000000D+00  0.000000D+00  0.000000D+00  0.000000D+00  0.000000D+00
    220   0.000000D+00  0.000000D+00  0.000000D+00  0.000000D+00  0.000000D+00
    221   0.000000D+00  0.000000D+00  0.000000D+00  0.000000D+00  0.000000D+00
    222   0.000000D+00  0.000000D+00  0.000000D+00  0.000000D+00  0.000000D+00
    223   0.000000D+00  0.000000D+00  0.000000D+00  0.000000D+00  0.000000D+00
    224   0.000000D+00  0.000000D+00  0.000000D+00  0.000000D+00  0.000000D+00
    225   0.000000D+00  0.000000D+00  0.000000D+00  0.000000D+00  0.000000D+00
    226   0.000000D+00  0.000000D+00  0.000000D+00  0.000000D+00  0.000000D+00
    227   0.000000D+00  0.000000D+00  0.000000D+00  0.000000D+00  0.000000D+00
    228   0.000000D+00  0.000000D+00  0.000000D+00  0.000000D+00  0.000000D+00
    229   0.000000D+00  0.000000D+00  0.000000D+00  0.000000D+00  0.000000D+00
    230   0.000000D+00  0.000000D+00  0.000000D+00  0.000000D+00  0.000000D+00
    231   0.000000D+00  0.000000D+00  0.000000D+00  0.000000D+00  0.000000D+00
    232   0.000000D+00  0.000000D+00  0.000000D+00  0.000000D+00  0.000000D+00
    233   0.000000D+00  0.000000D+00  0.000000D+00  0.000000D+00  0.000000D+00
    234   0.000000D+00  0.000000D+00  0.000000D+00  0.000000D+00  0.000000D+00
    235   0.000000D+00  0.000000D+00  0.000000D+00  0.000000D+00  0.000000D+00
    236   0.000000D+00  0.000000D+00  0.000000D+00  0.000000D+00  0.000000D+00
    237   0.000000D+00  0.000000D+00  0.000000D+00  0.000000D+00  0.000000D+00
    238   0.000000D+00  0.000000D+00  0.000000D+00  0.000000D+00  0.000000D+00
    239   0.000000D+00  0.000000D+00  0.000000D+00  0.000000D+00  0.000000D+00
    240   0.000000D+00  0.000000D+00  0.000000D+00  0.000000D+00  0.000000D+00
    241   0.000000D+00  0.000000D+00  0.000000D+00  0.000000D+00  0.000000D+00
    242   0.000000D+00  0.000000D+00  0.000000D+00  0.000000D+00  0.000000D+00
    243   0.000000D+00  0.000000D+00  0.000000D+00  0.000000D+00  0.000000D+00
    244   0.000000D+00  0.000000D+00  0.000000D+00  0.000000D+00  0.000000D+00
    245   0.000000D+00  0.000000D+00  0.000000D+00  0.000000D+00  0.000000D+00
    246   0.000000D+00  0.000000D+00  0.000000D+00  0.000000D+00  0.000000D+00
    247   0.000000D+00  0.000000D+00  0.000000D+00  0.000000D+00  0.000000D+00
    248   0.000000D+00  0.000000D+00  0.000000D+00  0.000000D+00  0.000000D+00
    249   0.000000D+00  0.000000D+00  0.000000D+00  0.000000D+00  0.000000D+00
    250   0.000000D+00  0.000000D+00  0.000000D+00  0.000000D+00  0.000000D+00
    251   0.000000D+00  0.000000D+00  0.000000D+00  0.000000D+00  0.000000D+00
    252   0.000000D+00  0.000000D+00  0.000000D+00  0.000000D+00  0.000000D+00
    253   0.000000D+00  0.000000D+00  0.000000D+00  0.000000D+00  0.000000D+00
    254   0.000000D+00  0.000000D+00  0.000000D+00  0.000000D+00  0.000000D+00
    255   0.000000D+00  0.000000D+00  0.000000D+00  0.000000D+00  0.000000D+00
    256   0.000000D+00  0.000000D+00  0.000000D+00  0.000000D+00  0.000000D+00
    257   0.000000D+00  0.000000D+00  0.000000D+00  0.000000D+00  0.000000D+00
    258   0.000000D+00  0.000000D+00  0.000000D+00  0.000000D+00  0.000000D+00
    259   0.000000D+00  0.000000D+00  0.000000D+00  0.000000D+00  0.000000D+00
    260   0.000000D+00  0.000000D+00  0.000000D+00  0.000000D+00  0.000000D+00
    261   0.000000D+00  0.000000D+00  0.000000D+00  0.000000D+00  0.000000D+00
    262   0.000000D+00  0.000000D+00  0.000000D+00  0.000000D+00  0.000000D+00
    263   0.000000D+00  0.000000D+00  0.000000D+00  0.000000D+00  0.000000D+00
    264   0.000000D+00  0.000000D+00  0.000000D+00  0.000000D+00  0.000000D+00
    265   0.000000D+00  0.000000D+00  0.000000D+00  0.000000D+00  0.000000D+00
    266   0.000000D+00  0.000000D+00  0.000000D+00  0.000000D+00  0.000000D+00
    267   0.000000D+00  0.000000D+00  0.000000D+00  0.000000D+00  0.000000D+00
    268   0.000000D+00  0.000000D+00  0.000000D+00  0.000000D+00  0.000000D+00
    269   0.000000D+00  0.000000D+00  0.000000D+00  0.000000D+00  0.000000D+00
    270   0.000000D+00  0.000000D+00  0.000000D+00  0.000000D+00  0.000000D+00
    271   0.000000D+00  0.000000D+00  0.000000D+00  0.000000D+00  0.000000D+00
    272   0.000000D+00  0.000000D+00  0.000000D+00  0.000000D+00  0.000000D+00
    273   0.000000D+00  0.000000D+00  0.000000D+00  0.000000D+00  0.000000D+00
    274   0.000000D+00  0.000000D+00  0.000000D+00  0.000000D+00  0.000000D+00
    275   0.000000D+00  0.000000D+00  0.000000D+00  0.000000D+00  0.000000D+00
    276   0.000000D+00  0.000000D+00  0.000000D+00  0.000000D+00  0.000000D+00
    277   0.000000D+00  0.000000D+00  0.000000D+00  0.000000D+00  0.000000D+00
    278   0.000000D+00  0.000000D+00  0.000000D+00  0.000000D+00  0.000000D+00
    279   0.000000D+00  0.000000D+00  0.000000D+00  0.000000D+00  0.000000D+00
    280   0.000000D+00  0.000000D+00  0.000000D+00  0.000000D+00  0.000000D+00
    281   0.000000D+00  0.000000D+00  0.000000D+00  0.000000D+00  0.000000D+00
    282   0.000000D+00  0.000000D+00  0.000000D+00  0.000000D+00  0.000000D+00
    283   0.000000D+00  0.000000D+00  0.000000D+00  0.000000D+00  0.000000D+00
    284   0.000000D+00  0.000000D+00  0.000000D+00  0.000000D+00  0.000000D+00
    285   0.000000D+00  0.000000D+00  0.000000D+00  0.000000D+00  0.000000D+00
    286   0.000000D+00  0.000000D+00  0.000000D+00  0.000000D+00  0.000000D+00
    287   0.000000D+00  0.000000D+00  0.000000D+00  0.000000D+00  0.000000D+00
    288   0.000000D+00  0.000000D+00  0.000000D+00  0.000000D+00  0.000000D+00
    289   0.000000D+00  0.000000D+00  0.000000D+00  0.000000D+00  0.000000D+00
    290   0.000000D+00  0.000000D+00  0.000000D+00  0.000000D+00  0.000000D+00
    291   0.000000D+00  0.000000D+00  0.000000D+00  0.000000D+00  0.000000D+00
    292   0.000000D+00  0.000000D+00  0.000000D+00  0.000000D+00  0.000000D+00
    293   0.000000D+00  0.000000D+00  0.000000D+00  0.000000D+00  0.000000D+00
    294   0.000000D+00  0.000000D+00  0.000000D+00  0.000000D+00  0.000000D+00
    295   0.000000D+00  0.000000D+00  0.000000D+00  0.000000D+00  0.000000D+00
    296   0.000000D+00  0.000000D+00  0.000000D+00  0.000000D+00  0.000000D+00
    297   0.000000D+00  0.000000D+00  0.000000D+00  0.000000D+00  0.000000D+00
    298   0.000000D+00  0.000000D+00  0.000000D+00  0.000000D+00  0.000000D+00
    299   0.000000D+00  0.000000D+00  0.000000D+00  0.000000D+00  0.000000D+00
    300   0.000000D+00  0.000000D+00  0.000000D+00  0.000000D+00  0.000000D+00
    301   0.000000D+00  0.000000D+00  0.000000D+00  0.000000D+00  0.000000D+00
    302   0.000000D+00  0.000000D+00  0.000000D+00  0.000000D+00  0.000000D+00
    303   0.000000D+00  0.000000D+00  0.000000D+00  0.000000D+00  0.000000D+00
    304   0.000000D+00  0.000000D+00  0.000000D+00  0.000000D+00  0.000000D+00
    305   0.000000D+00  0.000000D+00  0.000000D+00  0.000000D+00  0.000000D+00
    306   0.000000D+00  0.000000D+00  0.000000D+00  0.000000D+00  0.000000D+00
    307   0.000000D+00  0.000000D+00  0.000000D+00  0.000000D+00  0.000000D+00
    308   0.000000D+00  0.000000D+00  0.000000D+00  0.000000D+00  0.000000D+00
    309   0.000000D+00  0.000000D+00  0.000000D+00  0.000000D+00  0.000000D+00
    310   0.000000D+00  0.000000D+00  0.000000D+00  0.000000D+00  0.000000D+00
    311   0.000000D+00  0.000000D+00  0.000000D+00  0.000000D+00  0.000000D+00
    312   0.000000D+00  0.000000D+00  0.000000D+00  0.000000D+00  0.000000D+00
    313   0.000000D+00  0.000000D+00  0.000000D+00  0.000000D+00  0.000000D+00
    314   0.000000D+00  0.000000D+00  0.000000D+00  0.000000D+00  0.000000D+00
    315   0.000000D+00  0.000000D+00  0.000000D+00  0.000000D+00  0.000000D+00
    316   0.000000D+00  0.000000D+00  0.000000D+00  0.000000D+00  0.000000D+00
    317   0.000000D+00  0.000000D+00  0.000000D+00  0.000000D+00  0.000000D+00
    318   0.000000D+00  0.000000D+00  0.000000D+00  0.000000D+00  0.000000D+00
    319   0.000000D+00  0.000000D+00  0.000000D+00  0.000000D+00  0.000000D+00
    320   0.000000D+00  0.000000D+00  0.000000D+00  0.000000D+00  0.000000D+00
    321   0.000000D+00  0.000000D+00  0.000000D+00  0.000000D+00  0.000000D+00
    322   0.000000D+00  0.000000D+00  0.000000D+00  0.000000D+00  0.000000D+00
    323   0.000000D+00  0.000000D+00  0.000000D+00  0.000000D+00  0.000000D+00
    324   0.000000D+00  0.000000D+00  0.000000D+00  0.000000D+00  0.000000D+00
    325   0.000000D+00  0.000000D+00  0.000000D+00  0.000000D+00  0.000000D+00
    326   0.000000D+00  0.000000D+00  0.000000D+00  0.000000D+00  0.000000D+00
    327   0.000000D+00  0.000000D+00  0.000000D+00  0.000000D+00  0.000000D+00
    328   0.000000D+00  0.000000D+00  0.000000D+00  0.000000D+00  0.000000D+00
    329   0.000000D+00  0.000000D+00  0.000000D+00  0.000000D+00  0.000000D+00
    330   0.000000D+00  0.000000D+00  0.000000D+00  0.000000D+00  0.000000D+00
    331   0.000000D+00  0.000000D+00  0.000000D+00  0.000000D+00  0.000000D+00
    332   0.000000D+00  0.000000D+00  0.000000D+00  0.000000D+00  0.000000D+00
    333   0.000000D+00  0.000000D+00  0.000000D+00  0.000000D+00  0.000000D+00
    334   0.000000D+00  0.000000D+00  0.000000D+00  0.000000D+00  0.000000D+00
    335   0.000000D+00  0.000000D+00  0.000000D+00  0.000000D+00  0.000000D+00
    336   0.000000D+00  0.000000D+00  0.000000D+00  0.000000D+00  0.000000D+00
    337   0.000000D+00  0.000000D+00  0.000000D+00  0.000000D+00  0.000000D+00
    338   0.000000D+00  0.000000D+00  0.000000D+00  0.000000D+00  0.000000D+00
    339   0.000000D+00  0.000000D+00  0.000000D+00  0.000000D+00  0.000000D+00
    340   0.000000D+00  0.000000D+00  0.000000D+00  0.000000D+00  0.000000D+00
    341   0.000000D+00  0.000000D+00  0.000000D+00  0.000000D+00  0.000000D+00
    342   0.000000D+00  0.000000D+00  0.000000D+00  0.000000D+00  0.000000D+00
    343   0.000000D+00  0.000000D+00  0.000000D+00  0.000000D+00  0.000000D+00
    344   0.000000D+00  0.000000D+00  0.000000D+00  0.000000D+00  0.000000D+00
    345   0.000000D+00  0.000000D+00  0.000000D+00  0.000000D+00  0.000000D+00
    346   0.000000D+00  0.000000D+00  0.000000D+00  0.000000D+00  0.000000D+00
    347   0.000000D+00  0.000000D+00  0.000000D+00  0.000000D+00  0.000000D+00
    348   0.000000D+00  0.000000D+00  0.000000D+00  0.000000D+00  0.000000D+00
    349   0.000000D+00  0.000000D+00  0.000000D+00  0.000000D+00  0.000000D+00
    350   0.000000D+00  0.000000D+00  0.000000D+00  0.000000D+00  0.000000D+00
    351   0.000000D+00  0.000000D+00  0.000000D+00  0.000000D+00  0.000000D+00
    352   0.000000D+00  0.000000D+00  0.000000D+00  0.000000D+00  0.000000D+00
    353   0.000000D+00  0.000000D+00  0.000000D+00  0.000000D+00  0.000000D+00
    354   0.000000D+00  0.000000D+00  0.000000D+00  0.000000D+00  0.000000D+00
    355   0.535669D-03  0.341857D-02  0.000000D+00  0.000000D+00 -0.101505D-02
    356   0.377941D-02  0.233951D-01  0.000000D+00  0.000000D+00 -0.169112D-02
    357   0.000000D+00  0.000000D+00  0.625997D-03  0.000000D+00  0.000000D+00
    358   0.000000D+00  0.000000D+00  0.000000D+00  0.625997D-03  0.000000D+00
    359   0.180260D-02  0.113059D-01  0.000000D+00  0.000000D+00 -0.253450D-02
    360   0.000000D+00  0.000000D+00  0.169075D-02  0.000000D+00  0.000000D+00
    361   0.000000D+00  0.000000D+00  0.000000D+00  0.169075D-02  0.000000D+00
    362   0.493785D-02  0.304909D-01  0.000000D+00  0.000000D+00  0.732580D-04
    363   0.000000D+00  0.000000D+00  0.000000D+00  0.000000D+00  0.000000D+00
    364   0.000000D+00  0.000000D+00  0.000000D+00  0.000000D+00  0.000000D+00
    365   0.000000D+00  0.378390D-05  0.000000D+00  0.000000D+00 -0.456600D-05
    366   0.715922D-04  0.528999D-03  0.000000D+00  0.000000D+00 -0.352587D-03
    367   0.951612D-03  0.610343D-02  0.000000D+00  0.000000D+00 -0.214103D-02
    368   0.279454D-02  0.173791D-01  0.000000D+00  0.000000D+00 -0.314809D-02
    369   0.000000D+00  0.000000D+00  0.000000D+00  0.000000D+00  0.000000D+00
    370   0.000000D+00  0.000000D+00  0.000000D+00  0.000000D+00  0.000000D+00
    371   0.000000D+00  0.000000D+00  0.000000D+00  0.000000D+00  0.000000D+00
    372   0.000000D+00  0.000000D+00  0.000000D+00  0.000000D+00  0.000000D+00
    373   0.000000D+00  0.000000D+00  0.000000D+00  0.000000D+00  0.000000D+00
    374   0.000000D+00  0.000000D+00  0.000000D+00  0.000000D+00  0.000000D+00
    375   0.000000D+00  0.000000D+00  0.000000D+00  0.000000D+00  0.000000D+00
    376   0.000000D+00  0.000000D+00  0.000000D+00  0.000000D+00  0.000000D+00
    377   0.103057D-05  0.138403D-04  0.000000D+00  0.000000D+00 -0.168865D-04
    378   0.000000D+00  0.000000D+00  0.180057D-03  0.000000D+00  0.000000D+00
    379   0.000000D+00  0.000000D+00  0.000000D+00  0.180057D-03  0.000000D+00
    380   0.469924D-03  0.328365D-02  0.000000D+00  0.000000D+00 -0.190594D-02
    381   0.000000D+00  0.000000D+00  0.157733D-02  0.000000D+00  0.000000D+00
    382   0.000000D+00  0.000000D+00  0.000000D+00  0.157733D-02  0.000000D+00
    383   0.456910D-02  0.284696D-01  0.000000D+00  0.000000D+00 -0.690598D-02
    384   0.000000D+00  0.000000D+00  0.258152D-02  0.000000D+00  0.000000D+00
    385   0.000000D+00  0.000000D+00  0.000000D+00  0.258152D-02  0.000000D+00
    386   0.756344D-02  0.465394D-01  0.000000D+00  0.000000D+00 -0.379416D-02
    387   0.000000D+00  0.000000D+00  0.000000D+00  0.000000D+00  0.000000D+00
    388   0.000000D+00  0.000000D+00  0.000000D+00  0.000000D+00  0.000000D+00
    389   0.000000D+00  0.000000D+00  0.000000D+00  0.000000D+00  0.000000D+00
    390   0.000000D+00  0.000000D+00  0.000000D+00  0.000000D+00  0.000000D+00
    391   0.000000D+00  0.000000D+00  0.000000D+00  0.000000D+00  0.000000D+00
    392   0.000000D+00  0.000000D+00  0.000000D+00  0.000000D+00  0.000000D+00
    393   0.000000D+00  0.000000D+00  0.000000D+00  0.000000D+00  0.000000D+00
    394   0.000000D+00  0.000000D+00  0.000000D+00  0.000000D+00  0.000000D+00
    395   0.000000D+00  0.000000D+00  0.000000D+00  0.000000D+00  0.000000D+00
    396   0.000000D+00  0.000000D+00  0.000000D+00  0.000000D+00  0.000000D+00
    397   0.000000D+00  0.000000D+00  0.000000D+00  0.000000D+00  0.000000D+00
    398   0.000000D+00  0.000000D+00  0.000000D+00  0.000000D+00  0.000000D+00
[...]
                     Sum of aa pair energies =    -0.149615 A.U.
                     Sum of bb pair energies =    -0.144413 A.U.

           Sum of intraorbital pair energies =    -0.199183 A.U.
           Sum of interorbital pair energies =    -0.726256 A.U.
                                                  ----------
                         Total pair energies =    -0.925440 A.U.

                         Single Excitations  =    -0.001396 A.U.

                          Total second order =    -0.926835 A.U.

                         E2(CBS) - E2(Dir) =      -0.008163 A.U.

 E2(CBS)=      -0.929798 CBS-Int=       0.002963 OIii=       4.592201

 **********************************************************************

            Population analysis using the SCF density.

 **********************************************************************

 Orbital symmetries:
       Occupied  (SG) (SG) (PI) (PI) (SG) (SG) (SG) (PI) (PI) (SG)
                 (SG) (DLTA) (DLTA) (PI) (PI) (SG) (SG) (PI) (PI)
                 (SG)
       Virtual   (SG) (PI) (PI) (SG) (PI) (PI) (SG) (SG) (DLTA)
                 (DLTA) (PI) (PI) (SG) (PI) (PI) (SG) (SG) (SG)
                 (PI) (PI) (DLTA) (DLTA) (PHI) (PHI) (PI) (PI)
                 (SG) (PI) (PI) (SG) (DLTA) (DLTA) (PI) (PI) (SG)
                 (DLTA) (DLTA) (SG) (PI) (PI) (SG) (PHI) (PHI)
                 (SG) (PI) (PI) (DLTA) (DLTA) (?A) (?A) (SG) (PI)
                 (PI) (PHI) (PHI) (PI) (PI) (DLTA) (DLTA) (DLTA)
                 (DLTA) (SG) (PHI) (PHI) (SG) (PI) (PI) (SG) (PI)
                 (PI) (DLTA) (DLTA) (PI) (PI) (DLTA) (DLTA) (SG)
                 (?A) (?A) (SG) (PHI) (PHI) (PI) (PI) (SG) (PI)
                 (PI) (DLTA) (DLTA) (SG) (SG) (PHI) (PHI) (?B)
                 (?B) (DLTA) (DLTA) (?A) (?A) (SG) (PI) (PI) (PI)
                 (PI) (DLTA) (DLTA) (SG) (PI) (PI) (PHI) (PHI)
                 (DLTA) (DLTA) (SG) (PHI) (PHI) (?A) (?A) (PI)
                 (PI) (?B) (?B) (DLTA) (DLTA) (PHI) (PHI) (PI)
                 (PI) (SG) (?A) (?A) (PI) (PI) (SG) (DLTA) (DLTA)
                 (SG) (PHI) (PHI) (PI) (PI) (DLTA) (DLTA) (SG)
                 (PI) (PI) (SG) (?A) (?A) (DLTA) (DLTA) (PHI) (PHI)
                 (PI) (PI) (DLTA) (DLTA) (SG) (SG) (?B) (?B) (PI)
                 (PI) (SG) (SG) (?A) (?A) (PHI) (PHI) (SG) (DLTA)
                 (DLTA) (DLTA) (DLTA) (PHI) (PHI) (SG) (PI) (PI)
                 (SG) (SG) (?B) (?B) (PI) (PI) (SG) (DLTA) (DLTA)
                 (SG) (?A) (?A) (PI) (PI) (SG) (PI) (PI) (DLTA)
                 (DLTA) (?B) (?B) (?A) (?A) (PHI) (PHI) (PI) (PI)
                 (DLTA) (DLTA) (PHI) (PHI) (SG) (PHI) (PHI) (PI)
                 (PI) (?A) (?A) (SG) (SG) (PHI) (PHI) (PI) (PI)
                 (DLTA) (DLTA) (?B) (?B) (SG) (?A) (?A) (PHI) (PHI)
                 (PI) (PI) (DLTA) (DLTA) (PI) (PI) (SG) (SG) (DLTA)
                 (DLTA) (PI) (PI) (SG) (?A) (?A) (DLTA) (DLTA)
                 (PHI) (PHI) (SG) (PI) (PI) (DLTA) (DLTA) (PHI)
                 (PHI) (SG) (DLTA) (DLTA) (?C) (?C) (SG) (SG) (?B)
                 (?B) (PI) (PI) (?A) (?A) (PI) (PI) (SG) (DLTA)
                 (DLTA) (PHI) (PHI) (DLTA) (DLTA) (PI) (PI) (SG)
                 (SG) (PI) (PI) (SG) (SG) (SG) (?B) (?B) (?A) (?A)
                 (PHI) (PHI) (PI) (PI) (DLTA) (DLTA) (PHI) (PHI)
                 (SG) (DLTA) (DLTA) (SG) (SG) (?B) (?B) (SG) (PI)
                 (PI) (?A) (?A) (?B) (?B) (SG) (?A) (?A) (PHI)
                 (PHI) (DLTA) (DLTA) (?A) (?A) (PHI) (PHI) (PI)
                 (PI) (PI) (PI) (SG) (PHI) (PHI) (DLTA) (DLTA)
                 (SG) (PI) (PI) (DLTA) (DLTA) (SG) (PI) (PI) (?B)
                 (?B) (?A) (?A) (SG) (PHI) (PHI) (PI) (PI) (DLTA)
                 (DLTA) (SG) (PI) (PI) (SG) (?A) (?A) (PHI) (PHI)
                 (DLTA) (DLTA) (PHI) (PHI) (PI) (PI) (DLTA) (DLTA)
                 (SG) (SG) (PI) (PI) (DLTA) (DLTA) (PI) (PI) (SG)
                 (DLTA) (DLTA) (PI) (PI) (SG) (?B) (?B) (?A) (?A)
                 (SG) (SG) (SG) (?C) (?C) (PHI) (PHI) (DLTA) (DLTA)
                 (PI) (PI) (SG) (?C) (?C) (SG) (SG) (?B) (?B) (?A)
                 (?A) (PHI) (PHI) (DLTA) (DLTA) (SG) (PI) (PI)
                 (PHI) (PHI) (DLTA) (DLTA) (PI) (PI) (SG) (?A)
                 (?A) (PHI) (PHI) (DLTA) (DLTA) (?B) (?B) (SG)
                 (SG) (PI) (PI) (?A) (?A) (SG) (PHI) (PHI) (DLTA)
                 (DLTA) (PI) (PI) (?B) (?B) (?A) (?A) (PHI) (PHI)
                 (SG) (DLTA) (DLTA) (SG) (PI) (PI) (SG) (SG) (?B)
                 (?B) (?A) (?A) (PHI) (PHI) (DLTA) (DLTA) (PI)
                 (PI) (SG) (?B) (?B) (?A) (?A) (PHI) (PHI) (DLTA)
                 (DLTA) (SG) (PI) (PI) (PHI) (PHI) (DLTA) (DLTA)
                 (PI) (PI) (SG) (PI) (PI) (SG) (?A) (?A) (PHI)
                 (PHI) (DLTA) (DLTA) (PI) (PI) (SG) (SG) (DLTA)
                 (DLTA) (PI) (PI) (SG) (PI) (PI) (SG) (?D) (?D)
                 (?C) (?C) (SG) (SG) (SG) (?B) (?B) (?A) (?A) (PHI)
                 (PHI) (DLTA) (DLTA) (PI) (PI) (DLTA) (DLTA) (PI)
                 (PI) (SG) (PHI) (PHI) (DLTA) (DLTA) (?A) (?A)
                 (PHI) (PHI) (PI) (PI) (DLTA) (DLTA) (SG) (PI)
                 (PI) (SG) (?C) (?C) (SG) (SG) (?B) (?B) (?A) (?A)
                 (PHI) (PHI) (DLTA) (DLTA) (SG) (PI) (PI) (?B)
                 (?B) (?A) (?A) (PHI) (PHI) (DLTA) (DLTA) (SG)
                 (PI) (PI) (SG) (SG) (?B) (?B) (?A) (?A) (PHI)
                 (PHI) (DLTA) (DLTA) (PI) (PI) (SG) (SG) (SG)
 The electronic state is 2-SG.
 Alpha  occ. eigenvalues -- -353.10104 -44.15973 -38.72437 -38.72437 -38.72202
 Alpha  occ. eigenvalues --  -20.23297  -5.43834  -3.64268  -3.64268  -3.64061
 Alpha  occ. eigenvalues --   -0.89773  -0.58787  -0.58787  -0.58677  -0.58677
 Alpha  occ. eigenvalues --   -0.57347  -0.20117  -0.13623  -0.13623  -0.08641
 Alpha virt. eigenvalues --    0.14758   0.20008   0.20008   0.22822   0.26701
 Alpha virt. eigenvalues --    0.26701   0.26737   0.34675   0.35880   0.35880
 Alpha virt. eigenvalues --    0.36054   0.36054   0.38463   0.41138   0.41138
 Alpha virt. eigenvalues --    0.46933   0.51292   0.61463   0.61730   0.61730
 Alpha virt. eigenvalues --    0.65975   0.65975   0.67847   0.67847   0.67998
 Alpha virt. eigenvalues --    0.67998   0.74059   0.75618   0.75618   0.76533
 Alpha virt. eigenvalues --    0.77135   0.77135   0.82211   0.82211   0.82411
 Alpha virt. eigenvalues --    0.82733   0.82733   0.96231   0.98466   0.98466
 Alpha virt. eigenvalues --    1.08223   1.17540   1.17540   1.31344   1.31673
 Alpha virt. eigenvalues --    1.31673   1.33631   1.33631   1.33932   1.33932
 Alpha virt. eigenvalues --    1.38030   1.41790   1.41790   1.46329   1.46329
 Alpha virt. eigenvalues --    1.46451   1.46451   1.47230   1.47230   1.48927
 Alpha virt. eigenvalues --    1.48927   1.51150   1.56549   1.56674   1.56674
 Alpha virt. eigenvalues --    1.60634   1.60634   1.66195   1.71391   1.71391
 Alpha virt. eigenvalues --    1.77115   1.77115   1.78955   1.78955   1.83947
 Alpha virt. eigenvalues --    1.83947   1.99877   2.01956   2.01956   2.07079
 Alpha virt. eigenvalues --    2.23564   2.23564   2.35055   2.35055   2.35577
 Alpha virt. eigenvalues --    2.55901   2.55901   2.56151   2.56151   2.57024
 Alpha virt. eigenvalues --    2.62939   2.64924   2.64924   2.69699   2.69699
 Alpha virt. eigenvalues --    2.71630   2.71630   2.77351   2.77351   2.77492
 Alpha virt. eigenvalues --    2.87130   2.87130   2.90411   2.90411   2.96340
 Alpha virt. eigenvalues --    2.96340   3.04999   3.06651   3.06651   3.08776
 Alpha virt. eigenvalues --    3.08776   3.09821   3.09821   3.12531   3.20465
 Alpha virt. eigenvalues --    3.20465   3.22167   3.22167   3.24702   3.24702
 Alpha virt. eigenvalues --    3.28971   3.28971   3.30691   3.30691   3.34526
 Alpha virt. eigenvalues --    3.34526   3.49431   3.49431   3.49920   3.51731
 Alpha virt. eigenvalues --    3.51731   3.64306   3.64306   3.64753   3.76193
 Alpha virt. eigenvalues --    3.76193   3.90027   4.05594   4.05594   4.06743
 Alpha virt. eigenvalues --    4.06743   4.13218   4.13218   4.18824   4.58043
 Alpha virt. eigenvalues --    4.58043   4.61117   4.67565   4.67565   4.71762
 Alpha virt. eigenvalues --    4.71762   4.77104   4.77104   4.93930   4.93930
 Alpha virt. eigenvalues --    4.98059   4.98059   4.98808   5.18156   5.19149
 Alpha virt. eigenvalues --    5.19149   5.24236   5.24236   5.24638   5.24638
 Alpha virt. eigenvalues --    5.30552   5.30552   5.32882   5.32882   5.36102
 Alpha virt. eigenvalues --    5.50631   5.50631   5.66757   5.66757   5.74548
 Alpha virt. eigenvalues --    5.74548   5.76761   5.82234   5.82234   5.84337
 Alpha virt. eigenvalues --    5.84337   5.99719   5.99719   6.05292   6.05292
 Alpha virt. eigenvalues --    6.08089   6.19884   6.19884   6.20255   6.52409
 Alpha virt. eigenvalues --    6.52409   6.53181   6.53181   6.65899   6.66936
 Alpha virt. eigenvalues --    6.66936   6.67454   6.67454   6.70821   6.70821
 Alpha virt. eigenvalues --    6.76690   6.76690   6.78010   6.78010   6.83319
 Alpha virt. eigenvalues --    6.83319   6.85496   6.85496   6.88037   6.88037
 Alpha virt. eigenvalues --    6.92812   7.13906   7.13906   7.19003   7.19003
 Alpha virt. eigenvalues --    7.19407   7.19407   7.28415   7.59867   7.72289
 Alpha virt. eigenvalues --    7.72289   7.81115   7.81115   7.82575   7.82575
 Alpha virt. eigenvalues --    7.86995   7.86995   7.91174   7.94063   7.94063
 Alpha virt. eigenvalues --    8.12866   8.12866   8.13716   8.13716   8.17172
 Alpha virt. eigenvalues --    8.17172   8.39601   8.39601   8.70235   8.81788
 Alpha virt. eigenvalues --    8.84220   8.84220   9.53795   9.53795   9.57771
 Alpha virt. eigenvalues --    9.77679   9.77679   9.89470   9.89470   9.89800
 Alpha virt. eigenvalues --    9.89800  10.23927  10.28473  10.28473  10.31838
 Alpha virt. eigenvalues --   10.31838  10.36454  10.36454  10.41754  10.56511
 Alpha virt. eigenvalues --   10.56511  10.61270  10.61270  10.62400  10.62400
 Alpha virt. eigenvalues --   10.67114  10.67114  10.83808  10.83808  10.86748
 Alpha virt. eigenvalues --   10.86748  11.00943  11.00943  11.06743  11.10200
 Alpha virt. eigenvalues --   11.10200  11.17691  11.17691  11.54549  11.54549
 Alpha virt. eigenvalues --   11.78246  11.78246  11.91314  12.47259  12.50591
 Alpha virt. eigenvalues --   12.50591  13.18432  13.63809  13.63809  13.64459
 Alpha virt. eigenvalues --   13.64459  13.72515  13.72515  13.93785  13.93785
 Alpha virt. eigenvalues --   14.30676  14.30676  14.39159  14.39159  14.58815
 Alpha virt. eigenvalues --   14.58815  14.61399  14.84066  14.84066  15.09442
 Alpha virt. eigenvalues --   15.09442  15.12628  15.12644  15.12644  15.23026
 Alpha virt. eigenvalues --   15.23026  15.27692  15.27692  15.38717  15.38717
 Alpha virt. eigenvalues --   15.40460  15.42172  15.42172  15.42309  15.42309
 Alpha virt. eigenvalues --   15.46344  15.46344  15.53608  15.53608  15.55965
 Alpha virt. eigenvalues --   15.55965  15.56717  15.56717  15.59591  15.59591
 Alpha virt. eigenvalues --   15.60435  15.83827  15.83827  15.92197  15.92197
 Alpha virt. eigenvalues --   16.28312  16.38265  16.38265  16.59149  16.59149
 Alpha virt. eigenvalues --   16.72016  17.29570  17.29570  17.41233  17.41233
 Alpha virt. eigenvalues --   17.45388  17.45388  17.53771  17.64511  17.64511
 Alpha virt. eigenvalues --   18.10817  18.10817  18.12679  18.12679  18.34659
 Alpha virt. eigenvalues --   18.99314  18.99314  19.98459  20.15159  20.15159
 Alpha virt. eigenvalues --   20.23201  20.23201  20.41781  20.41781  20.44291
 Alpha virt. eigenvalues --   20.44291  20.71930  20.71930  20.74108  20.74108
 Alpha virt. eigenvalues --   20.85440  21.85121  21.92683  21.92683  22.46339
 Alpha virt. eigenvalues --   22.46339  22.89012  22.89012  23.57588  23.60569
 Alpha virt. eigenvalues --   23.60569  24.26626  24.26626  25.14325  25.64157
 Alpha virt. eigenvalues --   25.64157  25.64278  25.64278  25.65053  25.65053
 Alpha virt. eigenvalues --   25.65574  25.66028  25.66028  25.70491  25.70491
 Alpha virt. eigenvalues --   25.86056  25.86056  26.01750  26.01750  26.89210
 Alpha virt. eigenvalues --   29.48045  29.48045  29.48461  29.48461  29.49660
 Alpha virt. eigenvalues --   29.49660  29.54672  29.54672  29.66111  29.66111
 Alpha virt. eigenvalues --   29.83800  29.83800  29.93136  29.96270  29.96270
 Alpha virt. eigenvalues --   32.70363  32.70363  32.96269  32.96269  33.59274
 Alpha virt. eigenvalues --   33.59274  33.70100  33.93269  33.93269  34.00271
 Alpha virt. eigenvalues --   34.00271  34.24945  34.24945  34.26538  34.26538
 Alpha virt. eigenvalues --   34.26672  34.26672  34.27177  34.27177  34.30187
 Alpha virt. eigenvalues --   34.30187  34.32409  34.38231  34.38231  34.51190
 Alpha virt. eigenvalues --   34.51190  34.64011  34.64011  34.69437  34.69437
 Alpha virt. eigenvalues --   34.71562  34.71562  34.80245  34.80245  35.04559
 Alpha virt. eigenvalues --   35.17430  35.17430  35.60663  35.81354  35.81354
 Alpha virt. eigenvalues --   36.58016  36.58016  36.59369  36.59369  36.66012
 Alpha virt. eigenvalues --   36.66012  36.81005  36.81005  36.90911  36.90911
 Alpha virt. eigenvalues --   36.94465  36.94465  37.01543  39.23307  39.23307
 Alpha virt. eigenvalues --   39.25377  39.25377  39.35342  39.35342  39.57531
 Alpha virt. eigenvalues --   39.57531  39.67408  39.70837  39.70837  41.90281
 Alpha virt. eigenvalues --   41.90281  42.07636  42.07636  42.08986  42.08986
 Alpha virt. eigenvalues --   42.48803  42.58533  42.58533  42.76775  43.08502
 Alpha virt. eigenvalues --   43.08502  43.14627  43.14627  43.32664  43.32664
 Alpha virt. eigenvalues --   43.87139  43.87139  43.93996  45.11812  46.98799
 Alpha virt. eigenvalues --   46.98799  47.28032  47.28032  47.69157  52.60649
 Alpha virt. eigenvalues --   52.60649  54.36370  61.85785  61.85785  61.86114
 Alpha virt. eigenvalues --   61.86114  61.86360  61.86360  61.86539  61.86539
 Alpha virt. eigenvalues --   61.86665  61.86665  61.86753  61.86753  61.86827
 Alpha virt. eigenvalues --   61.86827  61.86917  61.86917  61.87448  63.57264
 Alpha virt. eigenvalues --   63.57264  64.10119  64.10119  65.39210  77.16113
 Alpha virt. eigenvalues --   77.16113  77.35108  77.35108  77.75831  77.75831
 Alpha virt. eigenvalues --   77.81149  77.81149  77.93899  77.93899  77.99329
 Alpha virt. eigenvalues --   77.99329  78.01545  78.07633  78.07633  78.31383
 Alpha virt. eigenvalues --   79.31709  79.31709  79.32183  79.32183  79.32756
 Alpha virt. eigenvalues --   79.32756  79.34268  79.34268  79.37477  79.37477
 Alpha virt. eigenvalues --   79.42893  79.42893  79.45008  79.46081  79.46081
 Alpha virt. eigenvalues --   80.57864  80.57864  80.59372  80.59372  80.64292
 Alpha virt. eigenvalues --   80.64292  80.80130  80.80130  81.02072  81.03209
 Alpha virt. eigenvalues --   81.03209  89.64154  89.64154  89.65074  89.65074
 Alpha virt. eigenvalues --   89.68146  89.68146  89.74772  89.74772  89.78393
 Alpha virt. eigenvalues --   89.78393  89.80018  89.80018  89.81933 107.41510
 Alpha virt. eigenvalues --  915.73554
          Condensed to atoms (all electrons):
              1          2
     1  Zn  29.151886   0.315009
     2  O    0.315009   9.218096
 Mulliken atomic charges:
              1
     1  Zn   0.533105
     2  O   -1.533105
 Sum of Mulliken atomic charges =  -1.00000
 Mulliken charges with hydrogens summed into heavy atoms:
              1
     1  Zn   0.533105
     2  O   -1.533105
 Sum of Mulliken charges with hydrogens summed into heavy atoms =  -1.00000
          Atomic-Atomic Spin Densities.
              1          2
     1  Zn   0.790898   0.017802
     2  O    0.017802   0.173498
 Mulliken atomic spin densities:
              1
     1  Zn   0.808700
     2  O    0.191300
 Sum of Mulliken atomic spin densities =   1.00000
 Electronic spatial extent (au):  <R**2>=            138.0833
 Charge=             -1.0000 electrons
 Dipole moment (field-independent basis, Debye):
    X=              0.0000    Y=              0.0000    Z=              4.9910  Tot=              4.9910
 Quadrupole moment (field-independent basis, Debye-Ang):
   XX=            -24.5775   YY=            -24.5775   ZZ=            -40.9405
   XY=              0.0000   XZ=              0.0000   YZ=              0.0000
 Traceless Quadrupole moment (field-independent basis, Debye-Ang):
   XX=              5.4543   YY=              5.4543   ZZ=            -10.9087
   XY=              0.0000   XZ=              0.0000   YZ=              0.0000
 Octapole moment (field-independent basis, Debye-Ang**2):
  XXX=              0.0000  YYY=              0.0000  ZZZ=              9.6524  XYY=              0.0000
  XXY=              0.0000  XXZ=              2.2116  XZZ=              0.0000  YZZ=              0.0000
  YYZ=              2.2116  XYZ=              0.0000
 Hexadecapole moment (field-independent basis, Debye-Ang**3):
 XXXX=            -50.9454 YYYY=            -50.9454 ZZZZ=           -233.2745 XXXY=              0.0000
 XXXZ=              0.0000 YYYX=              0.0000 YYYZ=              0.0000 ZZZX=              0.0000
 ZZZY=              0.0000 XXYY=            -16.9818 XXZZ=            -44.1453 YYZZ=            -44.1453
 XXYZ=              0.0000 YYXZ=              0.0000 ZZXY=              0.0000
 N-N= 7.153057170465D+01 E-N=-6.882185845367D+03  KE= 2.778444966146D+03
                          Isotropic Fermi Contact Couplings
        Atom                 a.u.       MegaHertz       Gauss      10(-4) cm-1
     1  Zn(67)             1.11493     312.44351     111.48761     104.21994
     2  O(17)              0.01235      -7.48382      -2.67041      -2.49633
 --------------------------------------------------------
       Center         ----  Spin Dipole Couplings  ----
                      3XX-RR        3YY-RR        3ZZ-RR
 --------------------------------------------------------
     1   Atom       -0.487379     -0.487379      0.974758
     2   Atom       -0.211210     -0.211210      0.422419
 --------------------------------------------------------
                        XY            XZ            YZ
 --------------------------------------------------------
     1   Atom        0.000000      0.000000      0.000000
     2   Atom        0.000000      0.000000      0.000000
 --------------------------------------------------------


 ---------------------------------------------------------------------------------
              Anisotropic Spin Dipole Couplings in Principal Axis System
 ---------------------------------------------------------------------------------

       Atom             a.u.   MegaHertz   Gauss  10(-4) cm-1        Axes

              Baa    -0.4874   -16.303    -5.817    -5.438  0.0000  1.0000  0.0000
     1 Zn(67) Bbb    -0.4874   -16.303    -5.817    -5.438  1.0000  0.0000  0.0000
              Bcc     0.9748    32.606    11.635    10.876  0.0000  0.0000  1.0000
 
              Baa    -0.2112    15.283     5.453     5.098  1.0000  0.0000  0.0000
     2 O(17)  Bbb    -0.2112    15.283     5.453     5.098  0.0000  1.0000  0.0000
              Bcc     0.4224   -30.566   -10.907   -10.196  0.0000  0.0000  1.0000
 

 ---------------------------------------------------------------------------------


 Test job not archived.
 1\1\GINC-N35\SP\ROMP2-RW\Gen\O1Zn1(1-,2)\GPETERSSON\25-Jul-2013\0\\# R
 OMP2(RW) Gen GFinput Int=NoBasisTransform Int(Grid=Ultrafine) IOp(3/32
 =2,5/6=10,8/11=1,9/33=1) Maxdisk=128GB CBSextrapolate(Nmin=25,MinPop)\
 \ZnO- 2Sg\\-1,2\Zn\O,1,1.7755\\Version=EM64L-G09RevA.02\State=2-SG\HF=
 -1852.6657265\MP2=-1853.5873618\E2(CBS)=-0.9297983\CBS-Int=-0.9268353\
 OIii=4.5922011\RMSD=4.838e-12\PG=C*V [C*(O1Zn1)]\\@


 NEVER LOSE YOUR IGNORANCE, IT CAN'T BE REPLACED.
   -- ANDY CAPP
 Job cpu time:  7 days 12 hours 58 minutes 39.1 seconds.
 File lengths (MBytes):  RWF=  74015 Int=      0 D2E=      0 Chk=     29 Scr=      1
 Normal termination of Gaussian 09 at Thu Jul 25 05:25:34 2013.
